<event>
 8    1  0.2107254E+004  0.1043930E+01  0.7957747E-01            NaN
         13   -1    0    0    0    0  0.00000000000E+00  0.00000000000E+00  0.74505805969E-08  0.10566000000E+00  0.10566000000E+00 0. -1.
     999900   -1    0    0    0    0 -0.00000000000E+00 -0.00000000000E+00 -0.74505805969E-08  0.93827000000E+00  0.93827000000E+00 0. -1.
     999902    2    1    2    0    0  0.76155776912E-02  0.63278593786E-02  0.81979918123E-02  0.10310751994E+01  0.10309950635E+01 0.  0.
     999903    2    3    3    0    0 -0.18528748094E-01 -0.71951226407E-01 -0.10903340936E+00  0.13947307827E+00  0.45212406669E-01 0.  0.
         14    1    1    2    0    0 -0.76155776912E-02 -0.63278593786E-02 -0.81979918123E-02  0.12854800568E-01  0.00000000000E+00 0.  1.
     999901    1    3    3    0    0  0.26144325786E-01  0.78279085785E-01  0.11723140118E+00  0.89160212116E+00  0.88000000000E+00 0.  1.
        -11    1    4    4    0    0  0.43113345189E-02 -0.57194036677E-01 -0.88211979093E-01  0.10522052943E+00  0.51100000000E-03 0. -1.
         11    1    4    4    0    0 -0.22840082613E-01 -0.14757189730E-01 -0.20821430271E-01  0.34252548840E-01  0.51100000000E-03 0.  1.
</event>
<event>
 8    1  0.2107254E+004  0.1043930E+01  0.7957747E-01            NaN
         13   -1    0    0    0    0  0.00000000000E+00  0.00000000000E+00  0.74505805969E-08  0.10566000000E+00  0.10566000000E+00 0.  1.
     999900   -1    0    0    0    0 -0.00000000000E+00 -0.00000000000E+00 -0.74505805969E-08  0.93827000000E+00  0.93827000000E+00 0. -1.
     999902    2    1    2    0    0 -0.85297693275E-02  0.25342473287E-03  0.57180955433E-03  0.10353773305E+01  0.10353420055E+01 0.  0.
     999903    2    3    3    0    0  0.19338049986E-01 -0.17513468990E-01 -0.13489277857E+00  0.14439869302E+00  0.44432410032E-01 0.  0.
         14    1    1    2    0    0  0.85297693275E-02 -0.25342473287E-03 -0.57180955433E-03  0.85526694687E-02  0.00000000000E+00 0. -1.
     999901    1    3    3    0    0 -0.27867819314E-01  0.17766893722E-01  0.13546458813E+00  0.89097863751E+00  0.88000000000E+00 0.  1.
        -11    1    4    4    0    0 -0.10196341936E-01 -0.17722592878E-01 -0.38696384598E-01  0.43769018599E-01  0.51100000000E-03 0. -1.
         11    1    4    4    0    0  0.29534391923E-01  0.20912388877E-03 -0.96196393975E-01  0.10062967442E+00  0.51100000000E-03 0.  1.
</event>
<event>
 8    1  0.2107254E+004  0.1043930E+01  0.7957747E-01            NaN
         13   -1    0    0    0    0  0.00000000000E+00  0.00000000000E+00  0.74505805969E-08  0.10566000000E+00  0.10566000000E+00 0.  1.
     999900   -1    0    0    0    0 -0.00000000000E+00 -0.00000000000E+00 -0.74505805969E-08  0.93827000000E+00  0.93827000000E+00 0.  1.
     999902    2    1    2    0    0 -0.33334254904E-02  0.67346580251E-02 -0.11083267120E-01  0.10305394752E+01  0.10304524753E+01 0.  0.
     999903    2    3    3    0    0 -0.38323858980E-01 -0.29156016514E-01 -0.12599405159E+00  0.14165424114E+00  0.43273912821E-01 0.  0.
         14    1    1    2    0    0  0.33334254904E-02 -0.67346580251E-02  0.11083267120E-01  0.13390524795E-01  0.00000000000E+00 0.  1.
     999901    1    3    3    0    0  0.34990433489E-01  0.35890674539E-01  0.11491078447E+00  0.88888523407E+00  0.88000000000E+00 0. -1.
        -11    1    4    4    0    0 -0.41749253999E-01 -0.70647229817E-02 -0.80242912589E-01  0.90730902465E-01  0.51100000000E-03 0. -1.
         11    1    4    4    0    0  0.34253950195E-02 -0.22091293532E-01 -0.45751139000E-01  0.50923338674E-01  0.51100000000E-03 0.  1.
</event>
<event>
 8    1  0.2896139E+004  0.1043930E+01  0.7957747E-01            NaN
         13   -1    0    0    0    0  0.00000000000E+00  0.00000000000E+00  0.74505805969E-08  0.10566000000E+00  0.10566000000E+00 0.  1.
     999900   -1    0    0    0    0 -0.00000000000E+00 -0.00000000000E+00 -0.74505805969E-08  0.93827000000E+00  0.93827000000E+00 0.  1.
     999902    2    1    2    0    0 -0.90740223965E-02 -0.26640509517E-01 -0.13845558018E-02  0.10157524979E+01  0.10153615934E+01 0.  0.
     999903    2    3    3    0    0 -0.19748417134E-01  0.14579606393E-01 -0.11647669453E+00  0.12723730892E+00  0.44943826159E-01 0.  0.
         14    1    1    2    0    0  0.90740223965E-02  0.26640509517E-01  0.13845558018E-02  0.28177502099E-01  0.00000000000E+00 0.  1.
     999901    1    3    3    0    0  0.10674394738E-01 -0.41220115910E-01  0.11509213873E+00  0.88851518898E+00  0.88000000000E+00 0. -1.
        -11    1    4    4    0    0 -0.87680131853E-02  0.29756195108E-01 -0.57243615739E-01  0.65110689341E-01  0.51100000000E-03 0. -1.
         11    1    4    4    0    0 -0.10980403949E-01 -0.15176588715E-01 -0.59233078791E-01  0.62126619576E-01  0.51100000000E-03 0.  1.
</event>
<event>
 8    1  0.2107254E+004  0.1043930E+01  0.7957747E-01            NaN
         13   -1    0    0    0    0  0.00000000000E+00  0.00000000000E+00  0.74505805969E-08  0.10566000000E+00  0.10566000000E+00 0.  1.
     999900   -1    0    0    0    0 -0.00000000000E+00 -0.00000000000E+00 -0.74505805969E-08  0.93827000000E+00  0.93827000000E+00 0.  1.
     999902    2    1    2    0    0 -0.43585496553E-02  0.20750623658E-02  0.13209052778E-01  0.10298665042E+01  0.10297704766E+01 0.  0.
     999903    2    3    3    0    0 -0.83195439837E-01 -0.10126698958E+00  0.21584786283E-01  0.14027952820E+00  0.45121598438E-01 0.  0.
         14    1    1    2    0    0  0.43585496553E-02 -0.20750623658E-02 -0.13209052778E-01  0.14063495803E-01  0.00000000000E+00 0. -1.
     999901    1    3    3    0    0  0.78836890182E-01  0.10334205194E+00 -0.83757335056E-02  0.88958697600E+00  0.88000000000E+00 0.  1.
        -11    1    4    4    0    0 -0.19840198343E-01 -0.59097271202E-01  0.13074885990E-01  0.63697211073E-01  0.51100000000E-03 0. -1.
         11    1    4    4    0    0 -0.63355241494E-01 -0.42169718373E-01  0.85099002938E-02  0.76582317126E-01  0.51100000000E-03 0.  1.
</event>
<event>
 8    1  0.2107254E+004  0.1043930E+01  0.7957747E-01            NaN
         13   -1    0    0    0    0  0.00000000000E+00  0.00000000000E+00  0.74505805969E-08  0.10566000000E+00  0.10566000000E+00 0. -1.
     999900   -1    0    0    0    0 -0.00000000000E+00 -0.00000000000E+00 -0.74505805969E-08  0.93827000000E+00  0.93827000000E+00 0.  1.
     999902    2    1    2    0    0  0.78511741209E-02  0.91962442831E-02 -0.11206863958E-01  0.10274434708E+01  0.10273111895E+01 0.  0.
     999903    2    3    3    0    0 -0.10161935566E+00 -0.28495326962E-01 -0.76819527524E-01  0.13743814891E+00  0.43006137524E-01 0.  0.
         14    1    1    2    0    0 -0.78511741209E-02 -0.91962442831E-02  0.11206863958E-01  0.16486529161E-01  0.00000000000E+00 0. -1.
     999901    1    3    3    0    0  0.10947052978E+00  0.37691571245E-01  0.65612663565E-01  0.89000532192E+00  0.88000000000E+00 0.  1.
        -11    1    4    4    0    0 -0.83316236587E-01 -0.41042915288E-02 -0.54488194486E-01  0.99637668315E-01  0.51100000000E-03 0. -1.
         11    1    4    4    0    0 -0.18303119073E-01 -0.24391035433E-01 -0.22331333038E-01  0.37800480600E-01  0.51100000000E-03 0.  1.
</event>
<event>
 8    1  0.2107254E+004  0.1043930E+01  0.7957747E-01            NaN
         13   -1    0    0    0    0  0.00000000000E+00  0.00000000000E+00  0.74505805969E-08  0.10566000000E+00  0.10566000000E+00 0.  1.
     999900   -1    0    0    0    0 -0.00000000000E+00 -0.00000000000E+00 -0.74505805969E-08  0.93827000000E+00  0.93827000000E+00 0. -1.
     999902    2    1    2    0    0 -0.49133640698E-02  0.38247388308E-02  0.13003005935E-01  0.10295130677E+01  0.10294121180E+01 0.  0.
     999903    2    3    3    0    0 -0.53333509621E-01  0.11671429868E-01 -0.11913198415E+00  0.13829719225E+00  0.44192739345E-01 0.  0.
         14    1    1    2    0    0  0.49133640698E-02 -0.38247388308E-02 -0.13003005935E-01  0.14416932300E-01  0.00000000000E+00 0. -1.
     999901    1    3    3    0    0  0.48420145551E-01 -0.78466910375E-02  0.13213499009E+00  0.89121587545E+00  0.88000000000E+00 0.  1.
        -11    1    4    4    0    0 -0.37147278883E-01 -0.73816232944E-02 -0.39049666804E-01  0.54401712192E-01  0.51100000000E-03 0. -1.
         11    1    4    4    0    0 -0.16186230738E-01  0.19053053163E-01 -0.80082317350E-01  0.83895480054E-01  0.51100000000E-03 0.  1.
</event>
<event>
 8    1  0.2107254E+004  0.1043930E+01  0.7957747E-01            NaN
         13   -1    0    0    0    0  0.00000000000E+00  0.00000000000E+00  0.74505805969E-08  0.10566000000E+00  0.10566000000E+00 0. -1.
     999900   -1    0    0    0    0 -0.00000000000E+00 -0.00000000000E+00 -0.74505805969E-08  0.93827000000E+00  0.93827000000E+00 0.  1.
     999902    2    1    2    0    0 -0.66948609290E-02  0.46961776299E-02 -0.12012389060E-01  0.10293982163E+01  0.10292956402E+01 0.  0.
     999903    2    3    3    0    0  0.64506199804E-01  0.11277513070E+00 -0.26082840742E-01  0.13982043511E+00  0.44611204574E-01 0.  0.
         14    1    1    2    0    0  0.66948609290E-02 -0.46961776299E-02  0.12012389060E-01  0.14531783721E-01  0.00000000000E+00 0. -1.
     999901    1    3    3    0    0 -0.71201060733E-01 -0.10807895307E+00  0.14070451683E-01  0.88957778117E+00  0.88000000000E+00 0. -1.
        -11    1    4    4    0    0  0.22178968933E-01  0.58656287634E-01 -0.32825386494E-01  0.70783005456E-01  0.51100000000E-03 0. -1.
         11    1    4    4    0    0  0.42327230871E-01  0.54118843070E-01  0.67425457514E-02  0.69037429649E-01  0.51100000000E-03 0.  1.
</event>
<event>
 8    1  0.2107254E+004  0.1043930E+01  0.7957747E-01            NaN
         13   -1    0    0    0    0  0.00000000000E+00  0.00000000000E+00  0.74505805969E-08  0.10566000000E+00  0.10566000000E+00 0. -1.
     999900   -1    0    0    0    0 -0.00000000000E+00 -0.00000000000E+00 -0.74505805969E-08  0.93827000000E+00  0.93827000000E+00 0.  1.
     999902    2    1    2    0    0  0.46002015319E-02  0.69310260094E-02  0.11684980315E-01  0.10295863693E+01  0.10294864507E+01 0.  0.
     999903    2    3    3    0    0  0.23637070553E-01  0.52186434325E-01 -0.11832662779E+00  0.13868038518E+00  0.44146612066E-01 0.  0.
         14    1    1    2    0    0 -0.46002015319E-02 -0.69310260094E-02 -0.11684980315E-01  0.14343630664E-01  0.00000000000E+00 0. -1.
     999901    1    3    3    0    0 -0.19036869021E-01 -0.45255408315E-01  0.13001160811E+00  0.89090598416E+00  0.88000000000E+00 0. -1.
        -11    1    4    4    0    0 -0.80657111624E-02  0.35619957757E-01 -0.57890510614E-01  0.68450050601E-01  0.51100000000E-03 0.  1.
         11    1    4    4    0    0  0.31702781715E-01  0.16566476568E-01 -0.60436117178E-01  0.70230334578E-01  0.51100000000E-03 0. -1.
</event>
<event>
 7    1  0.2107254E+004  0.1043930E+01  0.7957747E-01            NaN
         13   -1    0    0    0    0  0.00000000000E+00  0.00000000000E+00  0.74505805969E-08  0.10566000000E+00  0.10566000000E+00 0. -1.
     999900   -1    0    0    0    0 -0.00000000000E+00 -0.00000000000E+00 -0.74505805969E-08  0.93827000000E+00  0.93827000000E+00 0.  1.
     999903    2    1    2    0    0 -0.57208201349E-01  0.13206880971E-01  0.96874683946E-01  0.12239058816E+00  0.46341683972E-01 0.  0.
         14    1    1    2    0    0 -0.17367927188E-01 -0.26043693770E-01 -0.14377261751E-01  0.34447416963E-01  0.00000000000E+00 0.  1.
     999901    1    1    2    0    0  0.74576128537E-01  0.12836812799E-01 -0.82497422194E-01  0.88709199488E+00  0.88000000000E+00 0. -1.
        -11    1    3    3    0    0 -0.48001496357E-01  0.28890844791E-01  0.66205320033E-01  0.86730790882E-01  0.51100000000E-03 0. -1.
         11    1    3    3    0    0 -0.92067049918E-02 -0.15683963821E-01  0.30669363912E-01  0.35659797275E-01  0.51100000000E-03 0.  1.
</event>
<event>
 8    1  0.2107254E+004  0.1043930E+01  0.7957747E-01            NaN
         13   -1    0    0    0    0  0.00000000000E+00  0.00000000000E+00  0.74505805969E-08  0.10566000000E+00  0.10566000000E+00 0. -1.
     999900   -1    0    0    0    0 -0.00000000000E+00 -0.00000000000E+00 -0.74505805969E-08  0.93827000000E+00  0.93827000000E+00 0. -1.
     999902    2    1    2    0    0 -0.99288110148E-02  0.52465345916E-02  0.47593470148E-02  0.10317333284E+01  0.10316612342E+01 0.  0.
     999903    2    3    3    0    0 -0.52121266648E-01  0.12259233401E+00  0.25239320930E-01  0.14270595580E+00  0.44524821218E-01 0.  0.
         14    1    1    2    0    0  0.99288110148E-02 -0.52465345916E-02 -0.47593470148E-02  0.12196671570E-01  0.00000000000E+00 0.  1.
     999901    1    3    3    0    0  0.42192455633E-01 -0.11734579942E+00 -0.20479973915E-01  0.88902737263E+00  0.88000000000E+00 0. -1.
        -11    1    4    4    0    0 -0.14665333986E-01  0.88779602397E-01  0.15388181807E-01  0.91290454501E-01  0.51100000000E-03 0.  1.
         11    1    4    4    0    0 -0.37455932662E-01  0.33812731614E-01  0.98511391235E-02  0.51415501299E-01  0.51100000000E-03 0. -1.
</event>
<event>
 8    1  0.2107254E+004  0.1043930E+01  0.7957747E-01            NaN
         13   -1    0    0    0    0  0.00000000000E+00  0.00000000000E+00  0.74505805969E-08  0.10566000000E+00  0.10566000000E+00 0.  1.
     999900   -1    0    0    0    0 -0.00000000000E+00 -0.00000000000E+00 -0.74505805969E-08  0.93827000000E+00  0.93827000000E+00 0. -1.
     999902    2    1    2    0    0 -0.13107600181E-01  0.53337043907E-02 -0.16163173447E-02  0.10296867536E+01  0.10295882384E+01 0.  0.
     999903    2    3    3    0    0  0.10740098002E+00  0.74608195001E-01 -0.10893809550E-01  0.13872808748E+00  0.45005043039E-01 0.  0.
         14    1    1    2    0    0  0.13107600181E-01 -0.53337043907E-02  0.16163173447E-02  0.14243246358E-01  0.00000000000E+00 0. -1.
     999901    1    3    3    0    0 -0.12050858020E+00 -0.69274490611E-01  0.92774922056E-02  0.89095866616E+00  0.88000000000E+00 0.  1.
        -11    1    4    4    0    0  0.64611472667E-01  0.68321291758E-01  0.35896826527E-03  0.94036329612E-01  0.51100000000E-03 0. -1.
         11    1    4    4    0    0  0.42789507350E-01  0.62869032435E-02 -0.11252777816E-01  0.44691757867E-01  0.51100000000E-03 0.  1.
</event>
<event>
 8    1  0.2107254E+004  0.1043930E+01  0.7957747E-01            NaN
         13   -1    0    0    0    0  0.00000000000E+00  0.00000000000E+00  0.74505805969E-08  0.10566000000E+00  0.10566000000E+00 0. -1.
     999900   -1    0    0    0    0 -0.00000000000E+00 -0.00000000000E+00 -0.74505805969E-08  0.93827000000E+00  0.93827000000E+00 0.  1.
     999902    2    1    2    0    0  0.14372681651E-03  0.76547345239E-02  0.13537607062E-01  0.10283774303E+01  0.10282598197E+01 0.  0.
     999903    2    3    3    0    0 -0.85253228201E-01 -0.19595866266E-01  0.98934771881E-01  0.13971106385E+00  0.45595848298E-01 0.  0.
         14    1    1    2    0    0 -0.14372681651E-03 -0.76547345239E-02 -0.13537607062E-01  0.15552569659E-01  0.00000000000E+00 0.  1.
     999901    1    3    3    0    0  0.85396955018E-01  0.27250600790E-01 -0.85397164819E-01  0.88866636649E+00  0.88000000000E+00 0.  1.
        -11    1    4    4    0    0 -0.16125639515E-02 -0.14066206292E-01  0.90825092442E-02  0.16828892331E-01  0.51100000000E-03 0. -1.
         11    1    4    4    0    0 -0.83640664250E-01 -0.55296599743E-02  0.89852262637E-01  0.12288217152E+00  0.51100000000E-03 0.  1.
</event>
<event>
 8    1  0.2107254E+004  0.1043930E+01  0.7957747E-01            NaN
         13   -1    0    0    0    0  0.00000000000E+00  0.00000000000E+00  0.74505805969E-08  0.10566000000E+00  0.10566000000E+00 0.  1.
     999900   -1    0    0    0    0 -0.00000000000E+00 -0.00000000000E+00 -0.74505805969E-08  0.93827000000E+00  0.93827000000E+00 0.  1.
     999902    2    1    2    0    0 -0.14026151858E-02  0.10402366496E-01  0.90896948439E-02  0.10300447881E+01  0.10299511961E+01 0.  0.
     999903    2    3    3    0    0 -0.37601668409E-01 -0.11011621851E+00 -0.57509585712E-01  0.13860182020E+00  0.48617333008E-01 0.  0.
         14    1    1    2    0    0  0.14026151858E-02 -0.10402366496E-01 -0.90896948439E-02  0.13885211933E-01  0.00000000000E+00 0. -1.
     999901    1    3    3    0    0  0.36199053223E-01  0.12051858500E+00  0.66599280556E-01  0.89144296787E+00  0.88000000000E+00 0. -1.
        -11    1    4    4    0    0 -0.21234181720E-01 -0.95785858538E-02 -0.43520471895E-02  0.23703189997E-01  0.51100000000E-03 0. -1.
         11    1    4    4    0    0 -0.16367486689E-01 -0.10053763265E+00 -0.53157538523E-01  0.11489863021E+00  0.51100000000E-03 0.  1.
</event>
<event>
 8    1  0.2107254E+004  0.1043930E+01  0.7957747E-01            NaN
         13   -1    0    0    0    0  0.00000000000E+00  0.00000000000E+00  0.74505805969E-08  0.10566000000E+00  0.10566000000E+00 0.  1.
     999900   -1    0    0    0    0 -0.00000000000E+00 -0.00000000000E+00 -0.74505805969E-08  0.93827000000E+00  0.93827000000E+00 0. -1.
     999902    2    1    2    0    0  0.63550644813E-02  0.13922156464E-02 -0.12272367097E-01  0.10300398559E+01  0.10299461970E+01 0.  0.
     999903    2    3    3    0    0 -0.91571790453E-01  0.84728910552E-01  0.41401599666E-01  0.13907657476E+00  0.45429286824E-01 0.  0.
         14    1    1    2    0    0 -0.63550644813E-02 -0.13922156464E-02  0.12272367097E-01  0.13890144100E-01  0.00000000000E+00 0.  1.
     999901    1    3    3    0    0  0.97926854934E-01 -0.83336694906E-01 -0.53673966763E-01  0.89096328114E+00  0.88000000000E+00 0.  1.
        -11    1    4    4    0    0 -0.58673324832E-01  0.45602849026E-01  0.16718787587E-02  0.74331925750E-01  0.51100000000E-03 0. -1.
         11    1    4    4    0    0 -0.32898465621E-01  0.39126061526E-01  0.39729720907E-01  0.64744649007E-01  0.51100000000E-03 0.  1.
</event>
<event>
 8    1  0.2107254E+004  0.1043930E+01  0.7957747E-01            NaN
         13   -1    0    0    0    0  0.00000000000E+00  0.00000000000E+00  0.74505805969E-08  0.10566000000E+00  0.10566000000E+00 0.  1.
     999900   -1    0    0    0    0 -0.00000000000E+00 -0.00000000000E+00 -0.74505805969E-08  0.93827000000E+00  0.93827000000E+00 0. -1.
     999902    2    1    2    0    0 -0.12360662505E-01  0.65259451675E-02 -0.77323026032E-03  0.10299310064E+01  0.10298358636E+01 0.  0.
     999903    2    3    3    0    0  0.94601895222E-01  0.56402997458E-01  0.71960887672E-01  0.13907806619E+00  0.45094594338E-01 0.  0.
         14    1    1    2    0    0  0.12360662505E-01 -0.65259451675E-02  0.77323026032E-03  0.13998993640E-01  0.00000000000E+00 0. -1.
     999901    1    3    3    0    0 -0.10696255773E+00 -0.49877052290E-01 -0.72734117932E-01  0.89085294017E+00  0.88000000000E+00 0. -1.
        -11    1    4    4    0    0  0.24923126388E-01  0.35688733498E-01  0.41874990307E-01  0.60403839794E-01  0.51100000000E-03 0. -1.
         11    1    4    4    0    0  0.69678768834E-01  0.20714263960E-01  0.30085897365E-01  0.78674226395E-01  0.51100000000E-03 0.  1.
</event>
<event>
 8    1  0.2107254E+004  0.1043930E+01  0.7957747E-01            NaN
         13   -1    0    0    0    0  0.00000000000E+00  0.00000000000E+00  0.74505805969E-08  0.10566000000E+00  0.10566000000E+00 0. -1.
     999900   -1    0    0    0    0 -0.00000000000E+00 -0.00000000000E+00 -0.74505805969E-08  0.93827000000E+00  0.93827000000E+00 0.  1.
     999902    2    1    2    0    0  0.92615220909E-02  0.10235719210E-01 -0.19313364672E-02  0.10299917146E+01  0.10298974009E+01 0.  0.
     999903    2    3    3    0    0  0.11690593024E+00 -0.28876024844E-01 -0.58072964631E-01  0.14079605023E+00  0.44161490055E-01 0.  0.
         14    1    1    2    0    0 -0.92615220909E-02 -0.10235719210E-01  0.19313364672E-02  0.13938285394E-01  0.00000000000E+00 0. -1.
     999901    1    3    3    0    0 -0.10764440815E+00  0.39111744054E-01  0.56141628164E-01  0.88919566437E+00  0.88000000000E+00 0.  1.
        -11    1    4    4    0    0  0.39514454899E-01 -0.65577136696E-02  0.23160899064E-02  0.40125068822E-01  0.51100000000E-03 0. -1.
         11    1    4    4    0    0  0.77391475341E-01 -0.22318311174E-01 -0.60389054538E-01  0.10067098141E+00  0.51100000000E-03 0.  1.
</event>
<event>
 8    1  0.2107254E+004  0.1043930E+01  0.7957747E-01            NaN
         13   -1    0    0    0    0  0.00000000000E+00  0.00000000000E+00  0.74505805969E-08  0.10566000000E+00  0.10566000000E+00 0. -1.
     999900   -1    0    0    0    0 -0.00000000000E+00 -0.00000000000E+00 -0.74505805969E-08  0.93827000000E+00  0.93827000000E+00 0.  1.
     999902    2    1    2    0    0 -0.66417285297E-02  0.79061400785E-02  0.11110070321E-01  0.10287624929E+01  0.10286506762E+01 0.  0.
     999903    2    3    3    0    0  0.88401016298E-02  0.38144480772E-01  0.12698602791E+00  0.14051630977E+00  0.45675302048E-01 0.  0.
         14    1    1    2    0    0  0.66417285297E-02 -0.79061400785E-02 -0.11110070321E-01  0.15167507090E-01  0.00000000000E+00 0. -1.
     999901    1    3    3    0    0 -0.15481830160E-01 -0.30238340693E-01 -0.11587595759E+00  0.88824618314E+00  0.88000000000E+00 0.  1.
        -11    1    4    4    0    0  0.18587710334E-01 -0.76842320053E-03  0.55566429830E-01  0.58600193641E-01  0.51100000000E-03 0. -1.
         11    1    4    4    0    0 -0.97476087041E-02  0.38912903972E-01  0.71419598080E-01  0.81916116130E-01  0.51100000000E-03 0.  1.
</event>
<event>
 8    1  0.2107254E+004  0.1043930E+01  0.7957747E-01            NaN
         13   -1    0    0    0    0  0.00000000000E+00  0.00000000000E+00  0.74505805969E-08  0.10566000000E+00  0.10566000000E+00 0. -1.
     999900   -1    0    0    0    0 -0.00000000000E+00 -0.00000000000E+00 -0.74505805969E-08  0.93827000000E+00  0.93827000000E+00 0.  1.
     999902    2    1    2    0    0  0.94689694751E-02  0.84294095930E-02  0.75522611131E-02  0.10291735446E+01  0.10290677489E+01 0.  0.
     999903    2    3    3    0    0  0.99537221202E-01 -0.41918566226E-01  0.77583611334E-01  0.14038133114E+00  0.44976402542E-01 0.  0.
         14    1    1    2    0    0 -0.94689694751E-02 -0.84294095930E-02 -0.75522611131E-02  0.14756455432E-01  0.00000000000E+00 0.  1.
     999901    1    3    3    0    0 -0.90068251727E-01  0.50347975819E-01 -0.70031350221E-01  0.88879221343E+00  0.88000000000E+00 0.  1.
        -11    1    4    4    0    0  0.67683101223E-01 -0.45450410339E-01  0.39469267265E-01  0.90580495531E-01  0.51100000000E-03 0. -1.
         11    1    4    4    0    0  0.31854119979E-01  0.35318441129E-02  0.38114344069E-01  0.49800835608E-01  0.51100000000E-03 0.  1.
</event>
<event>
 8    1  0.2107254E+004  0.1043930E+01  0.7957747E-01            NaN
         13   -1    0    0    0    0  0.00000000000E+00  0.00000000000E+00  0.74505805969E-08  0.10566000000E+00  0.10566000000E+00 0. -1.
     999900   -1    0    0    0    0 -0.00000000000E+00 -0.00000000000E+00 -0.74505805969E-08  0.93827000000E+00  0.93827000000E+00 0.  1.
     999902    2    1    2    0    0 -0.80323953203E-02  0.83495540026E-02  0.74070184211E-02  0.10301786965E+01  0.10300869130E+01 0.  0.
     999903    2    3    3    0    0 -0.97319887917E-01 -0.88277451006E-01  0.19031105772E-01  0.14032244189E+00  0.45432760975E-01 0.  0.
         14    1    1    2    0    0  0.80323953203E-02 -0.83495540026E-02 -0.74070184211E-02  0.13751303521E-01  0.00000000000E+00 0.  1.
     999901    1    3    3    0    0  0.89287492597E-01  0.96627005008E-01 -0.11624087351E-01  0.88985625459E+00  0.88000000000E+00 0.  1.
        -11    1    4    4    0    0 -0.50257951022E-01 -0.33795677871E-01 -0.12304021500E-01  0.61803394323E-01  0.51100000000E-03 0.  1.
         11    1    4    4    0    0 -0.47061936895E-01 -0.54481773135E-01  0.31335127272E-01  0.78519047564E-01  0.51100000000E-03 0. -1.
</event>
<event>
 8    1  0.2107254E+004  0.1043930E+01  0.7957747E-01            NaN
         13   -1    0    0    0    0  0.00000000000E+00  0.00000000000E+00  0.74505805969E-08  0.10566000000E+00  0.10566000000E+00 0.  1.
     999900   -1    0    0    0    0 -0.00000000000E+00 -0.00000000000E+00 -0.74505805969E-08  0.93827000000E+00  0.93827000000E+00 0.  1.
     999902    2    1    2    0    0 -0.41211731465E-02 -0.14945138559E-02 -0.13028228176E-01  0.10301840053E+01  0.10300922932E+01 0.  0.
     999903    2    3    3    0    0  0.77271329935E-01  0.95256290900E-01  0.48288211678E-01  0.13903577773E+00  0.44210595062E-01 0.  0.
         14    1    1    2    0    0  0.41211731465E-02  0.14945138559E-02  0.13028228176E-01  0.13745994659E-01  0.00000000000E+00 0.  1.
     999901    1    3    3    0    0 -0.81392503082E-01 -0.96750804756E-01 -0.61316439854E-01  0.89114822761E+00  0.88000000000E+00 0. -1.
        -11    1    4    4    0    0  0.18204731294E-02  0.56787502519E-03 -0.60227769532E-02  0.63381044238E-02  0.51100000000E-03 0.  1.
         11    1    4    4    0    0  0.75450856806E-01  0.94688415875E-01  0.54310988631E-01  0.13269767331E+00  0.51100000000E-03 0. -1.
</event>
<event>
 8    1  0.2107254E+004  0.1043930E+01  0.7957747E-01            NaN
         13   -1    0    0    0    0  0.00000000000E+00  0.00000000000E+00  0.74505805969E-08  0.10566000000E+00  0.10566000000E+00 0.  1.
     999900   -1    0    0    0    0 -0.00000000000E+00 -0.00000000000E+00 -0.74505805969E-08  0.93827000000E+00  0.93827000000E+00 0. -1.
     999902    2    1    2    0    0  0.40857370262E-03  0.89724942702E-02 -0.12968133687E-01  0.10281551758E+01  0.10280341534E+01 0.  0.
     999903    2    3    3    0    0 -0.56113329151E-01  0.35793970315E-01 -0.11458559324E+00  0.14010099666E+00  0.45480952797E-01 0.  0.
         14    1    1    2    0    0 -0.40857370262E-03 -0.89724942702E-02  0.12968133687E-01  0.15774824158E-01  0.00000000000E+00 0.  1.
     999901    1    3    3    0    0  0.56521902854E-01 -0.26821476045E-01  0.10161745955E+00  0.88805417918E+00  0.88000000000E+00 0.  1.
        -11    1    4    4    0    0 -0.22788371087E-02 -0.80677423266E-02 -0.27293125942E-01  0.28556214901E-01  0.51100000000E-03 0.  1.
         11    1    4    4    0    0 -0.53834492042E-01  0.43861712642E-01 -0.87292467297E-01  0.11154478176E+00  0.51100000000E-03 0. -1.
</event>
<event>
 8    1  0.2107254E+004  0.1043930E+01  0.7957747E-01            NaN
         13   -1    0    0    0    0  0.00000000000E+00  0.00000000000E+00  0.74505805969E-08  0.10566000000E+00  0.10566000000E+00 0.  1.
     999900   -1    0    0    0    0 -0.00000000000E+00 -0.00000000000E+00 -0.74505805969E-08  0.93827000000E+00  0.93827000000E+00 0. -1.
     999902    2    1    2    0    0 -0.28337934897E-02 -0.11790792500E-01  0.71085052922E-02  0.10298735417E+01  0.10297776109E+01 0.  0.
     999903    2    3    3    0    0 -0.69638230058E-01  0.10129464866E+00 -0.40808504769E-01  0.13883639901E+00  0.50001226933E-01 0.  0.
         14    1    1    2    0    0  0.28337934897E-02  0.11790792500E-01 -0.71085052922E-02  0.14056458331E-01  0.00000000000E+00 0. -1.
     999901    1    3    3    0    0  0.66804436568E-01 -0.11308544116E+00  0.47917010061E-01  0.89103714266E+00  0.88000000000E+00 0.  1.
        -11    1    4    4    0    0 -0.68987196369E-01  0.10431533840E+00 -0.31436892256E-01  0.12895527289E+00  0.51100000000E-03 0. -1.
         11    1    4    4    0    0 -0.65103368831E-03 -0.30206897409E-02 -0.93716125125E-02  0.98811261230E-02  0.51100000000E-03 0.  1.
</event>
<event>
 8    1  0.2107254E+004  0.1043930E+01  0.7957747E-01            NaN
         13   -1    0    0    0    0  0.00000000000E+00  0.00000000000E+00  0.74505805969E-08  0.10566000000E+00  0.10566000000E+00 0.  1.
     999900   -1    0    0    0    0 -0.00000000000E+00 -0.00000000000E+00 -0.74505805969E-08  0.93827000000E+00  0.93827000000E+00 0. -1.
     999902    2    1    2    0    0 -0.34543713679E-02 -0.14198373982E-01  0.48360825677E-02  0.10285379826E+01  0.10284228058E+01 0.  0.
     999903    2    3    3    0    0  0.12026447764E+00 -0.52630479577E-01 -0.64103053257E-02  0.13898199133E+00  0.45181743413E-01 0.  0.
         14    1    1    2    0    0  0.34543713679E-02  0.14198373982E-01 -0.48360825677E-02  0.15392017408E-01  0.00000000000E+00 0. -1.
     999901    1    3    3    0    0 -0.12371884901E+00  0.38432105594E-01  0.11246387893E-01  0.88955599126E+00  0.88000000000E+00 0.  1.
        -11    1    4    4    0    0  0.21223336801E-01  0.27410322638E-02  0.11191843617E-01  0.24154953268E-01  0.51100000000E-03 0. -1.
         11    1    4    4    0    0  0.99041140842E-01 -0.55371511840E-01 -0.17602148943E-01  0.11482703807E+00  0.51100000000E-03 0.  1.
</event>
<event>
 8    1  0.2107254E+004  0.1043930E+01  0.7957747E-01            NaN
         13   -1    0    0    0    0  0.00000000000E+00  0.00000000000E+00  0.74505805969E-08  0.10566000000E+00  0.10566000000E+00 0.  1.
     999900   -1    0    0    0    0 -0.00000000000E+00 -0.00000000000E+00 -0.74505805969E-08  0.93827000000E+00  0.93827000000E+00 0.  1.
     999902    2    1    2    0    0 -0.14140370479E-01  0.63727472002E-02  0.44585778533E-02  0.10277918185E+01  0.10276651115E+01 0.  0.
     999903    2    3    3    0    0 -0.64878260868E-01 -0.98884640370E-01 -0.55686334124E-01  0.13803294020E+00  0.44325657783E-01 0.  0.
         14    1    1    2    0    0  0.14140370479E-01 -0.63727472002E-02 -0.44585778533E-02  0.16138181453E-01  0.00000000000E+00 0.  1.
     999901    1    3    3    0    0  0.50737890389E-01  0.10525738757E+00  0.60144911977E-01  0.88975887835E+00  0.88000000000E+00 0. -1.
        -11    1    4    4    0    0 -0.28306792077E-01 -0.73073087120E-01 -0.20252199174E-01  0.80940491914E-01  0.51100000000E-03 0. -1.
         11    1    4    4    0    0 -0.36571468791E-01 -0.25811553250E-01 -0.35434134950E-01  0.57092448286E-01  0.51100000000E-03 0.  1.
</event>
<event>
 8    1  0.2107254E+004  0.1043930E+01  0.7957747E-01            NaN
         13   -1    0    0    0    0  0.00000000000E+00  0.00000000000E+00  0.74505805969E-08  0.10566000000E+00  0.10566000000E+00 0. -1.
     999900   -1    0    0    0    0 -0.00000000000E+00 -0.00000000000E+00 -0.74505805969E-08  0.93827000000E+00  0.93827000000E+00 0.  1.
     999902    2    1    2    0    0  0.14268440301E-01  0.32623051306E-02  0.65326253123E-02  0.10279017057E+01  0.10277767318E+01 0.  0.
     999903    2    3    3    0    0 -0.43129443330E-01  0.11679627374E-01  0.12347487035E+00  0.13827208785E+00  0.43319327010E-01 0.  0.
         14    1    1    2    0    0 -0.14268440301E-01 -0.32623051306E-02 -0.65326253123E-02  0.16028294259E-01  0.00000000000E+00 0.  1.
     999901    1    3    3    0    0  0.57397883632E-01 -0.84173222439E-02 -0.11694224504E+00  0.88962961789E+00  0.88000000000E+00 0.  1.
        -11    1    4    4    0    0 -0.25233364178E-02  0.19655410007E-01  0.52428118739E-01  0.56050612171E-01  0.51100000000E-03 0. -1.
         11    1    4    4    0    0 -0.40606106913E-01 -0.79757826324E-02  0.71046751609E-01  0.82221475676E-01  0.51100000000E-03 0.  1.
</event>
<event>
 8    1  0.2107254E+004  0.1043930E+01  0.7957747E-01            NaN
         13   -1    0    0    0    0  0.00000000000E+00  0.00000000000E+00  0.74505805969E-08  0.10566000000E+00  0.10566000000E+00 0.  1.
     999900   -1    0    0    0    0 -0.00000000000E+00 -0.00000000000E+00 -0.74505805969E-08  0.93827000000E+00  0.93827000000E+00 0.  1.
     999902    2    1    2    0    0  0.69557519931E-02  0.10526420554E-01 -0.46155450716E-02  0.10304952960E+01  0.10304077173E+01 0.  0.
     999903    2    3    3    0    0 -0.46015152642E-02 -0.85105855503E-01  0.10067033588E+00  0.13899980000E+00  0.43843440655E-01 0.  0.
         14    1    1    2    0    0 -0.69557519931E-02 -0.10526420554E-01  0.46155450716E-02  0.13434704008E-01  0.00000000000E+00 0. -1.
     999901    1    3    3    0    0  0.11557267257E-01  0.95632276057E-01 -0.10528588096E+00  0.89149549599E+00  0.88000000000E+00 0.  1.
        -11    1    4    4    0    0 -0.11788537184E-01 -0.83921615935E-01  0.77984930524E-01  0.11516821497E+00  0.51100000000E-03 0.  1.
         11    1    4    4    0    0  0.71870219198E-02 -0.11842395683E-02  0.22685405361E-01  0.23831585025E-01  0.51100000000E-03 0. -1.
</event>
<event>
 8    1  0.2107254E+004  0.1043930E+01  0.7957747E-01            NaN
         13   -1    0    0    0    0  0.00000000000E+00  0.00000000000E+00  0.74505805969E-08  0.10566000000E+00  0.10566000000E+00 0.  1.
     999900   -1    0    0    0    0 -0.00000000000E+00 -0.00000000000E+00 -0.74505805969E-08  0.93827000000E+00  0.93827000000E+00 0.  1.
     999902    2    1    2    0    0  0.31478645722E-02 -0.12887216739E-01 -0.20535309974E-03  0.10306623108E+01  0.10305769100E+01 0.  0.
     999903    2    3    3    0    0 -0.40297565739E-01 -0.34253046305E-01  0.12178433900E+00  0.14092892992E+00  0.47247995466E-01 0.  0.
         14    1    1    2    0    0 -0.31478645722E-02  0.12887216739E-01  0.20535309974E-03  0.13267689194E-01  0.00000000000E+00 0.  1.
     999901    1    3    3    0    0  0.43445430311E-01  0.21365829565E-01 -0.12198969210E+00  0.88973338089E+00  0.88000000000E+00 0.  1.
        -11    1    4    4    0    0 -0.15326457228E-01 -0.39028414287E-01  0.52919924246E-01  0.67519603939E-01  0.51100000000E-03 0.  1.
         11    1    4    4    0    0 -0.24971108511E-01  0.47753679827E-02  0.68864414758E-01  0.73409325978E-01  0.51100000000E-03 0. -1.
</event>
<event>
 8    1  0.2107254E+004  0.1043930E+01  0.7957747E-01            NaN
         13   -1    0    0    0    0  0.00000000000E+00  0.00000000000E+00  0.74505805969E-08  0.10566000000E+00  0.10566000000E+00 0. -1.
     999900   -1    0    0    0    0 -0.00000000000E+00 -0.00000000000E+00 -0.74505805969E-08  0.93827000000E+00  0.93827000000E+00 0. -1.
     999902    2    1    2    0    0  0.40008778971E-02 -0.12552771601E-02  0.13014258644E-01  0.10302568997E+01  0.10301661641E+01 0.  0.
     999903    2    3    3    0    0  0.76498877652E-01 -0.87029488164E-01  0.60757225747E-01  0.14183550970E+00  0.54769163216E-01 0.  0.
         14    1    1    2    0    0 -0.40008778971E-02  0.12552771601E-02 -0.13014258644E-01  0.13673100334E-01  0.00000000000E+00 0.  1.
     999901    1    3    3    0    0 -0.72497999755E-01  0.85774211003E-01 -0.47742967103E-01  0.88842138997E+00  0.88000000000E+00 0. -1.
        -11    1    4    4    0    0  0.52234732279E-02 -0.43609148327E-01  0.13640285978E-01  0.45993053964E-01  0.51100000000E-03 0.  1.
         11    1    4    4    0    0  0.71275404424E-01 -0.43420339837E-01  0.47116939769E-01  0.95842455736E-01  0.51100000000E-03 0. -1.
</event>
<event>
 8    1  0.2107254E+004  0.1043930E+01  0.7957747E-01            NaN
         13   -1    0    0    0    0  0.00000000000E+00  0.00000000000E+00  0.74505805969E-08  0.10566000000E+00  0.10566000000E+00 0.  1.
     999900   -1    0    0    0    0 -0.00000000000E+00 -0.00000000000E+00 -0.74505805969E-08  0.93827000000E+00  0.93827000000E+00 0.  1.
     999902    2    1    2    0    0 -0.27408842039E-03  0.11985284751E-01  0.63872434477E-02  0.10303462209E+01  0.10302566748E+01 0.  0.
     999903    2    3    3    0    0 -0.19718954351E-01  0.11314088543E+00 -0.68304805407E-01  0.14119524358E+00  0.45616370431E-01 0.  0.
         14    1    1    2    0    0  0.27408842039E-03 -0.11985284751E-01 -0.63872434477E-02  0.13583779072E-01  0.00000000000E+00 0. -1.
     999901    1    3    3    0    0  0.19444865930E-01 -0.10115560068E+00  0.74692048854E-01  0.88915097735E+00  0.88000000000E+00 0. -1.
        -11    1    4    4    0    0 -0.13348726502E-02  0.36544724563E-01  0.54166887237E-03  0.36576677057E-01  0.51100000000E-03 0.  1.
         11    1    4    4    0    0 -0.18384081700E-01  0.76596160866E-01 -0.68846474279E-01  0.10461856652E+00  0.51100000000E-03 0. -1.
</event>
<event>
 8    1  0.2107254E+004  0.1043930E+01  0.7957747E-01            NaN
         13   -1    0    0    0    0  0.00000000000E+00  0.00000000000E+00  0.74505805969E-08  0.10566000000E+00  0.10566000000E+00 0.  1.
     999900   -1    0    0    0    0 -0.00000000000E+00 -0.00000000000E+00 -0.74505805969E-08  0.93827000000E+00  0.93827000000E+00 0. -1.
     999902    2    1    2    0    0  0.12399690251E-01 -0.23267545479E-02  0.51473756530E-02  0.10303042310E+01  0.10302141267E+01 0.  0.
     999903    2    3    3    0    0 -0.12137949042E+00 -0.19144879152E-01  0.46309035365E-01  0.13908371915E+00  0.45828452772E-01 0.  0.
         14    1    1    2    0    0 -0.12399690251E-01  0.23267545479E-02 -0.51473756530E-02  0.13625769012E-01  0.00000000000E+00 0. -1.
     999901    1    3    3    0    0  0.13377918067E+00  0.16818124604E-01 -0.41161659712E-01  0.89122051184E+00  0.88000000000E+00 0.  1.
        -11    1    4    4    0    0 -0.10990788028E+00 -0.17427129708E-01  0.23862119305E-01  0.11381172548E+00  0.51100000000E-03 0.  1.
         11    1    4    4    0    0 -0.11471610135E-01 -0.17177494438E-02  0.22446916060E-01  0.25271993666E-01  0.51100000000E-03 0. -1.
</event>
<event>
 8    1  0.2107254E+004  0.1043930E+01  0.7957747E-01            NaN
         13   -1    0    0    0    0  0.00000000000E+00  0.00000000000E+00  0.74505805969E-08  0.10566000000E+00  0.10566000000E+00 0.  1.
     999900   -1    0    0    0    0 -0.00000000000E+00 -0.00000000000E+00 -0.74505805969E-08  0.93827000000E+00  0.93827000000E+00 0.  1.
     999902    2    1    2    0    0  0.57189760375E-02 -0.12786179030E-02 -0.12359362452E-01  0.10302517183E+01  0.10301609135E+01 0.  0.
     999903    2    3    3    0    0 -0.68330360930E-01  0.31670846331E-02  0.11144371130E+00  0.13849487381E+00  0.45629602615E-01 0.  0.
         14    1    1    2    0    0 -0.57189760375E-02  0.12786179030E-02  0.12359362452E-01  0.13678281723E-01  0.00000000000E+00 0.  1.
     999901    1    3    3    0    0  0.74049336967E-01 -0.44457025362E-02 -0.12380307375E+00  0.89175684446E+00  0.88000000000E+00 0. -1.
        -11    1    4    4    0    0 -0.62089125842E-01  0.87392100374E-02  0.61417676625E-01  0.87771438765E-01  0.51100000000E-03 0.  1.
         11    1    4    4    0    0 -0.62412350878E-02 -0.55721254043E-02  0.50026034674E-01  0.50723435049E-01  0.51100000000E-03 0. -1.
</event>
<event>
 8    1  0.2107254E+004  0.1043930E+01  0.7957747E-01            NaN
         13   -1    0    0    0    0  0.00000000000E+00  0.00000000000E+00  0.74505805969E-08  0.10566000000E+00  0.10566000000E+00 0.  1.
     999900   -1    0    0    0    0 -0.00000000000E+00 -0.00000000000E+00 -0.74505805969E-08  0.93827000000E+00  0.93827000000E+00 0.  1.
     999902    2    1    2    0    0 -0.13058983538E-02  0.10212155313E-01  0.19145629866E-02  0.10334581789E+01  0.10334051231E+01 0.  0.
     999903    2    3    3    0    0 -0.16217208995E-01  0.62397952934E-01 -0.11989575955E+00  0.14341129282E+00  0.45114336442E-01 0.  0.
         14    1    1    2    0    0  0.13058983538E-02 -0.10212155313E-01 -0.19145629866E-02  0.10471821144E-01  0.00000000000E+00 0. -1.
     999901    1    3    3    0    0  0.14911310641E-01 -0.52185797621E-01  0.12181032254E+00  0.89004688603E+00  0.88000000000E+00 0. -1.
        -11    1    4    4    0    0  0.71116734430E-03  0.15592276245E-01 -0.23911463106E-02  0.15798846134E-01  0.51100000000E-03 0. -1.
         11    1    4    4    0    0 -0.16928376339E-01  0.46805676689E-01 -0.11750461324E+00  0.12761244669E+00  0.51100000000E-03 0.  1.
</event>
<event>
 8    1  0.2107254E+004  0.1043930E+01  0.7957747E-01            NaN
         13   -1    0    0    0    0  0.00000000000E+00  0.00000000000E+00  0.74505805969E-08  0.10566000000E+00  0.10566000000E+00 0. -1.
     999900   -1    0    0    0    0 -0.00000000000E+00 -0.00000000000E+00 -0.74505805969E-08  0.93827000000E+00  0.93827000000E+00 0. -1.
     999902    2    1    2    0    0  0.21616453211E-02 -0.15977272784E-01 -0.64060453465E-02  0.10265811276E+01  0.10264345221E+01 0.  0.
     999903    2    3    3    0    0 -0.75507548281E-01  0.97564641697E-01 -0.44587467700E-01  0.13507560829E+00  0.32204479830E-01 0.  0.
         14    1    1    2    0    0 -0.21616453211E-02  0.15977272784E-01  0.64060453465E-02  0.17348872387E-01  0.00000000000E+00 0. -1.
     999901    1    3    3    0    0  0.77669193602E-01 -0.11354191448E+00  0.38181422353E-01  0.89150551933E+00  0.88000000000E+00 0.  1.
        -11    1    4    4    0    0 -0.65732986439E-01  0.93782456600E-01 -0.32457253771E-01  0.11903658730E+00  0.51100000000E-03 0.  1.
         11    1    4    4    0    0 -0.97745618412E-02  0.37821850972E-02 -0.12130213929E-01  0.16039020988E-01  0.51100000000E-03 0. -1.
</event>
<event>
 8    1  0.2107254E+004  0.1043930E+01  0.7957747E-01            NaN
         13   -1    0    0    0    0  0.00000000000E+00  0.00000000000E+00  0.74505805969E-08  0.10566000000E+00  0.10566000000E+00 0.  1.
     999900   -1    0    0    0    0 -0.00000000000E+00 -0.00000000000E+00 -0.74505805969E-08  0.93827000000E+00  0.93827000000E+00 0.  1.
     999902    2    1    2    0    0  0.12967838346E-01 -0.24404426736E-02 -0.42305496390E-02  0.10300729389E+01  0.10299797286E+01 0.  0.
     999903    2    3    3    0    0  0.65690298092E-01  0.78191726993E-01  0.84936697229E-01  0.14033589772E+00  0.45285320136E-01 0.  0.
         14    1    1    2    0    0 -0.12967838346E-01  0.24404426736E-02  0.42305496390E-02  0.13857061090E-01  0.00000000000E+00 0.  1.
     999901    1    3    3    0    0 -0.52722459746E-01 -0.80632169667E-01 -0.89167246868E-01  0.88973704119E+00  0.88000000000E+00 0. -1.
        -11    1    4    4    0    0  0.28371566075E-01  0.64543447784E-01  0.43109842693E-01  0.82640922499E-01  0.51100000000E-03 0.  1.
         11    1    4    4    0    0  0.37318732017E-01  0.13648279209E-01  0.41826854536E-01  0.57694975224E-01  0.51100000000E-03 0. -1.
</event>
<event>
 8    1  0.2107254E+004  0.1043930E+01  0.7957747E-01            NaN
         13   -1    0    0    0    0  0.00000000000E+00  0.00000000000E+00  0.74505805969E-08  0.10566000000E+00  0.10566000000E+00 0. -1.
     999900   -1    0    0    0    0 -0.00000000000E+00 -0.00000000000E+00 -0.74505805969E-08  0.93827000000E+00  0.93827000000E+00 0. -1.
     999902    2    1    2    0    0  0.13641913173E-01 -0.42357810532E-02 -0.18003408194E-02  0.10295326092E+01  0.10294319348E+01 0.  0.
     999903    2    3    3    0    0  0.88243059127E-01  0.65748879449E-02  0.99245096115E-01  0.14054870499E+00  0.45544294207E-01 0.  0.
         14    1    1    2    0    0 -0.13641913173E-01  0.42357810532E-02  0.18003408194E-02  0.14397390847E-01  0.00000000000E+00 0. -1.
     999901    1    3    3    0    0 -0.74601145954E-01 -0.10810668998E-01 -0.10104543693E+00  0.88898390417E+00  0.88000000000E+00 0. -1.
        -11    1    4    4    0    0  0.50620930643E-01  0.20137517709E-01  0.34627328249E-01  0.64554714942E-01  0.51100000000E-03 0.  1.
         11    1    4    4    0    0  0.37622128484E-01 -0.13562629764E-01  0.64617767866E-01  0.75993990044E-01  0.51100000000E-03 0. -1.
</event>
<event>
 8    1  0.2107254E+004  0.1043930E+01  0.7957747E-01            NaN
         13   -1    0    0    0    0  0.00000000000E+00  0.00000000000E+00  0.74505805969E-08  0.10566000000E+00  0.10566000000E+00 0. -1.
     999900   -1    0    0    0    0 -0.00000000000E+00 -0.00000000000E+00 -0.74505805969E-08  0.93827000000E+00  0.93827000000E+00 0. -1.
     999902    2    1    2    0    0  0.13961592032E-01 -0.55242493015E-02 -0.48169760321E-03  0.10289075030E+01  0.10287978297E+01 0.  0.
     999903    2    3    3    0    0  0.83179999002E-01  0.22530437546E-01  0.10077573816E+00  0.13995794225E+00  0.44787758911E-01 0.  0.
         14    1    1    2    0    0 -0.13961592032E-01  0.55242493015E-02  0.48169760321E-03  0.15022496963E-01  0.00000000000E+00 0. -1.
     999901    1    3    3    0    0 -0.69218406969E-01 -0.28054686847E-01 -0.10125743576E+00  0.88894956078E+00  0.88000000000E+00 0. -1.
        -11    1    4    4    0    0  0.76690827683E-01  0.32783053842E-01  0.95278566762E-01  0.12662731962E+00  0.51100000000E-03 0. -1.
         11    1    4    4    0    0  0.64891713183E-02 -0.10252616297E-01  0.54971713996E-02  0.13330622631E-01  0.51100000000E-03 0.  1.
</event>
<event>
 8    1  0.2107254E+004  0.1043930E+01  0.7957747E-01            NaN
         13   -1    0    0    0    0  0.00000000000E+00  0.00000000000E+00  0.74505805969E-08  0.10566000000E+00  0.10566000000E+00 0. -1.
     999900   -1    0    0    0    0 -0.00000000000E+00 -0.00000000000E+00 -0.74505805969E-08  0.93827000000E+00  0.93827000000E+00 0.  1.
     999902    2    1    2    0    0  0.19006184265E-02 -0.13049082221E-01  0.74685583053E-03  0.10307220974E+01  0.10306374694E+01 0.  0.
     999903    2    3    3    0    0  0.17226178657E-01 -0.13373558520E+00 -0.61339520144E-02  0.14232609882E+00  0.45134743349E-01 0.  0.
         14    1    1    2    0    0 -0.19006184265E-02  0.13049082221E-01 -0.74685583053E-03  0.13207902591E-01  0.00000000000E+00 0.  1.
     999901    1    3    3    0    0 -0.15325560230E-01  0.12068650298E+00  0.68808078450E-02  0.88839599859E+00  0.88000000000E+00 0.  1.
        -11    1    4    4    0    0  0.81927694705E-02 -0.44068645875E-01  0.19117544544E-01  0.48733034497E-01  0.51100000000E-03 0.  1.
         11    1    4    4    0    0  0.90334091863E-02 -0.89666939325E-01 -0.25251496558E-01  0.93593064320E-01  0.51100000000E-03 0. -1.
</event>
<event>
 8    1  0.2107254E+004  0.1043930E+01  0.7957747E-01            NaN
         13   -1    0    0    0    0  0.00000000000E+00  0.00000000000E+00  0.74505805969E-08  0.10566000000E+00  0.10566000000E+00 0.  1.
     999900   -1    0    0    0    0 -0.00000000000E+00 -0.00000000000E+00 -0.74505805969E-08  0.93827000000E+00  0.93827000000E+00 0. -1.
     999902    2    1    2    0    0 -0.13577344824E-01  0.22526371898E-02 -0.59517869469E-02  0.10289352531E+01  0.10288259875E+01 0.  0.
     999903    2    3    3    0    0 -0.23343401786E-01 -0.10823223317E-01 -0.12984098567E+00  0.14010743650E+00  0.45927721848E-01 0.  0.
         14    1    1    2    0    0  0.13577344824E-01 -0.22526371898E-02  0.59517869469E-02  0.14994746902E-01  0.00000000000E+00 0.  1.
     999901    1    3    3    0    0  0.97660569616E-02  0.13075860507E-01  0.12388919872E+00  0.88882781660E+00  0.88000000000E+00 0.  1.
        -11    1    4    4    0    0 -0.14233569277E-01  0.80708562192E-02 -0.11006148625E+00  0.11127230154E+00  0.51100000000E-03 0.  1.
         11    1    4    4    0    0 -0.91098325087E-02 -0.18894079536E-01 -0.19779499420E-01  0.28835134960E-01  0.51100000000E-03 0. -1.
</event>
<event>
 8    1  0.2107254E+004  0.1043930E+01  0.7957747E-01            NaN
         13   -1    0    0    0    0  0.00000000000E+00  0.00000000000E+00  0.74505805969E-08  0.10566000000E+00  0.10566000000E+00 0.  1.
     999900   -1    0    0    0    0 -0.00000000000E+00 -0.00000000000E+00 -0.74505805969E-08  0.93827000000E+00  0.93827000000E+00 0. -1.
     999902    2    1    2    0    0 -0.11646042424E-01 -0.66543071125E-02  0.18620478279E-02  0.10303883114E+01  0.10302993230E+01 0.  0.
     999903    2    3    3    0    0  0.11957267053E+00 -0.22466861957E-01 -0.50243098420E-01  0.13899427185E+00  0.44639167171E-01 0.  0.
         14    1    1    2    0    0  0.11646042424E-01  0.66543071125E-02 -0.18620478279E-02  0.13541688573E-01  0.00000000000E+00 0. -1.
     999901    1    3    3    0    0 -0.13121871295E+00  0.15812554845E-01  0.52105146248E-01  0.89139403957E+00  0.88000000000E+00 0. -1.
        -11    1    4    4    0    0  0.11380843162E+00 -0.89394650709E-02 -0.39592956953E-01  0.12083102460E+00  0.51100000000E-03 0. -1.
         11    1    4    4    0    0  0.57642389101E-02 -0.13527396886E-01 -0.10650141466E-01  0.18163247259E-01  0.51100000000E-03 0.  1.
</event>
<event>
 8    1  0.2107254E+004  0.1043930E+01  0.7957747E-01            NaN
         13   -1    0    0    0    0  0.00000000000E+00  0.00000000000E+00  0.74505805969E-08  0.10566000000E+00  0.10566000000E+00 0.  1.
     999900   -1    0    0    0    0 -0.00000000000E+00 -0.00000000000E+00 -0.74505805969E-08  0.93827000000E+00  0.93827000000E+00 0. -1.
     999902    2    1    2    0    0  0.12432248999E-01 -0.66256637898E-02  0.15391839138E-02  0.10297585737E+01  0.10296610563E+01 0.  0.
     999903    2    3    3    0    0  0.55844209373E-01  0.11966949874E+00  0.19825944017E-02  0.13968258651E+00  0.45474494450E-01 0.  0.
         14    1    1    2    0    0 -0.12432248999E-01  0.66256637898E-02 -0.15391839138E-02  0.14171426285E-01  0.00000000000E+00 0. -1.
     999901    1    3    3    0    0 -0.43411960374E-01 -0.12629516253E+00 -0.44341048786E-03  0.89007598720E+00  0.88000000000E+00 0.  1.
        -11    1    4    4    0    0  0.60538427684E-01  0.11552614803E+00  0.84051714148E-02  0.13069850853E+00  0.51100000000E-03 0.  1.
         11    1    4    4    0    0 -0.46942183111E-02  0.41433507058E-02 -0.64225770131E-02  0.89840779779E-02  0.51100000000E-03 0. -1.
</event>
<event>
 8    1  0.2107254E+004  0.1043930E+01  0.7957747E-01            NaN
         13   -1    0    0    0    0  0.00000000000E+00  0.00000000000E+00  0.74505805969E-08  0.10566000000E+00  0.10566000000E+00 0. -1.
     999900   -1    0    0    0    0 -0.00000000000E+00 -0.00000000000E+00 -0.74505805969E-08  0.93827000000E+00  0.93827000000E+00 0. -1.
     999902    2    1    2    0    0 -0.77824822686E-02  0.34696154996E-02  0.11591507835E-01  0.10295436066E+01  0.10294430871E+01 0.  0.
     999903    2    3    3    0    0 -0.13028388285E+00  0.22761245828E-01  0.17462641933E-01  0.14082923718E+00  0.45121677051E-01 0.  0.
         14    1    1    2    0    0  0.77824822686E-02 -0.34696154996E-02 -0.11591507835E-01  0.14386393428E-01  0.00000000000E+00 0.  1.
     999901    1    3    3    0    0  0.12250140058E+00 -0.19291630328E-01 -0.58711340974E-02  0.88871436939E+00  0.88000000000E+00 0.  1.
        -11    1    4    4    0    0 -0.12222126353E+00  0.78960620897E-02  0.18558222241E-01  0.12387515404E+00  0.51100000000E-03 0.  1.
         11    1    4    4    0    0 -0.80626193197E-02  0.14865183738E-01 -0.10955803082E-02  0.16954083139E-01  0.51100000000E-03 0. -1.
</event>
<event>
 8    1  0.2107254E+004  0.1043930E+01  0.7957747E-01            NaN
         13   -1    0    0    0    0  0.00000000000E+00  0.00000000000E+00  0.74505805969E-08  0.10566000000E+00  0.10566000000E+00 0. -1.
     999900   -1    0    0    0    0 -0.00000000000E+00 -0.00000000000E+00 -0.74505805969E-08  0.93827000000E+00  0.93827000000E+00 0.  1.
     999902    2    1    2    0    0 -0.10609187362E-01 -0.61671154611E-02 -0.62136069507E-02  0.10301751070E+01  0.10300832753E+01 0.  0.
     999903    2    3    3    0    0  0.44415668248E-01  0.11994858400E+00 -0.31319959602E-01  0.13912896156E+00  0.44894472796E-01 0.  0.
         14    1    1    2    0    0  0.10609187362E-01  0.61671154611E-02  0.62136069507E-02  0.13754892982E-01  0.00000000000E+00 0.  1.
     999901    1    3    3    0    0 -0.55024855611E-01 -0.12611569946E+00  0.25106352651E-01  0.89104614545E+00  0.88000000000E+00 0. -1.
        -11    1    4    4    0    0  0.96281866087E-02  0.68849223916E-01 -0.33712263072E-01  0.77263804033E-01  0.51100000000E-03 0.  1.
         11    1    4    4    0    0  0.34787481640E-01  0.51099360081E-01  0.23923034696E-02  0.61865157532E-01  0.51100000000E-03 0. -1.
</event>
<event>
 8    1  0.2107254E+004  0.1043930E+01  0.7957747E-01            NaN
         13   -1    0    0    0    0  0.00000000000E+00  0.00000000000E+00  0.74505805969E-08  0.10566000000E+00  0.10566000000E+00 0.  1.
     999900   -1    0    0    0    0 -0.00000000000E+00 -0.00000000000E+00 -0.74505805969E-08  0.93827000000E+00  0.93827000000E+00 0. -1.
     999902    2    1    2    0    0 -0.98538262668E-02 -0.22475974201E-02 -0.88324122217E-02  0.10305075899E+01  0.10304201725E+01 0.  0.
     999903    2    3    3    0    0  0.17160843759E-01 -0.12049469047E+00  0.50812673282E-01  0.14018758924E+00  0.47509656089E-01 0.  0.
         14    1    1    2    0    0  0.98538262668E-02  0.22475974201E-02  0.88324122217E-02  0.13422410064E-01  0.00000000000E+00 0.  1.
     999901    1    3    3    0    0 -0.27014670025E-01  0.11824709305E+00 -0.59645085504E-01  0.89032000069E+00  0.88000000000E+00 0.  1.
        -11    1    4    4    0    0 -0.48513457502E-02 -0.51000651702E-01 -0.16358622470E-03  0.51233679461E-01  0.51100000000E-03 0. -1.
         11    1    4    4    0    0  0.22012189509E-01 -0.69494038767E-01  0.50976259507E-01  0.88953909782E-01  0.51100000000E-03 0.  1.
</event>
<event>
 8    1  0.2107254E+004  0.1043930E+01  0.7957747E-01            NaN
         13   -1    0    0    0    0  0.00000000000E+00  0.00000000000E+00  0.74505805969E-08  0.10566000000E+00  0.10566000000E+00 0.  1.
     999900   -1    0    0    0    0 -0.00000000000E+00 -0.00000000000E+00 -0.74505805969E-08  0.93827000000E+00  0.93827000000E+00 0.  1.
     999902    2    1    2    0    0 -0.13846552500E-02  0.10443156928E-01  0.66392403910E-02  0.10314778392E+01  0.10314026742E+01 0.  0.
     999903    2    3    3    0    0  0.29679643506E-01 -0.12868140073E+00  0.11930244156E-01  0.13999108775E+00  0.44893092936E-01 0.  0.
         14    1    1    2    0    0  0.13846552500E-02 -0.10443156928E-01 -0.66392403910E-02  0.12452160846E-01  0.00000000000E+00 0. -1.
     999901    1    3    3    0    0 -0.31064298756E-01  0.13912455765E+00 -0.52910037648E-02  0.89148675140E+00  0.88000000000E+00 0.  1.
        -11    1    4    4    0    0  0.20467662025E-01 -0.26578300261E-01 -0.10288403462E-01  0.35091930701E-01  0.51100000000E-03 0.  1.
         11    1    4    4    0    0  0.92119814816E-02 -0.10210310047E+00  0.22218647618E-01  0.10489915705E+00  0.51100000000E-03 0. -1.
</event>
<event>
 8    1  0.2107254E+004  0.1043930E+01  0.7957747E-01            NaN
         13   -1    0    0    0    0  0.00000000000E+00  0.00000000000E+00  0.74505805969E-08  0.10566000000E+00  0.10566000000E+00 0. -1.
     999900   -1    0    0    0    0 -0.00000000000E+00 -0.00000000000E+00 -0.74505805969E-08  0.93827000000E+00  0.93827000000E+00 0.  1.
     999902    2    1    2    0    0 -0.39174347699E-02 -0.87535775624E-03 -0.13144622027E-01  0.10301861419E+01  0.10300944585E+01 0.  0.
     999903    2    3    3    0    0 -0.30289565555E-01  0.79142487380E-01 -0.10384380166E+00  0.14152158992E+00  0.45429441759E-01 0.  0.
         14    1    1    2    0    0  0.39174347699E-02  0.87535775624E-03  0.13144622027E-01  0.13743858069E-01  0.00000000000E+00 0. -1.
     999901    1    3    3    0    0  0.26372130785E-01 -0.80017845136E-01  0.90699179635E-01  0.88866455202E+00  0.88000000000E+00 0. -1.
        -11    1    4    4    0    0 -0.40503915912E-01  0.69476838028E-01 -0.77674127273E-01  0.11180844957E+00  0.51100000000E-03 0.  1.
         11    1    4    4    0    0  0.10214350357E-01  0.96656493516E-02 -0.26169674389E-01  0.29713140346E-01  0.51100000000E-03 0. -1.
</event>
<event>
 8    1  0.2107254E+004  0.1043930E+01  0.7957747E-01            NaN
         13   -1    0    0    0    0  0.00000000000E+00  0.00000000000E+00  0.74505805969E-08  0.10566000000E+00  0.10566000000E+00 0.  1.
     999900   -1    0    0    0    0 -0.00000000000E+00 -0.00000000000E+00 -0.74505805969E-08  0.93827000000E+00  0.93827000000E+00 0.  1.
     999902    2    1    2    0    0  0.54807213611E-02 -0.88022182078E-02  0.87530801795E-02  0.10303604103E+01  0.10302710524E+01 0.  0.
     999903    2    3    3    0    0 -0.13084012877E+00 -0.19947643183E-01 -0.43425378722E-02  0.13969824657E+00  0.44493760175E-01 0.  0.
         14    1    1    2    0    0 -0.54807213611E-02  0.88022182078E-02 -0.87530801795E-02  0.13569589701E-01  0.00000000000E+00 0. -1.
     999901    1    3    3    0    0  0.13632085014E+00  0.11145424975E-01  0.13095618052E-01  0.89066216373E+00  0.88000000000E+00 0. -1.
        -11    1    4    4    0    0 -0.59465525161E-01 -0.77200845606E-02  0.20135312588E-01  0.63256938926E-01  0.51100000000E-03 0. -1.
         11    1    4    4    0    0 -0.71374603614E-01 -0.12227558622E-01 -0.24477850460E-01  0.76441307648E-01  0.51100000000E-03 0.  1.
</event>
<event>
 8    1  0.2107254E+004  0.1043930E+01  0.7957747E-01            NaN
         13   -1    0    0    0    0  0.00000000000E+00  0.00000000000E+00  0.74505805969E-08  0.10566000000E+00  0.10566000000E+00 0.  1.
     999900   -1    0    0    0    0 -0.00000000000E+00 -0.00000000000E+00 -0.74505805969E-08  0.93827000000E+00  0.93827000000E+00 0.  1.
     999902    2    1    2    0    0  0.84614977619E-02  0.69836726109E-02  0.94436341899E-02  0.10294541286E+01  0.10293523459E+01 0.  0.
     999903    2    3    3    0    0 -0.11929104222E+00  0.52074564993E-01  0.18544492634E-01  0.13904033392E+00  0.45234977361E-01 0.  0.
         14    1    1    2    0    0 -0.84614977619E-02 -0.69836726109E-02 -0.94436341899E-02  0.14475871450E-01  0.00000000000E+00 0. -1.
     999901    1    3    3    0    0  0.12775253998E+00 -0.45090892382E-01 -0.91008584444E-02  0.89041379463E+00  0.88000000000E+00 0.  1.
        -11    1    4    4    0    0 -0.98447198426E-01  0.43566364974E-01  0.32611631786E-01  0.11248848245E+00  0.51100000000E-03 0. -1.
         11    1    4    4    0    0 -0.20843843791E-01  0.85082000195E-02 -0.14067139152E-01  0.26551851470E-01  0.51100000000E-03 0.  1.
</event>
<event>
 8    1  0.2107254E+004  0.1043930E+01  0.7957747E-01            NaN
         13   -1    0    0    0    0  0.00000000000E+00  0.00000000000E+00  0.74505805969E-08  0.10566000000E+00  0.10566000000E+00 0.  1.
     999900   -1    0    0    0    0 -0.00000000000E+00 -0.00000000000E+00 -0.74505805969E-08  0.93827000000E+00  0.93827000000E+00 0. -1.
     999902    2    1    2    0    0 -0.15707017011E-02  0.13745012255E-01 -0.34689758986E-02  0.10296672422E+01  0.10295684550E+01 0.  0.
     999903    2    3    3    0    0  0.10265838073E+00  0.78987583834E-01 -0.31044422587E-01  0.14068990841E+00  0.45300249658E-01 0.  0.
         14    1    1    2    0    0  0.15707017011E-02 -0.13745012255E-01  0.34689758986E-02  0.14262757781E-01  0.00000000000E+00 0.  1.
     999901    1    3    3    0    0 -0.10422908244E+00 -0.65242571579E-01  0.27575446688E-01  0.88897733381E+00  0.88000000000E+00 0.  1.
        -11    1    4    4    0    0  0.15541022134E-01  0.66392338261E-03  0.76130965239E-02  0.17325833974E-01  0.51100000000E-03 0.  1.
         11    1    4    4    0    0  0.87117358600E-01  0.78323660451E-01 -0.38657519110E-01  0.12336407443E+00  0.51100000000E-03 0. -1.
</event>
<event>
 8    1  0.2107254E+004  0.1043930E+01  0.7957747E-01            NaN
         13   -1    0    0    0    0  0.00000000000E+00  0.00000000000E+00  0.74505805969E-08  0.10566000000E+00  0.10566000000E+00 0. -1.
     999900   -1    0    0    0    0 -0.00000000000E+00 -0.00000000000E+00 -0.74505805969E-08  0.93827000000E+00  0.93827000000E+00 0.  1.
     999902    2    1    2    0    0 -0.38290815101E-02 -0.19456307771E-01 -0.73132278682E-02  0.10227948852E+01  0.10225764930E+01 0.  0.
     999903    2    3    3    0    0 -0.80930110672E-01 -0.62909121994E-01  0.73905070563E-01  0.13463435476E+00  0.46445770360E-01 0.  0.
         14    1    1    2    0    0  0.38290815101E-02  0.19456307771E-01  0.73132278682E-02  0.21135114836E-01  0.00000000000E+00 0.  1.
     999901    1    3    3    0    0  0.77101029162E-01  0.43452814223E-01 -0.81218298431E-01  0.88816053040E+00  0.88000000000E+00 0. -1.
        -11    1    4    4    0    0 -0.54625673993E-01 -0.36501011851E-01  0.19222737561E-01  0.68454823684E-01  0.51100000000E-03 0.  1.
         11    1    4    4    0    0 -0.26304436679E-01 -0.26408110143E-01  0.54682333002E-01  0.66179531079E-01  0.51100000000E-03 0. -1.
</event>
<event>
 8    1  0.2107254E+004  0.1043930E+01  0.7957747E-01            NaN
         13   -1    0    0    0    0  0.00000000000E+00  0.00000000000E+00  0.74505805969E-08  0.10566000000E+00  0.10566000000E+00 0.  1.
     999900   -1    0    0    0    0 -0.00000000000E+00 -0.00000000000E+00 -0.74505805969E-08  0.93827000000E+00  0.93827000000E+00 0. -1.
     999902    2    1    2    0    0  0.10255452215E-02  0.77936986688E-02  0.11837034875E-01  0.10297205357E+01  0.10296224904E+01 0.  0.
     999903    2    3    3    0    0  0.20324498174E-01  0.93002417330E-01  0.94565044085E-01  0.14153311241E+00  0.45017102209E-01 0.  0.
         14    1    1    2    0    0 -0.10255452215E-02 -0.77936986688E-02 -0.11837034875E-01  0.14209464331E-01  0.00000000000E+00 0. -1.
     999901    1    3    3    0    0 -0.19298952952E-01 -0.85208718661E-01 -0.82728009210E-01  0.88818742326E+00  0.88000000000E+00 0. -1.
        -11    1    4    4    0    0  0.19012990921E-01  0.76023737934E-01  0.47878819996E-01  0.91835423876E-01  0.51100000000E-03 0. -1.
         11    1    4    4    0    0  0.13115072532E-02  0.16978679396E-01  0.46686224089E-01  0.49697688538E-01  0.51100000000E-03 0.  1.
</event>
<event>
 8    1  0.2107254E+004  0.1043930E+01  0.7957747E-01            NaN
         13   -1    0    0    0    0  0.00000000000E+00  0.00000000000E+00  0.74505805969E-08  0.10566000000E+00  0.10566000000E+00 0.  1.
     999900   -1    0    0    0    0 -0.00000000000E+00 -0.00000000000E+00 -0.74505805969E-08  0.93827000000E+00  0.93827000000E+00 0.  1.
     999902    2    1    2    0    0  0.52299791425E-02  0.13081416390E-01 -0.74851739004E-03  0.10298219734E+01  0.10297253325E+01 0.  0.
     999903    2    3    3    0    0  0.41858749390E-01 -0.58765585627E-01 -0.11379013452E+00  0.13893361579E+00  0.33894039677E-01 0.  0.
         14    1    1    2    0    0 -0.52299791425E-02 -0.13081416390E-01  0.74851739004E-03  0.14108026612E-01  0.00000000000E+00 0. -1.
     999901    1    3    3    0    0 -0.36628770247E-01  0.71847002016E-01  0.11304161713E+00  0.89088835760E+00  0.88000000000E+00 0. -1.
        -11    1    4    4    0    0  0.24066918794E-01 -0.13109876098E-01 -0.23078546069E-01  0.35832469092E-01  0.51100000000E-03 0. -1.
         11    1    4    4    0    0  0.17791830596E-01 -0.45655709529E-01 -0.90711588455E-01  0.10310114669E+00  0.51100000000E-03 0.  1.
</event>
<event>
 8    1  0.2107254E+004  0.1043930E+01  0.7957747E-01            NaN
         13   -1    0    0    0    0  0.00000000000E+00  0.00000000000E+00  0.74505805969E-08  0.10566000000E+00  0.10566000000E+00 0. -1.
     999900   -1    0    0    0    0 -0.00000000000E+00 -0.00000000000E+00 -0.74505805969E-08  0.93827000000E+00  0.93827000000E+00 0. -1.
     999902    2    1    2    0    0  0.72192230275E-02 -0.51090442114E-02 -0.12545283576E-01  0.10285806139E+01  0.10284660790E+01 0.  0.
     999903    2    3    3    0    0 -0.11395366744E+00 -0.39232059030E-01  0.48337157507E-01  0.13753969387E+00  0.45344170680E-01 0.  0.
         14    1    1    2    0    0 -0.72192230275E-02  0.51090442114E-02  0.12545283576E-01  0.15349386108E-01  0.00000000000E+00 0.  1.
     999901    1    3    3    0    0  0.12117289047E+00  0.34123014819E-01 -0.60882441083E-01  0.89104092002E+00  0.88000000000E+00 0. -1.
        -11    1    4    4    0    0 -0.42319331422E-01 -0.37332059584E-01  0.28282639082E-01  0.63125092311E-01  0.51100000000E-03 0.  1.
         11    1    4    4    0    0 -0.71634336018E-01 -0.18999994457E-02  0.20054518425E-01  0.74414601557E-01  0.51100000000E-03 0. -1.
</event>
<event>
 8    1  0.2107254E+004  0.1043930E+01  0.7957747E-01            NaN
         13   -1    0    0    0    0  0.00000000000E+00  0.00000000000E+00  0.74505805969E-08  0.10566000000E+00  0.10566000000E+00 0.  1.
     999900   -1    0    0    0    0 -0.00000000000E+00 -0.00000000000E+00 -0.74505805969E-08  0.93827000000E+00  0.93827000000E+00 0. -1.
     999902    2    1    2    0    0 -0.14823759734E-01  0.38012422616E-02  0.60253617319E-02  0.10274831681E+01  0.10273515282E+01 0.  0.
     999903    2    3    3    0    0 -0.64115369218E-02  0.77677556878E-01 -0.10394510245E+00  0.13752700157E+00  0.45101897866E-01 0.  0.
         14    1    1    2    0    0  0.14823759734E-01 -0.38012422616E-02 -0.60253617319E-02  0.16446831895E-01  0.00000000000E+00 0. -1.
     999901    1    3    3    0    0 -0.84122228126E-02 -0.73876314616E-01  0.10997046418E+00  0.88995616653E+00  0.88000000000E+00 0.  1.
        -11    1    4    4    0    0  0.49905465082E-02  0.59969004755E-01 -0.45626881155E-01  0.75519934392E-01  0.51100000000E-03 0. -1.
         11    1    4    4    0    0 -0.11402083430E-01  0.17708552123E-01 -0.58318221292E-01  0.62007067182E-01  0.51100000000E-03 0.  1.
</event>
<event>
 8    1  0.2107254E+004  0.1043930E+01  0.7957747E-01            NaN
         13   -1    0    0    0    0  0.00000000000E+00  0.00000000000E+00  0.74505805969E-08  0.10566000000E+00  0.10566000000E+00 0.  1.
     999900   -1    0    0    0    0 -0.00000000000E+00 -0.00000000000E+00 -0.74505805969E-08  0.93827000000E+00  0.93827000000E+00 0. -1.
     999902    2    1    2    0    0 -0.54054232047E-02 -0.10405224801E-01  0.71879014252E-02  0.10301767011E+01  0.10300848908E+01 0.  0.
     999903    2    3    3    0    0  0.96461042068E-01  0.24410079015E-01  0.87888182147E-01  0.13995121427E+00  0.44287980542E-01 0.  0.
         14    1    1    2    0    0  0.54054232047E-02  0.10405224801E-01 -0.71879014252E-02  0.13753298880E-01  0.00000000000E+00 0.  1.
     999901    1    3    3    0    0 -0.10186646527E+00 -0.34815303816E-01 -0.80700280722E-01  0.89022548685E+00  0.88000000000E+00 0. -1.
        -11    1    4    4    0    0  0.78546882768E-01  0.21792725018E-01  0.44357231711E-01  0.92802805897E-01  0.51100000000E-03 0.  1.
         11    1    4    4    0    0  0.17914159300E-01  0.26173539973E-02  0.43530950436E-01  0.47148408374E-01  0.51100000000E-03 0. -1.
</event>
<event>
 8    1  0.2107254E+004  0.1043930E+01  0.7957747E-01            NaN
         13   -1    0    0    0    0  0.00000000000E+00  0.00000000000E+00  0.74505805969E-08  0.10566000000E+00  0.10566000000E+00 0.  1.
     999900   -1    0    0    0    0 -0.00000000000E+00 -0.00000000000E+00 -0.74505805969E-08  0.93827000000E+00  0.93827000000E+00 0. -1.
     999902    2    1    2    0    0 -0.91304149085E-02 -0.77220018406E-02 -0.56596240148E-02  0.10307002935E+01  0.10306153841E+01 0.  0.
     999903    2    3    3    0    0 -0.13708989980E-01  0.57041267877E-01  0.11853894376E+00  0.13961077577E+00  0.44699495261E-01 0.  0.
         14    1    1    2    0    0  0.91304149085E-02  0.77220018406E-02  0.56596240148E-02  0.13229706452E-01  0.00000000000E+00 0.  1.
     999901    1    3    3    0    0  0.45785750713E-02 -0.64763269718E-01 -0.12419856777E+00  0.89108951778E+00  0.88000000000E+00 0. -1.
        -11    1    4    4    0    0  0.86430348368E-02  0.39680627245E-01  0.44006007771E-01  0.59883587658E-01  0.51100000000E-03 0. -1.
         11    1    4    4    0    0 -0.22352024817E-01  0.17360640632E-01  0.74532935987E-01  0.79727188113E-01  0.51100000000E-03 0.  1.
</event>
<event>
 8    1  0.2107254E+004  0.1043930E+01  0.7957747E-01            NaN
         13   -1    0    0    0    0  0.00000000000E+00  0.00000000000E+00  0.74505805969E-08  0.10566000000E+00  0.10566000000E+00 0. -1.
     999900   -1    0    0    0    0 -0.00000000000E+00 -0.00000000000E+00 -0.74505805969E-08  0.93827000000E+00  0.93827000000E+00 0. -1.
     999902    2    1    2    0    0  0.88907278954E-02  0.28595031546E-02  0.11818994024E-01  0.10288664539E+01  0.10287561760E+01 0.  0.
     999903    2    3    3    0    0 -0.12540079560E+00 -0.28614956818E-01 -0.21280623262E-01  0.13750769361E+00  0.43718709789E-01 0.  0.
         14    1    1    2    0    0 -0.88907278954E-02 -0.28595031546E-02 -0.11818994024E-01  0.15063546081E-01  0.00000000000E+00 0.  1.
     999901    1    3    3    0    0  0.13429152349E+00  0.31474459973E-01  0.33099617285E-01  0.89135876031E+00  0.88000000000E+00 0.  1.
        -11    1    4    4    0    0 -0.34871522317E-01  0.87100069195E-02 -0.16267921297E-01  0.39456224776E-01  0.51100000000E-03 0.  1.
         11    1    4    4    0    0 -0.90529273281E-01 -0.37324963738E-01 -0.50127019648E-02  0.98051468835E-01  0.51100000000E-03 0. -1.
</event>
<event>
 8    1  0.2107254E+004  0.1043930E+01  0.7957747E-01            NaN
         13   -1    0    0    0    0  0.00000000000E+00  0.00000000000E+00  0.74505805969E-08  0.10566000000E+00  0.10566000000E+00 0.  1.
     999900   -1    0    0    0    0 -0.00000000000E+00 -0.00000000000E+00 -0.74505805969E-08  0.93827000000E+00  0.93827000000E+00 0. -1.
     999902    2    1    2    0    0  0.12883566928E-02  0.16423841060E-01  0.60490969701E-02  0.10263802424E+01  0.10262301925E+01 0.  0.
     999903    2    3    3    0    0 -0.27458400965E-01 -0.38093381325E-01  0.12024145932E+00  0.13686441946E+00  0.45483967404E-01 0.  0.
         14    1    1    2    0    0 -0.12883566928E-02 -0.16423841060E-01 -0.60490969701E-02  0.17549757614E-01  0.00000000000E+00 0. -1.
     999901    1    3    3    0    0  0.28746757658E-01  0.54517222386E-01 -0.11419236235E+00  0.88951582292E+00  0.88000000000E+00 0. -1.
        -11    1    4    4    0    0 -0.21973482159E-02  0.10412257514E-01  0.18127532648E-01  0.21026459679E-01  0.51100000000E-03 0.  1.
         11    1    4    4    0    0 -0.25261052749E-01 -0.48505638840E-01  0.10211392667E+00  0.11583795978E+00  0.51100000000E-03 0. -1.
</event>
<event>
 8    1  0.2107254E+004  0.1043930E+01  0.7957747E-01            NaN
         13   -1    0    0    0    0  0.00000000000E+00  0.00000000000E+00  0.74505805969E-08  0.10566000000E+00  0.10566000000E+00 0.  1.
     999900   -1    0    0    0    0 -0.00000000000E+00 -0.00000000000E+00 -0.74505805969E-08  0.93827000000E+00  0.93827000000E+00 0.  1.
     999902    2    1    2    0    0  0.96910931703E-02  0.64460019583E-02  0.81883566741E-02  0.10296991387E+01  0.10296007959E+01 0.  0.
     999903    2    3    3    0    0 -0.93435866702E-01  0.67592271683E-01 -0.61774980346E-01  0.13881816760E+00  0.46425844975E-01 0.  0.
         14    1    1    2    0    0 -0.96910931703E-02 -0.64460019583E-02 -0.81883566741E-02  0.14230861292E-01  0.00000000000E+00 0. -1.
     999901    1    3    3    0    0  0.10312695987E+00 -0.61146269725E-01  0.69963337020E-01  0.89088097111E+00  0.88000000000E+00 0. -1.
        -11    1    4    4    0    0 -0.41662859782E-01  0.17571444978E-01 -0.20307152109E-02  0.45265157562E-01  0.51100000000E-03 0. -1.
         11    1    4    4    0    0 -0.51773006920E-01  0.50020826705E-01 -0.59744265135E-01  0.93553010039E-01  0.51100000000E-03 0.  1.
</event>
<event>
 8    1  0.2107254E+004  0.1043930E+01  0.7957747E-01            NaN
         13   -1    0    0    0    0  0.00000000000E+00  0.00000000000E+00  0.74505805969E-08  0.10566000000E+00  0.10566000000E+00 0.  1.
     999900   -1    0    0    0    0 -0.00000000000E+00 -0.00000000000E+00 -0.74505805969E-08  0.93827000000E+00  0.93827000000E+00 0. -1.
     999902    2    1    2    0    0  0.10761900053E-01  0.81282638599E-02 -0.16055584901E-03  0.10304424893E+01  0.10303542162E+01 0.  0.
     999903    2    3    3    0    0  0.17586797521E-01 -0.29671799919E-01  0.12825422076E+00  0.14029318786E+00  0.45203122233E-01 0.  0.
         14    1    1    2    0    0 -0.10761900053E-01 -0.81282638599E-02  0.16055584901E-03  0.13487510679E-01  0.00000000000E+00 0. -1.
     999901    1    3    3    0    0 -0.68248974683E-02  0.37800063779E-01 -0.12841477661E+00  0.89014930146E+00  0.88000000000E+00 0. -1.
        -11    1    4    4    0    0  0.20931899460E-01 -0.16599705359E-01  0.26449796664E-01  0.37597174063E-01  0.51100000000E-03 0. -1.
         11    1    4    4    0    0 -0.33451019389E-02 -0.13072094561E-01  0.10180442409E+00  0.10269601379E+00  0.51100000000E-03 0.  1.
</event>
<event>
 8    1  0.2107254E+004  0.1043930E+01  0.7957747E-01            NaN
         13   -1    0    0    0    0  0.00000000000E+00  0.00000000000E+00  0.74505805969E-08  0.10566000000E+00  0.10566000000E+00 0. -1.
     999900   -1    0    0    0    0 -0.00000000000E+00 -0.00000000000E+00 -0.74505805969E-08  0.93827000000E+00  0.93827000000E+00 0.  1.
     999902    2    1    2    0    0 -0.18454101454E-01  0.36261415912E-03  0.74256399721E-02  0.10240346368E+01  0.10238413509E+01 0.  0.
     999903    2    3    3    0    0  0.56638634024E-01 -0.59687749127E-01  0.96361473479E-01  0.13434112350E+00  0.44625571507E-01 0.  0.
         14    1    1    2    0    0  0.18454101454E-01 -0.36261415912E-03 -0.74256399721E-02  0.19895363241E-01  0.00000000000E+00 0.  1.
     999901    1    3    3    0    0 -0.75092735478E-01  0.60050363287E-01 -0.88935833507E-01  0.88969351326E+00  0.88000000000E+00 0.  1.
        -11    1    4    4    0    0  0.43090678788E-02 -0.35110001884E-01  0.42795447602E-01  0.55524694999E-01  0.51100000000E-03 0.  1.
         11    1    4    4    0    0  0.52329566145E-01 -0.24577747244E-01  0.53566025876E-01  0.78816428501E-01  0.51100000000E-03 0. -1.
</event>
<event>
 8    1  0.2107254E+004  0.1043930E+01  0.7957747E-01            NaN
         13   -1    0    0    0    0  0.00000000000E+00  0.00000000000E+00  0.74505805969E-08  0.10566000000E+00  0.10566000000E+00 0.  1.
     999900   -1    0    0    0    0 -0.00000000000E+00 -0.00000000000E+00 -0.74505805969E-08  0.93827000000E+00  0.93827000000E+00 0.  1.
     999902    2    1    2    0    0  0.13954733114E-01 -0.82324860043E-02 -0.16642957925E-02  0.10276426343E+01  0.10275135549E+01 0.  0.
     999903    2    3    3    0    0 -0.74237274083E-02  0.85860084269E-02 -0.12994679840E+00  0.13792565634E+00  0.44816124261E-01 0.  0.
         14    1    1    2    0    0 -0.13954733114E-01  0.82324860043E-02  0.16642957925E-02  0.16287365735E-01  0.00000000000E+00 0. -1.
     999901    1    3    3    0    0  0.21378460522E-01 -0.16818494431E-01  0.12828250261E+00  0.88971697792E+00  0.88000000000E+00 0. -1.
        -11    1    4    4    0    0  0.14532312514E-02 -0.17385421451E-01 -0.67337112426E-01  0.69562292882E-01  0.51100000000E-03 0.  1.
         11    1    4    4    0    0 -0.88769586597E-02  0.25971429877E-01 -0.62609685973E-01  0.68363363460E-01  0.51100000000E-03 0. -1.
</event>
<event>
 7    1  0.2107254E+004  0.1043930E+01  0.7957747E-01            NaN
         13   -1    0    0    0    0  0.00000000000E+00  0.00000000000E+00  0.74505805969E-08  0.10566000000E+00  0.10566000000E+00 0. -1.
     999900   -1    0    0    0    0 -0.00000000000E+00 -0.00000000000E+00 -0.74505805969E-08  0.93827000000E+00  0.93827000000E+00 0. -1.
     999903    2    1    2    0    0  0.52560878468E-01  0.68449111669E-01  0.83641152638E-01  0.12823092439E+00  0.44714658905E-01 0.  0.
         14    1    1    2    0    0 -0.28178351816E-01 -0.52500010874E-02 -0.85294928200E-02  0.29905422088E-01  0.00000000000E+00 0. -1.
     999901    1    1    2    0    0 -0.24382526653E-01 -0.63199110581E-01 -0.75111659818E-01  0.88579365352E+00  0.88000000000E+00 0. -1.
        -11    1    3    3    0    0  0.32128616146E-01  0.57048875547E-01  0.34978741413E-01  0.74233386347E-01  0.51100000000E-03 0. -1.
         11    1    3    3    0    0  0.20432262322E-01  0.11400236122E-01  0.48662411225E-01  0.53997538041E-01  0.51100000000E-03 0.  1.
</event>
<event>
 8    1  0.2107254E+004  0.1043930E+01  0.7957747E-01            NaN
         13   -1    0    0    0    0  0.00000000000E+00  0.00000000000E+00  0.74505805969E-08  0.10566000000E+00  0.10566000000E+00 0. -1.
     999900   -1    0    0    0    0 -0.00000000000E+00 -0.00000000000E+00 -0.74505805969E-08  0.93827000000E+00  0.93827000000E+00 0.  1.
     999902    2    1    2    0    0 -0.42097067565E-02 -0.24693474109E-02 -0.12895584702E-01  0.10301417654E+01  0.10300494850E+01 0.  0.
     999903    2    3    3    0    0  0.43326295706E-01  0.93545791205E-01 -0.86101663323E-01  0.14062633088E+00  0.41644754252E-01 0.  0.
         14    1    1    2    0    0  0.42097067565E-02  0.24693474109E-02  0.12895584702E-01  0.13788234565E-01  0.00000000000E+00 0. -1.
     999901    1    3    3    0    0 -0.47536002462E-01 -0.96015138616E-01  0.73206078621E-01  0.88951543456E+00  0.88000000000E+00 0. -1.
        -11    1    4    4    0    0  0.39158650070E-01  0.73128137369E-01 -0.44599213270E-01  0.94183200708E-01  0.51100000000E-03 0.  1.
         11    1    4    4    0    0  0.41676456360E-02  0.20417653836E-01 -0.41502450053E-01  0.46443130167E-01  0.51100000000E-03 0. -1.
</event>
<event>
 8    1  0.2107254E+004  0.1043930E+01  0.7957747E-01            NaN
         13   -1    0    0    0    0  0.00000000000E+00  0.00000000000E+00  0.74505805969E-08  0.10566000000E+00  0.10566000000E+00 0. -1.
     999900   -1    0    0    0    0 -0.00000000000E+00 -0.00000000000E+00 -0.74505805969E-08  0.93827000000E+00  0.93827000000E+00 0. -1.
     999902    2    1    2    0    0 -0.62363104792E-02  0.10461305445E-01 -0.64401956014E-02  0.10301529684E+01  0.10300608388E+01 0.  0.
     999903    2    3    3    0    0 -0.80298821597E-02 -0.12471902780E+00  0.33314514259E-01  0.13894178336E+00  0.50750836459E-01 0.  0.
         14    1    1    2    0    0  0.62363104792E-02 -0.10461305445E-01  0.64401956014E-02  0.13777031589E-01  0.00000000000E+00 0.  1.
     999901    1    3    3    0    0  0.17935716805E-02  0.13518033325E+00 -0.39754709861E-01  0.89121118505E+00  0.88000000000E+00 0. -1.
        -11    1    4    4    0    0 -0.29549595687E-01 -0.66757764086E-01  0.19963822736E-01  0.75687469308E-01  0.51100000000E-03 0.  1.
         11    1    4    4    0    0  0.21519713527E-01 -0.57961263714E-01  0.13350691524E-01  0.63254314057E-01  0.51100000000E-03 0. -1.
</event>
<event>
 8    1  0.2107254E+004  0.1043930E+01  0.7957747E-01            NaN
         13   -1    0    0    0    0  0.00000000000E+00  0.00000000000E+00  0.74505805969E-08  0.10566000000E+00  0.10566000000E+00 0. -1.
     999900   -1    0    0    0    0 -0.00000000000E+00 -0.00000000000E+00 -0.74505805969E-08  0.93827000000E+00  0.93827000000E+00 0.  1.
     999902    2    1    2    0    0 -0.10858252528E-01  0.37296489060E-02  0.99914469141E-02  0.10287102451E+01  0.10285976509E+01 0.  0.
     999903    2    3    3    0    0  0.66031099063E-01 -0.84212432690E-01 -0.72779978721E-01  0.13714034258E+00  0.45372991951E-01 0.  0.
         14    1    1    2    0    0  0.10858252528E-01 -0.37296489060E-02 -0.99914469141E-02  0.15219754937E-01  0.00000000000E+00 0.  1.
     999901    1    3    3    0    0 -0.76889351591E-01  0.87942081596E-01  0.82771425635E-01  0.89156990248E+00  0.88000000000E+00 0. -1.
        -11    1    4    4    0    0  0.10462208094E-01 -0.45617685992E-01 -0.41692145654E-01  0.62681155092E-01  0.51100000000E-03 0. -1.
         11    1    4    4    0    0  0.55568890969E-01 -0.38594746698E-01 -0.31087833067E-01  0.74459187492E-01  0.51100000000E-03 0.  1.
</event>
<event>
 8    1  0.2107254E+004  0.1043930E+01  0.7957747E-01            NaN
         13   -1    0    0    0    0  0.00000000000E+00  0.00000000000E+00  0.74505805969E-08  0.10566000000E+00  0.10566000000E+00 0.  1.
     999900   -1    0    0    0    0 -0.00000000000E+00 -0.00000000000E+00 -0.74505805969E-08  0.93827000000E+00  0.93827000000E+00 0. -1.
     999902    2    1    2    0    0  0.66680476215E-02  0.92214018412E-02  0.75780594917E-02  0.10302579813E+01  0.10301672601E+01 0.  0.
     999903    2    3    3    0    0 -0.14150235549E-01  0.36186286380E-01 -0.12690595577E+00  0.13938960923E+00  0.42598885687E-01 0.  0.
         14    1    1    2    0    0 -0.66680476215E-02 -0.92214018412E-02 -0.75780594917E-02  0.13672018748E-01  0.00000000000E+00 0. -1.
     999901    1    3    3    0    0  0.20818283170E-01 -0.26964884539E-01  0.13448401526E+00  0.89086837202E+00  0.88000000000E+00 0.  1.
        -11    1    4    4    0    0 -0.22222778322E-01  0.13821500998E-01 -0.10049887731E+00  0.10385167898E+00  0.51100000000E-03 0. -1.
         11    1    4    4    0    0  0.80725427733E-02  0.22364785382E-01 -0.26407078463E-01  0.35537930243E-01  0.51100000000E-03 0.  1.
</event>
<event>
 7    1  0.2107254E+004  0.1043930E+01  0.7957747E-01            NaN
         13   -1    0    0    0    0  0.00000000000E+00  0.00000000000E+00  0.74505805969E-08  0.10566000000E+00  0.10566000000E+00 0. -1.
     999900   -1    0    0    0    0 -0.00000000000E+00 -0.00000000000E+00 -0.74505805969E-08  0.93827000000E+00  0.93827000000E+00 0.  1.
     999903    2    1    2    0    0 -0.28634803403E-01 -0.65881042455E-01 -0.93440232728E-01  0.12613492634E+00  0.44929709892E-01 0.  0.
         14    1    1    2    0    0  0.27390741902E-01 -0.11204595899E-01  0.49239851131E-02  0.30000689002E-01  0.00000000000E+00 0. -1.
     999901    1    1    2    0    0  0.12440615002E-02  0.77085638354E-01  0.88516247614E-01  0.88779438465E+00  0.88000000000E+00 0. -1.
        -11    1    3    3    0    0 -0.23452499644E-01 -0.51856622859E-01 -0.95358545789E-01  0.11105243108E+00  0.51100000000E-03 0. -1.
         11    1    3    3    0    0 -0.51823037590E-02 -0.14024419597E-01  0.19183130616E-02  0.15082495260E-01  0.51100000000E-03 0.  1.
</event>
<event>
 8    1  0.2107254E+004  0.1043930E+01  0.7957747E-01            NaN
         13   -1    0    0    0    0  0.00000000000E+00  0.00000000000E+00  0.74505805969E-08  0.10566000000E+00  0.10566000000E+00 0. -1.
     999900   -1    0    0    0    0 -0.00000000000E+00 -0.00000000000E+00 -0.74505805969E-08  0.93827000000E+00  0.93827000000E+00 0.  1.
     999902    2    1    2    0    0  0.89916515695E-02  0.84805331310E-02  0.47233103614E-02  0.10306982616E+01  0.10306133259E+01 0.  0.
     999903    2    3    3    0    0  0.10482362924E+00 -0.70924496073E-01  0.44551444508E-01  0.14104933822E+00  0.43494910213E-01 0.  0.
         14    1    1    2    0    0 -0.89916515695E-02 -0.84805331310E-02 -0.47233103614E-02  0.13231738393E-01  0.00000000000E+00 0.  1.
     999901    1    3    3    0    0 -0.95831977674E-01  0.79405029204E-01 -0.39828134146E-01  0.88964892338E+00  0.88000000000E+00 0.  1.
        -11    1    4    4    0    0  0.40871402577E-01 -0.16309539209E-01  0.35347813858E-01  0.56446449696E-01  0.51100000000E-03 0.  1.
         11    1    4    4    0    0  0.63952226667E-01 -0.54614956864E-01  0.92036306501E-02  0.84602888527E-01  0.51100000000E-03 0. -1.
</event>
<event>
 8    1  0.2107254E+004  0.1043930E+01  0.7957747E-01            NaN
         13   -1    0    0    0    0  0.00000000000E+00  0.00000000000E+00  0.74505805969E-08  0.10566000000E+00  0.10566000000E+00 0. -1.
     999900   -1    0    0    0    0 -0.00000000000E+00 -0.00000000000E+00 -0.74505805969E-08  0.93827000000E+00  0.93827000000E+00 0.  1.
     999902    2    1    2    0    0  0.35353703886E-02  0.14745749205E-01  0.92181332316E-03  0.10287383673E+01  0.10286261919E+01 0.  0.
     999903    2    3    3    0    0 -0.85214816417E-01 -0.95272047117E-01 -0.21102050258E-01  0.13718603475E+00  0.45126308355E-01 0.  0.
         14    1    1    2    0    0 -0.35353703886E-02 -0.14745749205E-01 -0.92181332316E-03  0.15191632671E-01  0.00000000000E+00 0.  1.
     999901    1    3    3    0    0  0.88750186805E-01  0.11001779632E+00  0.22023863581E-01  0.89155233258E+00  0.88000000000E+00 0.  1.
        -11    1    4    4    0    0 -0.27857827526E-01 -0.11495669495E-01 -0.19006907333E-01  0.35633307719E-01  0.51100000000E-03 0.  1.
         11    1    4    4    0    0 -0.57356988891E-01 -0.83776377622E-01 -0.20951429244E-02  0.10155272703E+00  0.51100000000E-03 0. -1.
</event>
<event>
 8    1  0.2107254E+004  0.1043930E+01  0.7957747E-01            NaN
         13   -1    0    0    0    0  0.00000000000E+00  0.00000000000E+00  0.74505805969E-08  0.10566000000E+00  0.10566000000E+00 0.  1.
     999900   -1    0    0    0    0 -0.00000000000E+00 -0.00000000000E+00 -0.74505805969E-08  0.93827000000E+00  0.93827000000E+00 0. -1.
     999902    2    1    2    0    0  0.66254157006E-02  0.10786442849E-01 -0.68185416283E-02  0.10295516833E+01  0.10294512774E+01 0.  0.
     999903    2    3    3    0    0  0.96727647407E-01 -0.10425339412E-01 -0.91581759890E-01  0.14064608926E+00  0.43922411185E-01 0.  0.
         14    1    1    2    0    0 -0.66254157006E-02 -0.10786442849E-01  0.68185416283E-02  0.14378316747E-01  0.00000000000E+00 0.  1.
     999901    1    3    3    0    0 -0.90102231706E-01  0.21211782261E-01  0.84763218262E-01  0.88890559399E+00  0.88000000000E+00 0. -1.
        -11    1    4    4    0    0  0.68038498530E-01 -0.19053420467E-01 -0.40545834133E-01  0.81464691126E-01  0.51100000000E-03 0.  1.
         11    1    4    4    0    0  0.28689148877E-01  0.86280810551E-02 -0.51035925757E-01  0.59181398132E-01  0.51100000000E-03 0. -1.
</event>
<event>
 8    1  0.2107254E+004  0.1043930E+01  0.7957747E-01            NaN
         13   -1    0    0    0    0  0.00000000000E+00  0.00000000000E+00  0.74505805969E-08  0.10566000000E+00  0.10566000000E+00 0. -1.
     999900   -1    0    0    0    0 -0.00000000000E+00 -0.00000000000E+00 -0.74505805969E-08  0.93827000000E+00  0.93827000000E+00 0. -1.
     999902    2    1    2    0    0  0.97617100975E-02 -0.81795234534E-02 -0.14418160426E-03  0.10311935807E+01  0.10311149230E+01 0.  0.
     999903    2    3    3    0    0  0.12542800559E+00  0.48552201245E-01  0.40822966006E-02  0.14180331563E+00  0.44743874958E-01 0.  0.
         14    1    1    2    0    0 -0.97617100975E-02  0.81795234534E-02  0.14418160426E-03  0.12736419288E-01  0.00000000000E+00 0.  1.
     999901    1    3    3    0    0 -0.11566629549E+00 -0.56731724699E-01 -0.42264782048E-02  0.88939026508E+00  0.88000000000E+00 0. -1.
        -11    1    4    4    0    0  0.68272301248E-01  0.49640660397E-01 -0.90428567730E-03  0.84417895828E-01  0.51100000000E-03 0.  1.
         11    1    4    4    0    0  0.57155704343E-01 -0.10884591517E-02  0.49865822779E-02  0.57385419804E-01  0.51100000000E-03 0. -1.
</event>
<event>
 8    1  0.2107254E+004  0.1043930E+01  0.7957747E-01            NaN
         13   -1    0    0    0    0  0.00000000000E+00  0.00000000000E+00  0.74505805969E-08  0.10566000000E+00  0.10566000000E+00 0.  1.
     999900   -1    0    0    0    0 -0.00000000000E+00 -0.00000000000E+00 -0.74505805969E-08  0.93827000000E+00  0.93827000000E+00 0. -1.
     999902    2    1    2    0    0  0.86223770504E-02 -0.54104078072E-03 -0.10154771164E-01  0.10305974275E+01  0.10305111839E+01 0.  0.
     999903    2    3    3    0    0  0.13220662810E+00 -0.90215011911E-02  0.20357087776E-01  0.14139781055E+00  0.44932725363E-01 0.  0.
         14    1    1    2    0    0 -0.86223770504E-02  0.54104078072E-03  0.10154771164E-01  0.13332572464E-01  0.00000000000E+00 0. -1.
     999901    1    3    3    0    0 -0.12358425105E+00  0.84804604104E-02 -0.30511858939E-01  0.88919961699E+00  0.88000000000E+00 0. -1.
        -11    1    4    4    0    0  0.92394965228E-01 -0.26926237958E-01  0.12662600636E-01  0.97069328142E-01  0.51100000000E-03 0. -1.
         11    1    4    4    0    0  0.39811662868E-01  0.17904736767E-01  0.76944871394E-02  0.44328482406E-01  0.51100000000E-03 0.  1.
</event>
<event>
 8    1  0.2107254E+004  0.1043930E+01  0.7957747E-01            NaN
         13   -1    0    0    0    0  0.00000000000E+00  0.00000000000E+00  0.74505805969E-08  0.10566000000E+00  0.10566000000E+00 0. -1.
     999900   -1    0    0    0    0 -0.00000000000E+00 -0.00000000000E+00 -0.74505805969E-08  0.93827000000E+00  0.93827000000E+00 0. -1.
     999902    2    1    2    0    0  0.14051319420E-01  0.12480525244E-02  0.87081677025E-03  0.10297965102E+01  0.10296995177E+01 0.  0.
     999903    2    3    3    0    0 -0.11647731054E+00  0.53622135756E-01  0.24510449850E-01  0.13831482216E+00  0.45693878833E-01 0.  0.
         14    1    1    2    0    0 -0.14051319420E-01 -0.12480525244E-02 -0.87081677025E-03  0.14133489817E-01  0.00000000000E+00 0. -1.
     999901    1    3    3    0    0  0.13052862996E+00 -0.52374083232E-01 -0.23639633079E-01  0.89148168803E+00  0.88000000000E+00 0.  1.
        -11    1    4    4    0    0 -0.16374498253E-01 -0.24862799410E-02 -0.88800054626E-02  0.18799505286E-01  0.51100000000E-03 0. -1.
         11    1    4    4    0    0 -0.10010281229E+00  0.56108415697E-01  0.33390455312E-01  0.11951531687E+00  0.51100000000E-03 0.  1.
</event>
<event>
 8    1  0.2107254E+004  0.1043930E+01  0.7957747E-01            NaN
         13   -1    0    0    0    0  0.00000000000E+00  0.00000000000E+00  0.74505805969E-08  0.10566000000E+00  0.10566000000E+00 0.  1.
     999900   -1    0    0    0    0 -0.00000000000E+00 -0.00000000000E+00 -0.74505805969E-08  0.93827000000E+00  0.93827000000E+00 0. -1.
     999902    2    1    2    0    0 -0.20758727003E-02 -0.13645519522E-01  0.22852791667E-02  0.10299395764E+01  0.10298445510E+01 0.  0.
     999903    2    3    3    0    0 -0.79950535825E-01 -0.27698926448E-01 -0.99668639380E-01  0.14052597023E+00  0.51520791225E-01 0.  0.
         14    1    1    2    0    0  0.20758727003E-02  0.13645519522E-01 -0.22852791667E-02  0.13990423560E-01  0.00000000000E+00 0.  1.
     999901    1    3    3    0    0  0.77874663125E-01  0.14053406925E-01  0.10195391855E+00  0.88941360621E+00  0.88000000000E+00 0.  1.
        -11    1    4    4    0    0 -0.46750657092E-01 -0.29200852281E-02 -0.20421595525E-01  0.51102382734E-01  0.51100000000E-03 0.  1.
         11    1    4    4    0    0 -0.33199878733E-01 -0.24778841220E-01 -0.79247043856E-01  0.89423587497E-01  0.51100000000E-03 0. -1.
</event>
<event>
 8    1  0.2107254E+004  0.1043930E+01  0.7957747E-01            NaN
         13   -1    0    0    0    0  0.00000000000E+00  0.00000000000E+00  0.74505805969E-08  0.10566000000E+00  0.10566000000E+00 0.  1.
     999900   -1    0    0    0    0 -0.00000000000E+00 -0.00000000000E+00 -0.74505805969E-08  0.93827000000E+00  0.93827000000E+00 0. -1.
     999902    2    1    2    0    0 -0.10290526697E-01  0.93280279956E-02  0.13650388361E-03  0.10300402311E+01  0.10299465773E+01 0.  0.
     999903    2    3    3    0    0 -0.99073571343E-01  0.52703842893E-01 -0.73724438818E-01  0.14143495926E+00  0.44444203534E-01 0.  0.
         14    1    1    2    0    0  0.10290526697E-01 -0.93280279956E-02 -0.13650388361E-03  0.13889768871E-01  0.00000000000E+00 0.  1.
     999901    1    3    3    0    0  0.88783044646E-01 -0.43375814897E-01  0.73860942702E-01  0.88860527187E+00  0.88000000000E+00 0.  1.
        -11    1    4    4    0    0 -0.67427465420E-01  0.41702014936E-01 -0.26628523484E-01  0.83635282786E-01  0.51100000000E-03 0.  1.
         11    1    4    4    0    0 -0.31646105923E-01  0.11001827957E-01 -0.47095915334E-01  0.57799676475E-01  0.51100000000E-03 0. -1.
</event>
<event>
 8    1  0.2107254E+004  0.1043930E+01  0.7957747E-01            NaN
         13   -1    0    0    0    0  0.00000000000E+00  0.00000000000E+00  0.74505805969E-08  0.10566000000E+00  0.10566000000E+00 0. -1.
     999900   -1    0    0    0    0 -0.00000000000E+00 -0.00000000000E+00 -0.74505805969E-08  0.93827000000E+00  0.93827000000E+00 0.  1.
     999902    2    1    2    0    0 -0.21349457775E-02 -0.10653032894E-01  0.91685633725E-02  0.10297135427E+01  0.10296154002E+01 0.  0.
     999903    2    3    3    0    0 -0.12567415109E+00  0.14674104519E-01  0.39779615832E-01  0.14019657511E+00  0.45424005104E-01 0.  0.
         14    1    1    2    0    0  0.21349457775E-02  0.10653032894E-01 -0.91685633725E-02  0.14216457281E-01  0.00000000000E+00 0.  1.
     999901    1    3    3    0    0  0.12353920531E+00 -0.25327137413E-01 -0.30611052459E-01  0.88951696761E+00  0.88000000000E+00 0. -1.
        -11    1    4    4    0    0 -0.36456184561E-01 -0.16296361577E-01  0.13689133204E-01  0.42217037820E-01  0.51100000000E-03 0. -1.
         11    1    4    4    0    0 -0.89217966530E-01  0.30970466096E-01  0.26090482628E-01  0.97979537286E-01  0.51100000000E-03 0.  1.
</event>
<event>
 8    1  0.2107254E+004  0.1043930E+01  0.7957747E-01            NaN
         13   -1    0    0    0    0  0.00000000000E+00  0.00000000000E+00  0.74505805969E-08  0.10566000000E+00  0.10566000000E+00 0.  1.
     999900   -1    0    0    0    0 -0.00000000000E+00 -0.00000000000E+00 -0.74505805969E-08  0.93827000000E+00  0.93827000000E+00 0.  1.
     999902    2    1    2    0    0 -0.71959012930E-02  0.34914941408E-02 -0.11978499253E-01  0.10295266681E+01  0.10294259100E+01 0.  0.
     999903    2    3    3    0    0 -0.11036109985E+00 -0.22300982698E-01  0.68454698410E-01  0.13948295602E+00  0.45744323098E-01 0.  0.
         14    1    1    2    0    0  0.71959012930E-02 -0.34914941408E-02  0.11978499253E-01  0.14403331944E-01  0.00000000000E+00 0.  1.
     999901    1    3    3    0    0  0.10316519855E+00  0.25792476838E-01 -0.80433197663E-01  0.89004371204E+00  0.88000000000E+00 0.  1.
        -11    1    4    4    0    0 -0.21818741157E-01 -0.23692449495E-01  0.11548581223E-01  0.34220176475E-01  0.51100000000E-03 0.  1.
         11    1    4    4    0    0 -0.88542358690E-01  0.13914667970E-02  0.56906117188E-01  0.10526277954E+00  0.51100000000E-03 0. -1.
</event>
<event>
 8    1  0.2107254E+004  0.1043930E+01  0.7957747E-01            NaN
         13   -1    0    0    0    0  0.00000000000E+00  0.00000000000E+00  0.74505805969E-08  0.10566000000E+00  0.10566000000E+00 0.  1.
     999900   -1    0    0    0    0 -0.00000000000E+00 -0.00000000000E+00 -0.74505805969E-08  0.93827000000E+00  0.93827000000E+00 0. -1.
     999902    2    1    2    0    0  0.12183677548E-01 -0.48510666836E-02  0.45876069944E-02  0.10300368008E+01  0.10299431004E+01 0.  0.
     999903    2    3    3    0    0  0.67823305665E-01  0.10912574184E+00  0.33856628592E-01  0.14046209525E+00  0.45551076604E-01 0.  0.
         14    1    1    2    0    0 -0.12183677548E-01  0.48510666836E-02 -0.45876069944E-02  0.13893199218E-01  0.00000000000E+00 0.  1.
     999901    1    3    3    0    0 -0.55639628117E-01 -0.11397680852E+00 -0.29269021598E-01  0.88957470553E+00  0.88000000000E+00 0. -1.
        -11    1    4    4    0    0  0.38677097615E-01  0.97514527851E-01  0.27427862814E-01  0.10843223599E+00  0.51100000000E-03 0.  1.
         11    1    4    4    0    0  0.29146208050E-01  0.11611213985E-01  0.64287657787E-02  0.32029859262E-01  0.51100000000E-03 0. -1.
</event>
<event>
 8    1  0.2107254E+004  0.1043930E+01  0.7957747E-01            NaN
         13   -1    0    0    0    0  0.00000000000E+00  0.00000000000E+00  0.74505805969E-08  0.10566000000E+00  0.10566000000E+00 0. -1.
     999900   -1    0    0    0    0 -0.00000000000E+00 -0.00000000000E+00 -0.74505805969E-08  0.93827000000E+00  0.93827000000E+00 0.  1.
     999902    2    1    2    0    0 -0.28600905144E-02 -0.99867241861E-02 -0.91317118559E-02  0.10300987694E+01  0.10300059086E+01 0.  0.
     999903    2    3    3    0    0 -0.53026810285E-01  0.75318344645E-01  0.93192684719E-01  0.13865951930E+00  0.45352950919E-01 0.  0.
         14    1    1    2    0    0  0.28600905144E-02  0.99867241861E-02  0.91317118559E-02  0.13831230572E-01  0.00000000000E+00 0.  1.
     999901    1    3    3    0    0  0.50166719771E-01 -0.85305068832E-01 -0.10232439658E+00  0.89143925013E+00  0.88000000000E+00 0.  1.
        -11    1    4    4    0    0 -0.43183526632E-01  0.22094376185E-01  0.45804426787E-01  0.66717951600E-01  0.51100000000E-03 0. -1.
         11    1    4    4    0    0 -0.98432836536E-02  0.53223968460E-01  0.47388257932E-01  0.71941567696E-01  0.51100000000E-03 0.  1.
</event>
<event>
 8    1  0.2107254E+004  0.1043930E+01  0.7957747E-01            NaN
         13   -1    0    0    0    0  0.00000000000E+00  0.00000000000E+00  0.74505805969E-08  0.10566000000E+00  0.10566000000E+00 0.  1.
     999900   -1    0    0    0    0 -0.00000000000E+00 -0.00000000000E+00 -0.74505805969E-08  0.93827000000E+00  0.93827000000E+00 0.  1.
     999902    2    1    2    0    0 -0.30013270507E-02  0.10996493137E-01  0.96587973007E-02  0.10289893444E+01  0.10288808714E+01 0.  0.
     999903    2    3    3    0    0  0.71576782906E-01  0.82440181667E-01  0.75802422538E-01  0.14048437856E+00  0.45499823638E-01 0.  0.
         14    1    1    2    0    0  0.30013270507E-02 -0.10996493137E-01 -0.96587973007E-02  0.14940655631E-01  0.00000000000E+00 0. -1.
     999901    1    3    3    0    0 -0.74578109957E-01 -0.71443688529E-01 -0.66143625237E-01  0.88850496581E+00  0.88000000000E+00 0.  1.
        -11    1    4    4    0    0  0.59265607205E-01  0.34067921000E-01  0.43669480545E-01  0.81119172152E-01  0.51100000000E-03 0. -1.
         11    1    4    4    0    0  0.12311175701E-01  0.48372260667E-01  0.32132941993E-01  0.59365206403E-01  0.51100000000E-03 0.  1.
</event>
<event>
 8    1  0.2107254E+004  0.1043930E+01  0.7957747E-01            NaN
         13   -1    0    0    0    0  0.00000000000E+00  0.00000000000E+00  0.74505805969E-08  0.10566000000E+00  0.10566000000E+00 0.  1.
     999900   -1    0    0    0    0 -0.00000000000E+00 -0.00000000000E+00 -0.74505805969E-08  0.93827000000E+00  0.93827000000E+00 0.  1.
     999902    2    1    2    0    0  0.49104140514E-02 -0.10234634483E-01 -0.84293752420E-02  0.10297908955E+01  0.10296938255E+01 0.  0.
     999903    2    3    3    0    0  0.94533723506E-01  0.90133645519E-01 -0.15794405438E-01  0.13953229661E+00  0.46466112588E-01 0.  0.
         14    1    1    2    0    0 -0.49104140514E-02  0.10234634483E-01  0.84293752420E-02  0.14139104502E-01  0.00000000000E+00 0.  1.
     999901    1    3    3    0    0 -0.89623309455E-01 -0.10036828000E+00  0.73650301964E-02  0.89025859889E+00  0.88000000000E+00 0. -1.
        -11    1    4    4    0    0  0.37724040467E-01  0.27528987709E-01 -0.27481083006E-01  0.54188739030E-01  0.51100000000E-03 0. -1.
         11    1    4    4    0    0  0.56809683040E-01  0.62604657809E-01  0.11686677568E-01  0.85343557578E-01  0.51100000000E-03 0.  1.
</event>
<event>
 8    1  0.2107254E+004  0.1043930E+01  0.7957747E-01            NaN
         13   -1    0    0    0    0  0.00000000000E+00  0.00000000000E+00  0.74505805969E-08  0.10566000000E+00  0.10566000000E+00 0. -1.
     999900   -1    0    0    0    0 -0.00000000000E+00 -0.00000000000E+00 -0.74505805969E-08  0.93827000000E+00  0.93827000000E+00 0.  1.
     999902    2    1    2    0    0  0.96640385362E-02  0.64059091950E-02  0.46001035357E-02  0.10314564173E+01  0.10313809919E+01 0.  0.
     999903    2    3    3    0    0  0.90841925937E-01  0.70094608519E-02 -0.98660818576E-01  0.14170755849E+00  0.45229271069E-01 0.  0.
         14    1    1    2    0    0 -0.96640385362E-02 -0.64059091950E-02 -0.46001035357E-02  0.12473582724E-01  0.00000000000E+00 0.  1.
     999901    1    3    3    0    0 -0.81177887401E-01 -0.60355165688E-03  0.10326092211E+00  0.88974885879E+00  0.88000000000E+00 0.  1.
        -11    1    4    4    0    0  0.30770356029E-01 -0.83260616414E-02 -0.97966826601E-02  0.33352274656E-01  0.51100000000E-03 0. -1.
         11    1    4    4    0    0  0.60071569908E-01  0.15335522493E-01 -0.88864135916E-01  0.10835528383E+00  0.51100000000E-03 0.  1.
</event>
<event>
 8    1  0.2107254E+004  0.1043930E+01  0.7957747E-01            NaN
         13   -1    0    0    0    0  0.00000000000E+00  0.00000000000E+00  0.74505805969E-08  0.10566000000E+00  0.10566000000E+00 0.  1.
     999900   -1    0    0    0    0 -0.00000000000E+00 -0.00000000000E+00 -0.74505805969E-08  0.93827000000E+00  0.93827000000E+00 0. -1.
     999902    2    1    2    0    0 -0.20566946444E-02  0.13363376409E-01 -0.44098312232E-02  0.10297083112E+01  0.10296100959E+01 0.  0.
     999903    2    3    3    0    0  0.19905709540E-01 -0.11465346108E+00 -0.59955262872E-01  0.13844182304E+00  0.45053872330E-01 0.  0.
         14    1    1    2    0    0  0.20566946444E-02 -0.13363376409E-01  0.44098312232E-02  0.14221688835E-01  0.00000000000E+00 0.  1.
     999901    1    3    3    0    0 -0.21962404184E-01  0.12801683748E+00  0.55545431649E-01  0.89126648812E+00  0.88000000000E+00 0.  1.
        -11    1    4    4    0    0  0.34080853682E-01 -0.69640736504E-01 -0.35240407078E-01  0.85167389185E-01  0.51100000000E-03 0. -1.
         11    1    4    4    0    0 -0.14175144142E-01 -0.45012724571E-01 -0.24714855794E-01  0.53274433856E-01  0.51100000000E-03 0.  1.
</event>
<event>
 8    1  0.2107254E+004  0.1043930E+01  0.7957747E-01            NaN
         13   -1    0    0    0    0  0.00000000000E+00  0.00000000000E+00  0.74505805969E-08  0.10566000000E+00  0.10566000000E+00 0.  1.
     999900   -1    0    0    0    0 -0.00000000000E+00 -0.00000000000E+00 -0.74505805969E-08  0.93827000000E+00  0.93827000000E+00 0. -1.
     999902    2    1    2    0    0 -0.10214072220E-01 -0.80532537281E-02  0.38845337638E-02  0.10303553262E+01  0.10302659008E+01 0.  0.
     999903    2    3    3    0    0 -0.15948645474E-01  0.34632048927E-01  0.12775206157E+00  0.14063734567E+00  0.44772041014E-01 0.  0.
         14    1    1    2    0    0  0.10214072220E-01  0.80532537281E-02 -0.38845337638E-02  0.13574673827E-01  0.00000000000E+00 0. -1.
     999901    1    3    3    0    0  0.57345732536E-02 -0.42685302655E-01 -0.12386752780E+00  0.88971798051E+00  0.88000000000E+00 0. -1.
        -11    1    4    4    0    0  0.91604521959E-02 -0.36514909576E-02  0.44926730659E-01  0.45999125202E-01  0.51100000000E-03 0. -1.
         11    1    4    4    0    0 -0.25109097670E-01  0.38283539885E-01  0.82825330906E-01  0.94638220464E-01  0.51100000000E-03 0.  1.
</event>
<event>
 8    1  0.2107254E+004  0.1043930E+01  0.7957747E-01            NaN
         13   -1    0    0    0    0  0.00000000000E+00  0.00000000000E+00  0.74505805969E-08  0.10566000000E+00  0.10566000000E+00 0.  1.
     999900   -1    0    0    0    0 -0.00000000000E+00 -0.00000000000E+00 -0.74505805969E-08  0.93827000000E+00  0.93827000000E+00 0. -1.
     999902    2    1    2    0    0  0.13104465996E-01 -0.59546573001E-03 -0.60200539209E-02  0.10294966131E+01  0.10293954312E+01 0.  0.
     999903    2    3    3    0    0 -0.69469830068E-01 -0.23387634728E-01  0.10802967328E+00  0.13801170710E+00  0.44763626307E-01 0.  0.
         14    1    1    2    0    0 -0.13104465996E-01  0.59546573001E-03  0.60200539209E-02  0.14433386910E-01  0.00000000000E+00 0.  1.
     999901    1    3    3    0    0  0.82574296064E-01  0.22792168998E-01 -0.11404972720E+00  0.89148490599E+00  0.88000000000E+00 0. -1.
        -11    1    4    4    0    0 -0.58531575807E-01 -0.11113047866E-02  0.59333729745E-01  0.83354261866E-01  0.51100000000E-03 0. -1.
         11    1    4    4    0    0 -0.10938254262E-01 -0.22276329942E-01  0.48695943531E-01  0.54657445233E-01  0.51100000000E-03 0.  1.
</event>
<event>
 8    1  0.2107254E+004  0.1043930E+01  0.7957747E-01            NaN
         13   -1    0    0    0    0  0.00000000000E+00  0.00000000000E+00  0.74505805969E-08  0.10566000000E+00  0.10566000000E+00 0. -1.
     999900   -1    0    0    0    0 -0.00000000000E+00 -0.00000000000E+00 -0.74505805969E-08  0.93827000000E+00  0.93827000000E+00 0. -1.
     999902    2    1    2    0    0 -0.70371680227E-02 -0.14758441162E-01  0.65580473754E-02  0.10263134934E+01  0.10261622900E+01 0.  0.
     999903    2    3    3    0    0  0.18930558014E-01  0.16570503707E-01 -0.12531977805E+00  0.13555674410E+00  0.45140186989E-01 0.  0.
         14    1    1    2    0    0  0.70371680227E-02  0.14758441162E-01 -0.65580473754E-02  0.17616506597E-01  0.00000000000E+00 0. -1.
     999901    1    3    3    0    0 -0.25967726036E-01 -0.31328944869E-01  0.13187782543E+00  0.89075674930E+00  0.88000000000E+00 0.  1.
        -11    1    4    4    0    0 -0.34167352087E-02  0.26702132271E-01 -0.59425769451E-01  0.65240793551E-01  0.51100000000E-03 0. -1.
         11    1    4    4    0    0  0.22347293222E-01 -0.10131628565E-01 -0.65894008601E-01  0.70315950553E-01  0.51100000000E-03 0.  1.
</event>
<event>
 8    1  0.2107254E+004  0.1043930E+01  0.7957747E-01            NaN
         13   -1    0    0    0    0  0.00000000000E+00  0.00000000000E+00  0.74505805969E-08  0.10566000000E+00  0.10566000000E+00 0. -1.
     999900   -1    0    0    0    0 -0.00000000000E+00 -0.00000000000E+00 -0.74505805969E-08  0.93827000000E+00  0.93827000000E+00 0. -1.
     999902    2    1    2    0    0  0.47987796229E-02  0.12009687460E-01  0.46212535608E-02  0.10301962145E+01  0.10301046663E+01 0.  0.
     999903    2    3    3    0    0  0.52289901483E-01  0.11042165464E+00  0.56898726296E-01  0.14189825996E+00  0.44390038484E-01 0.  0.
         14    1    1    2    0    0 -0.47987796229E-02 -0.12009687460E-01 -0.46212535608E-02  0.13733785466E-01  0.00000000000E+00 0.  1.
     999901    1    3    3    0    0 -0.47491121860E-01 -0.98411967177E-01 -0.52277472736E-01  0.88829795457E+00  0.88000000000E+00 0. -1.
        -11    1    4    4    0    0  0.24697622295E-02  0.10547713942E-01  0.22712060685E-01  0.25168488560E-01  0.51100000000E-03 0.  1.
         11    1    4    4    0    0  0.49820139253E-01  0.99873940694E-01  0.34186665612E-01  0.11672977140E+00  0.51100000000E-03 0. -1.
</event>
<event>
 8    1  0.2107254E+004  0.1043930E+01  0.7957747E-01            NaN
         13   -1    0    0    0    0  0.00000000000E+00  0.00000000000E+00  0.74505805969E-08  0.10566000000E+00  0.10566000000E+00 0. -1.
     999900   -1    0    0    0    0 -0.00000000000E+00 -0.00000000000E+00 -0.74505805969E-08  0.93827000000E+00  0.93827000000E+00 0. -1.
     999902    2    1    2    0    0 -0.12881201143E-01 -0.57425700455E-02 -0.12334165157E-02  0.10297728898E+01  0.10296755706E+01 0.  0.
     999903    2    3    3    0    0  0.48536522168E-01 -0.82261752862E-01 -0.91595472126E-01  0.13972085581E+00  0.44826298819E-01 0.  0.
         14    1    1    2    0    0  0.12881201143E-01  0.57425700455E-02  0.12334165157E-02  0.14157110224E-01  0.00000000000E+00 0.  1.
     999901    1    3    3    0    0 -0.61417723310E-01  0.76519182816E-01  0.90362055610E-01  0.89005203397E+00  0.88000000000E+00 0.  1.
        -11    1    4    4    0    0  0.20079938873E-01 -0.11145716719E-01 -0.43728035406E-01  0.49394667200E-01  0.51100000000E-03 0. -1.
         11    1    4    4    0    0  0.28456583294E-01 -0.71116036142E-01 -0.47867436720E-01  0.90326188609E-01  0.51100000000E-03 0.  1.
</event>
<event>
 8    1  0.2107254E+004  0.1043930E+01  0.7957747E-01            NaN
         13   -1    0    0    0    0  0.00000000000E+00  0.00000000000E+00  0.74505805969E-08  0.10566000000E+00  0.10566000000E+00 0. -1.
     999900   -1    0    0    0    0 -0.00000000000E+00 -0.00000000000E+00 -0.74505805969E-08  0.93827000000E+00  0.93827000000E+00 0.  1.
     999902    2    1    2    0    0 -0.25183861269E-02 -0.13656467898E-01  0.14390693740E-02  0.10299689003E+01  0.10298742755E+01 0.  0.
     999903    2    3    3    0    0 -0.77214750094E-01  0.47135555844E-01 -0.96275255349E-01  0.13933805298E+00  0.44297742150E-01 0.  0.
         14    1    1    2    0    0  0.25183861269E-02  0.13656467898E-01 -0.14390693740E-02  0.13961099699E-01  0.00000000000E+00 0. -1.
     999901    1    3    3    0    0  0.74696363967E-01 -0.60792023742E-01  0.97714324723E-01  0.89063084732E+00  0.88000000000E+00 0.  1.
        -11    1    4    4    0    0 -0.22151738502E-01 -0.70718892390E-02 -0.18678242056E-01  0.29830336628E-01  0.51100000000E-03 0. -1.
         11    1    4    4    0    0 -0.55063011592E-01  0.54207445083E-01 -0.77597013293E-01  0.10950771635E+00  0.51100000000E-03 0.  1.
</event>
<event>
 8    1  0.2107254E+004  0.1043930E+01  0.7957747E-01            NaN
         13   -1    0    0    0    0  0.00000000000E+00  0.00000000000E+00  0.74505805969E-08  0.10566000000E+00  0.10566000000E+00 0.  1.
     999900   -1    0    0    0    0 -0.00000000000E+00 -0.00000000000E+00 -0.74505805969E-08  0.93827000000E+00  0.93827000000E+00 0. -1.
     999902    2    1    2    0    0 -0.56125595127E-02  0.14529881979E-01 -0.75627728781E-03  0.10283354417E+01  0.10282171902E+01 0.  0.
     999903    2    3    3    0    0  0.27275741970E-02  0.91705030554E-01  0.95664608100E-01  0.13967209228E+00  0.44037754579E-01 0.  0.
         14    1    1    2    0    0  0.56125595127E-02 -0.14529881979E-01  0.75627728781E-03  0.15594558344E-01  0.00000000000E+00 0.  1.
     999901    1    3    3    0    0 -0.83401337097E-02 -0.77175148575E-01 -0.96420885388E-01  0.88866334938E+00  0.88000000000E+00 0. -1.
        -11    1    4    4    0    0  0.17093727784E-01  0.18890137761E-01  0.13099705668E-01  0.28651286948E-01  0.51100000000E-03 0. -1.
         11    1    4    4    0    0 -0.14366153587E-01  0.72814892794E-01  0.82564902432E-01  0.11102080533E+00  0.51100000000E-03 0.  1.
</event>
<event>
 8    1  0.2107254E+004  0.1043930E+01  0.7957747E-01            NaN
         13   -1    0    0    0    0  0.00000000000E+00  0.00000000000E+00  0.74505805969E-08  0.10566000000E+00  0.10566000000E+00 0. -1.
     999900   -1    0    0    0    0 -0.00000000000E+00 -0.00000000000E+00 -0.74505805969E-08  0.93827000000E+00  0.93827000000E+00 0. -1.
     999902    2    1    2    0    0 -0.60300576652E-02  0.31912503529E-02 -0.13489760783E-01  0.10288131445E+01  0.10287020788E+01 0.  0.
     999903    2    3    3    0    0  0.71028709846E-01  0.10907147899E+00  0.14052943185E-01  0.13869670436E+00  0.45799840999E-01 0.  0.
         14    1    1    2    0    0  0.60300576652E-02 -0.31912503529E-02  0.13489760783E-01  0.15116855501E-01  0.00000000000E+00 0. -1.
     999901    1    3    3    0    0 -0.77058767511E-01 -0.10588022864E+00 -0.27542703967E-01  0.89011644014E+00  0.88000000000E+00 0.  1.
        -11    1    4    4    0    0  0.16746021365E-01  0.57247727250E-01  0.21205612347E-01  0.63306165757E-01  0.51100000000E-03 0.  1.
         11    1    4    4    0    0  0.54282688481E-01  0.51823751743E-01 -0.71526691619E-02  0.75390538602E-01  0.51100000000E-03 0. -1.
</event>
<event>
 8    1  0.2107254E+004  0.1043930E+01  0.7957747E-01            NaN
         13   -1    0    0    0    0  0.00000000000E+00  0.00000000000E+00  0.74505805969E-08  0.10566000000E+00  0.10566000000E+00 0.  1.
     999900   -1    0    0    0    0 -0.00000000000E+00 -0.00000000000E+00 -0.74505805969E-08  0.93827000000E+00  0.93827000000E+00 0.  1.
     999902    2    1    2    0    0  0.50697605308E-02  0.70374752820E-02  0.10090862155E-01  0.10306238349E+01  0.10305379348E+01 0.  0.
     999903    2    3    3    0    0 -0.21198400790E-01 -0.13011985846E+00  0.78450335332E-02  0.13960913569E+00  0.45261644421E-01 0.  0.
         14    1    1    2    0    0 -0.50697605308E-02 -0.70374752820E-02 -0.10090862155E-01  0.13306165083E-01  0.00000000000E+00 0. -1.
     999901    1    3    3    0    0  0.26268161320E-01  0.13715733374E+00  0.22458286214E-02  0.89101469923E+00  0.88000000000E+00 0. -1.
        -11    1    4    4    0    0  0.70679344084E-03 -0.75433005422E-01 -0.14094550453E-01  0.76743438399E-01  0.51100000000E-03 0. -1.
         11    1    4    4    0    0 -0.21905194230E-01 -0.54686853034E-01  0.21939583986E-01  0.62865697288E-01  0.51100000000E-03 0.  1.
</event>
<event>
 8    1  0.2107254E+004  0.1043930E+01  0.7957747E-01            NaN
         13   -1    0    0    0    0  0.00000000000E+00  0.00000000000E+00  0.74505805969E-08  0.10566000000E+00  0.10566000000E+00 0. -1.
     999900   -1    0    0    0    0 -0.00000000000E+00 -0.00000000000E+00 -0.74505805969E-08  0.93827000000E+00  0.93827000000E+00 0.  1.
     999902    2    1    2    0    0 -0.91927761174E-02 -0.94146876873E-02 -0.51713004278E-02  0.10297919016E+01  0.10296948455E+01 0.  0.
     999903    2    3    3    0    0  0.10933206184E+00  0.26760692916E-01  0.66829072618E-01  0.13819734744E+00  0.44302905768E-01 0.  0.
         14    1    1    2    0    0  0.91927761174E-02  0.94146876873E-02  0.51713004278E-02  0.14138098355E-01  0.00000000000E+00 0. -1.
     999901    1    3    3    0    0 -0.11852483796E+00 -0.36175380603E-01 -0.72000373046E-01  0.89159455421E+00  0.88000000000E+00 0.  1.
        -11    1    4    4    0    0  0.89075452490E-02  0.17974936492E-01  0.13083704042E-01  0.23955941575E-01  0.51100000000E-03 0. -1.
         11    1    4    4    0    0  0.10042451659E+00  0.87857564237E-02  0.53745368575E-01  0.11424140586E+00  0.51100000000E-03 0.  1.
</event>
<event>
 8    1  0.2107254E+004  0.1043930E+01  0.7957747E-01            NaN
         13   -1    0    0    0    0  0.00000000000E+00  0.00000000000E+00  0.74505805969E-08  0.10566000000E+00  0.10566000000E+00 0. -1.
     999900   -1    0    0    0    0 -0.00000000000E+00 -0.00000000000E+00 -0.74505805969E-08  0.93827000000E+00  0.93827000000E+00 0.  1.
     999902    2    1    2    0    0 -0.11374942050E-01 -0.71402193189E-02  0.47564951213E-02  0.10296823235E+01  0.10295837465E+01 0.  0.
     999903    2    3    3    0    0 -0.82189835326E-02  0.51082478541E-01  0.12151577514E+00  0.14005736206E+00  0.46615552729E-01 0.  0.
         14    1    1    2    0    0  0.11374942050E-01  0.71402193189E-02 -0.47564951213E-02  0.14247676456E-01  0.00000000000E+00 0.  1.
     999901    1    3    3    0    0 -0.31559585174E-02 -0.58222697860E-01 -0.11675928002E+00  0.88962496148E+00  0.88000000000E+00 0.  1.
        -11    1    4    4    0    0 -0.21047333515E-01  0.42729621575E-01  0.59715063326E-01  0.76386914567E-01  0.51100000000E-03 0. -1.
         11    1    4    4    0    0  0.12828349983E-01  0.83528569667E-02  0.61800711812E-01  0.63670447495E-01  0.51100000000E-03 0.  1.
</event>
<event>
 8    1  0.2107254E+004  0.1043930E+01  0.7957747E-01            NaN
         13   -1    0    0    0    0  0.00000000000E+00  0.00000000000E+00  0.74505805969E-08  0.10566000000E+00  0.10566000000E+00 0. -1.
     999900   -1    0    0    0    0 -0.00000000000E+00 -0.00000000000E+00 -0.74505805969E-08  0.93827000000E+00  0.93827000000E+00 0. -1.
     999902    2    1    2    0    0 -0.37249384077E-02  0.21278127692E-01  0.17532700803E-02  0.10222572558E+01  0.10220274895E+01 0.  0.
     999903    2    3    3    0    0  0.33273836271E-01 -0.10871858971E+00  0.47217118673E-01  0.13077813807E+00  0.44120122090E-01 0.  0.
         14    1    1    2    0    0  0.37249384077E-02 -0.21278127692E-01 -0.17532700803E-02  0.21672744178E-01  0.00000000000E+00 0.  1.
     999901    1    3    3    0    0 -0.36998774679E-01  0.12999671740E+00 -0.45463848593E-01  0.89147911775E+00  0.88000000000E+00 0.  1.
        -11    1    4    4    0    0  0.10299923756E-01 -0.14134010338E-01 -0.75910799625E-02  0.19072081523E-01  0.51100000000E-03 0.  1.
         11    1    4    4    0    0  0.22973912515E-01 -0.94584579368E-01  0.54808198635E-01  0.11170605655E+00  0.51100000000E-03 0. -1.
</event>
<event>
 8    1  0.2107254E+004  0.1043930E+01  0.7957747E-01            NaN
         13   -1    0    0    0    0  0.00000000000E+00  0.00000000000E+00  0.74505805969E-08  0.10566000000E+00  0.10566000000E+00 0. -1.
     999900   -1    0    0    0    0 -0.00000000000E+00 -0.00000000000E+00 -0.74505805969E-08  0.93827000000E+00  0.93827000000E+00 0. -1.
     999902    2    1    2    0    0  0.10246740754E-01  0.57301800764E-02  0.78088877863E-02  0.10298300217E+01  0.10297334918E+01 0.  0.
     999903    2    3    3    0    0  0.66117817063E-01 -0.10805572834E+00 -0.37494317623E-01  0.13959342924E+00  0.45087642141E-01 0.  0.
         14    1    1    2    0    0 -0.10246740754E-01 -0.57301800764E-02 -0.78088877863E-02  0.14099978307E-01  0.00000000000E+00 0.  1.
     999901    1    3    3    0    0 -0.55871076309E-01  0.11378590841E+00  0.45303205410E-01  0.89023659245E+00  0.88000000000E+00 0.  1.
        -11    1    4    4    0    0  0.28645281759E-01 -0.75046788927E-01 -0.39700198655E-01  0.89604350282E-01  0.51100000000E-03 0. -1.
         11    1    4    4    0    0  0.37472535304E-01 -0.33008939409E-01  0.22058810315E-02  0.49989078958E-01  0.51100000000E-03 0.  1.
</event>
<event>
 8    1  0.2107254E+004  0.1043930E+01  0.7957747E-01            NaN
         13   -1    0    0    0    0  0.00000000000E+00  0.00000000000E+00  0.74505805969E-08  0.10566000000E+00  0.10566000000E+00 0. -1.
     999900   -1    0    0    0    0 -0.00000000000E+00 -0.00000000000E+00 -0.74505805969E-08  0.93827000000E+00  0.93827000000E+00 0. -1.
     999902    2    1    2    0    0  0.50214815602E-02 -0.93247515703E-02  0.89349265285E-02  0.10300736231E+01  0.10299804221E+01 0.  0.
     999903    2    3    3    0    0 -0.48954364700E-01 -0.96135099122E-01 -0.77161777468E-01  0.13998257671E+00  0.44751477882E-01 0.  0.
         14    1    1    2    0    0 -0.50214815602E-02  0.93247515703E-02 -0.89349265285E-02  0.13856376907E-01  0.00000000000E+00 0.  1.
     999901    1    3    3    0    0  0.53975846260E-01  0.86810347552E-01  0.86096703997E-01  0.89009104639E+00  0.88000000000E+00 0.  1.
        -11    1    4    4    0    0 -0.55869863532E-01 -0.74090103780E-01 -0.54504454314E-01  0.10761868699E+00  0.51100000000E-03 0.  1.
         11    1    4    4    0    0  0.69154988321E-02 -0.22044995342E-01 -0.22657323155E-01  0.32363889712E-01  0.51100000000E-03 0. -1.
</event>
<event>
 8    1  0.2137083E+004  0.1043930E+01  0.7957747E-01            NaN
         13   -1    0    0    0    0  0.00000000000E+00  0.00000000000E+00  0.74505805969E-08  0.10566000000E+00  0.10566000000E+00 0.  1.
     999900   -1    0    0    0    0 -0.00000000000E+00 -0.00000000000E+00 -0.74505805969E-08  0.93827000000E+00  0.93827000000E+00 0.  1.
     999902    2    1    2    0    0 -0.13279086210E-01 -0.12379756740E-02  0.18468072076E-02  0.10304660700E+01  0.10303781073E+01 0.  0.
     999903    2    3    3    0    0  0.32042261243E-01  0.12715552552E+00 -0.11513309376E-01  0.13989467566E+00  0.47357468373E-01 0.  0.
         14    1    1    2    0    0  0.13279086210E-01  0.12379756740E-02 -0.18468072076E-02  0.13463930006E-01  0.00000000000E+00 0.  1.
     999901    1    3    3    0    0 -0.45321347453E-01 -0.12839350119E+00  0.13360116584E-01  0.89057139433E+00  0.88000000000E+00 0. -1.
        -11    1    4    4    0    0  0.35196047428E-02  0.97276686455E-01 -0.14771148036E-01  0.98456027142E-01  0.51100000000E-03 0.  1.
         11    1    4    4    0    0  0.28522656500E-01  0.29878839064E-01  0.32578386598E-02  0.41438648522E-01  0.51100000000E-03 0. -1.
</event>
<event>
 8    1  0.2107254E+004  0.1043930E+01  0.7957747E-01            NaN
         13   -1    0    0    0    0  0.00000000000E+00  0.00000000000E+00  0.74505805969E-08  0.10566000000E+00  0.10566000000E+00 0.  1.
     999900   -1    0    0    0    0 -0.00000000000E+00 -0.00000000000E+00 -0.74505805969E-08  0.93827000000E+00  0.93827000000E+00 0.  1.
     999902    2    1    2    0    0 -0.10469619593E-02  0.15432806646E-01 -0.12693934642E-01  0.10239199119E+01  0.10237243683E+01 0.  0.
     999903    2    3    3    0    0 -0.35660085146E-01  0.10013647772E+00  0.70738812584E-01  0.13525022998E+00  0.44605933032E-01 0.  0.
         14    1    1    2    0    0  0.10469619593E-02 -0.15432806646E-01  0.12693934642E-01  0.20010088131E-01  0.00000000000E+00 0.  1.
     999901    1    3    3    0    0  0.34613123186E-01 -0.84703671077E-01 -0.83432747226E-01  0.88866968188E+00  0.88000000000E+00 0.  1.
        -11    1    4    4    0    0  0.24255959408E-02  0.15635232737E-01  0.30171676970E-01  0.34072499623E-01  0.51100000000E-03 0. -1.
         11    1    4    4    0    0 -0.38085681087E-01  0.84501244986E-01  0.40567135614E-01  0.10117773036E+00  0.51100000000E-03 0.  1.
</event>
<event>
 8    1  0.2107254E+004  0.1043930E+01  0.7957747E-01            NaN
         13   -1    0    0    0    0  0.00000000000E+00  0.00000000000E+00  0.74505805969E-08  0.10566000000E+00  0.10566000000E+00 0.  1.
     999900   -1    0    0    0    0 -0.00000000000E+00 -0.00000000000E+00 -0.74505805969E-08  0.93827000000E+00  0.93827000000E+00 0. -1.
     999902    2    1    2    0    0  0.70897438731E-02  0.87599152181E-02 -0.12495547775E-01  0.10271032565E+01  0.10269654133E+01 0.  0.
     999903    2    3    3    0    0 -0.72902022203E-01 -0.87558188496E-01 -0.61035105318E-01  0.13691678817E+00  0.45163941228E-01 0.  0.
         14    1    1    2    0    0 -0.70897438731E-02 -0.87599152181E-02  0.12495547775E-01  0.16826743506E-01  0.00000000000E+00 0.  1.
     999901    1    3    3    0    0  0.79991766076E-01  0.96318103715E-01  0.48539557543E-01  0.89018646833E+00  0.88000000000E+00 0.  1.
        -11    1    4    4    0    0 -0.40165018559E-01 -0.78190251452E-01 -0.37780180124E-01  0.95679398353E-01  0.51100000000E-03 0. -1.
         11    1    4    4    0    0 -0.32737003644E-01 -0.93679370445E-02 -0.23254925193E-01  0.41237389816E-01  0.51100000000E-03 0.  1.
</event>
<event>
 8    1  0.2107254E+004  0.1043930E+01  0.7957747E-01            NaN
         13   -1    0    0    0    0  0.00000000000E+00  0.00000000000E+00  0.74505805969E-08  0.10566000000E+00  0.10566000000E+00 0. -1.
     999900   -1    0    0    0    0 -0.00000000000E+00 -0.00000000000E+00 -0.74505805969E-08  0.93827000000E+00  0.93827000000E+00 0. -1.
     999902    2    1    2    0    0 -0.78295133655E-03 -0.77000753942E-03  0.15618858606E-01  0.10282725842E+01  0.10281533703E+01 0.  0.
     999903    2    3    3    0    0  0.11374377576E+00  0.27362285095E-01  0.60823522689E-01  0.13925556597E+00  0.44791411792E-01 0.  0.
         14    1    1    2    0    0  0.78295133655E-03  0.77000753942E-03 -0.15618858606E-01  0.15657415769E-01  0.00000000000E+00 0.  1.
     999901    1    3    3    0    0 -0.11452672710E+00 -0.28132292634E-01 -0.45204664083E-01  0.88901701826E+00  0.88000000000E+00 0.  1.
        -11    1    4    4    0    0  0.64222103377E-01 -0.45618734934E-02  0.19453828146E-01  0.67260700283E-01  0.51100000000E-03 0. -1.
         11    1    4    4    0    0  0.49521672384E-01  0.31924158588E-01  0.41369694543E-01  0.71994865684E-01  0.51100000000E-03 0.  1.
</event>
<event>
 8    1  0.2107254E+004  0.1043930E+01  0.7957747E-01            NaN
         13   -1    0    0    0    0  0.00000000000E+00  0.00000000000E+00  0.74505805969E-08  0.10566000000E+00  0.10566000000E+00 0. -1.
     999900   -1    0    0    0    0 -0.00000000000E+00 -0.00000000000E+00 -0.74505805969E-08  0.93827000000E+00  0.93827000000E+00 0. -1.
     999902    2    1    2    0    0  0.50179116126E-02 -0.10346729695E-01  0.78960225715E-02  0.10299807554E+01  0.10298862923E+01 0.  0.
     999903    2    3    3    0    0  0.93446941298E-01 -0.35719563683E-01 -0.87173909843E-01  0.14009212976E+00  0.44925451551E-01 0.  0.
         14    1    1    2    0    0 -0.50179116126E-02  0.10346729695E-01 -0.78960225715E-02  0.13949244595E-01  0.00000000000E+00 0.  1.
     999901    1    3    3    0    0 -0.88429029685E-01  0.25372833988E-01  0.95069932414E-01  0.88988862564E+00  0.88000000000E+00 0.  1.
        -11    1    4    4    0    0  0.34054779032E-01 -0.17058166377E-01 -0.72392787789E-02  0.38773409617E-01  0.51100000000E-03 0. -1.
         11    1    4    4    0    0  0.59392162265E-01 -0.18661397305E-01 -0.79934631064E-01  0.10131872015E+00  0.51100000000E-03 0.  1.
</event>
<event>
 8    1  0.2107254E+004  0.1043930E+01  0.7957747E-01            NaN
         13   -1    0    0    0    0  0.00000000000E+00  0.00000000000E+00  0.74505805969E-08  0.10566000000E+00  0.10566000000E+00 0.  1.
     999900   -1    0    0    0    0 -0.00000000000E+00 -0.00000000000E+00 -0.74505805969E-08  0.93827000000E+00  0.93827000000E+00 0.  1.
     999902    2    1    2    0    0 -0.56294961872E-02  0.49287846916E-02 -0.11875051680E-01  0.10298942956E+01  0.10297986498E+01 0.  0.
     999903    2    3    3    0    0 -0.12126713357E+00  0.27507548550E-01  0.46462368544E-01  0.14012740569E+00  0.44883796891E-01 0.  0.
         14    1    1    2    0    0  0.56294961872E-02 -0.49287846916E-02  0.11875051680E-01  0.14035704409E-01  0.00000000000E+00 0.  1.
     999901    1    3    3    0    0  0.11563763739E+00 -0.22578763858E-01 -0.58337420223E-01  0.88976688990E+00  0.88000000000E+00 0.  1.
        -11    1    4    4    0    0 -0.78229893832E-01  0.38400975698E-01  0.37296609735E-01  0.94793720479E-01  0.51100000000E-03 0.  1.
         11    1    4    4    0    0 -0.43037239743E-01 -0.10893427148E-01  0.91657588086E-02  0.45333685216E-01  0.51100000000E-03 0. -1.
</event>
<event>
 8    1  0.2107254E+004  0.1043930E+01  0.7957747E-01            NaN
         13   -1    0    0    0    0  0.00000000000E+00  0.00000000000E+00  0.74505805969E-08  0.10566000000E+00  0.10566000000E+00 0.  1.
     999900   -1    0    0    0    0 -0.00000000000E+00 -0.00000000000E+00 -0.74505805969E-08  0.93827000000E+00  0.93827000000E+00 0.  1.
     999902    2    1    2    0    0  0.14234906502E-01 -0.16384483666E-02 -0.22941732022E-02  0.10294186146E+01  0.10293163283E+01 0.  0.
     999903    2    3    3    0    0  0.19360935834E-01 -0.92191023369E-01 -0.94530510323E-01  0.13996170899E+00  0.42180943264E-01 0.  0.
         14    1    1    2    0    0 -0.14234906502E-01  0.16384483666E-02  0.22941732022E-02  0.14511385422E-01  0.00000000000E+00 0. -1.
     999901    1    3    3    0    0 -0.51260293320E-02  0.90552575003E-01  0.92236337121E-01  0.88945690559E+00  0.88000000000E+00 0. -1.
        -11    1    4    4    0    0  0.71709997195E-02 -0.40985806504E-01 -0.14291218254E-01  0.43997268233E-01  0.51100000000E-03 0.  1.
         11    1    4    4    0    0  0.12189936115E-01 -0.51205216865E-01 -0.80239292069E-01  0.95964440755E-01  0.51100000000E-03 0. -1.
</event>
<event>
 8    1  0.2107254E+004  0.1043930E+01  0.7957747E-01            NaN
         13   -1    0    0    0    0  0.00000000000E+00  0.00000000000E+00  0.74505805969E-08  0.10566000000E+00  0.10566000000E+00 0.  1.
     999900   -1    0    0    0    0 -0.00000000000E+00 -0.00000000000E+00 -0.74505805969E-08  0.93827000000E+00  0.93827000000E+00 0.  1.
     999902    2    1    2    0    0  0.22143806581E-02 -0.13685032863E-01  0.30199743351E-02  0.10297418412E+01  0.10296440917E+01 0.  0.
     999903    2    3    3    0    0 -0.45228885992E-01 -0.53890680346E-01  0.11300003082E+00  0.14071823604E+00  0.45637237366E-01 0.  0.
         14    1    1    2    0    0 -0.22143806581E-02  0.13685032863E-01 -0.30199743351E-02  0.14188158835E-01  0.00000000000E+00 0.  1.
     999901    1    3    3    0    0  0.47443266650E-01  0.40205647483E-01 -0.10998005648E+00  0.88902360512E+00  0.88000000000E+00 0.  1.
        -11    1    4    4    0    0  0.58559753672E-02 -0.11398967970E-01  0.39992002266E-01  0.41998217635E-01  0.51100000000E-03 0. -1.
         11    1    4    4    0    0 -0.51084861359E-01 -0.42491712376E-01  0.73008028550E-01  0.98720018408E-01  0.51100000000E-03 0.  1.
</event>
<event>
 8    1  0.2107254E+004  0.1043930E+01  0.7957747E-01            NaN
         13   -1    0    0    0    0  0.00000000000E+00  0.00000000000E+00  0.74505805969E-08  0.10566000000E+00  0.10566000000E+00 0. -1.
     999900   -1    0    0    0    0 -0.00000000000E+00 -0.00000000000E+00 -0.74505805969E-08  0.93827000000E+00  0.93827000000E+00 0.  1.
     999902    2    1    2    0    0  0.47647482333E-02 -0.92450591440E-03 -0.12469419808E-01  0.10305492688E+01  0.10304623969E+01 0.  0.
     999903    2    3    3    0    0 -0.12457570724E+00 -0.28557880899E-01 -0.37067894772E-01  0.14032590256E+00  0.44527190710E-01 0.  0.
         14    1    1    2    0    0 -0.47647482333E-02  0.92450591440E-03  0.12469419808E-01  0.13380731193E-01  0.00000000000E+00 0. -1.
     999901    1    3    3    0    0  0.12934045547E+00  0.27633374985E-01  0.24598474965E-01  0.89022336624E+00  0.88000000000E+00 0. -1.
        -11    1    4    4    0    0 -0.38008853492E-01  0.11293621143E-01 -0.15764436488E-01  0.42673146135E-01  0.51100000000E-03 0. -1.
         11    1    4    4    0    0 -0.86566853745E-01 -0.39851502041E-01 -0.21303458284E-01  0.97652756429E-01  0.51100000000E-03 0.  1.
</event>
<event>
 8    1  0.2107254E+004  0.1043930E+01  0.7957747E-01            NaN
         13   -1    0    0    0    0  0.00000000000E+00  0.00000000000E+00  0.74505805969E-08  0.10566000000E+00  0.10566000000E+00 0. -1.
     999900   -1    0    0    0    0 -0.00000000000E+00 -0.00000000000E+00 -0.74505805969E-08  0.93827000000E+00  0.93827000000E+00 0.  1.
     999902    2    1    2    0    0 -0.21412527663E-02  0.51720855996E-02 -0.12608449838E-01  0.10301347675E+01  0.10300423927E+01 0.  0.
     999903    2    3    3    0    0  0.72924282505E-01  0.10441811353E+00 -0.42441540096E-01  0.14087967364E+00  0.42716562469E-01 0.  0.
         14    1    1    2    0    0  0.21412527663E-02 -0.51720855996E-02  0.12608449838E-01  0.13795232516E-01  0.00000000000E+00 0. -1.
     999901    1    3    3    0    0 -0.75065535272E-01 -0.99246027926E-01  0.29833090258E-01  0.88925509384E+00  0.88000000000E+00 0.  1.
        -11    1    4    4    0    0  0.45248526419E-01  0.62388766463E-01 -0.33314028927E-02  0.77143675633E-01  0.51100000000E-03 0. -1.
         11    1    4    4    0    0  0.27675756087E-01  0.42029347063E-01 -0.39110137203E-01  0.63735998012E-01  0.51100000000E-03 0.  1.
</event>
<event>
 8    1  0.2107254E+004  0.1043930E+01  0.7957747E-01            NaN
         13   -1    0    0    0    0  0.00000000000E+00  0.00000000000E+00  0.74505805969E-08  0.10566000000E+00  0.10566000000E+00 0. -1.
     999900   -1    0    0    0    0 -0.00000000000E+00 -0.00000000000E+00 -0.74505805969E-08  0.93827000000E+00  0.93827000000E+00 0.  1.
     999902    2    1    2    0    0 -0.75930165459E-02  0.21394047061E-02  0.10268008363E-01  0.10309815272E+01  0.10309002117E+01 0.  0.
     999903    2    3    3    0    0  0.89122404106E-01  0.36411764407E-02  0.99739797418E-01  0.14117181215E+00  0.45004358434E-01 0.  0.
         14    1    1    2    0    0  0.75930165459E-02 -0.21394047061E-02 -0.10268008363E-01  0.12948472826E-01  0.00000000000E+00 0.  1.
     999901    1    3    3    0    0 -0.96715420652E-01 -0.15017717347E-02 -0.89471789054E-01  0.88980971502E+00  0.88000000000E+00 0.  1.
        -11    1    4    4    0    0  0.17158444101E-01  0.90470153388E-02  0.49696108502E-01  0.53350023541E-01  0.51100000000E-03 0.  1.
         11    1    4    4    0    0  0.71963960005E-01 -0.54058388981E-02  0.50043688916E-01  0.87821788612E-01  0.51100000000E-03 0. -1.
</event>
<event>
 8    1  0.2107254E+004  0.1043930E+01  0.7957747E-01            NaN
         13   -1    0    0    0    0  0.00000000000E+00  0.00000000000E+00  0.74505805969E-08  0.10566000000E+00  0.10566000000E+00 0.  1.
     999900   -1    0    0    0    0 -0.00000000000E+00 -0.00000000000E+00 -0.74505805969E-08  0.93827000000E+00  0.93827000000E+00 0.  1.
     999902    2    1    2    0    0  0.11905427414E-01  0.31500979534E-02  0.46119564088E-02  0.10307796213E+01  0.10306957335E+01 0.  0.
     999903    2    3    3    0    0 -0.80668311633E-01  0.93800428189E-01  0.46533681061E-01  0.14030513509E+00  0.47055824593E-01 0.  0.
         14    1    1    2    0    0 -0.11905427414E-01 -0.31500979534E-02 -0.46119564088E-02  0.13150378738E-01  0.00000000000E+00 0. -1.
     999901    1    3    3    0    0  0.92573739048E-01 -0.90650330235E-01 -0.41921724653E-01  0.89047448618E+00  0.88000000000E+00 0.  1.
        -11    1    4    4    0    0 -0.20384433610E-01  0.35325815158E-01 -0.60217960280E-02  0.41230589356E-01  0.51100000000E-03 0. -1.
         11    1    4    4    0    0 -0.60283878023E-01  0.58474613030E-01  0.52555477090E-01  0.99074545730E-01  0.51100000000E-03 0.  1.
</event>
<event>
 8    1  0.2107254E+004  0.1043930E+01  0.7957747E-01            NaN
         13   -1    0    0    0    0  0.00000000000E+00  0.00000000000E+00  0.74505805969E-08  0.10566000000E+00  0.10566000000E+00 0.  1.
     999900   -1    0    0    0    0 -0.00000000000E+00 -0.00000000000E+00 -0.74505805969E-08  0.93827000000E+00  0.93827000000E+00 0. -1.
     999902    2    1    2    0    0 -0.10126324693E-01 -0.33649668603E-02  0.78055443574E-02  0.10307091083E+01  0.10306243127E+01 0.  0.
     999903    2    3    3    0    0  0.33282035125E-01  0.95473520905E-01 -0.85346140203E-01  0.13923248570E+00  0.43345523072E-01 0.  0.
         14    1    1    2    0    0  0.10126324693E-01  0.33649668603E-02 -0.78055443574E-02  0.13220891667E-01  0.00000000000E+00 0.  1.
     999901    1    3    3    0    0 -0.43408359818E-01 -0.98838487766E-01  0.93151684560E-01  0.89147662263E+00  0.88000000000E+00 0.  1.
        -11    1    4    4    0    0  0.37958050206E-01  0.44561647892E-01 -0.50996270947E-01  0.77636555886E-01  0.51100000000E-03 0. -1.
         11    1    4    4    0    0 -0.46760150801E-02  0.50911873013E-01 -0.34349869256E-01  0.61595929814E-01  0.51100000000E-03 0.  1.
</event>
<event>
 8    1  0.2107254E+004  0.1043930E+01  0.7957747E-01            NaN
         13   -1    0    0    0    0  0.00000000000E+00  0.00000000000E+00  0.74505805969E-08  0.10566000000E+00  0.10566000000E+00 0.  1.
     999900   -1    0    0    0    0 -0.00000000000E+00 -0.00000000000E+00 -0.74505805969E-08  0.93827000000E+00  0.93827000000E+00 0.  1.
     999902    2    1    2    0    0 -0.27516271077E-02 -0.30327192520E-02  0.13573742732E-01  0.10297520125E+01  0.10296544041E+01 0.  0.
     999903    2    3    3    0    0 -0.12598726407E+00  0.17054552157E-01 -0.37073762741E-01  0.13949604341E+00  0.43829599418E-01 0.  0.
         14    1    1    2    0    0  0.27516271077E-02  0.30327192520E-02 -0.13573742732E-01  0.14177987500E-01  0.00000000000E+00 0. -1.
     999901    1    3    3    0    0  0.12323563697E+00 -0.20087271409E-01  0.50647505473E-01  0.89025596909E+00  0.88000000000E+00 0. -1.
        -11    1    4    4    0    0 -0.80038626244E-01 -0.23198199841E-02 -0.50555203042E-02  0.80233301455E-01  0.51100000000E-03 0. -1.
         11    1    4    4    0    0 -0.45948637829E-01  0.19374372141E-01 -0.32018242437E-01  0.59262741954E-01  0.51100000000E-03 0.  1.
</event>
<event>
 8    1  0.2107254E+004  0.1043930E+01  0.7957747E-01            NaN
         13   -1    0    0    0    0  0.00000000000E+00  0.00000000000E+00  0.74505805969E-08  0.10566000000E+00  0.10566000000E+00 0. -1.
     999900   -1    0    0    0    0 -0.00000000000E+00 -0.00000000000E+00 -0.74505805969E-08  0.93827000000E+00  0.93827000000E+00 0.  1.
     999902    2    1    2    0    0  0.58715405968E-02 -0.54565815594E-02  0.79885336042E-02  0.10326133777E+01  0.10325513652E+01 0.  0.
     999903    2    3    3    0    0 -0.97724286308E-02 -0.62904409046E-01  0.12053092764E+00  0.14345041338E+00  0.44697332605E-01 0.  0.
         14    1    1    2    0    0 -0.58715405968E-02  0.54565815594E-02 -0.79885336042E-02  0.11316622307E-01  0.00000000000E+00 0.  1.
     999901    1    3    3    0    0  0.15643969228E-01  0.57447827486E-01 -0.11254239403E+00  0.88916296432E+00  0.88000000000E+00 0.  1.
        -11    1    4    4    0    0 -0.19116350892E-01 -0.55182149815E-01  0.68467688281E-01  0.89992166266E-01  0.51100000000E-03 0. -1.
         11    1    4    4    0    0  0.93439222615E-02 -0.77222592304E-02  0.52063239357E-01  0.53458247111E-01  0.51100000000E-03 0.  1.
</event>
<event>
 8    1  0.2107254E+004  0.1043930E+01  0.7957747E-01            NaN
         13   -1    0    0    0    0  0.00000000000E+00  0.00000000000E+00  0.74505805969E-08  0.10566000000E+00  0.10566000000E+00 0. -1.
     999900   -1    0    0    0    0 -0.00000000000E+00 -0.00000000000E+00 -0.74505805969E-08  0.93827000000E+00  0.93827000000E+00 0. -1.
     999902    2    1    2    0    0  0.11384010998E-01  0.54528814586E-02  0.75305042070E-02  0.10292317649E+01  0.10291268084E+01 0.  0.
     999903    2    3    3    0    0 -0.52437603653E-01  0.45939742338E-01  0.11206303685E+00  0.13982778759E+00  0.46190082817E-01 0.  0.
         14    1    1    2    0    0 -0.11384010998E-01 -0.54528814586E-02 -0.75305042070E-02  0.14698235139E-01  0.00000000000E+00 0.  1.
     999901    1    3    3    0    0  0.63821614651E-01 -0.40486860879E-01 -0.10453253265E+00  0.88940397727E+00  0.88000000000E+00 0. -1.
        -11    1    4    4    0    0 -0.39695824533E-01  0.12897266583E-01  0.33055958153E-01  0.53245238858E-01  0.51100000000E-03 0. -1.
         11    1    4    4    0    0 -0.12741779121E-01  0.33042475755E-01  0.79007078702E-01  0.86582548733E-01  0.51100000000E-03 0.  1.
</event>
<event>
 8    1  0.2107254E+004  0.1043930E+01  0.7957747E-01            NaN
         13   -1    0    0    0    0  0.00000000000E+00  0.00000000000E+00  0.74505805969E-08  0.10566000000E+00  0.10566000000E+00 0.  1.
     999900   -1    0    0    0    0 -0.00000000000E+00 -0.00000000000E+00 -0.74505805969E-08  0.93827000000E+00  0.93827000000E+00 0.  1.
     999902    2    1    2    0    0 -0.79733249972E-02 -0.98423734035E-02 -0.16435112730E-02  0.10311570851E+01  0.10310779732E+01 0.  0.
     999903    2    3    3    0    0  0.11311256066E-01  0.11401081814E+00  0.65992229047E-01  0.13970540302E+00  0.45124429876E-01 0.  0.
         14    1    1    2    0    0  0.79733249972E-02  0.98423734035E-02  0.16435112730E-02  0.12772914899E-01  0.00000000000E+00 0.  1.
     999901    1    3    3    0    0 -0.19284581063E-01 -0.12385319154E+00 -0.67635740320E-01  0.89145168208E+00  0.88000000000E+00 0.  1.
        -11    1    4    4    0    0  0.81449128778E-02  0.77004132133E-01  0.18867059021E-01  0.79700708958E-01  0.51100000000E-03 0. -1.
         11    1    4    4    0    0  0.31663431882E-02  0.37006686004E-01  0.47125170026E-01  0.60004694059E-01  0.51100000000E-03 0.  1.
</event>
<event>
 8    1  0.2107254E+004  0.1043930E+01  0.7957747E-01            NaN
         13   -1    0    0    0    0  0.00000000000E+00  0.00000000000E+00  0.74505805969E-08  0.10566000000E+00  0.10566000000E+00 0.  1.
     999900   -1    0    0    0    0 -0.00000000000E+00 -0.00000000000E+00 -0.74505805969E-08  0.93827000000E+00  0.93827000000E+00 0.  1.
     999902    2    1    2    0    0 -0.75035898965E-02  0.62442706971E-02  0.13488603434E-01  0.10272795585E+01  0.10271446121E+01 0.  0.
     999903    2    3    3    0    0 -0.72076197913E-01  0.10929426183E+00 -0.39687032080E-02  0.13874498976E+00  0.45762513079E-01 0.  0.
         14    1    1    2    0    0  0.75035898965E-02 -0.62442706971E-02 -0.13488603434E-01  0.16650441450E-01  0.00000000000E+00 0. -1.
     999901    1    3    3    0    0  0.64572608016E-01 -0.10304999114E+00  0.17457306642E-01  0.88853456879E+00  0.88000000000E+00 0. -1.
        -11    1    4    4    0    0 -0.56163082919E-01  0.82741402708E-01 -0.22716008438E-01  0.10255101055E+00  0.51100000000E-03 0.  1.
         11    1    4    4    0    0 -0.15913114993E-01  0.26552859125E-01  0.18747305230E-01  0.36193979207E-01  0.51100000000E-03 0. -1.
</event>
<event>
 8    1  0.2107254E+004  0.1043930E+01  0.7957747E-01            NaN
         13   -1    0    0    0    0  0.00000000000E+00  0.00000000000E+00  0.74505805969E-08  0.10566000000E+00  0.10566000000E+00 0. -1.
     999900   -1    0    0    0    0 -0.00000000000E+00 -0.00000000000E+00 -0.74505805969E-08  0.93827000000E+00  0.93827000000E+00 0.  1.
     999902    2    1    2    0    0  0.44523079883E-02  0.11011364935E-01 -0.34136566738E-03  0.10320476713E+01  0.10319792663E+01 0.  0.
     999903    2    3    3    0    0 -0.32946543813E-01 -0.43969422364E-01  0.12187484696E+00  0.14111649345E+00  0.45184085127E-01 0.  0.
         14    1    1    2    0    0 -0.44523079883E-02 -0.11011364935E-01  0.34136566738E-03  0.11882328672E-01  0.00000000000E+00 0. -1.
     999901    1    3    3    0    0  0.37398851802E-01  0.54980787298E-01 -0.12221621263E+00  0.89093117788E+00  0.88000000000E+00 0.  1.
        -11    1    4    4    0    0 -0.26391901179E-01 -0.45092011514E-01  0.62923549503E-01  0.81789095565E-01  0.51100000000E-03 0. -1.
         11    1    4    4    0    0 -0.65546426345E-02  0.11225891506E-02  0.58951297460E-01  0.59327397884E-01  0.51100000000E-03 0.  1.
</event>
<event>
 8    1  0.2107254E+004  0.1043930E+01  0.7957747E-01            NaN
         13   -1    0    0    0    0  0.00000000000E+00  0.00000000000E+00  0.74505805969E-08  0.10566000000E+00  0.10566000000E+00 0.  1.
     999900   -1    0    0    0    0 -0.00000000000E+00 -0.00000000000E+00 -0.74505805969E-08  0.93827000000E+00  0.93827000000E+00 0. -1.
     999902    2    1    2    0    0 -0.18536805357E-01 -0.41760300355E-02 -0.69529037525E-02  0.10236964820E+01  0.10234965032E+01 0.  0.
     999903    2    3    3    0    0  0.67301376842E-01 -0.95351868962E-01  0.46121115263E-01  0.13324823611E+00  0.44793759770E-01 0.  0.
         14    1    1    2    0    0  0.18536805357E-01  0.41760300355E-02  0.69529037525E-02  0.20233517991E-01  0.00000000000E+00 0.  1.
     999901    1    3    3    0    0 -0.85838182199E-01  0.91175838926E-01 -0.53074019015E-01  0.89044824590E+00  0.88000000000E+00 0. -1.
        -11    1    4    4    0    0  0.18112324572E-01 -0.63482483693E-01  0.19233801450E-01  0.68762506328E-01  0.51100000000E-03 0. -1.
         11    1    4    4    0    0  0.49189052270E-01 -0.31869385268E-01  0.26887313813E-01  0.64485729784E-01  0.51100000000E-03 0.  1.
</event>
<event>
 8    1  0.2107254E+004  0.1043930E+01  0.7957747E-01            NaN
         13   -1    0    0    0    0  0.00000000000E+00  0.00000000000E+00  0.74505805969E-08  0.10566000000E+00  0.10566000000E+00 0.  1.
     999900   -1    0    0    0    0 -0.00000000000E+00 -0.00000000000E+00 -0.74505805969E-08  0.93827000000E+00  0.93827000000E+00 0. -1.
     999902    2    1    2    0    0 -0.35467110028E-02 -0.11813599024E-01 -0.48387838460E-02  0.10306803166E+01  0.10305951489E+01 0.  0.
     999903    2    3    3    0    0  0.57128532850E-01  0.93835280396E-01 -0.76126137661E-01  0.13943116079E+00  0.39713104272E-01 0.  0.
         14    1    1    2    0    0  0.35467110028E-02  0.11813599024E-01  0.48387838460E-02  0.13249683390E-01  0.00000000000E+00 0.  1.
     999901    1    3    3    0    0 -0.60675243853E-01 -0.10564887942E+00  0.71287353815E-01  0.89124915582E+00  0.88000000000E+00 0.  1.
        -11    1    4    4    0    0  0.19816226612E-01  0.68823270709E-01 -0.42118144671E-01  0.83087451879E-01  0.51100000000E-03 0.  1.
         11    1    4    4    0    0  0.37312306239E-01  0.25012009687E-01 -0.34007992990E-01  0.56343708909E-01  0.51100000000E-03 0. -1.
</event>
<event>
 8    1  0.2107254E+004  0.1043930E+01  0.7957747E-01            NaN
         13   -1    0    0    0    0  0.00000000000E+00  0.00000000000E+00  0.74505805969E-08  0.10566000000E+00  0.10566000000E+00 0. -1.
     999900   -1    0    0    0    0 -0.00000000000E+00 -0.00000000000E+00 -0.74505805969E-08  0.93827000000E+00  0.93827000000E+00 0. -1.
     999902    2    1    2    0    0  0.15639150951E-01 -0.55572692806E-02  0.41482130100E-02  0.10268222837E+01  0.10266797594E+01 0.  0.
     999903    2    3    3    0    0 -0.40720867019E-01 -0.91173867134E-01 -0.81595655072E-01  0.13673315092E+00  0.45466917372E-01 0.  0.
         14    1    1    2    0    0 -0.15639150951E-01  0.55572692806E-02 -0.41482130100E-02  0.17107716256E-01  0.00000000000E+00 0. -1.
     999901    1    3    3    0    0  0.56360017970E-01  0.85616597854E-01  0.85743868082E-01  0.89008913282E+00  0.88000000000E+00 0.  1.
        -11    1    4    4    0    0 -0.22538298713E-01 -0.65819087732E-01 -0.79227104395E-01  0.10543871400E+00  0.51100000000E-03 0.  1.
         11    1    4    4    0    0 -0.18182568306E-01 -0.25354779402E-01 -0.23685506770E-02  0.31294436919E-01  0.51100000000E-03 0. -1.
</event>
<event>
 8    1  0.2107254E+004  0.1043930E+01  0.7957747E-01            NaN
         13   -1    0    0    0    0  0.00000000000E+00  0.00000000000E+00  0.74505805969E-08  0.10566000000E+00  0.10566000000E+00 0.  1.
     999900   -1    0    0    0    0 -0.00000000000E+00 -0.00000000000E+00 -0.74505805969E-08  0.93827000000E+00  0.93827000000E+00 0. -1.
     999902    2    1    2    0    0  0.12333748328E-01  0.90557965953E-02 -0.75764401319E-02  0.10268557139E+01  0.10267137508E+01 0.  0.
     999903    2    3    3    0    0 -0.12280729131E-01  0.78523406200E-01 -0.10405322744E+00  0.13852053407E+00  0.45211973947E-01 0.  0.
         14    1    1    2    0    0 -0.12333748328E-01 -0.90557965953E-02  0.75764401319E-02  0.17074286072E-01  0.00000000000E+00 0.  1.
     999901    1    3    3    0    0  0.24614477459E-01 -0.69467609604E-01  0.96476787312E-01  0.88833517986E+00  0.88000000000E+00 0.  1.
        -11    1    4    4    0    0 -0.26467948171E-01  0.26351529644E-01 -0.43802348596E-01  0.57566155495E-01  0.51100000000E-03 0.  1.
         11    1    4    4    0    0  0.14187219040E-01  0.52171876555E-01 -0.60250878848E-01  0.80954378574E-01  0.51100000000E-03 0. -1.
</event>
<event>
 8    1  0.2107254E+004  0.1043930E+01  0.7957747E-01            NaN
         13   -1    0    0    0    0  0.00000000000E+00  0.00000000000E+00  0.74505805969E-08  0.10566000000E+00  0.10566000000E+00 0.  1.
     999900   -1    0    0    0    0 -0.00000000000E+00 -0.00000000000E+00 -0.74505805969E-08  0.93827000000E+00  0.93827000000E+00 0.  1.
     999902    2    1    2    0    0 -0.20530225348E-02  0.13559672743E-01  0.44534385973E-02  0.10295108204E+01  0.10294098389E+01 0.  0.
     999903    2    3    3    0    0 -0.12238801339E+00  0.13342295579E-01 -0.48535400558E-01  0.13974210077E+00  0.44892392980E-01 0.  0.
         14    1    1    2    0    0  0.20530225348E-02 -0.13559672743E-01 -0.44534385973E-02  0.14419179649E-01  0.00000000000E+00 0. -1.
     999901    1    3    3    0    0  0.12033499085E+00  0.21737716425E-03  0.52988839155E-01  0.88976871958E+00  0.88000000000E+00 0. -1.
        -11    1    4    4    0    0 -0.95561384353E-01  0.28876230861E-01 -0.33639467681E-01  0.10534557321E+00  0.51100000000E-03 0.  1.
         11    1    4    4    0    0 -0.26826629032E-01 -0.15533935283E-01 -0.14895932876E-01  0.34396527555E-01  0.51100000000E-03 0. -1.
</event>
<event>
 8    1  0.2107254E+004  0.1043930E+01  0.7957747E-01            NaN
         13   -1    0    0    0    0  0.00000000000E+00  0.00000000000E+00  0.74505805969E-08  0.10566000000E+00  0.10566000000E+00 0. -1.
     999900   -1    0    0    0    0 -0.00000000000E+00 -0.00000000000E+00 -0.74505805969E-08  0.93827000000E+00  0.93827000000E+00 0.  1.
     999902    2    1    2    0    0  0.13438693499E-01  0.23656994186E-02  0.34533726983E-02  0.10298544609E+01  0.10297582677E+01 0.  0.
     999903    2    3    3    0    0 -0.92025467092E-01  0.29071223261E-01  0.90497050904E-01  0.13889291515E+00  0.42281237452E-01 0.  0.
         14    1    1    2    0    0 -0.13438693499E-01 -0.23656994186E-02 -0.34533726983E-02  0.14075539056E-01  0.00000000000E+00 0. -1.
     999901    1    3    3    0    0  0.10546416059E+00 -0.26705523843E-01 -0.87043678206E-01  0.89096154580E+00  0.88000000000E+00 0.  1.
        -11    1    4    4    0    0 -0.23129758349E-01  0.14078256486E-01  0.41243396871E-02  0.27394421436E-01  0.51100000000E-03 0.  1.
         11    1    4    4    0    0 -0.68895708743E-01  0.14992966775E-01  0.86372711217E-01  0.11149849371E+00  0.51100000000E-03 0. -1.
</event>
<event>
 7    1  0.2107254E+004  0.1043930E+01  0.7957747E-01            NaN
         13   -1    0    0    0    0  0.00000000000E+00  0.00000000000E+00  0.74505805969E-08  0.10566000000E+00  0.10566000000E+00 0.  1.
     999900   -1    0    0    0    0 -0.00000000000E+00 -0.00000000000E+00 -0.74505805969E-08  0.93827000000E+00  0.93827000000E+00 0.  1.
     999903    2    1    2    0    0 -0.58429142016E-01 -0.94740619771E-01 -0.13771342838E-01  0.12105415509E+00  0.45548972662E-01 0.  0.
         14    1    1    2    0    0  0.99358019510E-02 -0.26794040921E-01 -0.15906476743E-01  0.32705607955E-01  0.00000000000E+00 0. -1.
     999901    1    1    2    0    0  0.48493340065E-01  0.12153466069E+00  0.29677819582E-01  0.89017023695E+00  0.88000000000E+00 0. -1.
        -11    1    3    3    0    0 -0.50075920417E-01 -0.62776657469E-01  0.91747226392E-02  0.80826624234E-01  0.51100000000E-03 0. -1.
         11    1    3    3    0    0 -0.83532215983E-02 -0.31963962302E-01 -0.22946065478E-01  0.40227530859E-01  0.51100000000E-03 0.  1.
</event>
<event>
 8    1  0.2107254E+004  0.1043930E+01  0.7957747E-01            NaN
         13   -1    0    0    0    0  0.00000000000E+00  0.00000000000E+00  0.74505805969E-08  0.10566000000E+00  0.10566000000E+00 0.  1.
     999900   -1    0    0    0    0 -0.00000000000E+00 -0.00000000000E+00 -0.74505805969E-08  0.93827000000E+00  0.93827000000E+00 0. -1.
     999902    2    1    2    0    0 -0.56591316966E-02  0.14512756338E-01 -0.61850554353E-02  0.10271699052E+01  0.10270331608E+01 0.  0.
     999903    2    3    3    0    0  0.93484407372E-01 -0.47847117646E-01  0.74716003990E-01  0.13573108133E+00  0.42564822318E-01 0.  0.
         14    1    1    2    0    0  0.56591316966E-02 -0.14512756338E-01  0.61850554353E-02  0.16760094833E-01  0.00000000000E+00 0. -1.
     999901    1    3    3    0    0 -0.99143539068E-01  0.62359873983E-01 -0.80901059425E-01  0.89143882383E+00  0.88000000000E+00 0. -1.
        -11    1    4    4    0    0  0.39240401851E-01 -0.53757460771E-02  0.47012997695E-01  0.61475123884E-01  0.51100000000E-03 0.  1.
         11    1    4    4    0    0  0.54244005521E-01 -0.42471371569E-01  0.27703006295E-01  0.74255957449E-01  0.51100000000E-03 0. -1.
</event>
<event>
 8    1  0.2107254E+004  0.1043930E+01  0.7957747E-01            NaN
         13   -1    0    0    0    0  0.00000000000E+00  0.00000000000E+00  0.74505805969E-08  0.10566000000E+00  0.10566000000E+00 0.  1.
     999900   -1    0    0    0    0 -0.00000000000E+00 -0.00000000000E+00 -0.74505805969E-08  0.93827000000E+00  0.93827000000E+00 0. -1.
     999902    2    1    2    0    0  0.10538914460E-01  0.50847734142E-02  0.73928812405E-02  0.10300888175E+01  0.10299958222E+01 0.  0.
     999903    2    3    3    0    0 -0.10702137361E+00 -0.71591239940E-01 -0.21853294878E-01  0.13848634381E+00  0.46065397860E-01 0.  0.
         14    1    1    2    0    0 -0.10538914460E-01 -0.50847734142E-02 -0.73928812405E-02  0.13841182453E-01  0.00000000000E+00 0. -1.
     999901    1    3    3    0    0  0.11756028807E+00  0.76676013354E-01  0.29246176119E-01  0.89160247374E+00  0.88000000000E+00 0.  1.
        -11    1    4    4    0    0 -0.64273754076E-01 -0.68424475483E-01 -0.14490873924E-01  0.94990898807E-01  0.51100000000E-03 0.  1.
         11    1    4    4    0    0 -0.42747619532E-01 -0.31667644576E-02 -0.73624209546E-02  0.43495445004E-01  0.51100000000E-03 0. -1.
</event>
<event>
 8    1  0.2107254E+004  0.1043930E+01  0.7957747E-01            NaN
         13   -1    0    0    0    0  0.00000000000E+00  0.00000000000E+00  0.74505805969E-08  0.10566000000E+00  0.10566000000E+00 0. -1.
     999900   -1    0    0    0    0 -0.00000000000E+00 -0.00000000000E+00 -0.74505805969E-08  0.93827000000E+00  0.93827000000E+00 0.  1.
     999902    2    1    2    0    0  0.72794531118E-02 -0.81285181401E-02 -0.83097075334E-02  0.10302145166E+01  0.10301232139E+01 0.  0.
     999903    2    3    3    0    0  0.42526056521E-01 -0.93908369704E-01  0.84204367026E-01  0.14051829883E+00  0.45030761651E-01 0.  0.
         14    1    1    2    0    0 -0.72794531118E-02  0.81285181401E-02  0.83097075334E-02  0.13715483369E-01  0.00000000000E+00 0. -1.
     999901    1    3    3    0    0 -0.35246603409E-01  0.85779851564E-01 -0.92514074559E-01  0.88969621781E+00  0.88000000000E+00 0.  1.
        -11    1    4    4    0    0  0.11507941722E-02 -0.47954780451E-01  0.21892773863E-01  0.52730825555E-01  0.51100000000E-03 0. -1.
         11    1    4    4    0    0  0.41375262349E-01 -0.45953589253E-01  0.62311593163E-01  0.87787473270E-01  0.51100000000E-03 0.  1.
</event>
<event>
 8    1  0.2107254E+004  0.1043930E+01  0.7957747E-01            NaN
         13   -1    0    0    0    0  0.00000000000E+00  0.00000000000E+00  0.74505805969E-08  0.10566000000E+00  0.10566000000E+00 0.  1.
     999900   -1    0    0    0    0 -0.00000000000E+00 -0.00000000000E+00 -0.74505805969E-08  0.93827000000E+00  0.93827000000E+00 0.  1.
     999902    2    1    2    0    0  0.15074876018E-02  0.13667985371E-01  0.94677280466E-03  0.10301465780E+01  0.10300543624E+01 0.  0.
     999903    2    3    3    0    0  0.64807655857E-01 -0.98795214105E-01 -0.57078591957E-01  0.13884313614E+00  0.45375370029E-01 0.  0.
         14    1    1    2    0    0 -0.15074876018E-02 -0.13667985371E-01 -0.94677280466E-03  0.13783421989E-01  0.00000000000E+00 0. -1.
     999901    1    3    3    0    0 -0.63300168255E-01  0.11246319948E+00  0.58025364762E-01  0.89130344187E+00  0.88000000000E+00 0. -1.
        -11    1    4    4    0    0  0.57233412123E-01 -0.49580058292E-01 -0.25615626832E-01  0.79939146246E-01  0.51100000000E-03 0. -1.
         11    1    4    4    0    0  0.75742437340E-02 -0.49215155813E-01 -0.31462965125E-01  0.58903989893E-01  0.51100000000E-03 0.  1.
</event>
<event>
 8    1  0.2107254E+004  0.1043930E+01  0.7957747E-01            NaN
         13   -1    0    0    0    0  0.00000000000E+00  0.00000000000E+00  0.74505805969E-08  0.10566000000E+00  0.10566000000E+00 0. -1.
     999900   -1    0    0    0    0 -0.00000000000E+00 -0.00000000000E+00 -0.74505805969E-08  0.93827000000E+00  0.93827000000E+00 0. -1.
     999902    2    1    2    0    0 -0.11537398129E-01 -0.67966653609E-02  0.11507888383E-02  0.10304901142E+01  0.10304024674E+01 0.  0.
     999903    2    3    3    0    0 -0.96563409741E-01 -0.65824276091E-01  0.63814715130E-01  0.14221062600E+00  0.49942135084E-01 0.  0.
         14    1    1    2    0    0  0.11537398129E-01  0.67966653609E-02 -0.11507888383E-02  0.13439885809E-01  0.00000000000E+00 0. -1.
     999901    1    3    3    0    0  0.85026011612E-01  0.59027610730E-01 -0.62663926292E-01  0.88827948819E+00  0.88000000000E+00 0.  1.
        -11    1    4    4    0    0 -0.67525099260E-01 -0.65394167441E-01  0.62986218737E-01  0.11315282161E+00  0.51100000000E-03 0. -1.
         11    1    4    4    0    0 -0.29038310481E-01 -0.43010865009E-03  0.82849639280E-03  0.29057804396E-01  0.51100000000E-03 0.  1.
</event>
<event>
 8    1  0.2107254E+004  0.1043930E+01  0.7957747E-01            NaN
         13   -1    0    0    0    0  0.00000000000E+00  0.00000000000E+00  0.74505805969E-08  0.10566000000E+00  0.10566000000E+00 0.  1.
     999900   -1    0    0    0    0 -0.00000000000E+00 -0.00000000000E+00 -0.74505805969E-08  0.93827000000E+00  0.93827000000E+00 0.  1.
     999902    2    1    2    0    0  0.81696080460E-02 -0.11778183407E-01  0.97946281227E-03  0.10295624168E+01  0.10294621618E+01 0.  0.
     999903    2    3    3    0    0  0.73672237814E-01  0.84498636639E-01 -0.70796572884E-01  0.13899427235E+00  0.41708929448E-01 0.  0.
         14    1    1    2    0    0 -0.81696080460E-02  0.11778183407E-01 -0.97946281227E-03  0.14367583214E-01  0.00000000000E+00 0. -1.
     999901    1    3    3    0    0 -0.65502629768E-01 -0.96276820047E-01  0.71776035696E-01  0.89056814444E+00  0.88000000000E+00 0. -1.
        -11    1    4    4    0    0  0.75504169519E-01  0.68375420407E-01 -0.68113843020E-01  0.12253911401E+00  0.51100000000E-03 0.  1.
         11    1    4    4    0    0 -0.18319317054E-02  0.16123216232E-01 -0.26827298638E-02  0.16455158339E-01  0.51100000000E-03 0. -1.
</event>
<event>
 8    1  0.2107254E+004  0.1043930E+01  0.7957747E-01            NaN
         13   -1    0    0    0    0  0.00000000000E+00  0.00000000000E+00  0.74505805969E-08  0.10566000000E+00  0.10566000000E+00 0.  1.
     999900   -1    0    0    0    0 -0.00000000000E+00 -0.00000000000E+00 -0.74505805969E-08  0.93827000000E+00  0.93827000000E+00 0.  1.
     999902    2    1    2    0    0  0.35649810518E-02  0.12314123606E-01  0.37835477509E-02  0.10305635508E+01  0.10304768655E+01 0.  0.
     999903    2    3    3    0    0 -0.47815935262E-01  0.11969755748E+00  0.37826133512E-01  0.14189595375E+00  0.45714072062E-01 0.  0.
         14    1    1    2    0    0 -0.35649810518E-02 -0.12314123606E-01 -0.37835477509E-02  0.13366449180E-01  0.00000000000E+00 0. -1.
     999901    1    3    3    0    0  0.51380916314E-01 -0.10738343387E+00 -0.34042585761E-01  0.88866759707E+00  0.88000000000E+00 0. -1.
        -11    1    4    4    0    0 -0.13442794534E-01  0.90504314548E-01  0.22069217349E-01  0.94122532648E-01  0.51100000000E-03 0. -1.
         11    1    4    4    0    0 -0.34373140728E-01  0.29193242929E-01  0.15756916163E-01  0.47773421106E-01  0.51100000000E-03 0.  1.
</event>
<event>
 8    1  0.2107254E+004  0.1043930E+01  0.7957747E-01            NaN
         13   -1    0    0    0    0  0.00000000000E+00  0.00000000000E+00  0.74505805969E-08  0.10566000000E+00  0.10566000000E+00 0.  1.
     999900   -1    0    0    0    0 -0.00000000000E+00 -0.00000000000E+00 -0.74505805969E-08  0.93827000000E+00  0.93827000000E+00 0. -1.
     999902    2    1    2    0    0 -0.14891781296E-02 -0.12901955389E-01 -0.22096047753E-02  0.10307557654E+01  0.10306715711E+01 0.  0.
     999903    2    3    3    0    0  0.54416929871E-02  0.16990361239E-01 -0.13180595065E+00  0.14073509123E+00  0.45992095830E-01 0.  0.
         14    1    1    2    0    0  0.14891781296E-02  0.12901955389E-01  0.22096047753E-02  0.13174234612E-01  0.00000000000E+00 0.  1.
     999901    1    3    3    0    0 -0.69308711167E-02 -0.29892316628E-01  0.12959634587E+00  0.89002067416E+00  0.88000000000E+00 0.  1.
        -11    1    4    4    0    0 -0.10294858589E-01 -0.96844254040E-02 -0.72083802004E-01  0.73458204723E-01  0.51100000000E-03 0.  1.
         11    1    4    4    0    0  0.15736551577E-01  0.26674786644E-01 -0.59722148645E-01  0.67276886505E-01  0.51100000000E-03 0. -1.
</event>
<event>
 8    1  0.2107254E+004  0.1043930E+01  0.7957747E-01            NaN
         13   -1    0    0    0    0  0.00000000000E+00  0.00000000000E+00  0.74505805969E-08  0.10566000000E+00  0.10566000000E+00 0.  1.
     999900   -1    0    0    0    0 -0.00000000000E+00 -0.00000000000E+00 -0.74505805969E-08  0.93827000000E+00  0.93827000000E+00 0.  1.
     999902    2    1    2    0    0  0.80562349432E-02 -0.11878639523E-01 -0.67521129248E-03  0.10295612524E+01  0.10294609810E+01 0.  0.
     999903    2    3    3    0    0  0.86459034604E-01 -0.33736760636E-01 -0.96471474291E-01  0.14062835250E+00  0.43084271979E-01 0.  0.
         14    1    1    2    0    0 -0.80562349432E-02  0.11878639523E-01  0.67521129248E-03  0.14368747638E-01  0.00000000000E+00 0.  1.
     999901    1    3    3    0    0 -0.78402799661E-01  0.21858121112E-01  0.95796262999E-01  0.88893289986E+00  0.88000000000E+00 0. -1.
        -11    1    4    4    0    0  0.16363549557E-01 -0.18219085321E-01 -0.48344418871E-01  0.54195431367E-01  0.51100000000E-03 0. -1.
         11    1    4    4    0    0  0.70095485047E-01 -0.15517675315E-01 -0.48127055420E-01  0.86432921133E-01  0.51100000000E-03 0.  1.
</event>
<event>
 8    1  0.2107254E+004  0.1043930E+01  0.7957747E-01            NaN
         13   -1    0    0    0    0  0.00000000000E+00  0.00000000000E+00  0.74505805969E-08  0.10566000000E+00  0.10566000000E+00 0. -1.
     999900   -1    0    0    0    0 -0.00000000000E+00 -0.00000000000E+00 -0.74505805969E-08  0.93827000000E+00  0.93827000000E+00 0. -1.
     999902    2    1    2    0    0 -0.14463827675E-02  0.91623544927E-02  0.99526968543E-02  0.10303249665E+01  0.10302351380E+01 0.  0.
     999903    2    3    3    0    0  0.12628619243E-01  0.43695057101E-01 -0.12394245203E+00  0.13941614726E+00  0.44792752352E-01 0.  0.
         14    1    1    2    0    0  0.14463827675E-02 -0.91623544927E-02 -0.99526968543E-02  0.13605033540E-01  0.00000000000E+00 0.  1.
     999901    1    3    3    0    0 -0.14075002010E-01 -0.34532702608E-01  0.13389514888E+00  0.89090881920E+00  0.88000000000E+00 0.  1.
        -11    1    4    4    0    0  0.13102702629E-03  0.36633895899E-02 -0.74455694829E-01  0.74547630444E-01  0.51100000000E-03 0. -1.
         11    1    4    4    0    0  0.12497592216E-01  0.40031667511E-01 -0.49486757200E-01  0.64868516817E-01  0.51100000000E-03 0.  1.
</event>
<event>
 8    1  0.2107254E+004  0.1043930E+01  0.7957747E-01            NaN
         13   -1    0    0    0    0  0.00000000000E+00  0.00000000000E+00  0.74505805969E-08  0.10566000000E+00  0.10566000000E+00 0.  1.
     999900   -1    0    0    0    0 -0.00000000000E+00 -0.00000000000E+00 -0.74505805969E-08  0.93827000000E+00  0.93827000000E+00 0.  1.
     999902    2    1    2    0    0 -0.70143489868E-02 -0.44633650814E-02  0.11212503509E-01  0.10299713842E+01  0.10298767933E+01 0.  0.
     999903    2    3    3    0    0  0.15273417219E-01 -0.13160269140E+00 -0.81882948396E-02  0.14034362847E+00  0.45571265333E-01 0.  0.
         14    1    1    2    0    0  0.70143489868E-02  0.44633650814E-02 -0.11212503509E-01  0.13958615781E-01  0.00000000000E+00 0. -1.
     999901    1    3    3    0    0 -0.22287766206E-01  0.12713932632E+00  0.19400798349E-01  0.88962775575E+00  0.88000000000E+00 0.  1.
        -11    1    4    4    0    0  0.53041864882E-02 -0.62415463361E-01 -0.26599604067E-01  0.68056039544E-01  0.51100000000E-03 0. -1.
         11    1    4    4    0    0  0.99692307307E-02 -0.69187228036E-01  0.18411309228E-01  0.72287588928E-01  0.51100000000E-03 0.  1.
</event>
<event>
 8    1  0.2107254E+004  0.1043930E+01  0.7957747E-01            NaN
         13   -1    0    0    0    0  0.00000000000E+00  0.00000000000E+00  0.74505805969E-08  0.10566000000E+00  0.10566000000E+00 0.  1.
     999900   -1    0    0    0    0 -0.00000000000E+00 -0.00000000000E+00 -0.74505805969E-08  0.93827000000E+00  0.93827000000E+00 0. -1.
     999902    2    1    2    0    0 -0.88811469953E-02  0.77637801072E-02  0.67568259014E-02  0.10303356721E+01  0.10302459859E+01 0.  0.
     999903    2    3    3    0    0  0.11226539522E+00  0.56392589857E-01  0.42636638220E-01  0.13998259232E+00  0.44649748933E-01 0.  0.
         14    1    1    2    0    0  0.88811469953E-02 -0.77637801072E-02 -0.67568259014E-02  0.13594327853E-01  0.00000000000E+00 0. -1.
     999901    1    3    3    0    0 -0.12114654221E+00 -0.48628809750E-01 -0.35879812318E-01  0.89035307983E+00  0.88000000000E+00 0. -1.
        -11    1    4    4    0    0  0.10794980419E+00  0.39793582328E-01  0.42987637182E-01  0.12282054995E+00  0.51100000000E-03 0.  1.
         11    1    4    4    0    0  0.43155910243E-02  0.16599007529E-01 -0.35099896227E-03  0.17162042365E-01  0.51100000000E-03 0. -1.
</event>
<event>
 8    1  0.2107254E+004  0.1043930E+01  0.7957747E-01            NaN
         13   -1    0    0    0    0  0.00000000000E+00  0.00000000000E+00  0.74505805969E-08  0.10566000000E+00  0.10566000000E+00 0.  1.
     999900   -1    0    0    0    0 -0.00000000000E+00 -0.00000000000E+00 -0.74505805969E-08  0.93827000000E+00  0.93827000000E+00 0. -1.
     999902    2    1    2    0    0 -0.24538041354E-03 -0.12015811645E-02 -0.13328146975E-01  0.10305455497E+01  0.10304586292E+01 0.  0.
     999903    2    3    3    0    0  0.92412870833E-01 -0.78519656601E-01  0.48063167166E-01  0.14019026678E+00  0.51359202626E-01 0.  0.
         14    1    1    2    0    0  0.24538041354E-03  0.12015811645E-02  0.13328146975E-01  0.13384450330E-01  0.00000000000E+00 0.  1.
     999901    1    3    3    0    0 -0.92658251246E-01  0.77318075436E-01 -0.61391314142E-01  0.89035528289E+00  0.88000000000E+00 0. -1.
        -11    1    4    4    0    0  0.84298338557E-01 -0.80584105592E-01  0.55340792198E-01  0.12908474875E+00  0.51100000000E-03 0.  1.
         11    1    4    4    0    0  0.81145322761E-02  0.20644489910E-02 -0.72776250321E-02  0.11105518034E-01  0.51100000000E-03 0. -1.
</event>
<event>
 8    1  0.2107254E+004  0.1043930E+01  0.7957747E-01            NaN
         13   -1    0    0    0    0  0.00000000000E+00  0.00000000000E+00  0.74505805969E-08  0.10566000000E+00  0.10566000000E+00 0. -1.
     999900   -1    0    0    0    0 -0.00000000000E+00 -0.00000000000E+00 -0.74505805969E-08  0.93827000000E+00  0.93827000000E+00 0.  1.
     999902    2    1    2    0    0 -0.15282788804E-01 -0.31535842080E-02 -0.38947721822E-02  0.10278465309E+01  0.10277206883E+01 0.  0.
     999903    2    3    3    0    0  0.55614595477E-01 -0.11593598885E+00  0.19513535842E-01  0.13751274028E+00  0.44663619593E-01 0.  0.
         14    1    1    2    0    0  0.15282788804E-01  0.31535842080E-02  0.38947721822E-02  0.16083469070E-01  0.00000000000E+00 0. -1.
     999901    1    3    3    0    0 -0.70897384281E-01  0.11278240465E+00 -0.23408308024E-01  0.89033379065E+00  0.88000000000E+00 0. -1.
        -11    1    4    4    0    0 -0.65344601284E-02 -0.19612489916E-01  0.84761059838E-02  0.22348476984E-01  0.51100000000E-03 0.  1.
         11    1    4    4    0    0  0.62149055606E-01 -0.96323498939E-01  0.11037429858E-01  0.11516426329E+00  0.51100000000E-03 0. -1.
</event>
<event>
 8    1  0.2107254E+004  0.1043930E+01  0.7957747E-01            NaN
         13   -1    0    0    0    0  0.00000000000E+00  0.00000000000E+00  0.74505805969E-08  0.10566000000E+00  0.10566000000E+00 0.  1.
     999900   -1    0    0    0    0 -0.00000000000E+00 -0.00000000000E+00 -0.74505805969E-08  0.93827000000E+00  0.93827000000E+00 0. -1.
     999902    2    1    2    0    0  0.81428417773E-02  0.53329808928E-02  0.98226803936E-02  0.10301013483E+01  0.10300085224E+01 0.  0.
     999903    2    3    3    0    0  0.10074426175E+00  0.85406834633E-01  0.23079423474E-01  0.14152800510E+00  0.45318680060E-01 0.  0.
         14    1    1    2    0    0 -0.81428417773E-02 -0.53329808928E-02 -0.98226803936E-02  0.13828651689E-01  0.00000000000E+00 0. -1.
     999901    1    3    3    0    0 -0.92601419968E-01 -0.80073853740E-01 -0.13256743081E-01  0.88857334321E+00  0.88000000000E+00 0.  1.
        -11    1    4    4    0    0  0.72685016003E-01  0.55597708643E-01 -0.53751779182E-02  0.91669899184E-01  0.51100000000E-03 0. -1.
         11    1    4    4    0    0  0.28059245743E-01  0.29809125990E-01  0.28454601393E-01  0.49858105914E-01  0.51100000000E-03 0.  1.
</event>
<event>
 8    1  0.2107254E+004  0.1043930E+01  0.7957747E-01            NaN
         13   -1    0    0    0    0  0.00000000000E+00  0.00000000000E+00  0.74505805969E-08  0.10566000000E+00  0.10566000000E+00 0.  1.
     999900   -1    0    0    0    0 -0.00000000000E+00 -0.00000000000E+00 -0.74505805969E-08  0.93827000000E+00  0.93827000000E+00 0. -1.
     999902    2    1    2    0    0 -0.59140944692E-02  0.10823403055E-01  0.40446902724E-02  0.10309499350E+01  0.10308682197E+01 0.  0.
     999903    2    3    3    0    0 -0.12808377144E+00  0.38438441731E-01  0.14762391678E-01  0.14201636640E+00  0.45472561035E-01 0.  0.
         14    1    1    2    0    0  0.59140944692E-02 -0.10823403055E-01 -0.40446902724E-02  0.12980064964E-01  0.00000000000E+00 0. -1.
     999901    1    3    3    0    0  0.12216967697E+00 -0.27615038676E-01 -0.10717701406E-01  0.88893356864E+00  0.88000000000E+00 0.  1.
        -11    1    4    4    0    0 -0.76900206137E-01  0.10567833968E-01  0.27512475256E-01  0.82356045525E-01  0.51100000000E-03 0.  1.
         11    1    4    4    0    0 -0.51183565302E-01  0.27870607763E-01 -0.12750083577E-01  0.59660320871E-01  0.51100000000E-03 0. -1.
</event>
<event>
 8    1  0.2107254E+004  0.1043930E+01  0.7957747E-01            NaN
         13   -1    0    0    0    0  0.00000000000E+00  0.00000000000E+00  0.74505805969E-08  0.10566000000E+00  0.10566000000E+00 0. -1.
     999900   -1    0    0    0    0 -0.00000000000E+00 -0.00000000000E+00 -0.74505805969E-08  0.93827000000E+00  0.93827000000E+00 0. -1.
     999902    2    1    2    0    0  0.23605634945E-02  0.21482439782E-02  0.12655413528E-01  0.10308783065E+01  0.10307956810E+01 0.  0.
     999903    2    3    3    0    0 -0.50419207199E-01  0.66697265933E-01  0.99326137665E-01  0.14269809118E+00  0.59215216499E-01 0.  0.
         14    1    1    2    0    0 -0.23605634945E-02 -0.21482439782E-02 -0.12655413528E-01  0.13051693521E-01  0.00000000000E+00 0.  1.
     999901    1    3    3    0    0  0.52779770693E-01 -0.64549021954E-01 -0.86670724137E-01  0.88818021530E+00  0.88000000000E+00 0. -1.
        -11    1    4    4    0    0 -0.12098059215E-01  0.40487399931E-01  0.83605778771E-01  0.93679132974E-01  0.51100000000E-03 0.  1.
         11    1    4    4    0    0 -0.38321147984E-01  0.26209866001E-01  0.15720358894E-01  0.49018958204E-01  0.51100000000E-03 0. -1.
</event>
<event>
 8    1  0.2220382E+004  0.1043930E+01  0.7957747E-01            NaN
         13   -1    0    0    0    0  0.00000000000E+00  0.00000000000E+00  0.74505805969E-08  0.10566000000E+00  0.10566000000E+00 0.  1.
     999900   -1    0    0    0    0 -0.00000000000E+00 -0.00000000000E+00 -0.74505805969E-08  0.93827000000E+00  0.93827000000E+00 0. -1.
     999902    2    1    2    0    0  0.14742457093E-02 -0.10069057749E-01  0.90194959105E-02  0.10303318152E+01  0.10302420777E+01 0.  0.
     999903    2    3    3    0    0  0.32547855965E-01 -0.63403412522E-01  0.11430777595E+00  0.14190863640E+00  0.44636731460E-01 0.  0.
         14    1    1    2    0    0 -0.14742457093E-02  0.10069057749E-01 -0.90194959105E-02  0.13598184836E-01  0.00000000000E+00 0. -1.
     999901    1    3    3    0    0 -0.31073610256E-01  0.53334354773E-01 -0.10528828004E+00  0.88842317876E+00  0.88000000000E+00 0. -1.
        -11    1    4    4    0    0  0.37834731592E-01 -0.27320386502E-01  0.53441190625E-01  0.70951338322E-01  0.51100000000E-03 0.  1.
         11    1    4    4    0    0 -0.52868756273E-02 -0.36083026020E-01  0.60866585322E-01  0.70957298077E-01  0.51100000000E-03 0. -1.
</event>
<event>
 8    1  0.2107254E+004  0.1043930E+01  0.7957747E-01            NaN
         13   -1    0    0    0    0  0.00000000000E+00  0.00000000000E+00  0.74505805969E-08  0.10566000000E+00  0.10566000000E+00 0.  1.
     999900   -1    0    0    0    0 -0.00000000000E+00 -0.00000000000E+00 -0.74505805969E-08  0.93827000000E+00  0.93827000000E+00 0. -1.
     999902    2    1    2    0    0 -0.77834459588E-02  0.10188647829E-01 -0.70159496005E-02  0.10293144561E+01  0.10292106856E+01 0.  0.
     999903    2    3    3    0    0  0.52326246740E-02  0.70091578126E-01  0.11153114342E+00  0.13925199061E+00  0.44852104199E-01 0.  0.
         14    1    1    2    0    0  0.77834459588E-02 -0.10188647829E-01  0.70159496005E-02  0.14615543930E-01  0.00000000000E+00 0.  1.
     999901    1    3    3    0    0 -0.13016070633E-01 -0.59902930297E-01 -0.11854709302E+00  0.89006246546E+00  0.88000000000E+00 0. -1.
        -11    1    4    4    0    0  0.20979031481E-01  0.29850805292E-01  0.71839786381E-01  0.80575470006E-01  0.51100000000E-03 0.  1.
         11    1    4    4    0    0 -0.15746406807E-01  0.40240772833E-01  0.39691357042E-01  0.58676520606E-01  0.51100000000E-03 0. -1.
</event>
<event>
 8    1  0.2107254E+004  0.1043930E+01  0.7957747E-01            NaN
         13   -1    0    0    0    0  0.00000000000E+00  0.00000000000E+00  0.74505805969E-08  0.10566000000E+00  0.10566000000E+00 0. -1.
     999900   -1    0    0    0    0 -0.00000000000E+00 -0.00000000000E+00 -0.74505805969E-08  0.93827000000E+00  0.93827000000E+00 0. -1.
     999902    2    1    2    0    0 -0.13805280087E-02 -0.17793914082E-02  0.12949309462E-01  0.10307863054E+01  0.10307025035E+01 0.  0.
     999903    2    3    3    0    0  0.62159806546E-01  0.76045594236E-01 -0.86648459585E-01  0.13948735552E+00  0.47979087635E-01 0.  0.
         14    1    1    2    0    0  0.13805280087E-02  0.17793914082E-02 -0.12949309462E-01  0.13143694569E-01  0.00000000000E+00 0.  1.
     999901    1    3    3    0    0 -0.63540334555E-01 -0.77824985644E-01  0.99597769047E-01  0.89129894991E+00  0.88000000000E+00 0.  1.
        -11    1    4    4    0    0  0.96085207718E-02  0.26773854696E-01 -0.22712458921E-02  0.28540894268E-01  0.51100000000E-03 0. -1.
         11    1    4    4    0    0  0.52551285774E-01  0.49271739540E-01 -0.84377213693E-01  0.11094646126E+00  0.51100000000E-03 0.  1.
</event>
<event>
 8    1  0.2107254E+004  0.1043930E+01  0.7957747E-01            NaN
         13   -1    0    0    0    0  0.00000000000E+00  0.00000000000E+00  0.74505805969E-08  0.10566000000E+00  0.10566000000E+00 0.  1.
     999900   -1    0    0    0    0 -0.00000000000E+00 -0.00000000000E+00 -0.74505805969E-08  0.93827000000E+00  0.93827000000E+00 0.  1.
     999902    2    1    2    0    0 -0.10091918371E-01 -0.17993296415E-04 -0.10069951792E-01  0.10296733851E+01  0.10295746835E+01 0.  0.
     999903    2    3    3    0    0 -0.31373072886E-01 -0.53574757165E-01  0.11585229641E+00  0.13884364427E+00  0.44735653164E-01 0.  0.
         14    1    1    2    0    0  0.10091918371E-01  0.17993296415E-04  0.10069951792E-01  0.14256614929E-01  0.00000000000E+00 0.  1.
     999901    1    3    3    0    0  0.21281154515E-01  0.53556763868E-01 -0.12592224820E+00  0.89082974080E+00  0.88000000000E+00 0.  1.
        -11    1    4    4    0    0 -0.29762825834E-01 -0.78840461584E-02  0.47592631190E-01  0.56686009298E-01  0.51100000000E-03 0.  1.
         11    1    4    4    0    0 -0.16102470512E-02 -0.45690711006E-01  0.68259665222E-01  0.82157634977E-01  0.51100000000E-03 0. -1.
</event>
<event>
 8    1  0.2107254E+004  0.1043930E+01  0.7957747E-01            NaN
         13   -1    0    0    0    0  0.00000000000E+00  0.00000000000E+00  0.74505805969E-08  0.10566000000E+00  0.10566000000E+00 0.  1.
     999900   -1    0    0    0    0 -0.00000000000E+00 -0.00000000000E+00 -0.74505805969E-08  0.93827000000E+00  0.93827000000E+00 0. -1.
     999902    2    1    2    0    0 -0.72719768187E-03  0.11684410459E-01 -0.72978650562E-02  0.10301345986E+01  0.10300422216E+01 0.  0.
     999903    2    3    3    0    0 -0.44218345286E-02 -0.11965170117E+00 -0.53523928308E-01  0.13918023759E+00  0.46585892933E-01 0.  0.
         14    1    1    2    0    0  0.72719768187E-03 -0.11684410459E-01  0.72978650562E-02  0.13795401358E-01  0.00000000000E+00 0.  1.
     999901    1    3    3    0    0  0.36946368467E-02  0.13133611163E+00  0.46226063252E-01  0.89095436105E+00  0.88000000000E+00 0. -1.
        -11    1    4    4    0    0 -0.24274753882E-01 -0.46699759095E-01 -0.17840486725E-01  0.55575851439E-01  0.51100000000E-03 0.  1.
         11    1    4    4    0    0  0.19852919353E-01 -0.72951942073E-01 -0.35683441583E-01  0.83604386149E-01  0.51100000000E-03 0. -1.
</event>
<event>
 8    1  0.2107254E+004  0.1043930E+01  0.7957747E-01            NaN
         13   -1    0    0    0    0  0.00000000000E+00  0.00000000000E+00  0.74505805969E-08  0.10566000000E+00  0.10566000000E+00 0. -1.
     999900   -1    0    0    0    0 -0.00000000000E+00 -0.00000000000E+00 -0.74505805969E-08  0.93827000000E+00  0.93827000000E+00 0. -1.
     999902    2    1    2    0    0  0.97040836653E-02 -0.82173961572E-02  0.47551626285E-02  0.10303540503E+01  0.10302646080E+01 0.  0.
     999903    2    3    3    0    0 -0.12599475162E+00  0.33393560188E-01  0.15889130171E-01  0.13891161757E+00  0.45322905250E-01 0.  0.
         14    1    1    2    0    0 -0.97040836653E-02  0.82173961572E-02 -0.47551626285E-02  0.13575949728E-01  0.00000000000E+00 0.  1.
     999901    1    3    3    0    0  0.13569883529E+00 -0.41610956345E-01 -0.11133967542E-01  0.89144243270E+00  0.88000000000E+00 0. -1.
        -11    1    4    4    0    0 -0.78814395728E-01 -0.25374266804E-03 -0.18086269613E-04  0.78816462795E-01  0.51100000000E-03 0. -1.
         11    1    4    4    0    0 -0.47180355894E-01  0.33647302856E-01  0.15907216440E-01  0.60095154777E-01  0.51100000000E-03 0.  1.
</event>
<event>
 8    1  0.2107254E+004  0.1043930E+01  0.7957747E-01            NaN
         13   -1    0    0    0    0  0.00000000000E+00  0.00000000000E+00  0.74505805969E-08  0.10566000000E+00  0.10566000000E+00 0.  1.
     999900   -1    0    0    0    0 -0.00000000000E+00 -0.00000000000E+00 -0.74505805969E-08  0.93827000000E+00  0.93827000000E+00 0. -1.
     999902    2    1    2    0    0  0.79540365872E-02 -0.10554641333E-01 -0.28539546351E-02  0.10304091935E+01  0.10303204811E+01 0.  0.
     999903    2    3    3    0    0 -0.81225141293E-01  0.63908977940E-01  0.81113679543E-01  0.13881044968E+00  0.44799898356E-01 0.  0.
         14    1    1    2    0    0 -0.79540365872E-02  0.10554641333E-01  0.28539546351E-02  0.13520806513E-01  0.00000000000E+00 0. -1.
     999901    1    3    3    0    0  0.89179177881E-01 -0.74463619273E-01 -0.83967634178E-01  0.89159874380E+00  0.88000000000E+00 0.  1.
        -11    1    4    4    0    0 -0.24812042075E-01  0.14412194686E-01  0.49824133544E-01  0.57498297296E-01  0.51100000000E-03 0.  1.
         11    1    4    4    0    0 -0.56413099219E-01  0.49496783254E-01  0.31289546000E-01  0.81312152387E-01  0.51100000000E-03 0. -1.
</event>
<event>
 8    1  0.2107254E+004  0.1043930E+01  0.7957747E-01            NaN
         13   -1    0    0    0    0  0.00000000000E+00  0.00000000000E+00  0.74505805969E-08  0.10566000000E+00  0.10566000000E+00 0. -1.
     999900   -1    0    0    0    0 -0.00000000000E+00 -0.00000000000E+00 -0.74505805969E-08  0.93827000000E+00  0.93827000000E+00 0.  1.
     999902    2    1    2    0    0  0.98686716324E-02 -0.17896155494E-02 -0.96105944069E-02  0.10300391063E+01  0.10299454372E+01 0.  0.
     999903    2    3    3    0    0 -0.51762876978E-01  0.77627474476E-01  0.91765890503E-01  0.13853323772E+00  0.45442920985E-01 0.  0.
         14    1    1    2    0    0 -0.98686716324E-02  0.17896155494E-02  0.96105944069E-02  0.13890893724E-01  0.00000000000E+00 0. -1.
     999901    1    3    3    0    0  0.61631548610E-01 -0.79417090026E-01 -0.10137648491E+00  0.89150586855E+00  0.88000000000E+00 0.  1.
        -11    1    4    4    0    0 -0.48333612828E-01  0.38803069689E-01  0.71409514362E-01  0.94558956259E-01  0.51100000000E-03 0.  1.
         11    1    4    4    0    0 -0.34292641491E-02  0.38824404787E-01  0.20356376140E-01  0.43974281463E-01  0.51100000000E-03 0. -1.
</event>
<event>
 8    1  0.2107254E+004  0.1043930E+01  0.7957747E-01            NaN
         13   -1    0    0    0    0  0.00000000000E+00  0.00000000000E+00  0.74505805969E-08  0.10566000000E+00  0.10566000000E+00 0. -1.
     999900   -1    0    0    0    0 -0.00000000000E+00 -0.00000000000E+00 -0.74505805969E-08  0.93827000000E+00  0.93827000000E+00 0.  1.
     999902    2    1    2    0    0 -0.24987736436E-02 -0.12558797370E-01 -0.64886997013E-02  0.10295748447E+01  0.10294747643E+01 0.  0.
     999903    2    3    3    0    0  0.18023101041E-01  0.53693170770E-01 -0.11888480620E+00  0.13971903871E+00  0.46690725787E-01 0.  0.
         14    1    1    2    0    0  0.24987736436E-02  0.12558797370E-01  0.64886997013E-02  0.14355155343E-01  0.00000000000E+00 0. -1.
     999901    1    3    3    0    0 -0.20521874685E-01 -0.66251968141E-01  0.11239610650E+00  0.88985580595E+00  0.88000000000E+00 0. -1.
        -11    1    4    4    0    0  0.13012953695E-01  0.62140755413E-01 -0.10067824261E+00  0.11902596399E+00  0.51100000000E-03 0. -1.
         11    1    4    4    0    0  0.50101473463E-02 -0.84475846431E-02 -0.18206563587E-01  0.20693074721E-01  0.51100000000E-03 0.  1.
</event>
<event>
 8    1  0.2107254E+004  0.1043930E+01  0.7957747E-01            NaN
         13   -1    0    0    0    0  0.00000000000E+00  0.00000000000E+00  0.74505805969E-08  0.10566000000E+00  0.10566000000E+00 0. -1.
     999900   -1    0    0    0    0 -0.00000000000E+00 -0.00000000000E+00 -0.74505805969E-08  0.93827000000E+00  0.93827000000E+00 0. -1.
     999902    2    1    2    0    0  0.63143593128E-02 -0.11966894980E-01  0.57989446761E-02  0.10292090806E+01  0.10291037975E+01 0.  0.
     999903    2    3    3    0    0  0.84291181361E-01  0.72875671844E-01 -0.69556646728E-01  0.13850311840E+00  0.43921747464E-01 0.  0.
         14    1    1    2    0    0 -0.63143593128E-02  0.11966894980E-01 -0.57989446761E-02  0.14720919412E-01  0.00000000000E+00 0. -1.
     999901    1    3    3    0    0 -0.77976822049E-01 -0.84842566823E-01  0.75355591404E-01  0.89070596219E+00  0.88000000000E+00 0.  1.
        -11    1    4    4    0    0  0.47099023681E-01  0.19213383348E-01 -0.47463128482E-01  0.69573571259E-01  0.51100000000E-03 0.  1.
         11    1    4    4    0    0  0.37192157681E-01  0.53662288496E-01 -0.22093518246E-01  0.68929547141E-01  0.51100000000E-03 0. -1.
</event>
<event>
 8    1  0.2107254E+004  0.1043930E+01  0.7957747E-01            NaN
         13   -1    0    0    0    0  0.00000000000E+00  0.00000000000E+00  0.74505805969E-08  0.10566000000E+00  0.10566000000E+00 0. -1.
     999900   -1    0    0    0    0 -0.00000000000E+00 -0.00000000000E+00 -0.74505805969E-08  0.93827000000E+00  0.93827000000E+00 0.  1.
     999902    2    1    2    0    0 -0.60630889647E-02  0.12224926137E-01  0.14848640142E-01  0.10237633944E+01  0.10235647492E+01 0.  0.
     999903    2    3    3    0    0 -0.12925858295E-01  0.92256750376E-01 -0.86527140539E-01  0.13430893273E+00  0.43284611114E-01 0.  0.
         14    1    1    2    0    0  0.60630889647E-02 -0.12224926137E-01 -0.14848640142E-01  0.20166605588E-01  0.00000000000E+00 0.  1.
     999901    1    3    3    0    0  0.68627693308E-02 -0.80031824238E-01  0.10137578068E+00  0.88945446168E+00  0.88000000000E+00 0. -1.
        -11    1    4    4    0    0  0.37860809731E-02  0.44598163490E-01 -0.66096224912E-01  0.79826703956E-01  0.51100000000E-03 0.  1.
         11    1    4    4    0    0 -0.16711939269E-01  0.47658586886E-01 -0.20430915626E-01  0.54482228776E-01  0.51100000000E-03 0. -1.
</event>
<event>
 8    1  0.2107254E+004  0.1043930E+01  0.7957747E-01            NaN
         13   -1    0    0    0    0  0.00000000000E+00  0.00000000000E+00  0.74505805969E-08  0.10566000000E+00  0.10566000000E+00 0.  1.
     999900   -1    0    0    0    0 -0.00000000000E+00 -0.00000000000E+00 -0.74505805969E-08  0.93827000000E+00  0.93827000000E+00 0.  1.
     999902    2    1    2    0    0  0.71619314716E-02 -0.10499249038E-01 -0.46260548736E-02  0.10304049168E+01  0.10303161479E+01 0.  0.
     999903    2    3    3    0    0 -0.26554226157E-01 -0.12088945474E+00  0.51342924242E-01  0.14110445943E+00  0.44215216924E-01 0.  0.
         14    1    1    2    0    0 -0.71619314716E-02  0.10499249038E-01  0.46260548736E-02  0.13525083233E-01  0.00000000000E+00 0.  1.
     999901    1    3    3    0    0  0.33716157629E-01  0.11039020570E+00 -0.55968979116E-01  0.88930045734E+00  0.88000000000E+00 0. -1.
        -11    1    4    4    0    0 -0.24397195556E-01 -0.65410554711E-01  0.49442580419E-01  0.85548779641E-01  0.51100000000E-03 0. -1.
         11    1    4    4    0    0 -0.21570306015E-02 -0.55478900025E-01  0.19003438235E-02  0.55555679787E-01  0.51100000000E-03 0.  1.
</event>
<event>
 7    1  0.2107254E+004  0.1043930E+01  0.7957747E-01            NaN
         13   -1    0    0    0    0  0.00000000000E+00  0.00000000000E+00  0.74505805969E-08  0.10566000000E+00  0.10566000000E+00 0.  1.
     999900   -1    0    0    0    0 -0.00000000000E+00 -0.00000000000E+00 -0.74505805969E-08  0.93827000000E+00  0.93827000000E+00 0. -1.
     999903    2    1    2    0    0 -0.55819972023E-01 -0.30175621513E-02 -0.57789664804E-02  0.71809820885E-01  0.44702113640E-01 0.  0.
         14    1    1    2    0    0  0.68424874682E-01  0.56834588989E-01 -0.14654581749E-01  0.90149269254E-01  0.00000000000E+00 0. -1.
     999901    1    1    2    0    0 -0.12604902658E-01 -0.53817026838E-01  0.20433548229E-01  0.88197090986E+00  0.88000000000E+00 0.  1.
        -11    1    3    3    0    0 -0.18613680078E-01  0.20364917881E-01 -0.33331842945E-02  0.27795147146E-01  0.51100000000E-03 0.  1.
         11    1    3    3    0    0 -0.37206291946E-01 -0.23382480032E-01 -0.24457821858E-02  0.44014673739E-01  0.51100000000E-03 0. -1.
</event>
<event>
 8    1  0.2107254E+004  0.1043930E+01  0.7957747E-01            NaN
         13   -1    0    0    0    0  0.00000000000E+00  0.00000000000E+00  0.74505805969E-08  0.10566000000E+00  0.10566000000E+00 0. -1.
     999900   -1    0    0    0    0 -0.00000000000E+00 -0.00000000000E+00 -0.74505805969E-08  0.93827000000E+00  0.93827000000E+00 0.  1.
     999902    2    1    2    0    0  0.13481931467E-01 -0.33903065689E-02  0.23906125848E-02  0.10298242677E+01  0.10297276585E+01 0.  0.
     999903    2    3    3    0    0  0.33979958719E-01  0.12789325086E+00 -0.57966134229E-02  0.13981158677E+00  0.44747713451E-01 0.  0.
         14    1    1    2    0    0 -0.13481931467E-01  0.33903065689E-02 -0.23906125848E-02  0.14105732283E-01  0.00000000000E+00 0. -1.
     999901    1    3    3    0    0 -0.20498027252E-01 -0.13128355743E+00  0.81872260077E-02  0.89001268094E+00  0.88000000000E+00 0. -1.
        -11    1    4    4    0    0  0.40707175313E-04  0.37889122354E-01 -0.19554759985E-01  0.42640790435E-01  0.51100000000E-03 0.  1.
         11    1    4    4    0    0  0.33939251544E-01  0.90004128504E-01  0.13758146562E-01  0.97170796338E-01  0.51100000000E-03 0. -1.
</event>
<event>
 8    1  0.2107254E+004  0.1043930E+01  0.7957747E-01            NaN
         13   -1    0    0    0    0  0.00000000000E+00  0.00000000000E+00  0.74505805969E-08  0.10566000000E+00  0.10566000000E+00 0. -1.
     999900   -1    0    0    0    0 -0.00000000000E+00 -0.00000000000E+00 -0.74505805969E-08  0.93827000000E+00  0.93827000000E+00 0.  1.
     999902    2    1    2    0    0  0.69249200531E-02 -0.21187092817E-02  0.12347567353E-01  0.10296154666E+01  0.10295159558E+01 0.  0.
     999903    2    3    3    0    0 -0.12665244763E+00  0.21702240779E-01 -0.14032678146E-01  0.13882577865E+00  0.50634484447E-01 0.  0.
         14    1    1    2    0    0 -0.69249200531E-02  0.21187092817E-02 -0.12347567353E-01  0.14314533394E-01  0.00000000000E+00 0.  1.
     999901    1    3    3    0    0  0.13357736769E+00 -0.23820950060E-01  0.26380245499E-01  0.89078968796E+00  0.88000000000E+00 0. -1.
        -11    1    4    4    0    0 -0.39332599765E-01 -0.15011663638E-01  0.43700479241E-02  0.42329208466E-01  0.51100000000E-03 0. -1.
         11    1    4    4    0    0 -0.87319847867E-01  0.36713904417E-01 -0.18402726071E-01  0.96496570182E-01  0.51100000000E-03 0.  1.
</event>
<event>
 8    1  0.2107254E+004  0.1043930E+01  0.7957747E-01            NaN
         13   -1    0    0    0    0  0.00000000000E+00  0.00000000000E+00  0.74505805969E-08  0.10566000000E+00  0.10566000000E+00 0. -1.
     999900   -1    0    0    0    0 -0.00000000000E+00 -0.00000000000E+00 -0.74505805969E-08  0.93827000000E+00  0.93827000000E+00 0. -1.
     999902    2    1    2    0    0  0.98672930705E-03 -0.82006821027E-02  0.11395722542E-01  0.10298556505E+01  0.10297594736E+01 0.  0.
     999903    2    3    3    0    0 -0.79768346752E-01 -0.10331003911E+00  0.28111009324E-01  0.14089751149E+00  0.45010294086E-01 0.  0.
         14    1    1    2    0    0 -0.98672930705E-03  0.82006821027E-02 -0.11395722542E-01  0.14074349503E-01  0.00000000000E+00 0. -1.
     999901    1    3    3    0    0  0.80755076059E-01  0.95109357007E-01 -0.16715286782E-01  0.88895813901E+00  0.88000000000E+00 0. -1.
        -11    1    4    4    0    0 -0.73932408108E-01 -0.64008198295E-01  0.25572343173E-01  0.10108044457E+00  0.51100000000E-03 0. -1.
         11    1    4    4    0    0 -0.58359386443E-02 -0.39301840814E-01  0.25386661509E-02  0.39817066920E-01  0.51100000000E-03 0.  1.
</event>
<event>
 8    1  0.2107254E+004  0.1043930E+01  0.7957747E-01            NaN
         13   -1    0    0    0    0  0.00000000000E+00  0.00000000000E+00  0.74505805969E-08  0.10566000000E+00  0.10566000000E+00 0. -1.
     999900   -1    0    0    0    0 -0.00000000000E+00 -0.00000000000E+00 -0.74505805969E-08  0.93827000000E+00  0.93827000000E+00 0.  1.
     999902    2    1    2    0    0  0.12261443947E-01 -0.58180668333E-02 -0.41908224537E-02  0.10297259195E+01  0.10296279490E+01 0.  0.
     999903    2    3    3    0    0 -0.76339268075E-03 -0.12463577183E+00  0.45871784679E-01  0.14023530236E+00  0.45022894298E-01 0.  0.
         14    1    1    2    0    0 -0.12261443947E-01  0.58180668333E-02  0.41908224537E-02  0.14204080477E-01  0.00000000000E+00 0. -1.
     999901    1    3    3    0    0  0.13024836628E-01  0.11881770499E+00 -0.50062607133E-01  0.88949061716E+00  0.88000000000E+00 0.  1.
        -11    1    4    4    0    0 -0.86269934572E-02 -0.82379933973E-01  0.84827926570E-02  0.83265223412E-01  0.51100000000E-03 0. -1.
         11    1    4    4    0    0  0.78636007765E-02 -0.42255837854E-01  0.37388992022E-01  0.56970078948E-01  0.51100000000E-03 0.  1.
</event>
<event>
 7    1  0.3098277E+004  0.1043930E+01  0.7957747E-01            NaN
         13   -1    0    0    0    0  0.00000000000E+00  0.00000000000E+00  0.74505805969E-08  0.10566000000E+00  0.10566000000E+00 0.  1.
     999900   -1    0    0    0    0 -0.00000000000E+00 -0.00000000000E+00 -0.74505805969E-08  0.93827000000E+00  0.93827000000E+00 0. -1.
     999903    2    1    2    0    0 -0.10237572034E-01 -0.66343608059E-01  0.73981762569E-01  0.10942575190E+00  0.44658837581E-01 0.  0.
         14    1    1    2    0    0 -0.11989973179E-01 -0.40312411644E-01 -0.18806185755E-01  0.46070843405E-01  0.00000000000E+00 0.  1.
     999901    1    1    2    0    0  0.22227545213E-01  0.10665601970E+00 -0.55175576814E-01  0.88843340470E+00  0.88000000000E+00 0. -1.
        -11    1    3    3    0    0  0.73077913897E-02 -0.99656577839E-02  0.38728007332E-01  0.40655108203E-01  0.51100000000E-03 0.  1.
         11    1    3    3    0    0 -0.17545363423E-01 -0.56377950275E-01  0.35253755237E-01  0.68770643695E-01  0.51100000000E-03 0. -1.
</event>
<event>
 8    1  0.2107254E+004  0.1043930E+01  0.7957747E-01            NaN
         13   -1    0    0    0    0  0.00000000000E+00  0.00000000000E+00  0.74505805969E-08  0.10566000000E+00  0.10566000000E+00 0. -1.
     999900   -1    0    0    0    0 -0.00000000000E+00 -0.00000000000E+00 -0.74505805969E-08  0.93827000000E+00  0.93827000000E+00 0.  1.
     999902    2    1    2    0    0 -0.13768311743E-01  0.15147307643E-02  0.14954187307E-02  0.10299981267E+01  0.10299039003E+01 0.  0.
     999903    2    3    3    0    0 -0.82964614151E-01  0.73697677509E-01 -0.74832817822E-01  0.14105239954E+00  0.44512401893E-01 0.  0.
         14    1    1    2    0    0  0.13768311743E-01 -0.15147307643E-02 -0.14954187307E-02  0.13931873338E-01  0.00000000000E+00 0.  1.
     999901    1    3    3    0    0  0.69196302408E-01 -0.72182946744E-01  0.76328236553E-01  0.88894572712E+00  0.88000000000E+00 0. -1.
        -11    1    4    4    0    0 -0.17665534233E-01  0.25166578201E-01 -0.35998595247E-03  0.30754161815E-01  0.51100000000E-03 0. -1.
         11    1    4    4    0    0 -0.65299079917E-01  0.48531099308E-01 -0.74472831870E-01  0.11029823773E+00  0.51100000000E-03 0.  1.
</event>
<event>
 8    1  0.2107254E+004  0.1043930E+01  0.7957747E-01            NaN
         13   -1    0    0    0    0  0.00000000000E+00  0.00000000000E+00  0.74505805969E-08  0.10566000000E+00  0.10566000000E+00 0.  1.
     999900   -1    0    0    0    0 -0.00000000000E+00 -0.00000000000E+00 -0.74505805969E-08  0.93827000000E+00  0.93827000000E+00 0. -1.
     999902    2    1    2    0    0 -0.87391105324E-02 -0.70565887465E-02  0.89761984809E-02  0.10295515565E+01  0.10294511489E+01 0.  0.
     999903    2    3    3    0    0  0.95085675525E-01 -0.82194460131E-01 -0.38193750941E-01  0.13901784574E+00  0.45497075252E-01 0.  0.
         14    1    1    2    0    0  0.87391105324E-02  0.70565887465E-02 -0.89761984809E-02  0.14378443476E-01  0.00000000000E+00 0. -1.
     999901    1    3    3    0    0 -0.10382478606E+00  0.75137871385E-01  0.47169949422E-01  0.89053371079E+00  0.88000000000E+00 0.  1.
        -11    1    4    4    0    0  0.88672968545E-01 -0.52415749839E-01 -0.26293353413E-01  0.10631043099E+00  0.51100000000E-03 0. -1.
         11    1    4    4    0    0  0.64127069805E-02 -0.29778710292E-01 -0.11900397528E-01  0.32707414753E-01  0.51100000000E-03 0.  1.
</event>
<event>
 8    1  0.2107254E+004  0.1043930E+01  0.7957747E-01            NaN
         13   -1    0    0    0    0  0.00000000000E+00  0.00000000000E+00  0.74505805969E-08  0.10566000000E+00  0.10566000000E+00 0.  1.
     999900   -1    0    0    0    0 -0.00000000000E+00 -0.00000000000E+00 -0.74505805969E-08  0.93827000000E+00  0.93827000000E+00 0.  1.
     999902    2    1    2    0    0 -0.10186780928E-01  0.12360909368E-02  0.91514559819E-02  0.10301805428E+01  0.10300887841E+01 0.  0.
     999903    2    3    3    0    0  0.13430367109E-01 -0.44128904376E-01 -0.12234796381E+00  0.13894104083E+00  0.46987802832E-01 0.  0.
         14    1    1    2    0    0  0.10186780928E-01 -0.12360909368E-02 -0.91514559819E-02  0.13749457192E-01  0.00000000000E+00 0.  1.
     999901    1    3    3    0    0 -0.23617148037E-01  0.45364995313E-01  0.13149941980E+00  0.89123950198E+00  0.88000000000E+00 0. -1.
        -11    1    4    4    0    0 -0.78655178911E-02 -0.42653775743E-01 -0.93291488247E-01  0.10288233015E+00  0.51100000000E-03 0.  1.
         11    1    4    4    0    0  0.21295885000E-01 -0.14751286330E-02 -0.29056475568E-01  0.36058710679E-01  0.51100000000E-03 0. -1.
</event>
<event>
 8    1  0.2107254E+004  0.1043930E+01  0.7957747E-01            NaN
         13   -1    0    0    0    0  0.00000000000E+00  0.00000000000E+00  0.74505805969E-08  0.10566000000E+00  0.10566000000E+00 0. -1.
     999900   -1    0    0    0    0 -0.00000000000E+00 -0.00000000000E+00 -0.74505805969E-08  0.93827000000E+00  0.93827000000E+00 0.  1.
     999902    2    1    2    0    0 -0.64031863779E-02 -0.47440461734E-02 -0.10749337208E-01  0.10305488558E+01  0.10304619785E+01 0.  0.
     999903    2    3    3    0    0 -0.11141451684E+00 -0.74565502634E-01 -0.49043766577E-02  0.14154009382E+00  0.45125785325E-01 0.  0.
         14    1    1    2    0    0  0.64031863779E-02  0.47440461734E-02  0.10749337208E-01  0.13381144207E-01  0.00000000000E+00 0. -1.
     999901    1    3    3    0    0  0.10501133046E+00  0.69821456461E-01 -0.58449605501E-02  0.88900876198E+00  0.88000000000E+00 0.  1.
        -11    1    4    4    0    0 -0.50121162551E-01 -0.86809473820E-02 -0.80174553318E-02  0.51497868829E-01  0.51100000000E-03 0.  1.
         11    1    4    4    0    0 -0.61293354289E-01 -0.65884555252E-01  0.31130786740E-02  0.90042224987E-01  0.51100000000E-03 0. -1.
</event>
<event>
 8    1  0.2107254E+004  0.1043930E+01  0.7957747E-01            NaN
         13   -1    0    0    0    0  0.00000000000E+00  0.00000000000E+00  0.74505805969E-08  0.10566000000E+00  0.10566000000E+00 0. -1.
     999900   -1    0    0    0    0 -0.00000000000E+00 -0.00000000000E+00 -0.74505805969E-08  0.93827000000E+00  0.93827000000E+00 0. -1.
     999902    2    1    2    0    0  0.59145709098E-02 -0.12353430347E-01 -0.19904298754E-02  0.10300897976E+01  0.10299968155E+01 0.  0.
     999903    2    3    3    0    0  0.50945222701E-01 -0.35617980330E-01  0.11735660663E+00  0.14058841258E+00  0.46135370311E-01 0.  0.
         14    1    1    2    0    0 -0.59145709098E-02  0.12353430347E-01  0.19904298754E-02  0.13840202364E-01  0.00000000000E+00 0.  1.
     999901    1    3    3    0    0 -0.45030651791E-01  0.23264549983E-01 -0.11934703651E+00  0.88950138505E+00  0.88000000000E+00 0. -1.
        -11    1    4    4    0    0  0.26226926592E-01 -0.32877262748E-01  0.35510248004E-01  0.55045480456E-01  0.51100000000E-03 0. -1.
         11    1    4    4    0    0  0.24718296109E-01 -0.27407175821E-02  0.81846358628E-01  0.85542932128E-01  0.51100000000E-03 0.  1.
</event>
<event>
 8    1  0.2107254E+004  0.1043930E+01  0.7957747E-01            NaN
         13   -1    0    0    0    0  0.00000000000E+00  0.00000000000E+00  0.74505805969E-08  0.10566000000E+00  0.10566000000E+00 0. -1.
     999900   -1    0    0    0    0 -0.00000000000E+00 -0.00000000000E+00 -0.74505805969E-08  0.93827000000E+00  0.93827000000E+00 0. -1.
     999902    2    1    2    0    0 -0.31554073563E-02 -0.16927710976E-01 -0.82476028661E-02  0.10248374112E+01  0.10246595495E+01 0.  0.
     999903    2    3    3    0    0  0.10489086546E-01 -0.45828892008E-01  0.11854924598E+00  0.13517517677E+00  0.44811788770E-01 0.  0.
         14    1    1    2    0    0  0.31554073563E-02  0.16927710976E-01  0.82476028661E-02  0.19092588811E-01  0.00000000000E+00 0. -1.
     999901    1    3    3    0    0 -0.13644493902E-01  0.28901181032E-01 -0.12679684884E+00  0.88966223442E+00  0.88000000000E+00 0. -1.
        -11    1    4    4    0    0  0.16726889259E-01 -0.59938846315E-02  0.69199367670E-01  0.71445987180E-01  0.51100000000E-03 0. -1.
         11    1    4    4    0    0 -0.62378027131E-02 -0.39835007376E-01  0.49349878309E-01  0.63729189587E-01  0.51100000000E-03 0.  1.
</event>
<event>
 8    1  0.2107254E+004  0.1043930E+01  0.7957747E-01            NaN
         13   -1    0    0    0    0  0.00000000000E+00  0.00000000000E+00  0.74505805969E-08  0.10566000000E+00  0.10566000000E+00 0.  1.
     999900   -1    0    0    0    0 -0.00000000000E+00 -0.00000000000E+00 -0.74505805969E-08  0.93827000000E+00  0.93827000000E+00 0. -1.
     999902    2    1    2    0    0  0.16463500439E-02  0.95942091668E-02 -0.10136390030E-01  0.10298763271E+01  0.10297804346E+01 0.  0.
     999903    2    3    3    0    0 -0.12802899564E+00  0.34949384325E-01 -0.65974026877E-02  0.14000492934E+00  0.44101829098E-01 0.  0.
         14    1    1    2    0    0 -0.16463500439E-02 -0.95942091668E-02  0.10136390030E-01  0.14053672860E-01  0.00000000000E+00 0.  1.
     999901    1    3    3    0    0  0.12967534568E+00 -0.25355175158E-01 -0.35389873427E-02  0.88987139780E+00  0.88000000000E+00 0. -1.
        -11    1    4    4    0    0 -0.64568248628E-01  0.34960056597E-01  0.10760130767E-01  0.74211224375E-01  0.51100000000E-03 0.  1.
         11    1    4    4    0    0 -0.63460747009E-01 -0.10672271997E-04 -0.17357533455E-01  0.65793704969E-01  0.51100000000E-03 0. -1.
</event>
<event>
 8    1  0.2107254E+004  0.1043930E+01  0.7957747E-01            NaN
         13   -1    0    0    0    0  0.00000000000E+00  0.00000000000E+00  0.74505805969E-08  0.10566000000E+00  0.10566000000E+00 0. -1.
     999900   -1    0    0    0    0 -0.00000000000E+00 -0.00000000000E+00 -0.74505805969E-08  0.93827000000E+00  0.93827000000E+00 0. -1.
     999902    2    1    2    0    0 -0.13760780095E-01 -0.38200087265E-03  0.29327388276E-02  0.10298549884E+01  0.10297588025E+01 0.  0.
     999903    2    3    3    0    0 -0.52945063874E-02  0.12665340901E+00  0.41565183172E-01  0.13985378680E+00  0.41979750123E-01 0.  0.
         14    1    1    2    0    0  0.13760780095E-01  0.38200087265E-03 -0.29327388276E-02  0.14075011564E-01  0.00000000000E+00 0.  1.
     999901    1    3    3    0    0 -0.84662737076E-02 -0.12703540988E+00 -0.38632444344E-01  0.89000120163E+00  0.88000000000E+00 0. -1.
        -11    1    4    4    0    0 -0.16595645504E-01  0.11795956194E+00  0.39098057050E-01  0.12537461022E+00  0.51100000000E-03 0. -1.
         11    1    4    4    0    0  0.11301139117E-01  0.86938470695E-02  0.24671261223E-02  0.14479176583E-01  0.51100000000E-03 0.  1.
</event>
<event>
 8    1  0.2107254E+004  0.1043930E+01  0.7957747E-01            NaN
         13   -1    0    0    0    0  0.00000000000E+00  0.00000000000E+00  0.74505805969E-08  0.10566000000E+00  0.10566000000E+00 0.  1.
     999900   -1    0    0    0    0 -0.00000000000E+00 -0.00000000000E+00 -0.74505805969E-08  0.93827000000E+00  0.93827000000E+00 0.  1.
     999902    2    1    2    0    0  0.43269669498E-02 -0.55634767048E-03 -0.12964154846E-01  0.10302514958E+01  0.10301606880E+01 0.  0.
     999903    2    3    3    0    0  0.38338965324E-01  0.10120390091E+00 -0.78987489289E-01  0.14127959249E+00  0.44819571270E-01 0.  0.
         14    1    1    2    0    0 -0.43269669498E-02  0.55634767048E-03  0.12964154846E-01  0.13678504179E-01  0.00000000000E+00 0.  1.
     999901    1    3    3    0    0 -0.34011998374E-01 -0.10176024858E+00  0.66023334443E-01  0.88897190333E+00  0.88000000000E+00 0. -1.
        -11    1    4    4    0    0  0.17904582239E-01  0.76824401192E-01 -0.75639039425E-01  0.10928901175E+00  0.51100000000E-03 0.  1.
         11    1    4    4    0    0  0.20434383085E-01  0.24379499714E-01 -0.33484498644E-02  0.31990580736E-01  0.51100000000E-03 0. -1.
</event>
<event>
 8    1  0.2107254E+004  0.1043930E+01  0.7957747E-01            NaN
         13   -1    0    0    0    0  0.00000000000E+00  0.00000000000E+00  0.74505805969E-08  0.10566000000E+00  0.10566000000E+00 0. -1.
     999900   -1    0    0    0    0 -0.00000000000E+00 -0.00000000000E+00 -0.74505805969E-08  0.93827000000E+00  0.93827000000E+00 0.  1.
     999902    2    1    2    0    0 -0.75994365382E-02 -0.39117206771E-02  0.29345584440E-02  0.10348931517E+01  0.10348536953E+01 0.  0.
     999903    2    3    3    0    0 -0.67527155901E-01 -0.11808806385E+00 -0.22437563146E-01  0.14513401942E+00  0.45340178020E-01 0.  0.
         14    1    1    2    0    0  0.75994365382E-02  0.39117206771E-02 -0.29345584440E-02  0.90368483231E-02  0.00000000000E+00 0.  1.
     999901    1    3    3    0    0  0.59927719362E-01  0.11417634318E+00  0.25372121590E-01  0.88975913226E+00  0.88000000000E+00 0.  1.
        -11    1    4    4    0    0 -0.50617891182E-01 -0.60694783182E-01  0.52423947259E-02  0.79207142586E-01  0.51100000000E-03 0. -1.
         11    1    4    4    0    0 -0.16909264719E-01 -0.57393280672E-01 -0.27679957872E-01  0.65926876829E-01  0.51100000000E-03 0.  1.
</event>
<event>
 8    1  0.2107254E+004  0.1043930E+01  0.7957747E-01            NaN
         13   -1    0    0    0    0  0.00000000000E+00  0.00000000000E+00  0.74505805969E-08  0.10566000000E+00  0.10566000000E+00 0.  1.
     999900   -1    0    0    0    0 -0.00000000000E+00 -0.00000000000E+00 -0.74505805969E-08  0.93827000000E+00  0.93827000000E+00 0.  1.
     999902    2    1    2    0    0 -0.25652974020E-03 -0.94177554453E-02 -0.10779535701E-01  0.10296136347E+01  0.10295140982E+01 0.  0.
     999903    2    3    3    0    0  0.10537756282E+00 -0.62797225132E-02  0.77975813379E-01  0.13885782039E+00  0.45358584088E-01 0.  0.
         14    1    1    2    0    0  0.25652974020E-03  0.94177554453E-02  0.10779535701E-01  0.14316365288E-01  0.00000000000E+00 0.  1.
     999901    1    3    3    0    0 -0.10563409256E+00 -0.31380329321E-02 -0.88755349080E-01  0.89075581432E+00  0.88000000000E+00 0.  1.
        -11    1    4    4    0    0  0.39381684029E-01 -0.11031899952E-01  0.64273662620E-02  0.41402801977E-01  0.51100000000E-03 0. -1.
         11    1    4    4    0    0  0.65995878789E-01  0.47521774391E-02  0.71548447117E-01  0.97455018411E-01  0.51100000000E-03 0.  1.
</event>
<event>
 8    1  0.2107254E+004  0.1043930E+01  0.7957747E-01            NaN
         13   -1    0    0    0    0  0.00000000000E+00  0.00000000000E+00  0.74505805969E-08  0.10566000000E+00  0.10566000000E+00 0. -1.
     999900   -1    0    0    0    0 -0.00000000000E+00 -0.00000000000E+00 -0.74505805969E-08  0.93827000000E+00  0.93827000000E+00 0. -1.
     999902    2    1    2    0    0 -0.39546663322E-02 -0.11259490384E-01 -0.94600023439E-02  0.10287015019E+01  0.10285887774E+01 0.  0.
     999903    2    3    3    0    0  0.94358232172E-01  0.70691623529E-01 -0.55037698557E-01  0.13827534694E+00  0.46798949689E-01 0.  0.
         14    1    1    2    0    0  0.39546663322E-02  0.11259490384E-01  0.94600023439E-02  0.15228498082E-01  0.00000000000E+00 0. -1.
     999901    1    3    3    0    0 -0.98312898504E-01 -0.81951113912E-01  0.45577696213E-01  0.89042615498E+00  0.88000000000E+00 0.  1.
        -11    1    4    4    0    0  0.79229691431E-01  0.35033592517E-01 -0.47541429126E-01  0.98818749300E-01  0.51100000000E-03 0. -1.
         11    1    4    4    0    0  0.15128540741E-01  0.35658031012E-01 -0.74962694311E-02  0.39456597636E-01  0.51100000000E-03 0.  1.
</event>
<event>
 8    1  0.2107254E+004  0.1043930E+01  0.7957747E-01            NaN
         13   -1    0    0    0    0  0.00000000000E+00  0.00000000000E+00  0.74505805969E-08  0.10566000000E+00  0.10566000000E+00 0.  1.
     999900   -1    0    0    0    0 -0.00000000000E+00 -0.00000000000E+00 -0.74505805969E-08  0.93827000000E+00  0.93827000000E+00 0.  1.
     999902    2    1    2    0    0  0.13278771633E-01  0.28640801194E-02 -0.53501601781E-02  0.10293302416E+01  0.10292266968E+01 0.  0.
     999903    2    3    3    0    0  0.20249811159E-01 -0.12263757326E+00  0.42709990211E-01  0.13910047439E+00  0.45549637580E-01 0.  0.
         14    1    1    2    0    0 -0.13278771633E-01 -0.28640801194E-02  0.53501601781E-02  0.14599758387E-01  0.00000000000E+00 0.  1.
     999901    1    3    3    0    0 -0.69710395254E-02  0.12550165338E+00 -0.48060150389E-01  0.89022976722E+00  0.88000000000E+00 0.  1.
        -11    1    4    4    0    0 -0.84543733273E-02 -0.50218967146E-01  0.32786931841E-01  0.60569506438E-01  0.51100000000E-03 0.  1.
         11    1    4    4    0    0  0.28704184486E-01 -0.72418606119E-01  0.99230583699E-02  0.78530967953E-01  0.51100000000E-03 0. -1.
</event>
<event>
 8    1  0.2107254E+004  0.1043930E+01  0.7957747E-01            NaN
         13   -1    0    0    0    0  0.00000000000E+00  0.00000000000E+00  0.74505805969E-08  0.10566000000E+00  0.10566000000E+00 0. -1.
     999900   -1    0    0    0    0 -0.00000000000E+00 -0.00000000000E+00 -0.74505805969E-08  0.93827000000E+00  0.93827000000E+00 0. -1.
     999902    2    1    2    0    0 -0.96058534850E-02  0.56888557187E-02  0.76940670723E-02  0.10303714540E+01  0.10302822425E+01 0.  0.
     999903    2    3    3    0    0 -0.27697584427E-01 -0.52668523401E-01  0.11982950276E+00  0.14115424190E+00  0.44992007435E-01 0.  0.
         14    1    1    2    0    0  0.96058534850E-02 -0.56888557187E-02 -0.76940670723E-02  0.13558545965E-01  0.00000000000E+00 0.  1.
     999901    1    3    3    0    0  0.18091730942E-01  0.58357379120E-01 -0.11213543569E+00  0.88921721214E+00  0.88000000000E+00 0.  1.
        -11    1    4    4    0    0 -0.25313596976E-01 -0.41193198146E-01  0.12004915809E+00  0.12942070640E+00  0.51100000000E-03 0.  1.
         11    1    4    4    0    0 -0.23839874507E-02 -0.11475325255E-01 -0.21965532718E-03  0.11733535500E-01  0.51100000000E-03 0. -1.
</event>
<event>
 8    1  0.2107254E+004  0.1043930E+01  0.7957747E-01            NaN
         13   -1    0    0    0    0  0.00000000000E+00  0.00000000000E+00  0.74505805969E-08  0.10566000000E+00  0.10566000000E+00 0. -1.
     999900   -1    0    0    0    0 -0.00000000000E+00 -0.00000000000E+00 -0.74505805969E-08  0.93827000000E+00  0.93827000000E+00 0.  1.
     999902    2    1    2    0    0  0.85138917916E-02 -0.60137649444E-02 -0.84531659581E-02  0.10305095776E+01  0.10304221862E+01 0.  0.
     999903    2    3    3    0    0 -0.11569346671E-01 -0.17551654518E-01  0.12854657845E+00  0.13960813002E+00  0.50242380284E-01 0.  0.
         14    1    1    2    0    0 -0.85138917916E-02  0.60137649444E-02  0.84531659581E-02  0.13420422384E-01  0.00000000000E+00 0. -1.
     999901    1    3    3    0    0  0.20083238462E-01  0.11537889574E-01 -0.13699974441E+00  0.89090144760E+00  0.88000000000E+00 0.  1.
        -11    1    4    4    0    0  0.30594453550E-02 -0.25765039859E-01  0.30106860214E-01  0.39747724939E-01  0.51100000000E-03 0.  1.
         11    1    4    4    0    0 -0.14628792026E-01  0.82133853411E-02  0.98439718238E-01  0.99860405080E-01  0.51100000000E-03 0. -1.
</event>
<event>
 8    1  0.2107254E+004  0.1043930E+01  0.7957747E-01            NaN
         13   -1    0    0    0    0  0.00000000000E+00  0.00000000000E+00  0.74505805969E-08  0.10566000000E+00  0.10566000000E+00 0.  1.
     999900   -1    0    0    0    0 -0.00000000000E+00 -0.00000000000E+00 -0.74505805969E-08  0.93827000000E+00  0.93827000000E+00 0.  1.
     999902    2    1    2    0    0 -0.10592759478E-01 -0.63896317180E-02 -0.48456408730E-02  0.10306441360E+01  0.10305584995E+01 0.  0.
     999903    2    3    3    0    0  0.12659672759E+00  0.11602531641E-01  0.34241826477E-01  0.13897575402E+00  0.44501767937E-01 0.  0.
         14    1    1    2    0    0  0.10592759478E-01  0.63896317180E-02  0.48456408730E-02  0.13285864004E-01  0.00000000000E+00 0.  1.
     999901    1    3    3    0    0 -0.13718948707E+00 -0.17992163359E-01 -0.39087467350E-01  0.89166838197E+00  0.88000000000E+00 0.  1.
        -11    1    4    4    0    0  0.11178486727E+00  0.13770383446E-01  0.13566693367E-01  0.11344512462E+00  0.51100000000E-03 0. -1.
         11    1    4    4    0    0  0.14811860321E-01 -0.21678518050E-02  0.20675133110E-01  0.25530629403E-01  0.51100000000E-03 0.  1.
</event>
<event>
 8    1  0.2107254E+004  0.1043930E+01  0.7957747E-01            NaN
         13   -1    0    0    0    0  0.00000000000E+00  0.00000000000E+00  0.74505805969E-08  0.10566000000E+00  0.10566000000E+00 0.  1.
     999900   -1    0    0    0    0 -0.00000000000E+00 -0.00000000000E+00 -0.74505805969E-08  0.93827000000E+00  0.93827000000E+00 0. -1.
     999902    2    1    2    0    0  0.91644264529E-02  0.70791452682E-02  0.69522256009E-02  0.10304231702E+01  0.10303346424E+01 0.  0.
     999903    2    3    3    0    0 -0.45499383375E-01  0.21385019816E-01 -0.12133319854E+00  0.13932837156E+00  0.46509537668E-01 0.  0.
         14    1    1    2    0    0 -0.91644264529E-02 -0.70791452682E-02 -0.69522256009E-02  0.13506829781E-01  0.00000000000E+00 0. -1.
     999901    1    3    3    0    0  0.54663809827E-01 -0.14305874548E-01  0.12828542414E+00  0.89109479866E+00  0.88000000000E+00 0. -1.
        -11    1    4    4    0    0 -0.48430074586E-01  0.17673476981E-01 -0.65803732431E-01  0.83595551532E-01  0.51100000000E-03 0. -1.
         11    1    4    4    0    0  0.29306912117E-02  0.37115428349E-02 -0.55529466106E-01  0.55732820028E-01  0.51100000000E-03 0.  1.
</event>
<event>
 8    1  0.2107254E+004  0.1043930E+01  0.7957747E-01            NaN
         13   -1    0    0    0    0  0.00000000000E+00  0.00000000000E+00  0.74505805969E-08  0.10566000000E+00  0.10566000000E+00 0.  1.
     999900   -1    0    0    0    0 -0.00000000000E+00 -0.00000000000E+00 -0.74505805969E-08  0.93827000000E+00  0.93827000000E+00 0. -1.
     999902    2    1    2    0    0  0.13835799522E-01 -0.21917547737E-02 -0.11518236808E-02  0.10298744020E+01  0.10297784830E+01 0.  0.
     999903    2    3    3    0    0 -0.67559273093E-01 -0.12478206772E-01 -0.11272948762E+00  0.13904302400E+00  0.43647040186E-01 0.  0.
         14    1    1    2    0    0 -0.13835799522E-01  0.21917547737E-02  0.11518236808E-02  0.14055598002E-01  0.00000000000E+00 0. -1.
     999901    1    3    3    0    0  0.81395072615E-01  0.10286451998E-01  0.11157766394E+00  0.89083137800E+00  0.88000000000E+00 0.  1.
        -11    1    4    4    0    0 -0.67783154982E-01 -0.22222059941E-01 -0.10274621893E+00  0.12508166402E+00  0.51100000000E-03 0. -1.
         11    1    4    4    0    0  0.22388188980E-03  0.97438531695E-02 -0.99832686906E-02  0.13961359978E-01  0.51100000000E-03 0.  1.
</event>
<event>
 8    1  0.2107254E+004  0.1043930E+01  0.7957747E-01            NaN
         13   -1    0    0    0    0  0.00000000000E+00  0.00000000000E+00  0.74505805969E-08  0.10566000000E+00  0.10566000000E+00 0. -1.
     999900   -1    0    0    0    0 -0.00000000000E+00 -0.00000000000E+00 -0.74505805969E-08  0.93827000000E+00  0.93827000000E+00 0. -1.
     999902    2    1    2    0    0  0.19299625678E-02  0.77074402795E-02  0.11409169030E-01  0.10300268159E+01  0.10299329798E+01 0.  0.
     999903    2    3    3    0    0 -0.11422664705E+00 -0.54199891329E-01 -0.35784021437E-01  0.13898693298E+00  0.45293666567E-01 0.  0.
         14    1    1    2    0    0 -0.19299625678E-02 -0.77074402795E-02 -0.11409169030E-01  0.13903184136E-01  0.00000000000E+00 0. -1.
     999901    1    3    3    0    0  0.11615660962E+00  0.61907331609E-01  0.47193190467E-01  0.89103988289E+00  0.88000000000E+00 0.  1.
        -11    1    4    4    0    0 -0.34084117671E-01  0.43359940893E-02 -0.31153335949E-02  0.34503541073E-01  0.51100000000E-03 0.  1.
         11    1    4    4    0    0 -0.80142529384E-01 -0.58535885419E-01 -0.32668687842E-01  0.10448339191E+00  0.51100000000E-03 0. -1.
</event>
<event>
 8    1  0.2107254E+004  0.1043930E+01  0.7957747E-01            NaN
         13   -1    0    0    0    0  0.00000000000E+00  0.00000000000E+00  0.74505805969E-08  0.10566000000E+00  0.10566000000E+00 0.  1.
     999900   -1    0    0    0    0 -0.00000000000E+00 -0.00000000000E+00 -0.74505805969E-08  0.93827000000E+00  0.93827000000E+00 0.  1.
     999902    2    1    2    0    0  0.12933197721E-01 -0.29425693655E-02 -0.32070231271E-02  0.10302840733E+01  0.10301937004E+01 0.  0.
     999903    2    3    3    0    0  0.11114775464E+00 -0.67815842628E-01  0.32832813720E-01  0.14171583699E+00  0.45305329968E-01 0.  0.
         14    1    1    2    0    0 -0.12933197721E-01  0.29425693655E-02  0.32070231271E-02  0.13645926685E-01  0.00000000000E+00 0. -1.
     999901    1    3    3    0    0 -0.98214556916E-01  0.64873273262E-01 -0.36039836847E-01  0.88856823633E+00  0.88000000000E+00 0.  1.
        -11    1    4    4    0    0  0.50789534144E-01 -0.62795589845E-02  0.65277063825E-02  0.51593427015E-01  0.51100000000E-03 0.  1.
         11    1    4    4    0    0  0.60358220494E-01 -0.61536283643E-01  0.26305107337E-01  0.90122409970E-01  0.51100000000E-03 0. -1.
</event>
<event>
 8    1  0.2107254E+004  0.1043930E+01  0.7957747E-01            NaN
         13   -1    0    0    0    0  0.00000000000E+00  0.00000000000E+00  0.74505805969E-08  0.10566000000E+00  0.10566000000E+00 0.  1.
     999900   -1    0    0    0    0 -0.00000000000E+00 -0.00000000000E+00 -0.74505805969E-08  0.93827000000E+00  0.93827000000E+00 0. -1.
     999902    2    1    2    0    0 -0.83177264828E-02 -0.77312301542E-02 -0.65835693213E-02  0.10308036952E+01  0.10307201163E+01 0.  0.
     999903    2    3    3    0    0  0.44284817797E-01  0.11476300909E+00 -0.50201502770E-01  0.13969517740E+00  0.43160842992E-01 0.  0.
         14    1    1    2    0    0  0.83177264828E-02  0.77312301542E-02  0.65835693213E-02  0.13126304832E-01  0.00000000000E+00 0.  1.
     999901    1    3    3    0    0 -0.52602544280E-01 -0.12249423924E+00  0.43617933448E-01  0.89110851776E+00  0.88000000000E+00 0.  1.
        -11    1    4    4    0    0  0.21348461046E-01  0.12663506142E-01 -0.33923631558E-02  0.25057741830E-01  0.51100000000E-03 0. -1.
         11    1    4    4    0    0  0.22936356750E-01  0.10209950295E+00 -0.46809139614E-01  0.11463743557E+00  0.51100000000E-03 0.  1.
</event>
<event>
 8    1  0.2107254E+004  0.1043930E+01  0.7957747E-01            NaN
         13   -1    0    0    0    0  0.00000000000E+00  0.00000000000E+00  0.74505805969E-08  0.10566000000E+00  0.10566000000E+00 0. -1.
     999900   -1    0    0    0    0 -0.00000000000E+00 -0.00000000000E+00 -0.74505805969E-08  0.93827000000E+00  0.93827000000E+00 0. -1.
     999902    2    1    2    0    0 -0.64284937502E-02 -0.10323869754E-01 -0.65591000519E-02  0.10301122718E+01  0.10300195935E+01 0.  0.
     999903    2    3    3    0    0  0.94295251448E-01  0.52872693024E-01 -0.75405639692E-01  0.13945020099E+00  0.45532756839E-01 0.  0.
         14    1    1    2    0    0  0.64284937502E-02  0.10323869754E-01  0.65591000519E-02  0.13817728181E-01  0.00000000000E+00 0. -1.
     999901    1    3    3    0    0 -0.10072374520E+00 -0.63196562779E-01  0.68846539640E-01  0.89066207083E+00  0.88000000000E+00 0. -1.
        -11    1    4    4    0    0  0.64338493570E-01  0.10682984423E-01 -0.47269573832E-01  0.80549622235E-01  0.51100000000E-03 0. -1.
         11    1    4    4    0    0  0.29956757878E-01  0.42189708602E-01 -0.28136065860E-01  0.58900578754E-01  0.51100000000E-03 0.  1.
</event>
<event>
 8    1  0.2107254E+004  0.1043930E+01  0.7957747E-01            NaN
         13   -1    0    0    0    0  0.00000000000E+00  0.00000000000E+00  0.74505805969E-08  0.10566000000E+00  0.10566000000E+00 0.  1.
     999900   -1    0    0    0    0 -0.00000000000E+00 -0.00000000000E+00 -0.74505805969E-08  0.93827000000E+00  0.93827000000E+00 0. -1.
     999902    2    1    2    0    0  0.12924285954E-01 -0.83786290764E-03  0.56337033684E-02  0.10298063392E+01  0.10297094825E+01 0.  0.
     999903    2    3    3    0    0 -0.72137408066E-01  0.10359968932E+00  0.36923402102E-01  0.13900796728E+00  0.44979729613E-01 0.  0.
         14    1    1    2    0    0 -0.12924285954E-01  0.83786290764E-03 -0.56337033684E-02  0.14123660833E-01  0.00000000000E+00 0. -1.
     999901    1    3    3    0    0  0.85061694020E-01 -0.10443755223E+00 -0.31289698733E-01  0.89079837188E+00  0.88000000000E+00 0.  1.
        -11    1    4    4    0    0 -0.22616859644E-01  0.48203075838E-01 -0.53552817784E-02  0.53516343526E-01  0.51100000000E-03 0.  1.
         11    1    4    4    0    0 -0.49520548422E-01  0.55396613480E-01  0.42278683880E-01  0.85491623757E-01  0.51100000000E-03 0. -1.
</event>
<event>
 8    1  0.2107254E+004  0.1043930E+01  0.7957747E-01            NaN
         13   -1    0    0    0    0  0.00000000000E+00  0.00000000000E+00  0.74505805969E-08  0.10566000000E+00  0.10566000000E+00 0. -1.
     999900   -1    0    0    0    0 -0.00000000000E+00 -0.00000000000E+00 -0.74505805969E-08  0.93827000000E+00  0.93827000000E+00 0. -1.
     999902    2    1    2    0    0  0.15795902334E-02  0.24489505066E-02  0.13759131169E-01  0.10298656424E+01  0.10297696030E+01 0.  0.
     999903    2    3    3    0    0 -0.20394727072E-01 -0.12283532016E+00  0.46956491061E-01  0.14010101971E+00  0.43805512219E-01 0.  0.
         14    1    1    2    0    0 -0.15795902334E-02 -0.24489505066E-02 -0.13759131169E-01  0.14064357590E-01  0.00000000000E+00 0.  1.
     999901    1    3    3    0    0  0.21974317305E-01  0.12528427067E+00 -0.33197359892E-01  0.88976462270E+00  0.88000000000E+00 0.  1.
        -11    1    4    4    0    0 -0.14402490598E-01 -0.96804549002E-01  0.15933939751E-01  0.99159991932E-01  0.51100000000E-03 0. -1.
         11    1    4    4    0    0 -0.59922364737E-02 -0.26030771158E-01  0.31022551310E-01  0.40941027782E-01  0.51100000000E-03 0.  1.
</event>
<event>
 8    1  0.2107254E+004  0.1043930E+01  0.7957747E-01            NaN
         13   -1    0    0    0    0  0.00000000000E+00  0.00000000000E+00  0.74505805969E-08  0.10566000000E+00  0.10566000000E+00 0. -1.
     999900   -1    0    0    0    0 -0.00000000000E+00 -0.00000000000E+00 -0.74505805969E-08  0.93827000000E+00  0.93827000000E+00 0. -1.
     999902    2    1    2    0    0 -0.74403817892E-02 -0.11350222507E-01 -0.16059967643E-02  0.10302637621E+01  0.10301731182E+01 0.  0.
     999903    2    3    3    0    0 -0.10406209341E+00  0.56723654713E-02 -0.83875672929E-01  0.14099787203E+00  0.44544094933E-01 0.  0.
         14    1    1    2    0    0  0.74403817892E-02  0.11350222507E-01  0.16059967643E-02  0.13666237878E-01  0.00000000000E+00 0. -1.
     999901    1    3    3    0    0  0.96621711623E-01 -0.17022587978E-01  0.82269676165E-01  0.88926589009E+00  0.88000000000E+00 0.  1.
        -11    1    4    4    0    0 -0.51770186754E-01 -0.18810947689E-01 -0.47642858273E-01  0.72829300800E-01  0.51100000000E-03 0. -1.
         11    1    4    4    0    0 -0.52291906658E-01  0.24483313160E-01 -0.36232814656E-01  0.68168571234E-01  0.51100000000E-03 0.  1.
</event>
<event>
 8    1  0.2107254E+004  0.1043930E+01  0.7957747E-01            NaN
         13   -1    0    0    0    0  0.00000000000E+00  0.00000000000E+00  0.74505805969E-08  0.10566000000E+00  0.10566000000E+00 0. -1.
     999900   -1    0    0    0    0 -0.00000000000E+00 -0.00000000000E+00 -0.74505805969E-08  0.93827000000E+00  0.93827000000E+00 0. -1.
     999902    2    1    2    0    0  0.10298343824E-01  0.61343860563E-02 -0.68683596011E-02  0.10301147569E+01  0.10300221121E+01 0.  0.
     999903    2    3    3    0    0 -0.65568212471E-02  0.19880860009E-01 -0.13195497374E+00  0.14100299613E+00  0.45072045926E-01 0.  0.
         14    1    1    2    0    0 -0.10298343824E-01 -0.61343860563E-02  0.68683596011E-02  0.13815243082E-01  0.00000000000E+00 0. -1.
     999901    1    3    3    0    0  0.16855165071E-01 -0.13746473952E-01  0.12508661414E+00  0.88911176079E+00  0.88000000000E+00 0.  1.
        -11    1    4    4    0    0  0.12201576768E-01 -0.79821541022E-02 -0.25560340431E-01  0.29431027567E-01  0.51100000000E-03 0.  1.
         11    1    4    4    0    0 -0.18758398015E-01  0.27863014111E-01 -0.10639463331E+00  0.11157196856E+00  0.51100000000E-03 0. -1.
</event>
<event>
 8    1  0.2107254E+004  0.1043930E+01  0.7957747E-01            NaN
         13   -1    0    0    0    0  0.00000000000E+00  0.00000000000E+00  0.74505805969E-08  0.10566000000E+00  0.10566000000E+00 0. -1.
     999900   -1    0    0    0    0 -0.00000000000E+00 -0.00000000000E+00 -0.74505805969E-08  0.93827000000E+00  0.93827000000E+00 0. -1.
     999902    2    1    2    0    0 -0.16704879056E-01  0.51611246370E-02 -0.31029389353E-02  0.10261727924E+01  0.10260191428E+01 0.  0.
     999903    2    3    3    0    0  0.77815485175E-01  0.62902482557E-01  0.79621077378E-01  0.13538020905E+00  0.44455741984E-01 0.  0.
         14    1    1    2    0    0  0.16704879056E-01 -0.51611246370E-02  0.31029389353E-02  0.17757207602E-01  0.00000000000E+00 0. -1.
     999901    1    3    3    0    0 -0.94520364231E-01 -0.57741357920E-01 -0.82724016313E-01  0.89079258335E+00  0.88000000000E+00 0.  1.
        -11    1    4    4    0    0  0.31755735893E-01  0.52748913988E-01  0.52854654374E-01  0.81146474348E-01  0.51100000000E-03 0. -1.
         11    1    4    4    0    0  0.46059749282E-01  0.10153568569E-01  0.26766423004E-01  0.54233734705E-01  0.51100000000E-03 0.  1.
</event>
<event>
 8    1  0.2107254E+004  0.1043930E+01  0.7957747E-01            NaN
         13   -1    0    0    0    0  0.00000000000E+00  0.00000000000E+00  0.74505805969E-08  0.10566000000E+00  0.10566000000E+00 0.  1.
     999900   -1    0    0    0    0 -0.00000000000E+00 -0.00000000000E+00 -0.74505805969E-08  0.93827000000E+00  0.93827000000E+00 0. -1.
     999902    2    1    2    0    0 -0.36088965115E-02  0.74199126838E-02  0.11570556870E-01  0.10297188415E+01  0.10296207727E+01 0.  0.
     999903    2    3    3    0    0 -0.18055474940E-01  0.13176455954E+00  0.96618545617E-02  0.14085780743E+00  0.45383600045E-01 0.  0.
         14    1    1    2    0    0  0.36088965115E-02 -0.74199126838E-02 -0.11570556870E-01  0.14211158452E-01  0.00000000000E+00 0. -1.
     999901    1    3    3    0    0  0.14446578428E-01 -0.12434464686E+00  0.19087023079E-02  0.88886103412E+00  0.88000000000E+00 0. -1.
        -11    1    4    4    0    0 -0.25860469257E-01  0.83666538427E-01 -0.10341693015E-01  0.88182000760E-01  0.51100000000E-03 0. -1.
         11    1    4    4    0    0  0.78049943165E-02  0.48098021116E-01  0.20003547577E-01  0.52675806669E-01  0.51100000000E-03 0.  1.
</event>
<event>
 8    1  0.2107254E+004  0.1043930E+01  0.7957747E-01            NaN
         13   -1    0    0    0    0  0.00000000000E+00  0.00000000000E+00  0.74505805969E-08  0.10566000000E+00  0.10566000000E+00 0. -1.
     999900   -1    0    0    0    0 -0.00000000000E+00 -0.00000000000E+00 -0.74505805969E-08  0.93827000000E+00  0.93827000000E+00 0. -1.
     999902    2    1    2    0    0  0.37314055126E-03 -0.13326432022E-01 -0.13566887383E-03  0.10305976547E+01  0.10305114141E+01 0.  0.
     999903    2    3    3    0    0 -0.10122830719E+00 -0.87344202444E-01  0.84212671669E-02  0.14162369242E+00  0.45936615419E-01 0.  0.
         14    1    1    2    0    0 -0.37314055126E-03  0.13326432022E-01  0.13566887383E-03  0.13332345268E-01  0.00000000000E+00 0.  1.
     999901    1    3    3    0    0  0.10160144774E+00  0.74017770422E-01 -0.85569360407E-02  0.88897396232E+00  0.88000000000E+00 0.  1.
        -11    1    4    4    0    0 -0.74631715243E-01 -0.44909142503E-01 -0.11226873078E-01  0.87823845285E-01  0.51100000000E-03 0.  1.
         11    1    4    4    0    0 -0.26596591945E-01 -0.42435059941E-01  0.19648140245E-01  0.53799847131E-01  0.51100000000E-03 0. -1.
</event>
<event>
 8    1  0.2107254E+004  0.1043930E+01  0.7957747E-01            NaN
         13   -1    0    0    0    0  0.00000000000E+00  0.00000000000E+00  0.74505805969E-08  0.10566000000E+00  0.10566000000E+00 0. -1.
     999900   -1    0    0    0    0 -0.00000000000E+00 -0.00000000000E+00 -0.74505805969E-08  0.93827000000E+00  0.93827000000E+00 0. -1.
     999902    2    1    2    0    0 -0.73943472498E-02 -0.13113287259E-01  0.12278927868E-02  0.10288256167E+01  0.10287147356E+01 0.  0.
     999903    2    3    3    0    0 -0.58039731277E-01 -0.57484152436E-01  0.10438024644E+00  0.14024577411E+00  0.45832337065E-01 0.  0.
         14    1    1    2    0    0  0.73943472498E-02  0.13113287259E-01 -0.12278927868E-02  0.15104383293E-01  0.00000000000E+00 0. -1.
     999901    1    3    3    0    0  0.50645384027E-01  0.44370865177E-01 -0.10315235366E+00  0.88857984259E+00  0.88000000000E+00 0. -1.
        -11    1    4    4    0    0 -0.61499422557E-01 -0.38874219309E-01  0.69824580194E-01  0.10084203995E+00  0.51100000000E-03 0. -1.
         11    1    4    4    0    0  0.34596912797E-02 -0.18609933126E-01  0.34555666249E-01  0.39403734159E-01  0.51100000000E-03 0.  1.
</event>
<event>
 8    1  0.2107254E+004  0.1043930E+01  0.7957747E-01            NaN
         13   -1    0    0    0    0  0.00000000000E+00  0.00000000000E+00  0.74505805969E-08  0.10566000000E+00  0.10566000000E+00 0. -1.
     999900   -1    0    0    0    0 -0.00000000000E+00 -0.00000000000E+00 -0.74505805969E-08  0.93827000000E+00  0.93827000000E+00 0.  1.
     999902    2    1    2    0    0 -0.11063860484E-01  0.35745897146E-03 -0.48341468182E-02  0.10318508543E+01  0.10317801509E+01 0.  0.
     999903    2    3    3    0    0  0.63436474739E-01 -0.24259143303E-01 -0.11498311115E+00  0.14151997680E+00  0.46841174460E-01 0.  0.
         14    1    1    2    0    0  0.11063860484E-01 -0.35745897146E-03  0.48341468182E-02  0.12079145714E-01  0.00000000000E+00 0. -1.
     999901    1    3    3    0    0 -0.74500335222E-01  0.24616602275E-01  0.11014896433E+00  0.89033087748E+00  0.88000000000E+00 0. -1.
        -11    1    4    4    0    0  0.46396738596E-01  0.15122656184E-03 -0.41565115381E-01  0.62294463313E-01  0.51100000000E-03 0.  1.
         11    1    4    4    0    0  0.17039736142E-01 -0.24410369865E-01 -0.73417995764E-01  0.79225513490E-01  0.51100000000E-03 0. -1.
</event>
<event>
 8    1  0.2107254E+004  0.1043930E+01  0.7957747E-01            NaN
         13   -1    0    0    0    0  0.00000000000E+00  0.00000000000E+00  0.74505805969E-08  0.10566000000E+00  0.10566000000E+00 0. -1.
     999900   -1    0    0    0    0 -0.00000000000E+00 -0.00000000000E+00 -0.74505805969E-08  0.93827000000E+00  0.93827000000E+00 0.  1.
     999902    2    1    2    0    0  0.10058904246E-01 -0.57556264185E-02 -0.44771005825E-03  0.10323321884E+01  0.10322670381E+01 0.  0.
     999903    2    3    3    0    0  0.16056245382E-01  0.13159763097E-01  0.13323563169E+00  0.14201483152E+00  0.44558909785E-01 0.  0.
         14    1    1    2    0    0 -0.10058904246E-01  0.57556264185E-02  0.44771005825E-03  0.11597811621E-01  0.00000000000E+00 0. -1.
     999901    1    3    3    0    0 -0.59973411363E-02 -0.18915389515E-01 -0.13368334174E+00  0.89031735686E+00  0.88000000000E+00 0.  1.
        -11    1    4    4    0    0  0.65187000612E-02  0.24642446116E-01  0.38941121863E-01  0.46544770856E-01  0.51100000000E-03 0. -1.
         11    1    4    4    0    0  0.95375453209E-02 -0.11482683019E-01  0.94294509822E-01  0.95470060666E-01  0.51100000000E-03 0.  1.
</event>
<event>
 8    1  0.2107254E+004  0.1043930E+01  0.7957747E-01            NaN
         13   -1    0    0    0    0  0.00000000000E+00  0.00000000000E+00  0.74505805969E-08  0.10566000000E+00  0.10566000000E+00 0.  1.
     999900   -1    0    0    0    0 -0.00000000000E+00 -0.00000000000E+00 -0.74505805969E-08  0.93827000000E+00  0.93827000000E+00 0. -1.
     999902    2    1    2    0    0 -0.71750882452E-02  0.84702822650E-02  0.72852327211E-02  0.10306521166E+01  0.10305665836E+01 0.  0.
     999903    2    3    3    0    0 -0.39061401573E-01 -0.72904149430E-02  0.12784232322E+00  0.14172065203E+00  0.46498821085E-01 0.  0.
         14    1    1    2    0    0  0.71750882452E-02 -0.84702822650E-02 -0.72852327211E-02  0.13277883445E-01  0.00000000000E+00 0. -1.
     999901    1    3    3    0    0  0.31886313328E-01  0.15760697208E-01 -0.12055709050E+00  0.88893146453E+00  0.88000000000E+00 0. -1.
        -11    1    4    4    0    0 -0.25440840563E-01 -0.22259129665E-01  0.44109753735E-01  0.55575504654E-01  0.51100000000E-03 0. -1.
         11    1    4    4    0    0 -0.13620561010E-01  0.14968714722E-01  0.83732569486E-01  0.86145147376E-01  0.51100000000E-03 0.  1.
</event>
<event>
 8    1  0.2107254E+004  0.1043930E+01  0.7957747E-01            NaN
         13   -1    0    0    0    0  0.00000000000E+00  0.00000000000E+00  0.74505805969E-08  0.10566000000E+00  0.10566000000E+00 0. -1.
     999900   -1    0    0    0    0 -0.00000000000E+00 -0.00000000000E+00 -0.74505805969E-08  0.93827000000E+00  0.93827000000E+00 0.  1.
     999902    2    1    2    0    0  0.10815713972E-01  0.63308781133E-02  0.36268490366E-02  0.10308834020E+01  0.10308008414E+01 0.  0.
     999903    2    3    3    0    0  0.34965663370E-02 -0.13038910774E+00  0.18583180283E-01  0.14017041997E+00  0.47842101229E-01 0.  0.
         14    1    1    2    0    0 -0.10815713972E-01 -0.63308781133E-02 -0.36268490366E-02  0.13046598038E-01  0.00000000000E+00 0.  1.
     999901    1    3    3    0    0  0.73191476354E-02  0.13671998585E+00 -0.14956331246E-01  0.89071298200E+00  0.88000000000E+00 0.  1.
        -11    1    4    4    0    0 -0.17165316057E-01 -0.67532004345E-01 -0.51587765519E-02  0.69871981385E-01  0.51100000000E-03 0.  1.
         11    1    4    4    0    0  0.20661882394E-01 -0.62857103397E-01  0.23741956834E-01  0.70298438580E-01  0.51100000000E-03 0. -1.
</event>
<event>
 8    1  0.2107254E+004  0.1043930E+01  0.7957747E-01            NaN
         13   -1    0    0    0    0  0.00000000000E+00  0.00000000000E+00  0.74505805969E-08  0.10566000000E+00  0.10566000000E+00 0.  1.
     999900   -1    0    0    0    0 -0.00000000000E+00 -0.00000000000E+00 -0.74505805969E-08  0.93827000000E+00  0.93827000000E+00 0.  1.
     999902    2    1    2    0    0  0.56994942785E-02 -0.17401551704E-02  0.11313224775E-01  0.10311432322E+01  0.10310639476E+01 0.  0.
     999903    2    3    3    0    0  0.12876398835E+00 -0.11730667842E-01 -0.30509695186E-01  0.14154004166E+00  0.48836140604E-01 0.  0.
         14    1    1    2    0    0 -0.56994942785E-02  0.17401551704E-02 -0.11313224775E-01  0.12786767764E-01  0.00000000000E+00 0.  1.
     999901    1    3    3    0    0 -0.12306449407E+00  0.99905126719E-02  0.41822919960E-01  0.88960319057E+00  0.88000000000E+00 0. -1.
        -11    1    4    4    0    0  0.79850983785E-02 -0.28701112923E-02 -0.17856060621E-01  0.19776232120E-01  0.51100000000E-03 0.  1.
         11    1    4    4    0    0  0.12077888997E+00 -0.88605565500E-02 -0.12653634564E-01  0.12176380954E+00  0.51100000000E-03 0. -1.
</event>
<event>
 8    1  0.2107254E+004  0.1043930E+01  0.7957747E-01            NaN
         13   -1    0    0    0    0  0.00000000000E+00  0.00000000000E+00  0.74505805969E-08  0.10566000000E+00  0.10566000000E+00 0. -1.
     999900   -1    0    0    0    0 -0.00000000000E+00 -0.00000000000E+00 -0.74505805969E-08  0.93827000000E+00  0.93827000000E+00 0. -1.
     999902    2    1    2    0    0  0.57138583304E-02  0.11786660834E-01 -0.44100832844E-02  0.10301089152E+01  0.10300161915E+01 0.  0.
     999903    2    3    3    0    0  0.34427712761E-01  0.12531321632E+00 -0.34563221873E-01  0.14183982533E+00  0.45113746833E-01 0.  0.
         14    1    1    2    0    0 -0.57138583304E-02 -0.11786660834E-01  0.44100832844E-02  0.13821084806E-01  0.00000000000E+00 0.  1.
     999901    1    3    3    0    0 -0.28713854431E-01 -0.11352655549E+00  0.30153138589E-01  0.88826908986E+00  0.88000000000E+00 0. -1.
        -11    1    4    4    0    0  0.33643613362E-01  0.12911771180E+00 -0.32185517816E-01  0.13725685738E+00  0.51100000000E-03 0.  1.
         11    1    4    4    0    0  0.78409939941E-03 -0.38044954742E-02 -0.23777040576E-02  0.45829679540E-02  0.51100000000E-03 0. -1.
</event>
<event>
 8    1  0.2107254E+004  0.1043930E+01  0.7957747E-01            NaN
         13   -1    0    0    0    0  0.00000000000E+00  0.00000000000E+00  0.74505805969E-08  0.10566000000E+00  0.10566000000E+00 0. -1.
     999900   -1    0    0    0    0 -0.00000000000E+00 -0.00000000000E+00 -0.74505805969E-08  0.93827000000E+00  0.93827000000E+00 0. -1.
     999902    2    1    2    0    0  0.12754015883E-01  0.25621951585E-02 -0.87789801832E-02  0.10282360439E+01  0.10281162686E+01 0.  0.
     999903    2    3    3    0    0 -0.70314959527E-01  0.92042519840E-01  0.58820316736E-01  0.13723837379E+00  0.44255198439E-01 0.  0.
         14    1    1    2    0    0 -0.12754015883E-01 -0.25621951585E-02  0.87789801832E-02  0.15693956105E-01  0.00000000000E+00 0. -1.
     999901    1    3    3    0    0  0.83068975410E-01 -0.89480324682E-01 -0.67599296919E-01  0.89099767010E+00  0.88000000000E+00 0. -1.
        -11    1    4    4    0    0 -0.62925010028E-02  0.39093697330E-01  0.28526953214E-01  0.48805337008E-01  0.51100000000E-03 0. -1.
         11    1    4    4    0    0 -0.64022458525E-01  0.52948822511E-01  0.30293363522E-01  0.88433036786E-01  0.51100000000E-03 0.  1.
</event>
<event>
 8    1  0.2107254E+004  0.1043930E+01  0.7957747E-01            NaN
         13   -1    0    0    0    0  0.00000000000E+00  0.00000000000E+00  0.74505805969E-08  0.10566000000E+00  0.10566000000E+00 0. -1.
     999900   -1    0    0    0    0 -0.00000000000E+00 -0.00000000000E+00 -0.74505805969E-08  0.93827000000E+00  0.93827000000E+00 0.  1.
     999902    2    1    2    0    0  0.15345131940E-01  0.23121759683E-02 -0.35785025749E-02  0.10280043944E+01  0.10278810291E+01 0.  0.
     999903    2    3    3    0    0 -0.81655605941E-01  0.99222084658E-01 -0.16671867445E-01  0.13729001274E+00  0.45364483562E-01 0.  0.
         14    1    1    2    0    0 -0.15345131940E-01 -0.23121759683E-02  0.35785025749E-02  0.15925605566E-01  0.00000000000E+00 0.  1.
     999901    1    3    3    0    0  0.97000737880E-01 -0.96909908690E-01  0.13093364870E-01  0.89071438169E+00  0.88000000000E+00 0. -1.
        -11    1    4    4    0    0 -0.43445691970E-01  0.84258332277E-01 -0.65830382541E-02  0.95029428192E-01  0.51100000000E-03 0. -1.
         11    1    4    4    0    0 -0.38209913970E-01  0.14963752381E-01 -0.10088829191E-01  0.42260584549E-01  0.51100000000E-03 0.  1.
</event>
<event>
 8    1  0.2107254E+004  0.1043930E+01  0.7957747E-01            NaN
         13   -1    0    0    0    0  0.00000000000E+00  0.00000000000E+00  0.74505805969E-08  0.10566000000E+00  0.10566000000E+00 0. -1.
     999900   -1    0    0    0    0 -0.00000000000E+00 -0.00000000000E+00 -0.74505805969E-08  0.93827000000E+00  0.93827000000E+00 0.  1.
     999902    2    1    2    0    0  0.10538394901E-01 -0.47015496189E-02  0.75857681626E-02  0.10301203579E+01  0.10300277887E+01 0.  0.
     999903    2    3    3    0    0  0.33011416459E-01 -0.82410477144E-01 -0.98489974133E-01  0.14006655211E+00  0.45134506276E-01 0.  0.
         14    1    1    2    0    0 -0.10538394901E-01  0.47015496189E-02 -0.75857681626E-02  0.13809642086E-01  0.00000000000E+00 0.  1.
     999901    1    3    3    0    0 -0.22473021558E-01  0.77708927525E-01  0.10607574230E+00  0.89005380580E+00  0.88000000000E+00 0. -1.
        -11    1    4    4    0    0  0.13668301446E-01 -0.75877845137E-01 -0.88361353389E-01  0.11727002917E+00  0.51100000000E-03 0. -1.
         11    1    4    4    0    0  0.19343115013E-01 -0.65326320070E-02 -0.10128620744E-01  0.22796522948E-01  0.51100000000E-03 0.  1.
</event>
<event>
 8    1  0.2107254E+004  0.1043930E+01  0.7957747E-01            NaN
         13   -1    0    0    0    0  0.00000000000E+00  0.00000000000E+00  0.74505805969E-08  0.10566000000E+00  0.10566000000E+00 0.  1.
     999900   -1    0    0    0    0 -0.00000000000E+00 -0.00000000000E+00 -0.74505805969E-08  0.93827000000E+00  0.93827000000E+00 0.  1.
     999902    2    1    2    0    0 -0.96617082297E-03  0.11261136857E-01  0.88140321939E-02  0.10295970361E+01  0.10294972671E+01 0.  0.
     999903    2    3    3    0    0  0.32454904009E-01 -0.89811153771E-01 -0.91210907812E-01  0.13755580122E+00  0.38507202064E-01 0.  0.
         14    1    1    2    0    0  0.96617082297E-03 -0.11261136857E-01 -0.88140321939E-02  0.14332963855E-01  0.00000000000E+00 0. -1.
     999901    1    3    3    0    0 -0.33421074831E-01  0.10107229063E+00  0.10002494001E+00  0.89204123492E+00  0.88000000000E+00 0. -1.
        -11    1    4    4    0    0 -0.25721436709E-02 -0.42289371016E-01 -0.26571712558E-01  0.50013236781E-01  0.51100000000E-03 0.  1.
         11    1    4    4    0    0  0.35027047679E-01 -0.47521782754E-01 -0.64639195253E-01  0.87542564443E-01  0.51100000000E-03 0. -1.
</event>
<event>
 8    1  0.2107254E+004  0.1043930E+01  0.7957747E-01            NaN
         13   -1    0    0    0    0  0.00000000000E+00  0.00000000000E+00  0.74505805969E-08  0.10566000000E+00  0.10566000000E+00 0.  1.
     999900   -1    0    0    0    0 -0.00000000000E+00 -0.00000000000E+00 -0.74505805969E-08  0.93827000000E+00  0.93827000000E+00 0.  1.
     999902    2    1    2    0    0  0.15013665829E-01 -0.88721531169E-02 -0.39704330597E-02  0.10260445422E+01  0.10258886455E+01 0.  0.
     999903    2    3    3    0    0 -0.70793867389E-01  0.10744973171E-01 -0.10643877920E+00  0.13573699624E+00  0.44363186564E-01 0.  0.
         14    1    1    2    0    0 -0.15013665829E-01  0.88721531169E-02  0.39704330597E-02  0.17885457814E-01  0.00000000000E+00 0. -1.
     999901    1    3    3    0    0  0.85807533218E-01 -0.19617126288E-01  0.10246834615E+00  0.89030754594E+00  0.88000000000E+00 0. -1.
        -11    1    4    4    0    0  0.28470185021E-02  0.24102027072E-02 -0.26352040543E-01  0.26619649757E-01  0.51100000000E-03 0. -1.
         11    1    4    4    0    0 -0.73640885891E-01  0.83347704642E-02 -0.80086738662E-01  0.10911734649E+00  0.51100000000E-03 0.  1.
</event>
<event>
 8    1  0.2107254E+004  0.1043930E+01  0.7957747E-01            NaN
         13   -1    0    0    0    0  0.00000000000E+00  0.00000000000E+00  0.74505805969E-08  0.10566000000E+00  0.10566000000E+00 0. -1.
     999900   -1    0    0    0    0 -0.00000000000E+00 -0.00000000000E+00 -0.74505805969E-08  0.93827000000E+00  0.93827000000E+00 0. -1.
     999902    2    1    2    0    0  0.10013316537E-01 -0.94616104051E-02 -0.13958833879E-02  0.10300830845E+01  0.10299900115E+01 0.  0.
     999903    2    3    3    0    0  0.67396616391E-01  0.11294825477E+00  0.12644332806E-01  0.13964827726E+00  0.45190154177E-01 0.  0.
         14    1    1    2    0    0 -0.10013316537E-01  0.94616104051E-02  0.13958833879E-02  0.13846915540E-01  0.00000000000E+00 0. -1.
     999901    1    3    3    0    0 -0.57383299854E-01 -0.12240986517E+00 -0.14040216194E-01  0.89043480720E+00  0.88000000000E+00 0.  1.
        -11    1    4    4    0    0  0.20728472607E-01  0.90952547528E-02 -0.78431024789E-02  0.23961815731E-01  0.51100000000E-03 0.  1.
         11    1    4    4    0    0  0.46668143784E-01  0.10385300002E+00  0.20487435285E-01  0.11568646153E+00  0.51100000000E-03 0. -1.
</event>
<event>
 8    1  0.2107254E+004  0.1043930E+01  0.7957747E-01            NaN
         13   -1    0    0    0    0  0.00000000000E+00  0.00000000000E+00  0.74505805969E-08  0.10566000000E+00  0.10566000000E+00 0. -1.
     999900   -1    0    0    0    0 -0.00000000000E+00 -0.00000000000E+00 -0.74505805969E-08  0.93827000000E+00  0.93827000000E+00 0.  1.
     999902    2    1    2    0    0  0.20450998003E-02  0.63924940536E-02  0.11744427365E-01  0.10304030644E+01  0.10303142710E+01 0.  0.
     999903    2    3    3    0    0 -0.10717238383E+00  0.51407810808E-01 -0.57691938561E-01  0.13979863681E+00  0.45679494432E-01 0.  0.
         14    1    1    2    0    0 -0.20450998003E-02 -0.63924940536E-02 -0.11744427365E-01  0.13526935630E-01  0.00000000000E+00 0.  1.
     999901    1    3    3    0    0  0.10921748363E+00 -0.45015316755E-01  0.69436365926E-01  0.89060442756E+00  0.88000000000E+00 0. -1.
        -11    1    4    4    0    0 -0.83715470234E-01  0.20009985108E-01 -0.50958863559E-01  0.10002872766E+00  0.51100000000E-03 0. -1.
         11    1    4    4    0    0 -0.23456913596E-01  0.31397825700E-01 -0.67330750016E-02  0.39769909154E-01  0.51100000000E-03 0.  1.
</event>
<event>
 8    1  0.2107254E+004  0.1043930E+01  0.7957747E-01            NaN
         13   -1    0    0    0    0  0.00000000000E+00  0.00000000000E+00  0.74505805969E-08  0.10566000000E+00  0.10566000000E+00 0.  1.
     999900   -1    0    0    0    0 -0.00000000000E+00 -0.00000000000E+00 -0.74505805969E-08  0.93827000000E+00  0.93827000000E+00 0.  1.
     999902    2    1    2    0    0 -0.13435459091E-01  0.51547620894E-02 -0.16472840937E-02  0.10294456402E+01  0.10293437373E+01 0.  0.
     999903    2    3    3    0    0  0.10517692387E+00  0.73471796197E-01 -0.27279855259E-01  0.13849494392E+00  0.44456370036E-01 0.  0.
         14    1    1    2    0    0  0.13435459091E-01 -0.51547620894E-02  0.16472840937E-02  0.14484359774E-01  0.00000000000E+00 0. -1.
     999901    1    3    3    0    0 -0.11861238296E+00 -0.68317034108E-01  0.25632571165E-01  0.89095069630E+00  0.88000000000E+00 0.  1.
        -11    1    4    4    0    0  0.39381501480E-01  0.60041263230E-02 -0.18257256243E-01  0.43823974241E-01  0.51100000000E-03 0. -1.
         11    1    4    4    0    0  0.65795422393E-01  0.67467669874E-01 -0.90225990157E-02  0.94670969680E-01  0.51100000000E-03 0.  1.
</event>
<event>
 8    1  0.2107254E+004  0.1043930E+01  0.7957747E-01            NaN
         13   -1    0    0    0    0  0.00000000000E+00  0.00000000000E+00  0.74505805969E-08  0.10566000000E+00  0.10566000000E+00 0.  1.
     999900   -1    0    0    0    0 -0.00000000000E+00 -0.00000000000E+00 -0.74505805969E-08  0.93827000000E+00  0.93827000000E+00 0.  1.
     999902    2    1    2    0    0  0.11405192605E-01  0.22683894420E-02  0.63977956064E-02  0.10306576303E+01  0.10305721688E+01 0.  0.
     999903    2    3    3    0    0 -0.12509343246E+00  0.25837422673E-01 -0.31054315445E-01  0.13903549363E+00  0.45283095370E-01 0.  0.
         14    1    1    2    0    0 -0.11405192605E-01 -0.22683894420E-02 -0.63977956064E-02  0.13272369707E-01  0.00000000000E+00 0. -1.
     999901    1    3    3    0    0  0.13649862506E+00 -0.23569033231E-01  0.37452111051E-01  0.89162213667E+00  0.88000000000E+00 0. -1.
        -11    1    4    4    0    0 -0.36101052764E-01  0.17250095081E-02 -0.29765014285E-01  0.46823913386E-01  0.51100000000E-03 0.  1.
         11    1    4    4    0    0 -0.88992379692E-01  0.24112413165E-01 -0.12893011598E-02  0.92211580240E-01  0.51100000000E-03 0. -1.
</event>
<event>
 8    1  0.2107254E+004  0.1043930E+01  0.7957747E-01            NaN
         13   -1    0    0    0    0  0.00000000000E+00  0.00000000000E+00  0.74505805969E-08  0.10566000000E+00  0.10566000000E+00 0.  1.
     999900   -1    0    0    0    0 -0.00000000000E+00 -0.00000000000E+00 -0.74505805969E-08  0.93827000000E+00  0.93827000000E+00 0.  1.
     999902    2    1    2    0    0 -0.41310526661E-03 -0.22695388498E-02 -0.13625367351E-01  0.10301107345E+01  0.10300180354E+01 0.  0.
     999903    2    3    3    0    0  0.99882517457E-01 -0.16057900233E-01  0.83898243626E-01  0.13895407853E+00  0.45110389076E-01 0.  0.
         14    1    1    2    0    0  0.41310526661E-03  0.22695388498E-02  0.13625367351E-01  0.13819265465E-01  0.00000000000E+00 0.  1.
     999901    1    3    3    0    0 -0.10029562272E+00  0.13788361383E-01 -0.97523610977E-01  0.89115665601E+00  0.88000000000E+00 0.  1.
        -11    1    4    4    0    0  0.67137587262E-01 -0.26073393794E-01  0.37256510573E-01  0.81089988213E-01  0.51100000000E-03 0.  1.
         11    1    4    4    0    0  0.32744930196E-01  0.10015493562E-01  0.46641733054E-01  0.57864090316E-01  0.51100000000E-03 0. -1.
</event>
<event>
 8    1  0.2107254E+004  0.1043930E+01  0.7957747E-01            NaN
         13   -1    0    0    0    0  0.00000000000E+00  0.00000000000E+00  0.74505805969E-08  0.10566000000E+00  0.10566000000E+00 0. -1.
     999900   -1    0    0    0    0 -0.00000000000E+00 -0.00000000000E+00 -0.74505805969E-08  0.93827000000E+00  0.93827000000E+00 0.  1.
     999902    2    1    2    0    0 -0.11335985059E-01 -0.24894591208E-03  0.56334630623E-02  0.10312689401E+01  0.10311912162E+01 0.  0.
     999903    2    3    3    0    0 -0.47575086821E-01 -0.67053153671E-02  0.12612927208E+00  0.14229526379E+00  0.45066602741E-01 0.  0.
         14    1    1    2    0    0  0.11335985059E-01  0.24894591208E-03 -0.56334630623E-02  0.12661059884E-01  0.00000000000E+00 0. -1.
     999901    1    3    3    0    0  0.36239101762E-01  0.64563694550E-02 -0.12049580902E+00  0.88897367632E+00  0.88000000000E+00 0.  1.
        -11    1    4    4    0    0 -0.35265596505E-01 -0.17655896876E-01  0.46485061207E-01  0.60963226848E-01  0.51100000000E-03 0.  1.
         11    1    4    4    0    0 -0.12309490316E-01  0.10950581509E-01  0.79644210872E-01  0.81332036945E-01  0.51100000000E-03 0. -1.
</event>
<event>
 8    1  0.2107254E+004  0.1043930E+01  0.7957747E-01            NaN
         13   -1    0    0    0    0  0.00000000000E+00  0.00000000000E+00  0.74505805969E-08  0.10566000000E+00  0.10566000000E+00 0. -1.
     999900   -1    0    0    0    0 -0.00000000000E+00 -0.00000000000E+00 -0.74505805969E-08  0.93827000000E+00  0.93827000000E+00 0. -1.
     999902    2    1    2    0    0 -0.77875979684E-02  0.11499493244E-01  0.72605362059E-02  0.10282583564E+01  0.10281389240E+01 0.  0.
     999903    2    3    3    0    0 -0.32095787712E-01  0.12878693634E+00  0.22344238534E-02  0.14012970908E+00  0.44890178826E-01 0.  0.
         14    1    1    2    0    0  0.77875979684E-02 -0.11499493244E-01 -0.72605362059E-02  0.15671643595E-01  0.00000000000E+00 0.  1.
     999901    1    3    3    0    0  0.24308189743E-01 -0.11728744310E+00  0.50261123525E-02  0.88812864733E+00  0.88000000000E+00 0.  1.
        -11    1    4    4    0    0 -0.20792928047E-01  0.24667733705E-01  0.13123734767E-01  0.34832979748E-01  0.51100000000E-03 0. -1.
         11    1    4    4    0    0 -0.11302859665E-01  0.10411920264E+00 -0.10889310913E-01  0.10529672933E+00  0.51100000000E-03 0.  1.
</event>
<event>
 8    1  0.2107254E+004  0.1043930E+01  0.7957747E-01            NaN
         13   -1    0    0    0    0  0.00000000000E+00  0.00000000000E+00  0.74505805969E-08  0.10566000000E+00  0.10566000000E+00 0.  1.
     999900   -1    0    0    0    0 -0.00000000000E+00 -0.00000000000E+00 -0.74505805969E-08  0.93827000000E+00  0.93827000000E+00 0.  1.
     999902    2    1    2    0    0 -0.13060941415E-01  0.27096524529E-02 -0.42628532432E-02  0.10299263460E+01  0.10298311395E+01 0.  0.
     999903    2    3    3    0    0  0.45871564067E-01  0.12392826572E+00 -0.46031538197E-02  0.13966396435E+00  0.44971307304E-01 0.  0.
         14    1    1    2    0    0  0.13060941415E-01 -0.27096524529E-02  0.42628532432E-02  0.14003653981E-01  0.00000000000E+00 0. -1.
     999901    1    3    3    0    0 -0.58932505481E-01 -0.12121861326E+00  0.34030057651E-03  0.89026238167E+00  0.88000000000E+00 0.  1.
        -11    1    4    4    0    0  0.28477806777E-01  0.10668753520E+00 -0.17784087731E-01  0.11184699613E+00  0.51100000000E-03 0. -1.
         11    1    4    4    0    0  0.17393757289E-01  0.17240730515E-01  0.13180933911E-01  0.27816968222E-01  0.51100000000E-03 0.  1.
</event>
<event>
 7    1  0.2512728E+004  0.1043930E+01  0.7957747E-01            NaN
         13   -1    0    0    0    0  0.00000000000E+00  0.00000000000E+00  0.74505805969E-08  0.10566000000E+00  0.10566000000E+00 0.  1.
     999900   -1    0    0    0    0 -0.00000000000E+00 -0.00000000000E+00 -0.74505805969E-08  0.93827000000E+00  0.93827000000E+00 0. -1.
     999903    2    1    2    0    0  0.55926717629E-01 -0.22878933848E-01  0.97220836624E-01  0.12294390491E+00  0.44856095698E-01 0.  0.
         14    1    1    2    0    0  0.12333094097E-01 -0.14280598900E-01 -0.29435399449E-01  0.34964030884E-01  0.00000000000E+00 0. -1.
     999901    1    1    2    0    0 -0.68259811726E-01  0.37159532748E-01 -0.67785437176E-01  0.88602206421E+00  0.88000000000E+00 0. -1.
        -11    1    3    3    0    0  0.11386320591E-01  0.15969155819E-02  0.56942414581E-01  0.58093873475E-01  0.51100000000E-03 0.  1.
         11    1    3    3    0    0  0.44540397038E-01 -0.24475849430E-01  0.40278422043E-01  0.64850031433E-01  0.51100000000E-03 0. -1.
</event>
<event>
 8    1  0.2107254E+004  0.1043930E+01  0.7957747E-01            NaN
         13   -1    0    0    0    0  0.00000000000E+00  0.00000000000E+00  0.74505805969E-08  0.10566000000E+00  0.10566000000E+00 0. -1.
     999900   -1    0    0    0    0 -0.00000000000E+00 -0.00000000000E+00 -0.74505805969E-08  0.93827000000E+00  0.93827000000E+00 0.  1.
     999902    2    1    2    0    0  0.65608644928E-02  0.96942445666E-02  0.50010051049E-02  0.10312007670E+01  0.10311221986E+01 0.  0.
     999903    2    3    3    0    0 -0.22905714998E-01 -0.42349321276E-01  0.12455555072E+00  0.14110520953E+00  0.45590110221E-01 0.  0.
         14    1    1    2    0    0 -0.65608644928E-02 -0.96942445666E-02 -0.50010051049E-02  0.12729232996E-01  0.00000000000E+00 0.  1.
     999901    1    3    3    0    0  0.29466579491E-01  0.52043565842E-01 -0.11955454562E+00  0.89009555747E+00  0.88000000000E+00 0.  1.
        -11    1    4    4    0    0  0.13130196370E-01 -0.14386133553E-01  0.50497774991E-01  0.54126234816E-01  0.51100000000E-03 0. -1.
         11    1    4    4    0    0 -0.36035911369E-01 -0.27963187723E-01  0.74057775729E-01  0.86978974716E-01  0.51100000000E-03 0.  1.
</event>
<event>
 8    1  0.2107254E+004  0.1043930E+01  0.7957747E-01            NaN
         13   -1    0    0    0    0  0.00000000000E+00  0.00000000000E+00  0.74505805969E-08  0.10566000000E+00  0.10566000000E+00 0.  1.
     999900   -1    0    0    0    0 -0.00000000000E+00 -0.00000000000E+00 -0.74505805969E-08  0.93827000000E+00  0.93827000000E+00 0. -1.
     999902    2    1    2    0    0 -0.75374004958E-03 -0.99090525967E-02 -0.96394624941E-02  0.10300852651E+01  0.10299922217E+01 0.  0.
     999903    2    3    3    0    0  0.36913195414E-01  0.11497203608E+00  0.50088187507E-01  0.13846792761E+00  0.45644138429E-01 0.  0.
         14    1    1    2    0    0  0.75374004958E-03  0.99090525967E-02  0.96394624941E-02  0.13844734905E-01  0.00000000000E+00 0. -1.
     999901    1    3    3    0    0 -0.37666935463E-01 -0.12488108867E+00 -0.59727650001E-01  0.89161733749E+00  0.88000000000E+00 0.  1.
        -11    1    4    4    0    0 -0.71695124232E-02  0.16522969226E-01  0.19050955618E-01  0.26222327345E-01  0.51100000000E-03 0.  1.
         11    1    4    4    0    0  0.44082707837E-01  0.98449066849E-01  0.31037231889E-01  0.11224560026E+00  0.51100000000E-03 0. -1.
</event>
<event>
 8    1  0.2107254E+004  0.1043930E+01  0.7957747E-01            NaN
         13   -1    0    0    0    0  0.00000000000E+00  0.00000000000E+00  0.74505805969E-08  0.10566000000E+00  0.10566000000E+00 0. -1.
     999900   -1    0    0    0    0 -0.00000000000E+00 -0.00000000000E+00 -0.74505805969E-08  0.93827000000E+00  0.93827000000E+00 0. -1.
     999902    2    1    2    0    0 -0.55962330107E-02  0.12154310202E-01 -0.52435305721E-02  0.10295585111E+01  0.10294582012E+01 0.  0.
     999903    2    3    3    0    0  0.10592903866E+00  0.70657845903E-01 -0.35876956049E-01  0.14006485926E+00  0.46016479687E-01 0.  0.
         14    1    1    2    0    0  0.55962330107E-02 -0.12154310202E-01  0.52435305721E-02  0.14371488902E-01  0.00000000000E+00 0. -1.
     999901    1    3    3    0    0 -0.11152527168E+00 -0.58503535701E-01  0.30633425477E-01  0.88949365184E+00  0.88000000000E+00 0.  1.
        -11    1    4    4    0    0  0.43816488187E-01  0.38191479408E-01 -0.38849032225E-01  0.69914105602E-01  0.51100000000E-03 0. -1.
         11    1    4    4    0    0  0.62112550478E-01  0.32466366496E-01  0.29720761759E-02  0.70150753653E-01  0.51100000000E-03 0.  1.
</event>
<event>
 8    1  0.2107254E+004  0.1043930E+01  0.7957747E-01            NaN
         13   -1    0    0    0    0  0.00000000000E+00  0.00000000000E+00  0.74505805969E-08  0.10566000000E+00  0.10566000000E+00 0. -1.
     999900   -1    0    0    0    0 -0.00000000000E+00 -0.00000000000E+00 -0.74505805969E-08  0.93827000000E+00  0.93827000000E+00 0. -1.
     999902    2    1    2    0    0 -0.10870047821E-01 -0.79109776273E-02  0.15258160022E-02  0.10303996777E+01  0.10303108396E+01 0.  0.
     999903    2    3    3    0    0  0.75687293011E-01  0.34616955184E-01  0.10266379910E+00  0.13937235493E+00  0.44248138533E-01 0.  0.
         14    1    1    2    0    0  0.10870047821E-01  0.79109776273E-02 -0.15258160022E-02  0.13530322285E-01  0.00000000000E+00 0.  1.
     999901    1    3    3    0    0 -0.86557340832E-01 -0.42527932811E-01 -0.10113798310E+00  0.89102732278E+00  0.88000000000E+00 0. -1.
        -11    1    4    4    0    0  0.47442036305E-02 -0.36677521013E-02  0.30778053181E-01  0.31360955856E-01  0.51100000000E-03 0. -1.
         11    1    4    4    0    0  0.70943089380E-01  0.38284707285E-01  0.71885745921E-01  0.10801139908E+00  0.51100000000E-03 0.  1.
</event>
<event>
 8    1  0.2107254E+004  0.1043930E+01  0.7957747E-01            NaN
         13   -1    0    0    0    0  0.00000000000E+00  0.00000000000E+00  0.74505805969E-08  0.10566000000E+00  0.10566000000E+00 0.  1.
     999900   -1    0    0    0    0 -0.00000000000E+00 -0.00000000000E+00 -0.74505805969E-08  0.93827000000E+00  0.93827000000E+00 0. -1.
     999902    2    1    2    0    0 -0.11424908918E-02  0.10634629104E-01  0.84399880253E-02  0.10303052424E+01  0.10302151516E+01 0.  0.
     999903    2    3    3    0    0 -0.73057091559E-01  0.82766609564E-01  0.76358354772E-01  0.14183034859E+00  0.45799554067E-01 0.  0.
         14    1    1    2    0    0  0.11424908918E-02 -0.10634629104E-01 -0.84399880253E-02  0.13624757594E-01  0.00000000000E+00 0. -1.
     999901    1    3    3    0    0  0.71914600667E-01 -0.72131980460E-01 -0.67918366747E-01  0.88847489381E+00  0.88000000000E+00 0. -1.
        -11    1    4    4    0    0  0.30562802308E-02  0.18591444930E-01  0.19762723820E-01  0.27309504705E-01  0.51100000000E-03 0.  1.
         11    1    4    4    0    0 -0.76113371790E-01  0.64175164635E-01  0.56595630952E-01  0.11452084389E+00  0.51100000000E-03 0. -1.
</event>
<event>
 8    1  0.2107254E+004  0.1043930E+01  0.7957747E-01            NaN
         13   -1    0    0    0    0  0.00000000000E+00  0.00000000000E+00  0.74505805969E-08  0.10566000000E+00  0.10566000000E+00 0. -1.
     999900   -1    0    0    0    0 -0.00000000000E+00 -0.00000000000E+00 -0.74505805969E-08  0.93827000000E+00  0.93827000000E+00 0.  1.
     999902    2    1    2    0    0  0.57980350163E-02 -0.13497089220E-02  0.12772333313E-01  0.10298384627E+01  0.10297420492E+01 0.  0.
     999903    2    3    3    0    0 -0.41873540989E-01 -0.77464497768E-01 -0.96443506262E-01  0.13855055198E+00  0.46268387750E-01 0.  0.
         14    1    1    2    0    0 -0.57980350163E-02  0.13497089220E-02 -0.12772333313E-01  0.14091537265E-01  0.00000000000E+00 0.  1.
     999901    1    3    3    0    0  0.47671576006E-01  0.76114788846E-01  0.10921583958E+00  0.89128791075E+00  0.88000000000E+00 0. -1.
        -11    1    4    4    0    0 -0.49592596779E-01 -0.58651384258E-01 -0.62705321214E-01  0.99154571051E-01  0.51100000000E-03 0. -1.
         11    1    4    4    0    0  0.77190557896E-02 -0.18813113510E-01 -0.33738185048E-01  0.39395980932E-01  0.51100000000E-03 0.  1.
</event>
<event>
 8    1  0.2107254E+004  0.1043930E+01  0.7957747E-01            NaN
         13   -1    0    0    0    0  0.00000000000E+00  0.00000000000E+00  0.74505805969E-08  0.10566000000E+00  0.10566000000E+00 0.  1.
     999900   -1    0    0    0    0 -0.00000000000E+00 -0.00000000000E+00 -0.74505805969E-08  0.93827000000E+00  0.93827000000E+00 0.  1.
     999902    2    1    2    0    0 -0.67140711579E-02  0.40437871558E-02  0.11136474782E-01  0.10303119224E+01  0.10302219205E+01 0.  0.
     999903    2    3    3    0    0 -0.12758889149E+00 -0.34954520407E-01 -0.16334331528E-01  0.14076921105E+00  0.45259437296E-01 0.  0.
         14    1    1    2    0    0  0.67140711579E-02 -0.40437871558E-02 -0.11136474782E-01  0.13618077568E-01  0.00000000000E+00 0. -1.
     999901    1    3    3    0    0  0.12087482033E+00  0.38998307563E-01  0.27470806309E-01  0.88954271139E+00  0.88000000000E+00 0. -1.
        -11    1    4    4    0    0 -0.32396700668E-01 -0.23824993498E-01 -0.19878125268E-01  0.44861760047E-01  0.51100000000E-03 0. -1.
         11    1    4    4    0    0 -0.95192190818E-01 -0.11129526909E-01  0.35437937400E-02  0.95907450999E-01  0.51100000000E-03 0.  1.
</event>
<event>
 8    1  0.2107254E+004  0.1043930E+01  0.7957747E-01            NaN
         13   -1    0    0    0    0  0.00000000000E+00  0.00000000000E+00  0.74505805969E-08  0.10566000000E+00  0.10566000000E+00 0.  1.
     999900   -1    0    0    0    0 -0.00000000000E+00 -0.00000000000E+00 -0.74505805969E-08  0.93827000000E+00  0.93827000000E+00 0. -1.
     999902    2    1    2    0    0 -0.83611257701E-02  0.14177308988E-03 -0.11110485762E-01  0.10300241948E+01  0.10299303231E+01 0.  0.
     999903    2    3    3    0    0  0.32857627272E-01 -0.86711957282E-01 -0.95821301391E-01  0.14074444223E+00  0.45040970392E-01 0.  0.
         14    1    1    2    0    0  0.83611257701E-02 -0.14177308988E-03  0.11110485762E-01  0.13905805177E-01  0.00000000000E+00 0.  1.
     999901    1    3    3    0    0 -0.41218753042E-01  0.86853730371E-01  0.84710815629E-01  0.88927975259E+00  0.88000000000E+00 0.  1.
        -11    1    4    4    0    0 -0.91059034840E-02 -0.83226603716E-02 -0.21783590825E-01  0.25039371081E-01  0.51100000000E-03 0.  1.
         11    1    4    4    0    0  0.41963530756E-01 -0.78389296910E-01 -0.74037710566E-01  0.11570507115E+00  0.51100000000E-03 0. -1.
</event>
<event>
 8    1  0.2107254E+004  0.1043930E+01  0.7957747E-01            NaN
         13   -1    0    0    0    0  0.00000000000E+00  0.00000000000E+00  0.74505805969E-08  0.10566000000E+00  0.10566000000E+00 0.  1.
     999900   -1    0    0    0    0 -0.00000000000E+00 -0.00000000000E+00 -0.74505805969E-08  0.93827000000E+00  0.93827000000E+00 0.  1.
     999902    2    1    2    0    0  0.11230074422E-01  0.79529454662E-02  0.39041778604E-02  0.10296259265E+01  0.10295265621E+01 0.  0.
     999903    2    3    3    0    0 -0.11975347735E+00 -0.29633038197E-01 -0.43672750398E-01  0.13786757299E+00  0.43372183069E-01 0.  0.
         14    1    1    2    0    0 -0.11230074422E-01 -0.79529454662E-02 -0.39041778604E-02  0.14304073471E-01  0.00000000000E+00 0. -1.
     999901    1    3    3    0    0  0.13098355177E+00  0.37585983663E-01  0.47576928258E-01  0.89175835354E+00  0.88000000000E+00 0. -1.
        -11    1    4    4    0    0 -0.73258753078E-01 -0.97851617491E-02 -0.47499017532E-02  0.74063600916E-01  0.51100000000E-03 0.  1.
         11    1    4    4    0    0 -0.46494724275E-01 -0.19847876448E-01 -0.38922848644E-01  0.63803972074E-01  0.51100000000E-03 0. -1.
</event>
<event>
 8    1  0.2107254E+004  0.1043930E+01  0.7957747E-01            NaN
         13   -1    0    0    0    0  0.00000000000E+00  0.00000000000E+00  0.74505805969E-08  0.10566000000E+00  0.10566000000E+00 0.  1.
     999900   -1    0    0    0    0 -0.00000000000E+00 -0.00000000000E+00 -0.74505805969E-08  0.93827000000E+00  0.93827000000E+00 0.  1.
     999902    2    1    2    0    0  0.10829185018E-01 -0.42626204417E-02 -0.51459077299E-02  0.10312051602E+01  0.10311266464E+01 0.  0.
     999903    2    3    3    0    0  0.11831086392E-01  0.97727016135E-01 -0.90081307807E-01  0.14125184011E+00  0.46334609429E-01 0.  0.
         14    1    1    2    0    0 -0.10829185018E-01  0.42626204417E-02  0.51459077299E-02  0.12724839785E-01  0.00000000000E+00 0.  1.
     999901    1    3    3    0    0 -0.10019013740E-02 -0.10198963658E+00  0.84935400078E-01  0.88995332010E+00  0.88000000000E+00 0. -1.
        -11    1    4    4    0    0  0.24565590586E-01  0.26686321715E-01 -0.35569985763E-01  0.50804655453E-01  0.51100000000E-03 0. -1.
         11    1    4    4    0    0 -0.12734504194E-01  0.71040694420E-01 -0.54511322045E-01  0.90447184659E-01  0.51100000000E-03 0.  1.
</event>
<event>
 8    1  0.2107254E+004  0.1043930E+01  0.7957747E-01            NaN
         13   -1    0    0    0    0  0.00000000000E+00  0.00000000000E+00  0.74505805969E-08  0.10566000000E+00  0.10566000000E+00 0. -1.
     999900   -1    0    0    0    0 -0.00000000000E+00 -0.00000000000E+00 -0.74505805969E-08  0.93827000000E+00  0.93827000000E+00 0.  1.
     999902    2    1    2    0    0  0.18966112463E-01  0.81286455001E-02 -0.37766112525E-02  0.10229526052E+01  0.10227374939E+01 0.  0.
     999903    2    3    3    0    0 -0.31334070196E-02 -0.66587696922E-02 -0.12601935202E+00  0.13410484317E+00  0.45266703287E-01 0.  0.
         14    1    1    2    0    0 -0.18966112463E-01 -0.81286455001E-02  0.37766112525E-02  0.20977394790E-01  0.00000000000E+00 0.  1.
     999901    1    3    3    0    0  0.22099519483E-01  0.14787415192E-01  0.12224274076E+00  0.88884776204E+00  0.88000000000E+00 0. -1.
        -11    1    4    4    0    0 -0.14106576219E-01 -0.21585078114E-01 -0.89645546769E-01  0.93281811015E-01  0.51100000000E-03 0.  1.
         11    1    4    4    0    0  0.10973169200E-01  0.14926308421E-01 -0.36373805247E-01  0.40823032157E-01  0.51100000000E-03 0. -1.
</event>
<event>
 8    1  0.2107254E+004  0.1043930E+01  0.7957747E-01            NaN
         13   -1    0    0    0    0  0.00000000000E+00  0.00000000000E+00  0.74505805969E-08  0.10566000000E+00  0.10566000000E+00 0. -1.
     999900   -1    0    0    0    0 -0.00000000000E+00 -0.00000000000E+00 -0.74505805969E-08  0.93827000000E+00  0.93827000000E+00 0. -1.
     999902    2    1    2    0    0 -0.11204411410E-01  0.39318131102E-03  0.46301325982E-02  0.10318002203E+01  0.10317289194E+01 0.  0.
     999903    2    3    3    0    0  0.67949943410E-01  0.14910276812E-01 -0.11296036994E+00  0.14033867646E+00  0.45775405720E-01 0.  0.
         14    1    1    2    0    0  0.11204411410E-01 -0.39318131102E-03 -0.46301325982E-02  0.12129779655E-01  0.00000000000E+00 0.  1.
     999901    1    3    3    0    0 -0.79154354821E-01 -0.14517095501E-01  0.11759050253E+00  0.89146154389E+00  0.88000000000E+00 0.  1.
        -11    1    4    4    0    0  0.17748543164E-01  0.20036863605E-01 -0.16426740874E-01  0.31409960591E-01  0.51100000000E-03 0.  1.
         11    1    4    4    0    0  0.50201400246E-01 -0.51265867927E-02 -0.96533629063E-01  0.10892871586E+00  0.51100000000E-03 0. -1.
</event>
<event>
 8    1  0.2107254E+004  0.1043930E+01  0.7957747E-01            NaN
         13   -1    0    0    0    0  0.00000000000E+00  0.00000000000E+00  0.74505805969E-08  0.10566000000E+00  0.10566000000E+00 0.  1.
     999900   -1    0    0    0    0 -0.00000000000E+00 -0.00000000000E+00 -0.74505805969E-08  0.93827000000E+00  0.93827000000E+00 0.  1.
     999902    2    1    2    0    0  0.65222714839E-02  0.64696204269E-02  0.10798556157E-01  0.10297523828E+01  0.10296547796E+01 0.  0.
     999903    2    3    3    0    0  0.39123969611E-01 -0.11741460773E+00 -0.44235483289E-01  0.13877599806E+00  0.44554736551E-01 0.  0.
         14    1    1    2    0    0 -0.65222714839E-02 -0.64696204269E-02 -0.10798556157E-01  0.14177617178E-01  0.00000000000E+00 0. -1.
     999901    1    3    3    0    0 -0.32601698127E-01  0.12388422816E+00  0.55034039446E-01  0.89097638476E+00  0.88000000000E+00 0. -1.
        -11    1    4    4    0    0 -0.19353544771E-02 -0.85853401004E-02 -0.17244591700E-01  0.19367259112E-01  0.51100000000E-03 0.  1.
         11    1    4    4    0    0  0.41059324088E-01 -0.10882926763E+00 -0.26990891588E-01  0.11940873895E+00  0.51100000000E-03 0. -1.
</event>
<event>
 8    1  0.2107254E+004  0.1043930E+01  0.7957747E-01            NaN
         13   -1    0    0    0    0  0.00000000000E+00  0.00000000000E+00  0.74505805969E-08  0.10566000000E+00  0.10566000000E+00 0.  1.
     999900   -1    0    0    0    0 -0.00000000000E+00 -0.00000000000E+00 -0.74505805969E-08  0.93827000000E+00  0.93827000000E+00 0.  1.
     999902    2    1    2    0    0 -0.58181606502E-02 -0.12575995674E-01 -0.24295871749E-02  0.10298619669E+01  0.10297658770E+01 0.  0.
     999903    2    3    3    0    0  0.10082961410E+00 -0.41026053106E-02  0.85466940229E-01  0.13903575171E+00  0.42929010360E-01 0.  0.
         14    1    1    2    0    0  0.58181606502E-02  0.12575995674E-01  0.24295871749E-02  0.14068033068E-01  0.00000000000E+00 0. -1.
     999901    1    3    3    0    0 -0.10664777475E+00 -0.84733903636E-02 -0.87896527403E-01  0.89082621523E+00  0.88000000000E+00 0.  1.
        -11    1    4    4    0    0  0.57872027610E-02 -0.53043907631E-02  0.25412190145E-01  0.26602045150E-01  0.51100000000E-03 0.  1.
         11    1    4    4    0    0  0.95042411340E-01  0.12017854525E-02  0.60054750083E-01  0.11243370656E+00  0.51100000000E-03 0. -1.
</event>
<event>
 8    1  0.2107254E+004  0.1043930E+01  0.7957747E-01            NaN
         13   -1    0    0    0    0  0.00000000000E+00  0.00000000000E+00  0.74505805969E-08  0.10566000000E+00  0.10566000000E+00 0.  1.
     999900   -1    0    0    0    0 -0.00000000000E+00 -0.00000000000E+00 -0.74505805969E-08  0.93827000000E+00  0.93827000000E+00 0. -1.
     999902    2    1    2    0    0 -0.11938633103E-01 -0.34544712896E-02 -0.12665044789E-01  0.10261854884E+01  0.10260320604E+01 0.  0.
     999903    2    3    3    0    0 -0.11188954613E+00  0.34722301767E-01  0.55340807720E-01  0.13710031420E+00  0.44821673125E-01 0.  0.
         14    1    1    2    0    0  0.11938633103E-01  0.34544712896E-02  0.12665044789E-01  0.17744511595E-01  0.00000000000E+00 0.  1.
     999901    1    3    3    0    0  0.99950913026E-01 -0.38176773057E-01 -0.68005852509E-01  0.88908517420E+00  0.88000000000E+00 0.  1.
        -11    1    4    4    0    0 -0.64165838859E-01 -0.31022083529E-02  0.33099428374E-01  0.72268332296E-01  0.51100000000E-03 0.  1.
         11    1    4    4    0    0 -0.47723707269E-01  0.37824510120E-01  0.22241379347E-01  0.64831981904E-01  0.51100000000E-03 0. -1.
</event>
<event>
 8    1  0.2107254E+004  0.1043930E+01  0.7957747E-01            NaN
         13   -1    0    0    0    0  0.00000000000E+00  0.00000000000E+00  0.74505805969E-08  0.10566000000E+00  0.10566000000E+00 0.  1.
     999900   -1    0    0    0    0 -0.00000000000E+00 -0.00000000000E+00 -0.74505805969E-08  0.93827000000E+00  0.93827000000E+00 0.  1.
     999902    2    1    2    0    0 -0.74280969522E-02  0.99999434980E-02  0.56055123931E-02  0.10302699391E+01  0.10301793777E+01 0.  0.
     999903    2    3    3    0    0 -0.89537411169E-01  0.87681422300E-01 -0.40329226982E-01  0.14185204650E+00  0.52825909664E-01 0.  0.
         14    1    1    2    0    0  0.74280969522E-02 -0.99999434980E-02 -0.56055123931E-02  0.13660060889E-01  0.00000000000E+00 0. -1.
     999901    1    3    3    0    0  0.82109314217E-01 -0.77681478802E-01  0.45934739375E-01  0.88841789261E+00  0.88000000000E+00 0. -1.
        -11    1    4    4    0    0 -0.75477908087E-02  0.38810567486E-01 -0.19786587560E-01  0.44215375866E-01  0.51100000000E-03 0. -1.
         11    1    4    4    0    0 -0.81989620361E-01  0.48870854814E-01 -0.20542639422E-01  0.97636670634E-01  0.51100000000E-03 0.  1.
</event>
<event>
 8    1  0.2107254E+004  0.1043930E+01  0.7957747E-01            NaN
         13   -1    0    0    0    0  0.00000000000E+00  0.00000000000E+00  0.74505805969E-08  0.10566000000E+00  0.10566000000E+00 0. -1.
     999900   -1    0    0    0    0 -0.00000000000E+00 -0.00000000000E+00 -0.74505805969E-08  0.93827000000E+00  0.93827000000E+00 0.  1.
     999902    2    1    2    0    0 -0.96673387725E-02 -0.79812441556E-02  0.58636487500E-02  0.10300901996E+01  0.10299972230E+01 0.  0.
     999903    2    3    3    0    0 -0.12928152090E+00 -0.27453139974E-01  0.22746885670E-01  0.14162424589E+00  0.45526032927E-01 0.  0.
         14    1    1    2    0    0  0.96673387725E-02  0.79812441556E-02 -0.58636487500E-02  0.13839800355E-01  0.00000000000E+00 0.  1.
     999901    1    3    3    0    0  0.11961418213E+00  0.19471895818E-01 -0.16883236920E-01  0.88846595376E+00  0.88000000000E+00 0. -1.
        -11    1    4    4    0    0 -0.48219286656E-01  0.11681746600E-01  0.11258476572E-01  0.50878062315E-01  0.51100000000E-03 0.  1.
         11    1    4    4    0    0 -0.81062234249E-01 -0.39134886574E-01  0.11488409097E-01  0.90746183574E-01  0.51100000000E-03 0. -1.
</event>
<event>
 8    1  0.2107254E+004  0.1043930E+01  0.7957747E-01            NaN
         13   -1    0    0    0    0  0.00000000000E+00  0.00000000000E+00  0.74505805969E-08  0.10566000000E+00  0.10566000000E+00 0.  1.
     999900   -1    0    0    0    0 -0.00000000000E+00 -0.00000000000E+00 -0.74505805969E-08  0.93827000000E+00  0.93827000000E+00 0. -1.
     999902    2    1    2    0    0  0.12563618149E-01  0.23350419275E-02  0.53289981852E-02  0.10300845985E+01  0.10299915460E+01 0.  0.
     999903    2    3    3    0    0  0.52693614999E-01  0.51730230126E-01 -0.11020977449E+00  0.14025342951E+00  0.45521383182E-01 0.  0.
         14    1    1    2    0    0 -0.12563618149E-01 -0.23350419275E-02 -0.53289981852E-02  0.13845401527E-01  0.00000000000E+00 0. -1.
     999901    1    3    3    0    0 -0.40129996850E-01 -0.49395188199E-01  0.11553877267E+00  0.88983116896E+00  0.88000000000E+00 0.  1.
        -11    1    4    4    0    0  0.20599086514E-01  0.47932915147E-01 -0.82832968372E-01  0.97895089203E-01  0.51100000000E-03 0.  1.
         11    1    4    4    0    0  0.32094528484E-01  0.37973149793E-02 -0.27376806115E-01  0.42358340309E-01  0.51100000000E-03 0. -1.
</event>
<event>
 8    1  0.2107254E+004  0.1043930E+01  0.7957747E-01            NaN
         13   -1    0    0    0    0  0.00000000000E+00  0.00000000000E+00  0.74505805969E-08  0.10566000000E+00  0.10566000000E+00 0.  1.
     999900   -1    0    0    0    0 -0.00000000000E+00 -0.00000000000E+00 -0.74505805969E-08  0.93827000000E+00  0.93827000000E+00 0.  1.
     999902    2    1    2    0    0 -0.26259551998E-02  0.13228907994E-01 -0.11770239763E-04  0.10304429771E+01  0.10303547104E+01 0.  0.
     999903    2    3    3    0    0  0.48575407779E-01 -0.11708679540E+00  0.31912547894E-01  0.13880239696E+00  0.46677690494E-01 0.  0.
         14    1    1    2    0    0  0.26259551998E-02 -0.13228907994E-01  0.11770239763E-04  0.13487022872E-01  0.00000000000E+00 0. -1.
     999901    1    3    3    0    0 -0.51201362979E-01  0.13031570339E+00 -0.31924318134E-01  0.89164058017E+00  0.88000000000E+00 0.  1.
        -11    1    4    4    0    0  0.26939783151E-01 -0.10273771447E+00  0.36747492663E-01  0.11238963132E+00  0.51100000000E-03 0. -1.
         11    1    4    4    0    0  0.21635624628E-01 -0.14349080931E-01 -0.48349447685E-02  0.26412765635E-01  0.51100000000E-03 0.  1.
</event>
<event>
 8    1  0.2107254E+004  0.1043930E+01  0.7957747E-01            NaN
         13   -1    0    0    0    0  0.00000000000E+00  0.00000000000E+00  0.74505805969E-08  0.10566000000E+00  0.10566000000E+00 0. -1.
     999900   -1    0    0    0    0 -0.00000000000E+00 -0.00000000000E+00 -0.74505805969E-08  0.93827000000E+00  0.93827000000E+00 0.  1.
     999902    2    1    2    0    0  0.23978992311E-03  0.10122103934E-01 -0.11207402751E-01  0.10288263460E+01  0.10287154757E+01 0.  0.
     999903    2    3    3    0    0  0.10806760966E+00  0.70757278250E-01  0.23377714520E-01  0.13950098744E+00  0.47210245473E-01 0.  0.
         14    1    1    2    0    0 -0.23978992311E-03 -0.10122103934E-01  0.11207402751E-01  0.15103653984E-01  0.00000000000E+00 0. -1.
     999901    1    3    3    0    0 -0.10782781973E+00 -0.60635174316E-01 -0.34585117271E-01  0.88932535858E+00  0.88000000000E+00 0. -1.
        -11    1    4    4    0    0  0.73088307751E-01  0.54866605915E-01 -0.53156046582E-02  0.91546501563E-01  0.51100000000E-03 0. -1.
         11    1    4    4    0    0  0.34979301906E-01  0.15890672335E-01  0.28693319178E-01  0.47954485875E-01  0.51100000000E-03 0.  1.
</event>
<event>
 8    1  0.2107254E+004  0.1043930E+01  0.7957747E-01            NaN
         13   -1    0    0    0    0  0.00000000000E+00  0.00000000000E+00  0.74505805969E-08  0.10566000000E+00  0.10566000000E+00 0. -1.
     999900   -1    0    0    0    0 -0.00000000000E+00 -0.00000000000E+00 -0.74505805969E-08  0.93827000000E+00  0.93827000000E+00 0.  1.
     999902    2    1    2    0    0 -0.10864121099E-01 -0.14743695615E-02  0.85979171642E-02  0.10299970508E+01  0.10299028098E+01 0.  0.
     999903    2    3    3    0    0 -0.20241954952E-01 -0.73236964803E-01  0.10951182210E+00  0.14127806823E+00  0.46832292584E-01 0.  0.
         14    1    1    2    0    0  0.10864121099E-01  0.14743695615E-02 -0.85979171642E-02  0.13932949164E-01  0.00000000000E+00 0.  1.
     999901    1    3    3    0    0  0.93778338529E-02  0.71762595242E-01 -0.10091390493E+00  0.88871898261E+00  0.88000000000E+00 0.  1.
        -11    1    4    4    0    0  0.82679453384E-02 -0.47571336307E-01  0.77501916595E-01  0.91313740231E-01  0.51100000000E-03 0.  1.
         11    1    4    4    0    0 -0.28509900290E-01 -0.25665628496E-01  0.32009905502E-01  0.49964327994E-01  0.51100000000E-03 0. -1.
</event>
<event>
 8    1  0.2107254E+004  0.1043930E+01  0.7957747E-01            NaN
         13   -1    0    0    0    0  0.00000000000E+00  0.00000000000E+00  0.74505805969E-08  0.10566000000E+00  0.10566000000E+00 0. -1.
     999900   -1    0    0    0    0 -0.00000000000E+00 -0.00000000000E+00 -0.74505805969E-08  0.93827000000E+00  0.93827000000E+00 0. -1.
     999902    2    1    2    0    0  0.51631765979E-02  0.98887404702E-02  0.77445154115E-02  0.10303497533E+01  0.10302602541E+01 0.  0.
     999903    2    3    3    0    0 -0.28811355154E-01 -0.96885083796E-01  0.85403445617E-01  0.13985223632E+00  0.45255782316E-01 0.  0.
         14    1    1    2    0    0 -0.51631765979E-02 -0.98887404702E-02 -0.77445154115E-02  0.13580246670E-01  0.00000000000E+00 0.  1.
     999901    1    3    3    0    0  0.33974531752E-01  0.10677382427E+00 -0.77658930205E-01  0.89049751701E+00  0.88000000000E+00 0.  1.
        -11    1    4    4    0    0 -0.31422187017E-01 -0.39617667421E-01  0.55892301626E-01  0.75373230732E-01  0.51100000000E-03 0.  1.
         11    1    4    4    0    0  0.26108318633E-02 -0.57267416375E-01  0.29511143991E-01  0.64479005590E-01  0.51100000000E-03 0. -1.
</event>
<event>
 8    1  0.2107254E+004  0.1043930E+01  0.7957747E-01            NaN
         13   -1    0    0    0    0  0.00000000000E+00  0.00000000000E+00  0.74505805969E-08  0.10566000000E+00  0.10566000000E+00 0. -1.
     999900   -1    0    0    0    0 -0.00000000000E+00 -0.00000000000E+00 -0.74505805969E-08  0.93827000000E+00  0.93827000000E+00 0.  1.
     999902    2    1    2    0    0  0.11217504482E-01 -0.36128306808E-02 -0.16741006407E-02  0.10320267414E+01  0.10319580938E+01 0.  0.
     999903    2    3    3    0    0  0.10114323763E+00  0.84721187582E-01 -0.28352221880E-01  0.14264422616E+00  0.46215718394E-01 0.  0.
         14    1    1    2    0    0 -0.11217504482E-01  0.36128306808E-02  0.16741006407E-02  0.11903258600E-01  0.00000000000E+00 0.  1.
     999901    1    3    3    0    0 -0.89925733150E-01 -0.88334018263E-01  0.26678121239E-01  0.88938251524E+00  0.88000000000E+00 0. -1.
        -11    1    4    4    0    0 -0.25244193504E-02  0.13546746451E-01 -0.54415525992E-02  0.14824258772E-01  0.51100000000E-03 0.  1.
         11    1    4    4    0    0  0.10366765698E+00  0.71174441131E-01 -0.22910669280E-01  0.12781996739E+00  0.51100000000E-03 0. -1.
</event>
<event>
 8    1  0.2107254E+004  0.1043930E+01  0.7957747E-01            NaN
         13   -1    0    0    0    0  0.00000000000E+00  0.00000000000E+00  0.74505805969E-08  0.10566000000E+00  0.10566000000E+00 0. -1.
     999900   -1    0    0    0    0 -0.00000000000E+00 -0.00000000000E+00 -0.74505805969E-08  0.93827000000E+00  0.93827000000E+00 0.  1.
     999902    2    1    2    0    0 -0.13327620876E-02 -0.28570649680E-02  0.13648659582E-01  0.10299219672E+01  0.10298267007E+01 0.  0.
     999903    2    3    3    0    0 -0.80170060377E-01  0.91984085044E-01  0.60299767090E-01  0.14009811430E+00  0.33213088318E-01 0.  0.
         14    1    1    2    0    0  0.13327620876E-02  0.28570649680E-02 -0.13648659582E-01  0.14008032817E-01  0.00000000000E+00 0.  1.
     999901    1    3    3    0    0  0.78837298290E-01 -0.94841150012E-01 -0.46651107509E-01  0.88982385289E+00  0.88000000000E+00 0.  1.
        -11    1    4    4    0    0 -0.39885190865E-01  0.45092617305E-01  0.11396306908E-01  0.61272420533E-01  0.51100000000E-03 0.  1.
         11    1    4    4    0    0 -0.40284869512E-01  0.46891467738E-01  0.48903460183E-01  0.78825693762E-01  0.51100000000E-03 0. -1.
</event>
<event>
 8    1  0.2107254E+004  0.1043930E+01  0.7957747E-01            NaN
         13   -1    0    0    0    0  0.00000000000E+00  0.00000000000E+00  0.74505805969E-08  0.10566000000E+00  0.10566000000E+00 0.  1.
     999900   -1    0    0    0    0 -0.00000000000E+00 -0.00000000000E+00 -0.74505805969E-08  0.93827000000E+00  0.93827000000E+00 0.  1.
     999902    2    1    2    0    0  0.47324676475E-02 -0.25015130392E-02  0.13389467421E-01  0.10295101645E+01  0.10294091738E+01 0.  0.
     999903    2    3    3    0    0 -0.80602738951E-01 -0.22447779198E-01 -0.99980758129E-01  0.13792014716E+00  0.45001229739E-01 0.  0.
         14    1    1    2    0    0 -0.47324676475E-02  0.25015130392E-02 -0.13389467421E-01  0.14419835483E-01  0.00000000000E+00 0. -1.
     999901    1    3    3    0    0  0.85335206598E-01  0.19946266159E-01  0.11337022555E+00  0.89159001736E+00  0.88000000000E+00 0. -1.
        -11    1    4    4    0    0 -0.15825217123E-01 -0.18652730738E-01 -0.51178616495E-01  0.56726305788E-01  0.51100000000E-03 0.  1.
         11    1    4    4    0    0 -0.64777521828E-01 -0.37950484605E-02 -0.48802141633E-01  0.81193841367E-01  0.51100000000E-03 0. -1.
</event>
<event>
 8    1  0.2107254E+004  0.1043930E+01  0.7957747E-01            NaN
         13   -1    0    0    0    0  0.00000000000E+00  0.00000000000E+00  0.74505805969E-08  0.10566000000E+00  0.10566000000E+00 0. -1.
     999900   -1    0    0    0    0 -0.00000000000E+00 -0.00000000000E+00 -0.74505805969E-08  0.93827000000E+00  0.93827000000E+00 0. -1.
     999902    2    1    2    0    0  0.57869398516E-02  0.12233776710E-01 -0.18955459473E-02  0.10302644572E+01  0.10301738226E+01 0.  0.
     999903    2    3    3    0    0 -0.33842964130E-01 -0.11789325054E+00  0.46762173454E-01  0.13848469394E+00  0.44126464222E-01 0.  0.
         14    1    1    2    0    0 -0.57869398516E-02 -0.12233776710E-01  0.18955459473E-02  0.13665542795E-01  0.00000000000E+00 0. -1.
     999901    1    3    3    0    0  0.39629903982E-01  0.13012702725E+00 -0.48657719402E-01  0.89177976326E+00  0.88000000000E+00 0. -1.
        -11    1    4    4    0    0 -0.37513339735E-01 -0.51337570090E-01  0.20027228769E-01  0.66664441601E-01  0.51100000000E-03 0.  1.
         11    1    4    4    0    0  0.36703756050E-02 -0.66555680454E-01  0.26734944685E-01  0.71820252339E-01  0.51100000000E-03 0. -1.
</event>
<event>
 8    1  0.2107254E+004  0.1043930E+01  0.7957747E-01            NaN
         13   -1    0    0    0    0  0.00000000000E+00  0.00000000000E+00  0.74505805969E-08  0.10566000000E+00  0.10566000000E+00 0. -1.
     999900   -1    0    0    0    0 -0.00000000000E+00 -0.00000000000E+00 -0.74505805969E-08  0.93827000000E+00  0.93827000000E+00 0.  1.
     999902    2    1    2    0    0 -0.51936834116E-02 -0.24900780236E-04 -0.12248113919E-01  0.10306261937E+01  0.10305403242E+01 0.  0.
     999903    2    3    3    0    0  0.62558698224E-01 -0.16611834093E-01  0.11438313798E+00  0.13882970036E+00  0.44728510979E-01 0.  0.
         14    1    1    2    0    0  0.51936834116E-02  0.24900780236E-04  0.12248113919E-01  0.13303806298E-01  0.00000000000E+00 0. -1.
     999901    1    3    3    0    0 -0.67752381636E-01  0.16586933313E-01 -0.12663125190E+00  0.89179649334E+00  0.88000000000E+00 0.  1.
        -11    1    4    4    0    0  0.45568221199E-01 -0.32039343188E-01  0.79734846625E-01  0.97267102262E-01  0.51100000000E-03 0.  1.
         11    1    4    4    0    0  0.16990477025E-01  0.15427509095E-01  0.34648291352E-01  0.41562598102E-01  0.51100000000E-03 0. -1.
</event>
<event>
 8    1  0.2107254E+004  0.1043930E+01  0.7957747E-01            NaN
         13   -1    0    0    0    0  0.00000000000E+00  0.00000000000E+00  0.74505805969E-08  0.10566000000E+00  0.10566000000E+00 0. -1.
     999900   -1    0    0    0    0 -0.00000000000E+00 -0.00000000000E+00 -0.74505805969E-08  0.93827000000E+00  0.93827000000E+00 0. -1.
     999902    2    1    2    0    0  0.37509329669E-02 -0.64373647181E-02 -0.11729198223E-01  0.10300345600E+01  0.10299408291E+01 0.  0.
     999903    2    3    3    0    0 -0.40831547038E-01  0.68824953543E-01 -0.10663801164E+00  0.14061919191E+00  0.44699017270E-01 0.  0.
         14    1    1    2    0    0 -0.37509329669E-02  0.64373647181E-02  0.11729198223E-01  0.13895440029E-01  0.00000000000E+00 0. -1.
     999901    1    3    3    0    0  0.44582480005E-01 -0.75262318262E-01  0.94908813414E-01  0.88941536806E+00  0.88000000000E+00 0.  1.
        -11    1    4    4    0    0 -0.47023942241E-01  0.42839256999E-01 -0.63540952113E-01  0.89911994753E-01  0.51100000000E-03 0. -1.
         11    1    4    4    0    0  0.61923952034E-02  0.25985696545E-01 -0.43097059524E-01  0.50707197161E-01  0.51100000000E-03 0.  1.
</event>
<event>
 8    1  0.2107254E+004  0.1043930E+01  0.7957747E-01            NaN
         13   -1    0    0    0    0  0.00000000000E+00  0.00000000000E+00  0.74505805969E-08  0.10566000000E+00  0.10566000000E+00 0. -1.
     999900   -1    0    0    0    0 -0.00000000000E+00 -0.00000000000E+00 -0.74505805969E-08  0.93827000000E+00  0.93827000000E+00 0. -1.
     999902    2    1    2    0    0 -0.64202441934E-02  0.13921454319E-02 -0.13268322798E-01  0.10291243931E+01  0.10290178864E+01 0.  0.
     999903    2    3    3    0    0  0.10217554681E+00 -0.81560310176E-01 -0.93044872870E-02  0.13856846132E+00  0.44974642052E-01 0.  0.
         14    1    1    2    0    0  0.64202441934E-02 -0.13921454319E-02  0.13268322798E-01  0.14805606853E-01  0.00000000000E+00 0. -1.
     999901    1    3    3    0    0 -0.10859579100E+00  0.82952455608E-01 -0.39638355114E-02  0.89055593182E+00  0.88000000000E+00 0.  1.
        -11    1    4    4    0    0  0.38127028146E-01 -0.47456066078E-01 -0.22332332514E-01  0.64843987226E-01  0.51100000000E-03 0. -1.
         11    1    4    4    0    0  0.64048518664E-01 -0.34104244098E-01  0.13027845227E-01  0.73724474096E-01  0.51100000000E-03 0.  1.
</event>
<event>
 8    1  0.2107254E+004  0.1043930E+01  0.7957747E-01            NaN
         13   -1    0    0    0    0  0.00000000000E+00  0.00000000000E+00  0.74505805969E-08  0.10566000000E+00  0.10566000000E+00 0.  1.
     999900   -1    0    0    0    0 -0.00000000000E+00 -0.00000000000E+00 -0.74505805969E-08  0.93827000000E+00  0.93827000000E+00 0.  1.
     999902    2    1    2    0    0 -0.51625409715E-02 -0.77182830508E-02  0.12972078526E-01  0.10279769895E+01  0.10278531959E+01 0.  0.
     999903    2    3    3    0    0  0.66884153188E-01  0.73907597254E-01 -0.81678363661E-01  0.13623026723E+00  0.44175872838E-01 0.  0.
         14    1    1    2    0    0  0.51625409715E-02  0.77182830508E-02 -0.12972078526E-01  0.15953010494E-01  0.00000000000E+00 0. -1.
     999901    1    3    3    0    0 -0.72046694160E-01 -0.81625880304E-01  0.94650442187E-01  0.89174672227E+00  0.88000000000E+00 0. -1.
        -11    1    4    4    0    0  0.59923511541E-01  0.50465631769E-01 -0.79593695047E-01  0.11168269623E+00  0.51100000000E-03 0.  1.
         11    1    4    4    0    0  0.69606416469E-02  0.23441965485E-01 -0.20846686137E-02  0.24547571003E-01  0.51100000000E-03 0. -1.
</event>
<event>
 8    1  0.2107254E+004  0.1043930E+01  0.7957747E-01            NaN
         13   -1    0    0    0    0  0.00000000000E+00  0.00000000000E+00  0.74505805969E-08  0.10566000000E+00  0.10566000000E+00 0. -1.
     999900   -1    0    0    0    0 -0.00000000000E+00 -0.00000000000E+00 -0.74505805969E-08  0.93827000000E+00  0.93827000000E+00 0.  1.
     999902    2    1    2    0    0 -0.33387841656E-02 -0.29818124780E-02 -0.81877161815E-02  0.10345984738E+01  0.10345563902E+01 0.  0.
     999903    2    3    3    0    0  0.12048945770E+00  0.20729302702E-01  0.59328039269E-01  0.14305260973E+00  0.44685786343E-01 0.  0.
         14    1    1    2    0    0  0.33387841656E-02  0.29818124780E-02  0.81877161815E-02  0.93315262217E-02  0.00000000000E+00 0. -1.
     999901    1    3    3    0    0 -0.12382824186E+00 -0.23711115180E-01 -0.67515755450E-01  0.89154586405E+00  0.88000000000E+00 0.  1.
        -11    1    4    4    0    0  0.96427678904E-01  0.27461373632E-01  0.30284257745E-01  0.10473691655E+00  0.51100000000E-03 0. -1.
         11    1    4    4    0    0  0.24061778791E-01 -0.67320709298E-02  0.29043781524E-01  0.38315693179E-01  0.51100000000E-03 0.  1.
</event>
<event>
 8    1  0.2107254E+004  0.1043930E+01  0.7957747E-01            NaN
         13   -1    0    0    0    0  0.00000000000E+00  0.00000000000E+00  0.74505805969E-08  0.10566000000E+00  0.10566000000E+00 0.  1.
     999900   -1    0    0    0    0 -0.00000000000E+00 -0.00000000000E+00 -0.74505805969E-08  0.93827000000E+00  0.93827000000E+00 0. -1.
     999902    2    1    2    0    0  0.62973331720E-02 -0.10924772243E-01 -0.51698774321E-03  0.10313096066E+01  0.10312323842E+01 0.  0.
     999903    2    3    3    0    0 -0.50891638550E-01 -0.94403476278E-01 -0.81579583962E-01  0.14180951270E+00  0.44189751810E-01 0.  0.
         14    1    1    2    0    0 -0.62973331720E-02  0.10924772243E-01  0.51698774321E-03  0.12620393416E-01  0.00000000000E+00 0.  1.
     999901    1    3    3    0    0  0.57188971722E-01  0.83478704035E-01  0.81062596219E-01  0.88950009388E+00  0.88000000000E+00 0.  1.
        -11    1    4    4    0    0 -0.45731591159E-02 -0.50718970521E-01 -0.47263867676E-01  0.69479940009E-01  0.51100000000E-03 0.  1.
         11    1    4    4    0    0 -0.46318479434E-01 -0.43684505758E-01 -0.34315716286E-01  0.72329572691E-01  0.51100000000E-03 0. -1.
</event>
<event>
 8    1  0.2107254E+004  0.1043930E+01  0.7957747E-01            NaN
         13   -1    0    0    0    0  0.00000000000E+00  0.00000000000E+00  0.74505805969E-08  0.10566000000E+00  0.10566000000E+00 0.  1.
     999900   -1    0    0    0    0 -0.00000000000E+00 -0.00000000000E+00 -0.74505805969E-08  0.93827000000E+00  0.93827000000E+00 0.  1.
     999902    2    1    2    0    0  0.35036977886E-02  0.28170403574E-02 -0.13193090364E-01  0.10299919496E+01  0.10298976391E+01 0.  0.
     999903    2    3    3    0    0 -0.21024896868E-01  0.39935113696E-01 -0.12642794072E+00  0.14162179331E+00  0.45120378450E-01 0.  0.
         14    1    1    2    0    0 -0.35036977886E-02 -0.28170403574E-02  0.13193090364E-01  0.13938050363E-01  0.00000000000E+00 0.  1.
     999901    1    3    3    0    0  0.24528594657E-01 -0.37118073339E-01  0.11323485035E+00  0.88837015633E+00  0.88000000000E+00 0. -1.
        -11    1    4    4    0    0 -0.11480321421E-01  0.45082520287E-01 -0.69280024185E-01  0.83451868088E-01  0.51100000000E-03 0.  1.
         11    1    4    4    0    0 -0.95445754468E-02 -0.51474065911E-02 -0.57147916531E-01  0.58169925218E-01  0.51100000000E-03 0. -1.
</event>
<event>
 8    1  0.2107254E+004  0.1043930E+01  0.7957747E-01            NaN
         13   -1    0    0    0    0  0.00000000000E+00  0.00000000000E+00  0.74505805969E-08  0.10566000000E+00  0.10566000000E+00 0.  1.
     999900   -1    0    0    0    0 -0.00000000000E+00 -0.00000000000E+00 -0.74505805969E-08  0.93827000000E+00  0.93827000000E+00 0.  1.
     999902    2    1    2    0    0 -0.12068145212E-01 -0.42368085825E-02 -0.50428342789E-02  0.10301815145E+01  0.10300897689E+01 0.  0.
     999903    2    3    3    0    0  0.78197189752E-01  0.10399092038E+00 -0.18664136007E-01  0.13886416817E+00  0.44788338035E-01 0.  0.
         14    1    1    2    0    0  0.12068145212E-01  0.42368085825E-02  0.50428342789E-02  0.13748485494E-01  0.00000000000E+00 0. -1.
     999901    1    3    3    0    0 -0.90265334963E-01 -0.10822772896E+00  0.13621301728E-01  0.89131734633E+00  0.88000000000E+00 0.  1.
        -11    1    4    4    0    0  0.49295226033E-01  0.78710537896E-01 -0.31969922219E-01  0.98222732263E-01  0.51100000000E-03 0.  1.
         11    1    4    4    0    0  0.28901963719E-01  0.25280382480E-01  0.13305786212E-01  0.40641435911E-01  0.51100000000E-03 0. -1.
</event>
<event>
 8    1  0.2107254E+004  0.1043930E+01  0.7957747E-01            NaN
         13   -1    0    0    0    0  0.00000000000E+00  0.00000000000E+00  0.74505805969E-08  0.10566000000E+00  0.10566000000E+00 0.  1.
     999900   -1    0    0    0    0 -0.00000000000E+00 -0.00000000000E+00 -0.74505805969E-08  0.93827000000E+00  0.93827000000E+00 0.  1.
     999902    2    1    2    0    0 -0.39264277865E-02  0.91598923834E-02  0.98636638052E-02  0.10299081482E+01  0.10298126924E+01 0.  0.
     999903    2    3    3    0    0  0.98629245271E-01 -0.82697949082E-01  0.26697720716E-01  0.13904400898E+00  0.45318752594E-01 0.  0.
         14    1    1    2    0    0  0.39264277865E-02 -0.91598923834E-02 -0.98636638052E-02  0.14021851779E-01  0.00000000000E+00 0. -1.
     999901    1    3    3    0    0 -0.10255567306E+00  0.91857841466E-01 -0.16834056911E-01  0.89086413924E+00  0.88000000000E+00 0. -1.
        -11    1    4    4    0    0  0.81674458054E-01 -0.48711905282E-01  0.48445791147E-02  0.95222360202E-01  0.51100000000E-03 0. -1.
         11    1    4    4    0    0  0.16954787216E-01 -0.33986043800E-01  0.21853141601E-01  0.43821648778E-01  0.51100000000E-03 0.  1.
</event>
<event>
 8    1  0.2107254E+004  0.1043930E+01  0.7957747E-01            NaN
         13   -1    0    0    0    0  0.00000000000E+00  0.00000000000E+00  0.74505805969E-08  0.10566000000E+00  0.10566000000E+00 0.  1.
     999900   -1    0    0    0    0 -0.00000000000E+00 -0.00000000000E+00 -0.74505805969E-08  0.93827000000E+00  0.93827000000E+00 0. -1.
     999902    2    1    2    0    0  0.13330548998E-01  0.39316710544E-03 -0.28496416562E-02  0.10302926038E+01  0.10302023446E+01 0.  0.
     999903    2    3    3    0    0 -0.11470917686E+00  0.61031524300E-01 -0.21089968115E-01  0.13877485791E+00  0.43938960163E-01 0.  0.
         14    1    1    2    0    0 -0.13330548998E-01 -0.39316710544E-03  0.28496416562E-02  0.13637396178E-01  0.00000000000E+00 0. -1.
     999901    1    3    3    0    0  0.12803972586E+00 -0.60638357194E-01  0.18240326459E-01  0.89151774591E+00  0.88000000000E+00 0.  1.
        -11    1    4    4    0    0 -0.99276783203E-01  0.62594133489E-01 -0.29650291198E-01  0.12105084105E+00  0.51100000000E-03 0. -1.
         11    1    4    4    0    0 -0.15432393655E-01 -0.15626091899E-02  0.85603230834E-02  0.17724016861E-01  0.51100000000E-03 0.  1.
</event>
<event>
 8    1  0.2107254E+004  0.1043930E+01  0.7957747E-01            NaN
         13   -1    0    0    0    0  0.00000000000E+00  0.00000000000E+00  0.74505805969E-08  0.10566000000E+00  0.10566000000E+00 0.  1.
     999900   -1    0    0    0    0 -0.00000000000E+00 -0.00000000000E+00 -0.74505805969E-08  0.93827000000E+00  0.93827000000E+00 0. -1.
     999902    2    1    2    0    0  0.16753132830E-01 -0.91935279983E-02  0.12095333800E-01  0.10213139544E+01  0.10210635181E+01 0.  0.
     999903    2    3    3    0    0  0.36638764794E-01 -0.91269583708E-01  0.80385630275E-01  0.13463730433E+00  0.44640991987E-01 0.  0.
         14    1    1    2    0    0 -0.16753132830E-01  0.91935279983E-02 -0.12095333800E-01  0.22616045552E-01  0.00000000000E+00 0. -1.
     999901    1    3    3    0    0 -0.19885631964E-01  0.82076055709E-01 -0.68290296474E-01  0.88667665012E+00  0.88000000000E+00 0. -1.
        -11    1    4    4    0    0 -0.64126521210E-02 -0.40800509656E-01  0.36273313206E-01  0.54971065728E-01  0.51100000000E-03 0. -1.
         11    1    4    4    0    0  0.43051416915E-01 -0.50469074052E-01  0.44112317069E-01  0.79666238597E-01  0.51100000000E-03 0.  1.
</event>
<event>
 8    1  0.2107254E+004  0.1043930E+01  0.7957747E-01            NaN
         13   -1    0    0    0    0  0.00000000000E+00  0.00000000000E+00  0.74505805969E-08  0.10566000000E+00  0.10566000000E+00 0. -1.
     999900   -1    0    0    0    0 -0.00000000000E+00 -0.00000000000E+00 -0.74505805969E-08  0.93827000000E+00  0.93827000000E+00 0.  1.
     999902    2    1    2    0    0  0.41453269349E-02 -0.14090808788E-03 -0.10417409362E-01  0.10327172390E+01  0.10326563658E+01 0.  0.
     999903    2    3    3    0    0 -0.91143668064E-02  0.13376388469E+00 -0.11402339649E-01  0.14248845772E+00  0.46873219480E-01 0.  0.
         14    1    1    2    0    0 -0.41453269349E-02  0.14090808788E-03  0.10417409362E-01  0.11212760958E-01  0.00000000000E+00 0. -1.
     999901    1    3    3    0    0  0.13259693741E-01 -0.13390479278E+00  0.98493028667E-03  0.89022878132E+00  0.88000000000E+00 0.  1.
        -11    1    4    4    0    0 -0.23240615311E-01  0.88612613920E-01 -0.21524070300E-01  0.94105622940E-01  0.51100000000E-03 0. -1.
         11    1    4    4    0    0  0.14126248505E-01  0.45151270770E-01  0.10121730651E-01  0.48382834779E-01  0.51100000000E-03 0.  1.
</event>
<event>
 8    1  0.2107254E+004  0.1043930E+01  0.7957747E-01            NaN
         13   -1    0    0    0    0  0.00000000000E+00  0.00000000000E+00  0.74505805969E-08  0.10566000000E+00  0.10566000000E+00 0.  1.
     999900   -1    0    0    0    0 -0.00000000000E+00 -0.00000000000E+00 -0.74505805969E-08  0.93827000000E+00  0.93827000000E+00 0. -1.
     999902    2    1    2    0    0 -0.12754645663E-02  0.62419941592E-02 -0.11837228821E-01  0.10304871846E+01  0.10303994993E+01 0.  0.
     999903    2    3    3    0    0  0.13893847157E-01 -0.89159308817E-01  0.95258118633E-01  0.13874679068E+00  0.45101456960E-01 0.  0.
         14    1    1    2    0    0  0.12754645663E-02 -0.62419941592E-02  0.11837228821E-01  0.13442815446E-01  0.00000000000E+00 0.  1.
     999901    1    3    3    0    0 -0.15169311723E-01  0.95401302976E-01 -0.10709534745E+00  0.89174039388E+00  0.88000000000E+00 0. -1.
        -11    1    4    4    0    0  0.19884027757E-01 -0.41730978907E-01  0.72044962584E-01  0.85601325428E-01  0.51100000000E-03 0.  1.
         11    1    4    4    0    0 -0.59901806000E-02 -0.47428329910E-01  0.23213156049E-01  0.53145465248E-01  0.51100000000E-03 0. -1.
</event>
<event>
 8    1  0.2107254E+004  0.1043930E+01  0.7957747E-01            NaN
         13   -1    0    0    0    0  0.00000000000E+00  0.00000000000E+00  0.74505805969E-08  0.10566000000E+00  0.10566000000E+00 0.  1.
     999900   -1    0    0    0    0 -0.00000000000E+00 -0.00000000000E+00 -0.74505805969E-08  0.93827000000E+00  0.93827000000E+00 0. -1.
     999902    2    1    2    0    0 -0.72747900125E-03 -0.10873923588E-01  0.58787827428E-02  0.10315472892E+01  0.10314729654E+01 0.  0.
     999903    2    3    3    0    0 -0.35432811905E-02  0.11223058037E+00 -0.69928043078E-01  0.13974612164E+00  0.45064279591E-01 0.  0.
         14    1    1    2    0    0  0.72747900125E-03  0.10873923588E-01 -0.58787827428E-02  0.12382710787E-01  0.00000000000E+00 0.  1.
     999901    1    3    3    0    0  0.28158021892E-02 -0.12310450395E+00  0.75806825821E-01  0.89180116757E+00  0.88000000000E+00 0.  1.
        -11    1    4    4    0    0 -0.18721822812E-01  0.20007279033E-01 -0.18511111817E-01  0.33071441538E-01  0.51100000000E-03 0.  1.
         11    1    4    4    0    0  0.15178541621E-01  0.92223301333E-01 -0.51416931261E-01  0.10667468011E+00  0.51100000000E-03 0. -1.
</event>
<event>
 8    1  0.2107254E+004  0.1043930E+01  0.7957747E-01            NaN
         13   -1    0    0    0    0  0.00000000000E+00  0.00000000000E+00  0.74505805969E-08  0.10566000000E+00  0.10566000000E+00 0.  1.
     999900   -1    0    0    0    0 -0.00000000000E+00 -0.00000000000E+00 -0.74505805969E-08  0.93827000000E+00  0.93827000000E+00 0.  1.
     999902    2    1    2    0    0  0.34624605055E-02  0.11060490438E-01  0.54201285518E-02  0.10311354357E+01  0.10310560537E+01 0.  0.
     999903    2    3    3    0    0 -0.37617233601E-01  0.85997183229E-02 -0.12729303865E+00  0.14023343134E+00  0.44417183130E-01 0.  0.
         14    1    1    2    0    0 -0.34624605055E-02 -0.11060490438E-01 -0.54201285518E-02  0.12794564275E-01  0.00000000000E+00 0. -1.
     999901    1    3    3    0    0  0.41079694107E-01  0.24607721147E-02  0.13271316720E+00  0.89090200438E+00  0.88000000000E+00 0. -1.
        -11    1    4    4    0    0 -0.16771108371E-01 -0.18111500286E-01 -0.47214144922E-01  0.53279762765E-01  0.51100000000E-03 0.  1.
         11    1    4    4    0    0 -0.20846125230E-01  0.26711218609E-01 -0.80078893730E-01  0.86953668575E-01  0.51100000000E-03 0. -1.
</event>
<event>
 8    1  0.2107254E+004  0.1043930E+01  0.7957747E-01            NaN
         13   -1    0    0    0    0  0.00000000000E+00  0.00000000000E+00  0.74505805969E-08  0.10566000000E+00  0.10566000000E+00 0. -1.
     999900   -1    0    0    0    0 -0.00000000000E+00 -0.00000000000E+00 -0.74505805969E-08  0.93827000000E+00  0.93827000000E+00 0. -1.
     999902    2    1    2    0    0  0.96334513333E-02  0.11161947110E-01  0.10756134875E-02  0.10291465839E+01  0.10290403985E+01 0.  0.
     999903    2    3    3    0    0  0.55164439459E-01  0.84013026313E-02  0.12077644954E+00  0.13987217056E+00  0.43169156423E-01 0.  0.
         14    1    1    2    0    0 -0.96334513333E-02 -0.11161947110E-01 -0.10756134875E-02  0.14783416123E-01  0.00000000000E+00 0. -1.
     999901    1    3    3    0    0 -0.45530988126E-01  0.27606444789E-02 -0.11970083605E+00  0.88927441332E+00  0.88000000000E+00 0. -1.
        -11    1    4    4    0    0  0.17816907326E-01 -0.29156034681E-02  0.85098859708E-01  0.86994367489E-01  0.51100000000E-03 0.  1.
         11    1    4    4    0    0  0.37347532133E-01  0.11316906099E-01  0.35677589830E-01  0.52877803067E-01  0.51100000000E-03 0. -1.
</event>
<event>
 8    1  0.2107254E+004  0.1043930E+01  0.7957747E-01            NaN
         13   -1    0    0    0    0  0.00000000000E+00  0.00000000000E+00  0.74505805969E-08  0.10566000000E+00  0.10566000000E+00 0. -1.
     999900   -1    0    0    0    0 -0.00000000000E+00 -0.00000000000E+00 -0.74505805969E-08  0.93827000000E+00  0.93827000000E+00 0.  1.
     999902    2    1    2    0    0  0.55423964346E-02  0.91495910999E-02  0.11666166277E-01  0.10281017780E+01  0.10279799285E+01 0.  0.
     999903    2    3    3    0    0  0.76598702567E-02  0.12106050696E+00  0.53483514646E-01  0.14002676575E+00  0.45085350524E-01 0.  0.
         14    1    1    2    0    0 -0.55423964346E-02 -0.91495910999E-02 -0.11666166277E-01  0.15828221983E-01  0.00000000000E+00 0. -1.
     999901    1    3    3    0    0 -0.21174738220E-02 -0.11191091586E+00 -0.41817348369E-01  0.88807501226E+00  0.88000000000E+00 0. -1.
        -11    1    4    4    0    0  0.23137839769E-01  0.10266790714E+00  0.41137905003E-01  0.11299843864E+00  0.51100000000E-03 0.  1.
         11    1    4    4    0    0 -0.15477969512E-01  0.18392599816E-01  0.12345609643E-01  0.27028327116E-01  0.51100000000E-03 0. -1.
</event>
<event>
 8    1  0.2107254E+004  0.1043930E+01  0.7957747E-01            NaN
         13   -1    0    0    0    0  0.00000000000E+00  0.00000000000E+00  0.74505805969E-08  0.10566000000E+00  0.10566000000E+00 0.  1.
     999900   -1    0    0    0    0 -0.00000000000E+00 -0.00000000000E+00 -0.74505805969E-08  0.93827000000E+00  0.93827000000E+00 0. -1.
     999902    2    1    2    0    0 -0.13376757109E-01  0.17334259572E-02  0.53412657656E-02  0.10294223635E+01  0.10293201305E+01 0.  0.
     999903    2    3    3    0    0 -0.11049826999E+00  0.27016819403E-01 -0.69174876044E-01  0.14058914314E+00  0.45170427190E-01 0.  0.
         14    1    1    2    0    0  0.13376757109E-01 -0.17334259572E-02 -0.53412657656E-02  0.14507636482E-01  0.00000000000E+00 0. -1.
     999901    1    3    3    0    0  0.97121512883E-01 -0.25283393446E-01  0.74516141810E-01  0.88883322037E+00  0.88000000000E+00 0.  1.
        -11    1    4    4    0    0 -0.95651406913E-02  0.73948819675E-02 -0.26744153421E-01  0.29354506621E-01  0.51100000000E-03 0.  1.
         11    1    4    4    0    0 -0.10093312930E+00  0.19621937436E-01 -0.42430722623E-01  0.11123463652E+00  0.51100000000E-03 0. -1.
</event>
<event>
 8    1  0.2107254E+004  0.1043930E+01  0.7957747E-01            NaN
         13   -1    0    0    0    0  0.00000000000E+00  0.00000000000E+00  0.74505805969E-08  0.10566000000E+00  0.10566000000E+00 0.  1.
     999900   -1    0    0    0    0 -0.00000000000E+00 -0.00000000000E+00 -0.74505805969E-08  0.93827000000E+00  0.93827000000E+00 0. -1.
     999902    2    1    2    0    0  0.16169903226E-02  0.25386693164E-02  0.12616664560E-01  0.10309592743E+01  0.10308776773E+01 0.  0.
     999903    2    3    3    0    0  0.89517720927E-01 -0.23673632028E-01 -0.93876701093E-01  0.13980583070E+00  0.46464740132E-01 0.  0.
         14    1    1    2    0    0 -0.16169903226E-02 -0.25386693164E-02 -0.12616664560E-01  0.12970725663E-01  0.00000000000E+00 0. -1.
     999901    1    3    3    0    0 -0.87900730604E-01  0.26212301345E-01  0.10649336565E+00  0.89115344364E+00  0.88000000000E+00 0.  1.
        -11    1    4    4    0    0  0.72154020126E-01 -0.29317464128E-01 -0.50721015497E-01  0.92944063055E-01  0.51100000000E-03 0.  1.
         11    1    4    4    0    0  0.17363700801E-01  0.56438320994E-02 -0.43155685596E-01  0.46861767642E-01  0.51100000000E-03 0. -1.
</event>
<event>
 8    1  0.2107254E+004  0.1043930E+01  0.7957747E-01            NaN
         13   -1    0    0    0    0  0.00000000000E+00  0.00000000000E+00  0.74505805969E-08  0.10566000000E+00  0.10566000000E+00 0.  1.
     999900   -1    0    0    0    0 -0.00000000000E+00 -0.00000000000E+00 -0.74505805969E-08  0.93827000000E+00  0.93827000000E+00 0.  1.
     999902    2    1    2    0    0  0.78584107352E-02  0.21080075204E-02 -0.91606655011E-02  0.10316778121E+01  0.10316050562E+01 0.  0.
     999903    2    3    3    0    0  0.33625131741E-02  0.65980052970E-01 -0.11815574417E+00  0.14264475400E+00  0.44967455768E-01 0.  0.
         14    1    1    2    0    0 -0.78584107352E-02 -0.21080075204E-02  0.91606655011E-02  0.12252187862E-01  0.00000000000E+00 0.  1.
     999901    1    3    3    0    0  0.44958975611E-02 -0.63872045449E-01  0.10899507867E+00  0.88903305814E+00  0.88000000000E+00 0. -1.
        -11    1    4    4    0    0 -0.40760302509E-02  0.43733325656E-01 -0.10889450716E+00  0.11742015417E+00  0.51100000000E-03 0. -1.
         11    1    4    4    0    0  0.74385434250E-02  0.22246727314E-01 -0.92612370137E-02  0.25224599828E-01  0.51100000000E-03 0.  1.
</event>
<event>
 8    1  0.2805171E+004  0.1043930E+01  0.7957747E-01            NaN
         13   -1    0    0    0    0  0.00000000000E+00  0.00000000000E+00  0.74505805969E-08  0.10566000000E+00  0.10566000000E+00 0. -1.
     999900   -1    0    0    0    0 -0.00000000000E+00 -0.00000000000E+00 -0.74505805969E-08  0.93827000000E+00  0.93827000000E+00 0.  1.
     999902    2    1    2    0    0  0.10336486439E-01 -0.42539066023E-02 -0.67352998703E-02  0.10308799832E+01  0.10307973792E+01 0.  0.
     999903    2    3    3    0    0 -0.59594692786E-01  0.95318891404E-01 -0.70634246096E-01  0.14021271244E+00  0.45090903093E-01 0.  0.
         14    1    1    2    0    0 -0.10336486439E-01  0.42539066023E-02  0.67352998703E-02  0.13050016768E-01  0.00000000000E+00 0. -1.
     999901    1    3    3    0    0  0.69931179226E-01 -0.99572798006E-01  0.63898946226E-01  0.89066727079E+00  0.88000000000E+00 0. -1.
        -11    1    4    4    0    0 -0.15425150055E-02  0.37653698849E-01 -0.33214511350E-01  0.50235896277E-01  0.51100000000E-03 0. -1.
         11    1    4    4    0    0 -0.58052177781E-01  0.57665192555E-01 -0.37419734746E-01  0.89976816163E-01  0.51100000000E-03 0.  1.
</event>
<event>
 8    1  0.2107254E+004  0.1043930E+01  0.7957747E-01            NaN
         13   -1    0    0    0    0  0.00000000000E+00  0.00000000000E+00  0.74505805969E-08  0.10566000000E+00  0.10566000000E+00 0.  1.
     999900   -1    0    0    0    0 -0.00000000000E+00 -0.00000000000E+00 -0.74505805969E-08  0.93827000000E+00  0.93827000000E+00 0.  1.
     999902    2    1    2    0    0 -0.94581343712E-02  0.10114879759E-01  0.56532279565E-03  0.10300704658E+01  0.10299772220E+01 0.  0.
     999903    2    3    3    0    0  0.13104791727E+00  0.14860088445E-02  0.10310683477E-01  0.13882898336E+00  0.44625234840E-01 0.  0.
         14    1    1    2    0    0  0.94581343712E-02 -0.10114879759E-01 -0.56532279565E-03  0.13859534198E-01  0.00000000000E+00 0.  1.
     999901    1    3    3    0    0 -0.14050605164E+00  0.86288709144E-02 -0.97453606816E-02  0.89124148244E+00  0.88000000000E+00 0. -1.
        -11    1    4    4    0    0  0.10642992012E+00 -0.14811577547E-01  0.16338213979E-01  0.10869180780E+00  0.51100000000E-03 0. -1.
         11    1    4    4    0    0  0.24617997154E-01  0.16297586391E-01 -0.60275305018E-02  0.30137175564E-01  0.51100000000E-03 0.  1.
</event>
<event>
 8    1  0.2107254E+004  0.1043930E+01  0.7957747E-01            NaN
         13   -1    0    0    0    0  0.00000000000E+00  0.00000000000E+00  0.74505805969E-08  0.10566000000E+00  0.10566000000E+00 0. -1.
     999900   -1    0    0    0    0 -0.00000000000E+00 -0.00000000000E+00 -0.74505805969E-08  0.93827000000E+00  0.93827000000E+00 0. -1.
     999902    2    1    2    0    0 -0.75587056279E-02  0.40634258554E-02 -0.91405776739E-02  0.10313922322E+01  0.10313160239E+01 0.  0.
     999903    2    3    3    0    0  0.73323345194E-01  0.10213271266E+00  0.44831003551E-01  0.14062154191E+00  0.44240199168E-01 0.  0.
         14    1    1    2    0    0  0.75587056279E-02 -0.40634258554E-02  0.91405776739E-02  0.12537767770E-01  0.00000000000E+00 0. -1.
     999901    1    3    3    0    0 -0.80882050822E-01 -0.98069286806E-01 -0.53971581225E-01  0.89077069032E+00  0.88000000000E+00 0.  1.
        -11    1    4    4    0    0  0.15444847359E-01  0.30804399087E-01  0.33508918211E-01  0.48068316319E-01  0.51100000000E-03 0.  1.
         11    1    4    4    0    0  0.57878497835E-01  0.71328313574E-01  0.11322085340E-01  0.92553225586E-01  0.51100000000E-03 0. -1.
</event>
<event>
 8    1  0.2107254E+004  0.1043930E+01  0.7957747E-01            NaN
         13   -1    0    0    0    0  0.00000000000E+00  0.00000000000E+00  0.74505805969E-08  0.10566000000E+00  0.10566000000E+00 0. -1.
     999900   -1    0    0    0    0 -0.00000000000E+00 -0.00000000000E+00 -0.74505805969E-08  0.93827000000E+00  0.93827000000E+00 0. -1.
     999902    2    1    2    0    0  0.93666395620E-02 -0.86158509997E-02  0.16168160634E-02  0.10311010905E+01  0.10310212791E+01 0.  0.
     999903    2    3    3    0    0 -0.77201412645E-02 -0.51894234238E-01 -0.12312542869E+00  0.14108670624E+00  0.44642752604E-01 0.  0.
         14    1    1    2    0    0 -0.93666395620E-02  0.86158509997E-02 -0.16168160634E-02  0.12828909514E-01  0.00000000000E+00 0.  1.
     999901    1    3    3    0    0  0.17086780827E-01  0.43278383239E-01  0.12474224475E+00  0.89001438424E+00  0.88000000000E+00 0.  1.
        -11    1    4    4    0    0  0.54614497529E-02 -0.53692719423E-01 -0.10926393811E+00  0.12186716065E+00  0.51100000000E-03 0.  1.
         11    1    4    4    0    0 -0.13181591017E-01  0.17984851841E-02 -0.13861490576E-01  0.19219545590E-01  0.51100000000E-03 0. -1.
</event>
<event>
 8    1  0.2107254E+004  0.1043930E+01  0.7957747E-01            NaN
         13   -1    0    0    0    0  0.00000000000E+00  0.00000000000E+00  0.74505805969E-08  0.10566000000E+00  0.10566000000E+00 0.  1.
     999900   -1    0    0    0    0 -0.00000000000E+00 -0.00000000000E+00 -0.74505805969E-08  0.93827000000E+00  0.93827000000E+00 0.  1.
     999902    2    1    2    0    0 -0.11392523448E-01 -0.75991511980E-02 -0.73501321199E-02  0.10283877630E+01  0.10282703097E+01 0.  0.
     999903    2    3    3    0    0 -0.52124535026E-01 -0.11902983873E+00 -0.27044583769E-01  0.14020773263E+00  0.45185496743E-01 0.  0.
         14    1    1    2    0    0  0.11392523448E-01  0.75991511980E-02  0.73501321199E-02  0.15542237021E-01  0.00000000000E+00 0.  1.
     999901    1    3    3    0    0  0.40732011579E-01  0.11143068754E+00  0.19694451649E-01  0.88818003035E+00  0.88000000000E+00 0.  1.
        -11    1    4    4    0    0 -0.25906016392E-01 -0.98945709991E-01 -0.92787555490E-02  0.10270215011E+00  0.51100000000E-03 0. -1.
         11    1    4    4    0    0 -0.26218518635E-01 -0.20084128743E-01 -0.17765828220E-01  0.37505582519E-01  0.51100000000E-03 0.  1.
</event>
<event>
 8    1  0.2107254E+004  0.1043930E+01  0.7957747E-01            NaN
         13   -1    0    0    0    0  0.00000000000E+00  0.00000000000E+00  0.74505805969E-08  0.10566000000E+00  0.10566000000E+00 0. -1.
     999900   -1    0    0    0    0 -0.00000000000E+00 -0.00000000000E+00 -0.74505805969E-08  0.93827000000E+00  0.93827000000E+00 0. -1.
     999902    2    1    2    0    0 -0.64511019984E-03 -0.67747927800E-02  0.12272423059E-01  0.10298969550E+01  0.10298013457E+01 0.  0.
     999903    2    3    3    0    0  0.69640617949E-02  0.43338353852E-01  0.12693886600E+00  0.14101134925E+00  0.42941982322E-01 0.  0.
         14    1    1    2    0    0  0.64511019984E-03  0.67747927800E-02 -0.12272423059E-01  0.14033045005E-01  0.00000000000E+00 0.  1.
     999901    1    3    3    0    0 -0.76091719948E-02 -0.50113146632E-01 -0.11466644294E+00  0.88888560574E+00  0.88000000000E+00 0. -1.
        -11    1    4    4    0    0 -0.37378272962E-02  0.47253508608E-01  0.82672239369E-01  0.95298613379E-01  0.51100000000E-03 0.  1.
         11    1    4    4    0    0  0.10701889091E-01 -0.39151547565E-02  0.44266626627E-01  0.45712735871E-01  0.51100000000E-03 0. -1.
</event>
<event>
 8    1  0.2107254E+004  0.1043930E+01  0.7957747E-01            NaN
         13   -1    0    0    0    0  0.00000000000E+00  0.00000000000E+00  0.74505805969E-08  0.10566000000E+00  0.10566000000E+00 0. -1.
     999900   -1    0    0    0    0 -0.00000000000E+00 -0.00000000000E+00 -0.74505805969E-08  0.93827000000E+00  0.93827000000E+00 0. -1.
     999902    2    1    2    0    0 -0.10697068140E-01 -0.62655757723E-02  0.40645966095E-02  0.10308837112E+01  0.10308011546E+01 0.  0.
     999903    2    3    3    0    0  0.94684762313E-02  0.69021557684E-01 -0.11242903802E+00  0.13979136548E+00  0.45251627663E-01 0.  0.
         14    1    1    2    0    0  0.10697068140E-01  0.62655757723E-02 -0.40645966095E-02  0.13046288827E-01  0.00000000000E+00 0. -1.
     999901    1    3    3    0    0 -0.20165544371E-01 -0.75287133457E-01  0.11649363463E+00  0.89109234569E+00  0.88000000000E+00 0.  1.
        -11    1    4    4    0    0 -0.16170550359E-01  0.21628857532E-01 -0.23459904433E-01  0.35776003326E-01  0.51100000000E-03 0.  1.
         11    1    4    4    0    0  0.25639026590E-01  0.47392700153E-01 -0.88969133584E-01  0.10401536215E+00  0.51100000000E-03 0. -1.
</event>
<event>
 8    1  0.2107254E+004  0.1043930E+01  0.7957747E-01            NaN
         13   -1    0    0    0    0  0.00000000000E+00  0.00000000000E+00  0.74505805969E-08  0.10566000000E+00  0.10566000000E+00 0. -1.
     999900   -1    0    0    0    0 -0.00000000000E+00 -0.00000000000E+00 -0.74505805969E-08  0.93827000000E+00  0.93827000000E+00 0. -1.
     999902    2    1    2    0    0  0.64302692731E-02 -0.11891886514E-01 -0.43982541274E-02  0.10297134615E+01  0.10296153179E+01 0.  0.
     999903    2    3    3    0    0  0.10946705729E+00 -0.33474807206E-01 -0.69211833951E-01  0.14107225027E+00  0.44805161401E-01 0.  0.
         14    1    1    2    0    0 -0.64302692731E-02  0.11891886514E-01  0.43982541274E-02  0.14216538509E-01  0.00000000000E+00 0. -1.
     999901    1    3    3    0    0 -0.10303678802E+00  0.21582920691E-01  0.64813579823E-01  0.88864121122E+00  0.88000000000E+00 0. -1.
        -11    1    4    4    0    0  0.46926152357E-01 -0.33766536082E-01 -0.47637292933E-01  0.74912051987E-01  0.51100000000E-03 0. -1.
         11    1    4    4    0    0  0.62540904934E-01  0.29172887583E-03 -0.21574541017E-01  0.66160198283E-01  0.51100000000E-03 0.  1.
</event>
<event>
 8    1  0.2107254E+004  0.1043930E+01  0.7957747E-01            NaN
         13   -1    0    0    0    0  0.00000000000E+00  0.00000000000E+00  0.74505805969E-08  0.10566000000E+00  0.10566000000E+00 0. -1.
     999900   -1    0    0    0    0 -0.00000000000E+00 -0.00000000000E+00 -0.74505805969E-08  0.93827000000E+00  0.93827000000E+00 0. -1.
     999902    2    1    2    0    0  0.14208776653E-02 -0.85581511992E-02 -0.10309513004E-01  0.10304560658E+01  0.10303679714E+01 0.  0.
     999903    2    3    3    0    0  0.13209225454E+00 -0.20128114662E-01 -0.39717714605E-02  0.14070945029E+00  0.43930282515E-01 0.  0.
         14    1    1    2    0    0 -0.14208776653E-02  0.85581511992E-02  0.10309513004E-01  0.13473934232E-01  0.00000000000E+00 0.  1.
     999901    1    3    3    0    0 -0.13067137688E+00  0.11569963463E-01 -0.63377415439E-02  0.88974661548E+00  0.88000000000E+00 0. -1.
        -11    1    4    4    0    0  0.55929675224E-01 -0.20718123646E-02  0.19042299402E-01  0.59120988360E-01  0.51100000000E-03 0.  1.
         11    1    4    4    0    0  0.76162579319E-01 -0.18056302297E-01 -0.23014070863E-01  0.81588461929E-01  0.51100000000E-03 0. -1.
</event>
<event>
 8    1  0.2107254E+004  0.1043930E+01  0.7957747E-01            NaN
         13   -1    0    0    0    0  0.00000000000E+00  0.00000000000E+00  0.74505805969E-08  0.10566000000E+00  0.10566000000E+00 0. -1.
     999900   -1    0    0    0    0 -0.00000000000E+00 -0.00000000000E+00 -0.74505805969E-08  0.93827000000E+00  0.93827000000E+00 0.  1.
     999902    2    1    2    0    0 -0.47136610549E-02 -0.76495565302E-02  0.10519967672E-01  0.10300951153E+01  0.10300022051E+01 0.  0.
     999903    2    3    3    0    0  0.48343835625E-01 -0.11936668572E+00  0.35978824989E-01  0.14108219730E+00  0.44990870686E-01 0.  0.
         14    1    1    2    0    0  0.47136610549E-02  0.76495565302E-02 -0.10519967672E-01  0.13834884729E-01  0.00000000000E+00 0.  1.
     999901    1    3    3    0    0 -0.53057496680E-01  0.11171712918E+00 -0.25458857316E-01  0.88901291797E+00  0.88000000000E+00 0.  1.
        -11    1    4    4    0    0  0.37039658883E-01 -0.76417284798E-01  0.16354426675E-02  0.84938057076E-01  0.51100000000E-03 0. -1.
         11    1    4    4    0    0  0.11304176742E-01 -0.42949400917E-01  0.34343382321E-01  0.56144140222E-01  0.51100000000E-03 0.  1.
</event>
<event>
 8    1  0.2107254E+004  0.1043930E+01  0.7957747E-01            NaN
         13   -1    0    0    0    0  0.00000000000E+00  0.00000000000E+00  0.74505805969E-08  0.10566000000E+00  0.10566000000E+00 0.  1.
     999900   -1    0    0    0    0 -0.00000000000E+00 -0.00000000000E+00 -0.74505805969E-08  0.93827000000E+00  0.93827000000E+00 0. -1.
     999902    2    1    2    0    0  0.63322445676E-02  0.53980531483E-02 -0.11621241895E-01  0.10296370100E+01  0.10295378006E+01 0.  0.
     999903    2    3    3    0    0  0.44651716955E-01  0.26136387365E-02  0.12307048958E+00  0.13856013487E+00  0.45298550012E-01 0.  0.
         14    1    1    2    0    0 -0.63322445676E-02 -0.53980531483E-02  0.11621241895E-01  0.14292989968E-01  0.00000000000E+00 0.  1.
     999901    1    3    3    0    0 -0.38319472387E-01  0.27844144119E-02 -0.13469173148E+00  0.89107687517E+00  0.88000000000E+00 0. -1.
        -11    1    4    4    0    0  0.24666912812E-01  0.23756444364E-01  0.59665661920E-01  0.68797366010E-01  0.51100000000E-03 0.  1.
         11    1    4    4    0    0  0.19984804142E-01 -0.21142805627E-01  0.63404827663E-01  0.69762768856E-01  0.51100000000E-03 0. -1.
</event>
<event>
 8    1  0.2107254E+004  0.1043930E+01  0.7957747E-01            NaN
         13   -1    0    0    0    0  0.00000000000E+00  0.00000000000E+00  0.74505805969E-08  0.10566000000E+00  0.10566000000E+00 0.  1.
     999900   -1    0    0    0    0 -0.00000000000E+00 -0.00000000000E+00 -0.74505805969E-08  0.93827000000E+00  0.93827000000E+00 0.  1.
     999902    2    1    2    0    0 -0.51509414085E-02  0.72856899285E-02 -0.99006290146E-02  0.10306019870E+01  0.10305158028E+01 0.  0.
     999903    2    3    3    0    0 -0.45886549166E-01  0.11706307712E+00 -0.48304280945E-01  0.14201586010E+00  0.45009571685E-01 0.  0.
         14    1    1    2    0    0  0.51509414085E-02 -0.72856899285E-02  0.99006290146E-02  0.13328012981E-01  0.00000000000E+00 0. -1.
     999901    1    3    3    0    0  0.40735607757E-01 -0.10977738719E+00  0.38403651930E-01  0.88858612692E+00  0.88000000000E+00 0. -1.
        -11    1    4    4    0    0 -0.34258350876E-01  0.74679179573E-01 -0.82972738808E-02  0.82581598079E-01  0.51100000000E-03 0. -1.
         11    1    4    4    0    0 -0.11628198290E-01  0.42383897543E-01 -0.40007007064E-01  0.59434262018E-01  0.51100000000E-03 0.  1.
</event>
<event>
 8    1  0.2107254E+004  0.1043930E+01  0.7957747E-01            NaN
         13   -1    0    0    0    0  0.00000000000E+00  0.00000000000E+00  0.74505805969E-08  0.10566000000E+00  0.10566000000E+00 0. -1.
     999900   -1    0    0    0    0 -0.00000000000E+00 -0.00000000000E+00 -0.74505805969E-08  0.93827000000E+00  0.93827000000E+00 0.  1.
     999902    2    1    2    0    0 -0.13899823648E-01 -0.44020090139E-03  0.17095416376E-02  0.10299185259E+01  0.10298232123E+01 0.  0.
     999903    2    3    3    0    0 -0.66191698159E-01 -0.17555939507E-01 -0.11432592700E+00  0.14059765093E+00  0.44807699619E-01 0.  0.
         14    1    1    2    0    0  0.13899823648E-01  0.44020090139E-03 -0.17095416376E-02  0.14011474115E-01  0.00000000000E+00 0.  1.
     999901    1    3    3    0    0  0.52291874511E-01  0.17115738606E-01  0.11603546864E+00  0.88932087495E+00  0.88000000000E+00 0. -1.
        -11    1    4    4    0    0 -0.13824989969E-01 -0.10550543929E-01 -0.68444235620E-01  0.70620951817E-01  0.51100000000E-03 0.  1.
         11    1    4    4    0    0 -0.52366708189E-01 -0.70053955781E-02 -0.45881691382E-01  0.69976699114E-01  0.51100000000E-03 0. -1.
</event>
<event>
 8    1  0.2107254E+004  0.1043930E+01  0.7957747E-01            NaN
         13   -1    0    0    0    0  0.00000000000E+00  0.00000000000E+00  0.74505805969E-08  0.10566000000E+00  0.10566000000E+00 0. -1.
     999900   -1    0    0    0    0 -0.00000000000E+00 -0.00000000000E+00 -0.74505805969E-08  0.93827000000E+00  0.93827000000E+00 0.  1.
     999902    2    1    2    0    0  0.10467475789E-01  0.20665858371E-01  0.10577098634E-01  0.10184639291E+01  0.10181454975E+01 0.  0.
     999903    2    3    3    0    0 -0.10218334201E+00  0.62881233379E-01  0.22850292167E-01  0.13019427639E+00  0.45088012358E-01 0.  0.
         14    1    1    2    0    0 -0.10467475789E-01 -0.20665858371E-01 -0.10577098634E-01  0.25466070901E-01  0.00000000000E+00 0.  1.
     999901    1    3    3    0    0  0.11265081780E+00 -0.42215375007E-01 -0.12273193534E-01  0.88826965271E+00  0.88000000000E+00 0. -1.
        -11    1    4    4    0    0 -0.33923865188E-01  0.73133329079E-02  0.23949316599E-01  0.42168048971E-01  0.51100000000E-03 0. -1.
         11    1    4    4    0    0 -0.68259476821E-01  0.55567900471E-01 -0.10990244317E-02  0.88026227423E-01  0.51100000000E-03 0.  1.
</event>
<event>
 8    1  0.2107254E+004  0.1043930E+01  0.7957747E-01            NaN
         13   -1    0    0    0    0  0.00000000000E+00  0.00000000000E+00  0.74505805969E-08  0.10566000000E+00  0.10566000000E+00 0. -1.
     999900   -1    0    0    0    0 -0.00000000000E+00 -0.00000000000E+00 -0.74505805969E-08  0.93827000000E+00  0.93827000000E+00 0. -1.
     999902    2    1    2    0    0 -0.42857209409E-02 -0.10631345432E-01 -0.91939776729E-02  0.10292357108E+01  0.10291308110E+01 0.  0.
     999903    2    3    3    0    0  0.58185100683E-02  0.12634219358E+00  0.31015212689E-01  0.13767493056E+00  0.44679280962E-01 0.  0.
         14    1    1    2    0    0  0.42857209409E-02  0.10631345432E-01  0.91939776729E-02  0.14694289201E-01  0.00000000000E+00 0. -1.
     999901    1    3    3    0    0 -0.10104231009E-01 -0.13697353901E+00 -0.40209190362E-01  0.89156078024E+00  0.88000000000E+00 0. -1.
        -11    1    4    4    0    0 -0.48565257689E-03  0.85729177626E-01 -0.73866751027E-03  0.85735258241E-01  0.51100000000E-03 0. -1.
         11    1    4    4    0    0  0.63041626452E-02  0.40613015956E-01  0.31753880199E-01  0.51939672317E-01  0.51100000000E-03 0.  1.
</event>
<event>
 8    1  0.2107254E+004  0.1043930E+01  0.7957747E-01            NaN
         13   -1    0    0    0    0  0.00000000000E+00  0.00000000000E+00  0.74505805969E-08  0.10566000000E+00  0.10566000000E+00 0. -1.
     999900   -1    0    0    0    0 -0.00000000000E+00 -0.00000000000E+00 -0.74505805969E-08  0.93827000000E+00  0.93827000000E+00 0.  1.
     999902    2    1    2    0    0  0.11585737521E-01 -0.40511938866E-02 -0.96650486677E-02  0.10283077514E+01  0.10281890764E+01 0.  0.
     999903    2    3    3    0    0 -0.71862237834E-01  0.38335607721E-03 -0.10987018342E+00  0.13868743977E+00  0.44703697355E-01 0.  0.
         14    1    1    2    0    0 -0.11585737521E-01  0.40511938866E-02  0.96650486677E-02  0.15622248607E-01  0.00000000000E+00 0. -1.
     999901    1    3    3    0    0  0.83447975355E-01 -0.44345499638E-02  0.10020513475E+00  0.88962031162E+00  0.88000000000E+00 0. -1.
        -11    1    4    4    0    0 -0.29266976436E-01 -0.15304798765E-01 -0.21712171890E-01  0.39528120423E-01  0.51100000000E-03 0. -1.
         11    1    4    4    0    0 -0.42595261398E-01  0.15688154843E-01 -0.88158011526E-01  0.99159319346E-01  0.51100000000E-03 0.  1.
</event>
<event>
 8    1  0.2107254E+004  0.1043930E+01  0.7957747E-01            NaN
         13   -1    0    0    0    0  0.00000000000E+00  0.00000000000E+00  0.74505805969E-08  0.10566000000E+00  0.10566000000E+00 0. -1.
     999900   -1    0    0    0    0 -0.00000000000E+00 -0.00000000000E+00 -0.74505805969E-08  0.93827000000E+00  0.93827000000E+00 0. -1.
     999902    2    1    2    0    0  0.25202019133E-02  0.90402933621E-02 -0.10602636086E-01  0.10297704021E+01  0.10296730485E+01 0.  0.
     999903    2    3    3    0    0  0.61173526817E-01  0.10542185318E+00  0.52838266615E-01  0.14030181592E+00  0.45130362510E-01 0.  0.
         14    1    1    2    0    0 -0.25202019133E-02 -0.90402933621E-02  0.10602636086E-01  0.14159597937E-01  0.00000000000E+00 0. -1.
     999901    1    3    3    0    0 -0.58653324904E-01 -0.96381559822E-01 -0.63440902701E-01  0.88946858614E+00  0.88000000000E+00 0.  1.
        -11    1    4    4    0    0  0.42248629564E-01  0.88126819933E-01  0.21967663496E-01  0.10017046696E+00  0.51100000000E-03 0. -1.
         11    1    4    4    0    0  0.18924897253E-01  0.17295033251E-01  0.30870603119E-01  0.40131348958E-01  0.51100000000E-03 0.  1.
</event>
<event>
 8    1  0.2107254E+004  0.1043930E+01  0.7957747E-01            NaN
         13   -1    0    0    0    0  0.00000000000E+00  0.00000000000E+00  0.74505805969E-08  0.10566000000E+00  0.10566000000E+00 0.  1.
     999900   -1    0    0    0    0 -0.00000000000E+00 -0.00000000000E+00 -0.74505805969E-08  0.93827000000E+00  0.93827000000E+00 0.  1.
     999902    2    1    2    0    0 -0.44330751039E-02 -0.15862228363E-03 -0.12335773268E-01  0.10308208956E+01  0.10307375370E+01 0.  0.
     999903    2    3    3    0    0 -0.11557917230E+00  0.23302210264E-01  0.61431533395E-01  0.14045833961E+00  0.45311960873E-01 0.  0.
         14    1    1    2    0    0  0.44330751039E-02  0.15862228363E-03  0.12335773268E-01  0.13109104394E-01  0.00000000000E+00 0.  1.
     999901    1    3    3    0    0  0.11114609720E+00 -0.23460832548E-01 -0.73767306663E-01  0.89036255600E+00  0.88000000000E+00 0.  1.
        -11    1    4    4    0    0 -0.11112957571E+00  0.17416884694E-01  0.67242120707E-01  0.13105302129E+00  0.51100000000E-03 0.  1.
         11    1    4    4    0    0 -0.44495965878E-02  0.58853255697E-02 -0.58105873115E-02  0.94053183232E-02  0.51100000000E-03 0. -1.
</event>
<event>
 8    1  0.2261802E+004  0.1043930E+01  0.7957747E-01            NaN
         13   -1    0    0    0    0  0.00000000000E+00  0.00000000000E+00  0.74505805969E-08  0.10566000000E+00  0.10566000000E+00 0.  1.
     999900   -1    0    0    0    0 -0.00000000000E+00 -0.00000000000E+00 -0.74505805969E-08  0.93827000000E+00  0.93827000000E+00 0. -1.
     999902    2    1    2    0    0 -0.80914536037E-02 -0.12741381031E-01  0.69183014314E-02  0.10273264670E+01  0.10271922861E+01 0.  0.
     999903    2    3    3    0    0 -0.11678024860E+00  0.56739182353E-01 -0.10236933694E-01  0.13775628716E+00  0.44889180924E-01 0.  0.
         14    1    1    2    0    0  0.80914536037E-02  0.12741381031E-01 -0.69183014314E-02  0.16603532958E-01  0.00000000000E+00 0. -1.
     999901    1    3    3    0    0  0.10868879499E+00 -0.69480563384E-01  0.17155235125E-01  0.88957017988E+00  0.88000000000E+00 0. -1.
        -11    1    4    4    0    0 -0.62827923278E-01  0.54750513368E-01 -0.44706901536E-02  0.83457862715E-01  0.51100000000E-03 0.  1.
         11    1    4    4    0    0 -0.53952325318E-01  0.19886689857E-02 -0.57662435402E-02  0.54298424444E-01  0.51100000000E-03 0. -1.
</event>
<event>
 8    1  0.2107254E+004  0.1043930E+01  0.7957747E-01            NaN
         13   -1    0    0    0    0  0.00000000000E+00  0.00000000000E+00  0.74505805969E-08  0.10566000000E+00  0.10566000000E+00 0. -1.
     999900   -1    0    0    0    0 -0.00000000000E+00 -0.00000000000E+00 -0.74505805969E-08  0.93827000000E+00  0.93827000000E+00 0.  1.
     999902    2    1    2    0    0 -0.67752440275E-02 -0.12270925548E-01 -0.42903440615E-03  0.10299063195E+01  0.10298108386E+01 0.  0.
     999903    2    3    3    0    0 -0.57378581615E-01  0.11834267303E+00 -0.16806283722E-02  0.13882709941E+00  0.44416766349E-01 0.  0.
         14    1    1    2    0    0  0.67752440275E-02  0.12270925548E-01  0.42903440615E-03  0.14023680543E-01  0.00000000000E+00 0. -1.
     999901    1    3    3    0    0  0.50603337587E-01 -0.13061359857E+00  0.12515939661E-02  0.89107922004E+00  0.88000000000E+00 0. -1.
        -11    1    4    4    0    0 -0.36720790791E-01  0.33553245993E-01 -0.11347528750E-01  0.51022194413E-01  0.51100000000E-03 0. -1.
         11    1    4    4    0    0 -0.20657790823E-01  0.84789427032E-01  0.96669003780E-02  0.87804905000E-01  0.51100000000E-03 0.  1.
</event>
<event>
 8    1  0.2107254E+004  0.1043930E+01  0.7957747E-01            NaN
         13   -1    0    0    0    0  0.00000000000E+00  0.00000000000E+00  0.74505805969E-08  0.10566000000E+00  0.10566000000E+00 0.  1.
     999900   -1    0    0    0    0 -0.00000000000E+00 -0.00000000000E+00 -0.74505805969E-08  0.93827000000E+00  0.93827000000E+00 0. -1.
     999902    2    1    2    0    0  0.10054707183E-01 -0.70940821202E-02 -0.89240537292E-02  0.10287292805E+01  0.10286169699E+01 0.  0.
     999903    2    3    3    0    0  0.66601891271E-01 -0.17236800655E-01 -0.11219605236E+00  0.14082975666E+00  0.50121322612E-01 0.  0.
         14    1    1    2    0    0 -0.10054707183E-01  0.70940821202E-02  0.89240537292E-02  0.15200719477E-01  0.00000000000E+00 0.  1.
     999901    1    3    3    0    0 -0.56547184088E-01  0.10142718535E-01  0.10327199863E+00  0.88789952386E+00  0.88000000000E+00 0. -1.
        -11    1    4    4    0    0  0.74751220686E-01 -0.12970543939E-01 -0.98748773675E-01  0.12452935970E+00  0.51100000000E-03 0.  1.
         11    1    4    4    0    0 -0.81493294148E-02 -0.42662567165E-02 -0.13447278680E-01  0.16300396964E-01  0.51100000000E-03 0. -1.
</event>
<event>
 8    1  0.2107254E+004  0.1043930E+01  0.7957747E-01            NaN
         13   -1    0    0    0    0  0.00000000000E+00  0.00000000000E+00  0.74505805969E-08  0.10566000000E+00  0.10566000000E+00 0. -1.
     999900   -1    0    0    0    0 -0.00000000000E+00 -0.00000000000E+00 -0.74505805969E-08  0.93827000000E+00  0.93827000000E+00 0. -1.
     999902    2    1    2    0    0  0.79746955252E-02  0.92593692801E-02 -0.11631781722E-02  0.10316546315E+01  0.10315815983E+01 0.  0.
     999903    2    3    3    0    0 -0.56367617513E-01 -0.11966879607E+00 -0.14131587487E-01  0.13984154307E+00  0.43104829727E-01 0.  0.
         14    1    1    2    0    0 -0.79746955252E-02 -0.92593692801E-02  0.11631781722E-02  0.12275368493E-01  0.00000000000E+00 0. -1.
     999901    1    3    3    0    0  0.64342313038E-01  0.12892816535E+00  0.12968409314E-01  0.89181308844E+00  0.88000000000E+00 0.  1.
        -11    1    4    4    0    0 -0.48145605656E-01 -0.52171934252E-01 -0.10282968582E-01  0.71735002833E-01  0.51100000000E-03 0.  1.
         11    1    4    4    0    0 -0.82220118564E-02 -0.67496861820E-01 -0.38486189045E-02  0.68106540236E-01  0.51100000000E-03 0. -1.
</event>
<event>
 8    1  0.2107254E+004  0.1043930E+01  0.7957747E-01            NaN
         13   -1    0    0    0    0  0.00000000000E+00  0.00000000000E+00  0.74505805969E-08  0.10566000000E+00  0.10566000000E+00 0.  1.
     999900   -1    0    0    0    0 -0.00000000000E+00 -0.00000000000E+00 -0.74505805969E-08  0.93827000000E+00  0.93827000000E+00 0. -1.
     999902    2    1    2    0    0  0.24813432398E-02 -0.10207898630E-01 -0.89808230901E-02  0.10301092387E+01  0.10300165194E+01 0.  0.
     999903    2    3    3    0    0 -0.10398863820E+00 -0.73243962241E-01  0.39123935525E-01  0.14015223411E+00  0.43973304587E-01 0.  0.
         14    1    1    2    0    0 -0.24813432398E-02  0.10207898630E-01  0.89808230901E-02  0.13820761270E-01  0.00000000000E+00 0.  1.
     999901    1    3    3    0    0  0.10646998144E+00  0.63036063611E-01 -0.48104758615E-01  0.88995700462E+00  0.88000000000E+00 0. -1.
        -11    1    4    4    0    0 -0.18893111449E-01 -0.12509851767E-01  0.26460814085E-01  0.34840807317E-01  0.51100000000E-03 0. -1.
         11    1    4    4    0    0 -0.85095526752E-01 -0.60734110474E-01  0.12663121440E-01  0.10531142680E+00  0.51100000000E-03 0.  1.
</event>
<event>
 8    1  0.2107254E+004  0.1043930E+01  0.7957747E-01            NaN
         13   -1    0    0    0    0  0.00000000000E+00  0.00000000000E+00  0.74505805969E-08  0.10566000000E+00  0.10566000000E+00 0.  1.
     999900   -1    0    0    0    0 -0.00000000000E+00 -0.00000000000E+00 -0.74505805969E-08  0.93827000000E+00  0.93827000000E+00 0. -1.
     999902    2    1    2    0    0 -0.43152079764E-02 -0.12685763836E-01  0.38096383426E-02  0.10299993515E+01  0.10299051418E+01 0.  0.
     999903    2    3    3    0    0  0.11602173727E-01 -0.10688612886E+00  0.80108664732E-01  0.14154641899E+00  0.45373291555E-01 0.  0.
         14    1    1    2    0    0  0.43152079764E-02  0.12685763836E-01 -0.38096383426E-02  0.13930648523E-01  0.00000000000E+00 0. -1.
     999901    1    3    3    0    0 -0.15917381703E-01  0.94200365026E-01 -0.76299026389E-01  0.88845293248E+00  0.88000000000E+00 0.  1.
        -11    1    4    4    0    0  0.48912396803E-03 -0.14485581295E-01  0.35483529920E-01  0.38332927416E-01  0.51100000000E-03 0.  1.
         11    1    4    4    0    0  0.11113049759E-01 -0.92400547566E-01  0.44625134811E-01  0.10321349158E+00  0.51100000000E-03 0. -1.
</event>
<event>
 8    1  0.2107254E+004  0.1043930E+01  0.7957747E-01            NaN
         13   -1    0    0    0    0  0.00000000000E+00  0.00000000000E+00  0.74505805969E-08  0.10566000000E+00  0.10566000000E+00 0.  1.
     999900   -1    0    0    0    0 -0.00000000000E+00 -0.00000000000E+00 -0.74505805969E-08  0.93827000000E+00  0.93827000000E+00 0.  1.
     999902    2    1    2    0    0 -0.14295707247E-01  0.92508074663E-02 -0.41371337720E-02  0.10264068564E+01  0.10262572652E+01 0.  0.
     999903    2    3    3    0    0  0.74826402214E-02  0.97956332675E-01  0.84626104361E-01  0.13723764922E+00  0.44957333194E-01 0.  0.
         14    1    1    2    0    0  0.14295707247E-01 -0.92508074663E-02  0.41371337720E-02  0.17523143563E-01  0.00000000000E+00 0.  1.
     999901    1    3    3    0    0 -0.21778347468E-01 -0.88705525209E-01 -0.88763238133E-01  0.88916920722E+00  0.88000000000E+00 0.  1.
        -11    1    4    4    0    0  0.11848125408E-01  0.81991554011E-01  0.44969946745E-01  0.94263196615E-01  0.51100000000E-03 0. -1.
         11    1    4    4    0    0 -0.43654851870E-02  0.15964778665E-01  0.39656157617E-01  0.42974452605E-01  0.51100000000E-03 0.  1.
</event>
<event>
 8    1  0.2107254E+004  0.1043930E+01  0.7957747E-01            NaN
         13   -1    0    0    0    0  0.00000000000E+00  0.00000000000E+00  0.74505805969E-08  0.10566000000E+00  0.10566000000E+00 0. -1.
     999900   -1    0    0    0    0 -0.00000000000E+00 -0.00000000000E+00 -0.74505805969E-08  0.93827000000E+00  0.93827000000E+00 0.  1.
     999902    2    1    2    0    0 -0.11585384144E-01 -0.21245707435E-02 -0.60614244694E-02  0.10306832724E+01  0.10305981429E+01 0.  0.
     999903    2    3    3    0    0 -0.82188553118E-01 -0.10389016893E+00  0.21731621194E-01  0.14157501245E+00  0.44978831989E-01 0.  0.
         14    1    1    2    0    0  0.11585384144E-01  0.21245707435E-02  0.60614244694E-02  0.13246727641E-01  0.00000000000E+00 0. -1.
     999901    1    3    3    0    0  0.70603168974E-01  0.10176559819E+00 -0.27793045664E-01  0.88910825990E+00  0.88000000000E+00 0. -1.
        -11    1    4    4    0    0 -0.34693738514E-01 -0.58503955009E-01  0.31846039651E-01  0.75105256848E-01  0.51100000000E-03 0. -1.
         11    1    4    4    0    0 -0.47494814603E-01 -0.45386213924E-01 -0.10114418457E-01  0.66469755606E-01  0.51100000000E-03 0.  1.
</event>
<event>
 8    1  0.2107254E+004  0.1043930E+01  0.7957747E-01            NaN
         13   -1    0    0    0    0  0.00000000000E+00  0.00000000000E+00  0.74505805969E-08  0.10566000000E+00  0.10566000000E+00 0. -1.
     999900   -1    0    0    0    0 -0.00000000000E+00 -0.00000000000E+00 -0.74505805969E-08  0.93827000000E+00  0.93827000000E+00 0. -1.
     999902    2    1    2    0    0 -0.63766556299E-02 -0.46137939590E-02 -0.11424630894E-01  0.10300566074E+01  0.10299631757E+01 0.  0.
     999903    2    3    3    0    0 -0.81387537742E-01 -0.10505279927E+00  0.12502499546E-01  0.14085070671E+00  0.44973182579E-01 0.  0.
         14    1    1    2    0    0  0.63766556299E-02  0.46137939590E-02  0.11424630894E-01  0.13873392620E-01  0.00000000000E+00 0. -1.
     999901    1    3    3    0    0  0.75010882112E-01  0.10043900531E+00 -0.23927130440E-01  0.88920590067E+00  0.88000000000E+00 0.  1.
        -11    1    4    4    0    0 -0.16451111208E-01 -0.42453287374E-01  0.21216439570E-01  0.50232649720E-01  0.51100000000E-03 0.  1.
         11    1    4    4    0    0 -0.64936426535E-01 -0.62599511892E-01 -0.87139400244E-02  0.90618056986E-01  0.51100000000E-03 0. -1.
</event>
<event>
 8    1  0.2107254E+004  0.1043930E+01  0.7957747E-01            NaN
         13   -1    0    0    0    0  0.00000000000E+00  0.00000000000E+00  0.74505805969E-08  0.10566000000E+00  0.10566000000E+00 0.  1.
     999900   -1    0    0    0    0 -0.00000000000E+00 -0.00000000000E+00 -0.74505805969E-08  0.93827000000E+00  0.93827000000E+00 0.  1.
     999902    2    1    2    0    0  0.32222366430E-02 -0.12332986826E-01 -0.46503946756E-02  0.10303612291E+01  0.10302718820E+01 0.  0.
     999903    2    3    3    0    0 -0.13000130738E+00 -0.68429066354E-02  0.26530282359E-01  0.13977103811E+00  0.43415687495E-01 0.  0.
         14    1    1    2    0    0 -0.32222366430E-02  0.12332986826E-01  0.46503946756E-02  0.13568770898E-01  0.00000000000E+00 0.  1.
     999901    1    3    3    0    0  0.13322354403E+00 -0.54900801906E-02 -0.31180677035E-01  0.89059019099E+00  0.88000000000E+00 0.  1.
        -11    1    4    4    0    0 -0.11612442552E+00 -0.20086263710E-01  0.20225486038E-01  0.11957287150E+00  0.51100000000E-03 0. -1.
         11    1    4    4    0    0 -0.13876881859E-01  0.13243357075E-01  0.63047963210E-02  0.20198166610E-01  0.51100000000E-03 0.  1.
</event>
<event>
 8    1  0.2107254E+004  0.1043930E+01  0.7957747E-01            NaN
         13   -1    0    0    0    0  0.00000000000E+00  0.00000000000E+00  0.74505805969E-08  0.10566000000E+00  0.10566000000E+00 0. -1.
     999900   -1    0    0    0    0 -0.00000000000E+00 -0.00000000000E+00 -0.74505805969E-08  0.93827000000E+00  0.93827000000E+00 0. -1.
     999902    2    1    2    0    0 -0.91169170605E-02 -0.18192668083E-02  0.10929461038E-01  0.10295814451E+01  0.10294814574E+01 0.  0.
     999903    2    3    3    0    0  0.11082601156E-01  0.32119754383E-01  0.12898955952E+00  0.14081934841E+00  0.45136235475E-01 0.  0.
         14    1    1    2    0    0  0.91169170605E-02  0.18192668083E-02 -0.10929461038E-01  0.14348554875E-01  0.00000000000E+00 0.  1.
     999901    1    3    3    0    0 -0.20199518217E-01 -0.33939021191E-01 -0.11806009848E+00  0.88876209671E+00  0.88000000000E+00 0. -1.
        -11    1    4    4    0    0  0.83347881160E-02  0.21819759745E-01  0.18460410858E-01  0.29776139749E-01  0.51100000000E-03 0.  1.
         11    1    4    4    0    0  0.27478130401E-02  0.10299994638E-01  0.11052914866E+00  0.11104320867E+00  0.51100000000E-03 0. -1.
</event>
<event>
 8    1  0.2107254E+004  0.1043930E+01  0.7957747E-01            NaN
         13   -1    0    0    0    0  0.00000000000E+00  0.00000000000E+00  0.74505805969E-08  0.10566000000E+00  0.10566000000E+00 0. -1.
     999900   -1    0    0    0    0 -0.00000000000E+00 -0.00000000000E+00 -0.74505805969E-08  0.93827000000E+00  0.93827000000E+00 0.  1.
     999902    2    1    2    0    0 -0.30636216347E-02 -0.11894584263E-03  0.13638599961E-01  0.10299510396E+01  0.10298561708E+01 0.  0.
     999903    2    3    3    0    0 -0.10621969035E+00  0.79092520110E-01 -0.97431426067E-02  0.14008456828E+00  0.44615110520E-01 0.  0.
         14    1    1    2    0    0  0.30636216347E-02  0.11894584263E-03 -0.13638599961E-01  0.13978960424E-01  0.00000000000E+00 0.  1.
     999901    1    3    3    0    0  0.10315606872E+00 -0.79211465952E-01  0.23381742568E-01  0.88986647130E+00  0.88000000000E+00 0.  1.
        -11    1    4    4    0    0 -0.67952607546E-01  0.69405242654E-01  0.66009736940E-02  0.97357478166E-01  0.51100000000E-03 0. -1.
         11    1    4    4    0    0 -0.38267082806E-01  0.96872774558E-02 -0.16344116301E-01  0.42727090114E-01  0.51100000000E-03 0.  1.
</event>
<event>
 8    1  0.2107254E+004  0.1043930E+01  0.7957747E-01            NaN
         13   -1    0    0    0    0  0.00000000000E+00  0.00000000000E+00  0.74505805969E-08  0.10566000000E+00  0.10566000000E+00 0. -1.
     999900   -1    0    0    0    0 -0.00000000000E+00 -0.00000000000E+00 -0.74505805969E-08  0.93827000000E+00  0.93827000000E+00 0.  1.
     999902    2    1    2    0    0  0.89197584799E-02  0.87350819014E-02  0.52143022135E-02  0.10304003032E+01  0.10303114734E+01 0.  0.
     999903    2    3    3    0    0  0.80353768190E-01 -0.99643364974E-01 -0.34432490219E-01  0.13999557860E+00  0.45029294900E-01 0.  0.
         14    1    1    2    0    0 -0.89197584799E-02 -0.87350819014E-02 -0.52143022135E-02  0.13529696772E-01  0.00000000000E+00 0.  1.
     999901    1    3    3    0    0 -0.71434009710E-01  0.10837844688E+00  0.39646792432E-01  0.89040472463E+00  0.88000000000E+00 0.  1.
        -11    1    4    4    0    0  0.47033668563E-01 -0.88970980768E-01 -0.23651732022E-01  0.10338117307E+00  0.51100000000E-03 0.  1.
         11    1    4    4    0    0  0.33320099627E-01 -0.10672384206E-01 -0.10780758196E-01  0.36614405527E-01  0.51100000000E-03 0. -1.
</event>
<event>
 8    1  0.2107254E+004  0.1043930E+01  0.7957747E-01            NaN
         13   -1    0    0    0    0  0.00000000000E+00  0.00000000000E+00  0.74505805969E-08  0.10566000000E+00  0.10566000000E+00 0.  1.
     999900   -1    0    0    0    0 -0.00000000000E+00 -0.00000000000E+00 -0.74505805969E-08  0.93827000000E+00  0.93827000000E+00 0. -1.
     999902    2    1    2    0    0 -0.45730393975E-02  0.12070147032E-01  0.49435456859E-02  0.10301082858E+01  0.10300155536E+01 0.  0.
     999903    2    3    3    0    0  0.81318391699E-01 -0.79256922059E-01  0.66266763687E-01  0.13910968395E+00  0.45451949087E-01 0.  0.
         14    1    1    2    0    0  0.45730393975E-02 -0.12070147032E-01 -0.49435456859E-02  0.13821714172E-01  0.00000000000E+00 0.  1.
     999901    1    3    3    0    0 -0.85891431097E-01  0.91327069091E-01 -0.61323218001E-01  0.89099860188E+00  0.88000000000E+00 0. -1.
        -11    1    4    4    0    0  0.25992244062E-01 -0.44440972491E-01  0.91335461643E-02  0.52290339202E-01  0.51100000000E-03 0.  1.
         11    1    4    4    0    0  0.55326147637E-01 -0.34815949569E-01  0.57133217523E-01  0.86819344747E-01  0.51100000000E-03 0. -1.
</event>
<event>
 7    1  0.2107254E+004  0.1043930E+01  0.7957747E-01            NaN
         13   -1    0    0    0    0  0.00000000000E+00  0.00000000000E+00  0.74505805969E-08  0.10566000000E+00  0.10566000000E+00 0. -1.
     999900   -1    0    0    0    0 -0.00000000000E+00 -0.00000000000E+00 -0.74505805969E-08  0.93827000000E+00  0.93827000000E+00 0. -1.
     999903    2    1    2    0    0  0.75359567440E-01  0.12414963723E-01 -0.57116944032E-01  0.10509795494E+00  0.44159247143E-01 0.  0.
         14    1    1    2    0    0 -0.52550896009E-02 -0.49630878109E-01  0.22055681499E-01  0.54564577474E-01  0.00000000000E+00 0.  1.
     999901    1    1    2    0    0 -0.70104477840E-01  0.37215914386E-01  0.35061262533E-01  0.88426746758E+00  0.88000000000E+00 0.  1.
        -11    1    3    3    0    0  0.43186832711E-02  0.10824293664E-01 -0.24030672745E-01  0.26712370020E-01  0.51100000000E-03 0. -1.
         11    1    3    3    0    0  0.71040884169E-01  0.15906700599E-02 -0.33086271287E-01  0.78385584921E-01  0.51100000000E-03 0.  1.
</event>
<event>
 8    1  0.2107254E+004  0.1043930E+01  0.7957747E-01            NaN
         13   -1    0    0    0    0  0.00000000000E+00  0.00000000000E+00  0.74505805969E-08  0.10566000000E+00  0.10566000000E+00 0. -1.
     999900   -1    0    0    0    0 -0.00000000000E+00 -0.00000000000E+00 -0.74505805969E-08  0.93827000000E+00  0.93827000000E+00 0.  1.
     999902    2    1    2    0    0 -0.47525154727E-02  0.14535548860E-01  0.96158472255E-02  0.10258653079E+01  0.10257062429E+01 0.  0.
     999903    2    3    3    0    0  0.82967249833E-01 -0.65938781686E-01 -0.68854825469E-01  0.13438983340E+00  0.45696311187E-01 0.  0.
         14    1    1    2    0    0  0.47525154727E-02 -0.14535548860E-01 -0.96158472255E-02  0.18064692132E-01  0.00000000000E+00 0.  1.
     999901    1    3    3    0    0 -0.87719765306E-01  0.80474330546E-01  0.78470672694E-01  0.89147547447E+00  0.88000000000E+00 0. -1.
        -11    1    4    4    0    0  0.42909268159E-01 -0.47986999491E-01 -0.17266058549E-01  0.66650846303E-01  0.51100000000E-03 0. -1.
         11    1    4    4    0    0  0.40057981674E-01 -0.17951782195E-01 -0.51588766919E-01  0.67738987098E-01  0.51100000000E-03 0.  1.
</event>
<event>
 8    1  0.2107254E+004  0.1043930E+01  0.7957747E-01            NaN
         13   -1    0    0    0    0  0.00000000000E+00  0.00000000000E+00  0.74505805969E-08  0.10566000000E+00  0.10566000000E+00 0. -1.
     999900   -1    0    0    0    0 -0.00000000000E+00 -0.00000000000E+00 -0.74505805969E-08  0.93827000000E+00  0.93827000000E+00 0. -1.
     999902    2    1    2    0    0  0.10744370007E-01 -0.19409153918E-02 -0.96181094871E-02  0.10293795131E+01  0.10292766709E+01 0.  0.
     999903    2    3    3    0    0 -0.94033105529E-01 -0.88131336465E-01 -0.26673644637E-01  0.13881901579E+00  0.44157427727E-01 0.  0.
         14    1    1    2    0    0 -0.10744370007E-01  0.19409153918E-02  0.96181094871E-02  0.14550486917E-01  0.00000000000E+00 0. -1.
     999901    1    3    3    0    0  0.10477747554E+00  0.86190421074E-01  0.17055535150E-01  0.89056049730E+00  0.88000000000E+00 0.  1.
        -11    1    4    4    0    0 -0.65170415097E-01 -0.31005819256E-01 -0.16108702438E-01  0.73947922532E-01  0.51100000000E-03 0.  1.
         11    1    4    4    0    0 -0.28862690432E-01 -0.57125517210E-01 -0.10564942199E-01  0.64871093255E-01  0.51100000000E-03 0. -1.
</event>
<event>
 8    1  0.2107254E+004  0.1043930E+01  0.7957747E-01            NaN
         13   -1    0    0    0    0  0.00000000000E+00  0.00000000000E+00  0.74505805969E-08  0.10566000000E+00  0.10566000000E+00 0. -1.
     999900   -1    0    0    0    0 -0.00000000000E+00 -0.00000000000E+00 -0.74505805969E-08  0.93827000000E+00  0.93827000000E+00 0. -1.
     999902    2    1    2    0    0  0.68729487609E-02  0.11434650180E-01  0.28457746083E-02  0.10302886261E+01  0.10301983139E+01 0.  0.
     999903    2    3    3    0    0  0.64777187075E-02 -0.10310345406E+00 -0.81011590681E-01  0.13891261605E+00  0.45404338949E-01 0.  0.
         14    1    1    2    0    0 -0.68729487609E-02 -0.11434650180E-01 -0.28457746083E-02  0.13641373923E-01  0.00000000000E+00 0. -1.
     999901    1    3    3    0    0  0.39523005348E-03  0.11453810424E+00  0.83857365290E-01  0.89137601002E+00  0.88000000000E+00 0.  1.
        -11    1    4    4    0    0 -0.46896386774E-02 -0.48136384148E-01 -0.11727027238E-01  0.49768348161E-01  0.51100000000E-03 0. -1.
         11    1    4    4    0    0  0.11167357385E-01 -0.54967069912E-01 -0.69284563444E-01  0.89144267894E-01  0.51100000000E-03 0.  1.
</event>
<event>
 8    1  0.2107254E+004  0.1043930E+01  0.7957747E-01            NaN
         13   -1    0    0    0    0  0.00000000000E+00  0.00000000000E+00  0.74505805969E-08  0.10566000000E+00  0.10566000000E+00 0. -1.
     999900   -1    0    0    0    0 -0.00000000000E+00 -0.00000000000E+00 -0.74505805969E-08  0.93827000000E+00  0.93827000000E+00 0. -1.
     999902    2    1    2    0    0 -0.10272781177E-01  0.60879488007E-02 -0.38075360994E-02  0.10313964257E+01  0.10313202686E+01 0.  0.
     999903    2    3    3    0    0 -0.10470407814E+00 -0.11735332467E-01  0.83794248544E-01  0.14184091204E+00  0.44684518930E-01 0.  0.
         14    1    1    2    0    0  0.10272781177E-01 -0.60879488007E-02  0.38075360994E-02  0.12533574305E-01  0.00000000000E+00 0. -1.
     999901    1    3    3    0    0  0.94431296963E-01  0.17823281268E-01 -0.87601784643E-01  0.88955551366E+00  0.88000000000E+00 0. -1.
        -11    1    4    4    0    0 -0.77583322075E-01  0.53499468523E-02  0.76237276682E-01  0.10890444101E+00  0.51100000000E-03 0. -1.
         11    1    4    4    0    0 -0.27120756065E-01 -0.17085279320E-01  0.75569718620E-02  0.32936471027E-01  0.51100000000E-03 0.  1.
</event>
<event>
 8    1  0.2107254E+004  0.1043930E+01  0.7957747E-01            NaN
         13   -1    0    0    0    0  0.00000000000E+00  0.00000000000E+00  0.74505805969E-08  0.10566000000E+00  0.10566000000E+00 0.  1.
     999900   -1    0    0    0    0 -0.00000000000E+00 -0.00000000000E+00 -0.74505805969E-08  0.93827000000E+00  0.93827000000E+00 0.  1.
     999902    2    1    2    0    0  0.10891960742E-01 -0.40380826910E-02 -0.83141774060E-02  0.10296448165E+01  0.10295457162E+01 0.  0.
     999903    2    3    3    0    0 -0.10932719661E+00 -0.43240784538E-01 -0.60481028506E-01  0.13907708863E+00  0.43154147045E-01 0.  0.
         14    1    1    2    0    0 -0.10891960742E-01  0.40380826910E-02  0.83141774060E-02  0.14285183463E-01  0.00000000000E+00 0. -1.
     999901    1    3    3    0    0  0.12021915736E+00  0.39202701847E-01  0.52166851100E-01  0.89056772790E+00  0.88000000000E+00 0. -1.
        -11    1    4    4    0    0 -0.60774519114E-01 -0.35726059008E-01 -0.14899829641E-01  0.72056640985E-01  0.51100000000E-03 0.  1.
         11    1    4    4    0    0 -0.48552677499E-01 -0.75147255303E-02 -0.45581198865E-01  0.67020447649E-01  0.51100000000E-03 0. -1.
</event>
<event>
 8    1  0.2107254E+004  0.1043930E+01  0.7957747E-01            NaN
         13   -1    0    0    0    0  0.00000000000E+00  0.00000000000E+00  0.74505805969E-08  0.10566000000E+00  0.10566000000E+00 0.  1.
     999900   -1    0    0    0    0 -0.00000000000E+00 -0.00000000000E+00 -0.74505805969E-08  0.93827000000E+00  0.93827000000E+00 0. -1.
     999902    2    1    2    0    0 -0.21216081993E-02 -0.56469400367E-02  0.11546336652E-01  0.10309028344E+01  0.10308205212E+01 0.  0.
     999903    2    3    3    0    0  0.22591920128E-01  0.64644130541E-01  0.11512330708E+00  0.14170106772E+00  0.46222919565E-01 0.  0.
         14    1    1    2    0    0  0.21216081993E-02  0.56469400367E-02 -0.11546336652E-01  0.13027165586E-01  0.00000000000E+00 0. -1.
     999901    1    3    3    0    0 -0.24713528327E-01 -0.70291070577E-01 -0.10357697042E+00  0.88920176669E+00  0.88000000000E+00 0. -1.
        -11    1    4    4    0    0  0.29863618980E-01  0.33453420371E-01  0.91504815973E-01  0.10190367776E+00  0.51100000000E-03 0.  1.
         11    1    4    4    0    0 -0.72716988521E-02  0.31190710170E-01  0.23618491103E-01  0.39797389965E-01  0.51100000000E-03 0. -1.
</event>
<event>
 8    1  0.2107254E+004  0.1043930E+01  0.7957747E-01            NaN
         13   -1    0    0    0    0  0.00000000000E+00  0.00000000000E+00  0.74505805969E-08  0.10566000000E+00  0.10566000000E+00 0.  1.
     999900   -1    0    0    0    0 -0.00000000000E+00 -0.00000000000E+00 -0.74505805969E-08  0.93827000000E+00  0.93827000000E+00 0.  1.
     999902    2    1    2    0    0  0.10847870720E-01 -0.77778160093E-02 -0.45408599821E-03  0.10305742179E+01  0.10304876718E+01 0.  0.
     999903    2    3    3    0    0 -0.36608083282E-01 -0.21228268523E-01  0.12556607521E+00  0.14022930538E+00  0.45898014093E-01 0.  0.
         14    1    1    2    0    0 -0.10847870720E-01  0.77778160093E-02  0.45408599821E-03  0.13355782086E-01  0.00000000000E+00 0.  1.
     999901    1    3    3    0    0  0.47455954002E-01  0.13450452514E-01 -0.12602016121E+00  0.89034491253E+00  0.88000000000E+00 0.  1.
        -11    1    4    4    0    0 -0.45614976434E-01 -0.16410428739E-01  0.80111384817E-01  0.93638257912E-01  0.51100000000E-03 0.  1.
         11    1    4    4    0    0  0.90068931522E-02 -0.48178397846E-02  0.45454690393E-01  0.46591047469E-01  0.51100000000E-03 0. -1.
</event>
<event>
 8    1  0.2107254E+004  0.1043930E+01  0.7957747E-01            NaN
         13   -1    0    0    0    0  0.00000000000E+00  0.00000000000E+00  0.74505805969E-08  0.10566000000E+00  0.10566000000E+00 0.  1.
     999900   -1    0    0    0    0 -0.00000000000E+00 -0.00000000000E+00 -0.74505805969E-08  0.93827000000E+00  0.93827000000E+00 0.  1.
     999902    2    1    2    0    0  0.11523778050E-01 -0.80328383577E-02  0.25816583343E-02  0.10296475313E+01  0.10295484689E+01 0.  0.
     999903    2    3    3    0    0  0.69419153789E-01 -0.69690596315E-01  0.91493678453E-01  0.14113253369E+00  0.43260845352E-01 0.  0.
         14    1    1    2    0    0 -0.11523778050E-01  0.80328383577E-02 -0.25816583343E-02  0.14282468707E-01  0.00000000000E+00 0.  1.
     999901    1    3    3    0    0 -0.57895375739E-01  0.61657757957E-01 -0.88912020119E-01  0.88851499761E+00  0.88000000000E+00 0. -1.
        -11    1    4    4    0    0  0.59147239552E-02 -0.34191963127E-01  0.29403335209E-01  0.45485069467E-01  0.51100000000E-03 0.  1.
         11    1    4    4    0    0  0.63504429834E-01 -0.35498633188E-01  0.62090343243E-01  0.95647464221E-01  0.51100000000E-03 0. -1.
</event>
<event>
 8    1  0.2107254E+004  0.1043930E+01  0.7957747E-01            NaN
         13   -1    0    0    0    0  0.00000000000E+00  0.00000000000E+00  0.74505805969E-08  0.10566000000E+00  0.10566000000E+00 0. -1.
     999900   -1    0    0    0    0 -0.00000000000E+00 -0.00000000000E+00 -0.74505805969E-08  0.93827000000E+00  0.93827000000E+00 0. -1.
     999902    2    1    2    0    0 -0.13330281562E-02 -0.66515941277E-02  0.10812976422E-01  0.10311651605E+01  0.10310861492E+01 0.  0.
     999903    2    3    3    0    0 -0.41249028441E-02  0.10046732999E+00  0.87818597368E-01  0.14132690321E+00  0.46373357735E-01 0.  0.
         14    1    1    2    0    0  0.13330281562E-02  0.66515941277E-02 -0.10812976422E-01  0.12764839506E-01  0.00000000000E+00 0.  1.
     999901    1    3    3    0    0  0.27918746879E-02 -0.10711892412E+00 -0.77005620946E-01  0.88983825728E+00  0.88000000000E+00 0.  1.
        -11    1    4    4    0    0 -0.20482973571E-01  0.77936040327E-01  0.51794771803E-01  0.95794248759E-01  0.51100000000E-03 0.  1.
         11    1    4    4    0    0  0.16358070727E-01  0.22531289666E-01  0.36023825565E-01  0.45532654451E-01  0.51100000000E-03 0. -1.
</event>
<event>
 8    1  0.2107254E+004  0.1043930E+01  0.7957747E-01            NaN
         13   -1    0    0    0    0  0.00000000000E+00  0.00000000000E+00  0.74505805969E-08  0.10566000000E+00  0.10566000000E+00 0.  1.
     999900   -1    0    0    0    0 -0.00000000000E+00 -0.00000000000E+00 -0.74505805969E-08  0.93827000000E+00  0.93827000000E+00 0. -1.
     999902    2    1    2    0    0  0.10386905459E-01  0.43036814282E-02 -0.80366455109E-02  0.10301098282E+01  0.10300171168E+01 0.  0.
     999903    2    3    3    0    0  0.30371423593E-01 -0.36441752425E-01 -0.12516588213E+00  0.14118979271E+00  0.44918090171E-01 0.  0.
         14    1    1    2    0    0 -0.10386905459E-01 -0.43036814282E-02  0.80366455109E-02  0.13820171848E-01  0.00000000000E+00 0.  1.
     999901    1    3    3    0    0 -0.19984518134E-01  0.40745433854E-01  0.11712923662E+00  0.88892003545E+00  0.88000000000E+00 0.  1.
        -11    1    4    4    0    0  0.31769120740E-01 -0.18927661929E-01 -0.11518447400E+00  0.12097626871E+00  0.51100000000E-03 0.  1.
         11    1    4    4    0    0 -0.13976971474E-02 -0.17514090497E-01 -0.99814081286E-02  0.20213523999E-01  0.51100000000E-03 0. -1.
</event>
<event>
 8    1  0.2107254E+004  0.1043930E+01  0.7957747E-01            NaN
         13   -1    0    0    0    0  0.00000000000E+00  0.00000000000E+00  0.74505805969E-08  0.10566000000E+00  0.10566000000E+00 0. -1.
     999900   -1    0    0    0    0 -0.00000000000E+00 -0.00000000000E+00 -0.74505805969E-08  0.93827000000E+00  0.93827000000E+00 0. -1.
     999902    2    1    2    0    0 -0.27838431907E-02  0.13034641102E-01  0.52243577152E-02  0.10296140800E+01  0.10295145498E+01 0.  0.
     999903    2    3    3    0    0 -0.20885843604E-01 -0.12779810095E+00  0.16392910628E-01  0.13816229768E+00  0.45293707206E-01 0.  0.
         14    1    1    2    0    0  0.27838431907E-02 -0.13034641102E-01 -0.52243577152E-02  0.14315919988E-01  0.00000000000E+00 0. -1.
     999901    1    3    3    0    0  0.18102000414E-01  0.14083274205E+00 -0.11168552913E-01  0.89145178233E+00  0.88000000000E+00 0. -1.
        -11    1    4    4    0    0 -0.49221126670E-02 -0.84699661531E-01  0.30378771363E-01  0.90118759018E-01  0.51100000000E-03 0.  1.
         11    1    4    4    0    0 -0.15963730937E-01 -0.43098439415E-01 -0.13985860735E-01  0.48043538660E-01  0.51100000000E-03 0. -1.
</event>
<event>
 8    1  0.2107254E+004  0.1043930E+01  0.7957747E-01            NaN
         13   -1    0    0    0    0  0.00000000000E+00  0.00000000000E+00  0.74505805969E-08  0.10566000000E+00  0.10566000000E+00 0.  1.
     999900   -1    0    0    0    0 -0.00000000000E+00 -0.00000000000E+00 -0.74505805969E-08  0.93827000000E+00  0.93827000000E+00 0. -1.
     999902    2    1    2    0    0  0.87443729576E-02  0.57385018143E-02 -0.87737326970E-02  0.10302781559E+01  0.10301877041E+01 0.  0.
     999903    2    3    3    0    0 -0.28406940883E-01  0.40670421121E-01  0.12232660463E+00  0.13910603025E+00  0.43882251638E-01 0.  0.
         14    1    1    2    0    0 -0.87443729576E-02 -0.57385018143E-02  0.87737326970E-02  0.13651844085E-01  0.00000000000E+00 0.  1.
     999901    1    3    3    0    0  0.37151313840E-01 -0.34931919307E-01 -0.13110033733E+00  0.89117212566E+00  0.88000000000E+00 0. -1.
        -11    1    4    4    0    0 -0.39539069691E-01  0.37302866285E-01  0.96053903156E-01  0.11036963032E+00  0.51100000000E-03 0. -1.
         11    1    4    4    0    0  0.11132128808E-01  0.33675548356E-02  0.26272701473E-01  0.28736399932E-01  0.51100000000E-03 0.  1.
</event>
<event>
 8    1  0.2107254E+004  0.1043930E+01  0.7957747E-01            NaN
         13   -1    0    0    0    0  0.00000000000E+00  0.00000000000E+00  0.74505805969E-08  0.10566000000E+00  0.10566000000E+00 0.  1.
     999900   -1    0    0    0    0 -0.00000000000E+00 -0.00000000000E+00 -0.74505805969E-08  0.93827000000E+00  0.93827000000E+00 0.  1.
     999902    2    1    2    0    0 -0.13011767079E-01 -0.17314377857E-01 -0.60005303819E-02  0.10214555672E+01  0.10212082920E+01 0.  0.
     999903    2    3    3    0    0  0.14940273157E-01  0.11200250914E+00  0.46162903397E-01  0.13003804574E+00  0.44845355106E-01 0.  0.
         14    1    1    2    0    0  0.13011767079E-01  0.17314377857E-01  0.60005303819E-02  0.22474432761E-01  0.00000000000E+00 0.  1.
     999901    1    3    3    0    0 -0.27952040236E-01 -0.12931688699E+00 -0.52163433779E-01  0.89141752150E+00  0.88000000000E+00 0.  1.
        -11    1    4    4    0    0  0.30506670752E-02  0.39160778967E-01 -0.58897448622E-02  0.39721825165E-01  0.51100000000E-03 0. -1.
         11    1    4    4    0    0  0.11889606082E-01  0.72841730169E-01  0.52052648259E-01  0.90316220573E-01  0.51100000000E-03 0.  1.
</event>
<event>
 8    1  0.2107254E+004  0.1043930E+01  0.7957747E-01            NaN
         13   -1    0    0    0    0  0.00000000000E+00  0.00000000000E+00  0.74505805969E-08  0.10566000000E+00  0.10566000000E+00 0.  1.
     999900   -1    0    0    0    0 -0.00000000000E+00 -0.00000000000E+00 -0.74505805969E-08  0.93827000000E+00  0.93827000000E+00 0.  1.
     999902    2    1    2    0    0  0.54097189292E-02 -0.12584266120E-01 -0.25061972033E-02  0.10300048488E+01  0.10299107139E+01 0.  0.
     999903    2    3    3    0    0  0.46856934275E-01  0.26038613825E-01 -0.12150852904E+00  0.14018961316E+00  0.44891238662E-01 0.  0.
         14    1    1    2    0    0 -0.54097189292E-02  0.12584266120E-01  0.25061972033E-02  0.13925151241E-01  0.00000000000E+00 0. -1.
     999901    1    3    3    0    0 -0.41447215346E-01 -0.38622879946E-01  0.11900233184E+00  0.88981523560E+00  0.88000000000E+00 0. -1.
        -11    1    4    4    0    0 -0.44981891923E-02  0.15789935943E-01 -0.40759204862E-01  0.43944620661E-01  0.51100000000E-03 0.  1.
         11    1    4    4    0    0  0.51355123467E-01  0.10248677882E-01 -0.80749324182E-01  0.96244992501E-01  0.51100000000E-03 0. -1.
</event>
<event>
 8    1  0.2107254E+004  0.1043930E+01  0.7957747E-01            NaN
         13   -1    0    0    0    0  0.00000000000E+00  0.00000000000E+00  0.74505805969E-08  0.10566000000E+00  0.10566000000E+00 0. -1.
     999900   -1    0    0    0    0 -0.00000000000E+00 -0.00000000000E+00 -0.74505805969E-08  0.93827000000E+00  0.93827000000E+00 0.  1.
     999902    2    1    2    0    0  0.38075185438E-02 -0.59078097195E-04  0.13120947277E-01  0.10302676450E+01  0.10301770529E+01 0.  0.
     999903    2    3    3    0    0  0.85276054769E-01  0.46014372433E-01  0.93003870873E-01  0.14170635461E+00  0.45184543281E-01 0.  0.
         14    1    1    2    0    0 -0.38075185438E-02  0.59078097195E-04 -0.13120947277E-01  0.13662355036E-01  0.00000000000E+00 0.  1.
     999901    1    3    3    0    0 -0.81468536225E-01 -0.46073450530E-01 -0.79882923596E-01  0.88856129036E+00  0.88000000000E+00 0.  1.
        -11    1    4    4    0    0  0.32927530642E-01 -0.53170556965E-02  0.33558224055E-01  0.47317109782E-01  0.51100000000E-03 0. -1.
         11    1    4    4    0    0  0.52348524127E-01  0.51331428129E-01  0.59445646817E-01  0.94389244825E-01  0.51100000000E-03 0.  1.
</event>
<event>
 8    1  0.2107254E+004  0.1043930E+01  0.7957747E-01            NaN
         13   -1    0    0    0    0  0.00000000000E+00  0.00000000000E+00  0.74505805969E-08  0.10566000000E+00  0.10566000000E+00 0.  1.
     999900   -1    0    0    0    0 -0.00000000000E+00 -0.00000000000E+00 -0.74505805969E-08  0.93827000000E+00  0.93827000000E+00 0.  1.
     999902    2    1    2    0    0 -0.13842446725E-01 -0.32446389441E-02 -0.66333074033E-02  0.10282410937E+01  0.10281213961E+01 0.  0.
     999903    2    3    3    0    0  0.10303324217E+00  0.24202222440E-01 -0.75655626968E-01  0.13741151549E+00  0.44232953033E-01 0.  0.
         14    1    1    2    0    0  0.13842446725E-01  0.32446389441E-02  0.66333074033E-02  0.15688906282E-01  0.00000000000E+00 0.  1.
     999901    1    3    3    0    0 -0.11687568889E+00 -0.27446861384E-01  0.69022319565E-01  0.89082957823E+00  0.88000000000E+00 0.  1.
        -11    1    4    4    0    0  0.65862663915E-01  0.32351983755E-01 -0.64642911646E-01  0.97793192493E-01  0.51100000000E-03 0.  1.
         11    1    4    4    0    0  0.37170578252E-01 -0.81497613153E-02 -0.11012715321E-01  0.39618322993E-01  0.51100000000E-03 0. -1.
</event>
<event>
 8    1  0.2107254E+004  0.1043930E+01  0.7957747E-01            NaN
         13   -1    0    0    0    0  0.00000000000E+00  0.00000000000E+00  0.74505805969E-08  0.10566000000E+00  0.10566000000E+00 0.  1.
     999900   -1    0    0    0    0 -0.00000000000E+00 -0.00000000000E+00 -0.74505805969E-08  0.93827000000E+00  0.93827000000E+00 0.  1.
     999902    2    1    2    0    0 -0.53757823624E-02  0.10370126831E-01 -0.74169651674E-02  0.10300934564E+01  0.10300005238E+01 0.  0.
     999903    2    3    3    0    0 -0.60509343757E-01 -0.98209879111E-01  0.59268263944E-01  0.13920836445E+00  0.50593285961E-01 0.  0.
         14    1    1    2    0    0  0.53757823624E-02 -0.10370126831E-01  0.74169651674E-02  0.13836543600E-01  0.00000000000E+00 0.  1.
     999901    1    3    3    0    0  0.55133561394E-01  0.10858000594E+00 -0.66685229112E-01  0.89088509195E+00  0.88000000000E+00 0.  1.
        -11    1    4    4    0    0 -0.35148653718E-02 -0.46607701510E-01  0.35619913904E-01  0.58767946248E-01  0.51100000000E-03 0. -1.
         11    1    4    4    0    0 -0.56994478385E-01 -0.51602177601E-01  0.23648350040E-01  0.80440418200E-01  0.51100000000E-03 0.  1.
</event>
<event>
 8    1  0.2107254E+004  0.1043930E+01  0.7957747E-01            NaN
         13   -1    0    0    0    0  0.00000000000E+00  0.00000000000E+00  0.74505805969E-08  0.10566000000E+00  0.10566000000E+00 0.  1.
     999900   -1    0    0    0    0 -0.00000000000E+00 -0.00000000000E+00 -0.74505805969E-08  0.93827000000E+00  0.93827000000E+00 0. -1.
     999902    2    1    2    0    0 -0.86683124170E-02 -0.10739859387E-01  0.14825411870E-02  0.10300490005E+01  0.10299554656E+01 0.  0.
     999903    2    3    3    0    0  0.15037636856E-01 -0.46040251461E-01 -0.12373888543E+00  0.14016783121E+00  0.44608002200E-01 0.  0.
         14    1    1    2    0    0  0.86683124170E-02  0.10739859387E-01 -0.14825411870E-02  0.13880999538E-01  0.00000000000E+00 0. -1.
     999901    1    3    3    0    0 -0.23705949273E-01  0.35300392074E-01  0.12522142662E+00  0.88988116926E+00  0.88000000000E+00 0.  1.
        -11    1    4    4    0    0  0.23561975256E-01 -0.49328168911E-01 -0.90855730576E-01  0.10603518202E+00  0.51100000000E-03 0. -1.
         11    1    4    4    0    0 -0.85243384002E-02  0.32879174501E-02 -0.32883154855E-01  0.34132649188E-01  0.51100000000E-03 0.  1.
</event>
<event>
 8    1  0.2107254E+004  0.1043930E+01  0.7957747E-01            NaN
         13   -1    0    0    0    0  0.00000000000E+00  0.00000000000E+00  0.74505805969E-08  0.10566000000E+00  0.10566000000E+00 0.  1.
     999900   -1    0    0    0    0 -0.00000000000E+00 -0.00000000000E+00 -0.74505805969E-08  0.93827000000E+00  0.93827000000E+00 0.  1.
     999902    2    1    2    0    0 -0.56850914535E-02 -0.13884334868E-01 -0.93661973664E-02  0.10262432628E+01  0.10260908409E+01 0.  0.
     999903    2    3    3    0    0 -0.59981419221E-01  0.64454393743E-01 -0.94768214004E-01  0.13698595918E+00  0.45077700706E-01 0.  0.
         14    1    1    2    0    0  0.56850914535E-02  0.13884334868E-01  0.93661973664E-02  0.17686737197E-01  0.00000000000E+00 0.  1.
     999901    1    3    3    0    0  0.54296327768E-01 -0.78338728612E-01  0.85402016638E-01  0.88925730363E+00  0.88000000000E+00 0. -1.
        -11    1    4    4    0    0 -0.80982884593E-02 -0.10742279713E-02 -0.30420797861E-01  0.31502734884E-01  0.51100000000E-03 0. -1.
         11    1    4    4    0    0 -0.51883130762E-01  0.65528621715E-01 -0.64347416144E-01  0.10548322429E+00  0.51100000000E-03 0.  1.
</event>
<event>
 8    1  0.2107254E+004  0.1043930E+01  0.7957747E-01            NaN
         13   -1    0    0    0    0  0.00000000000E+00  0.00000000000E+00  0.74505805969E-08  0.10566000000E+00  0.10566000000E+00 0. -1.
     999900   -1    0    0    0    0 -0.00000000000E+00 -0.00000000000E+00 -0.74505805969E-08  0.93827000000E+00  0.93827000000E+00 0. -1.
     999902    2    1    2    0    0 -0.10307968287E-01 -0.22146649410E-02  0.86447120108E-02  0.10302958518E+01  0.10302056359E+01 0.  0.
     999903    2    3    3    0    0  0.91265084383E-01  0.27716571839E-01 -0.89527255346E-01  0.13852755279E+00  0.45576632734E-01 0.  0.
         14    1    1    2    0    0  0.10307968287E-01  0.22146649410E-02 -0.86447120108E-02  0.13634148186E-01  0.00000000000E+00 0. -1.
     999901    1    3    3    0    0 -0.10157305267E+00 -0.29931236780E-01  0.98171967357E-01  0.89176829902E+00  0.88000000000E+00 0. -1.
        -11    1    4    4    0    0  0.82674050023E-02  0.20806308743E-01 -0.20329975106E-01  0.30246015899E-01  0.51100000000E-03 0. -1.
         11    1    4    4    0    0  0.82997679380E-01  0.69102630960E-02 -0.69197280240E-01  0.10828153689E+00  0.51100000000E-03 0.  1.
</event>
<event>
 8    1  0.2107254E+004  0.1043930E+01  0.7957747E-01            NaN
         13   -1    0    0    0    0  0.00000000000E+00  0.00000000000E+00  0.74505805969E-08  0.10566000000E+00  0.10566000000E+00 0. -1.
     999900   -1    0    0    0    0 -0.00000000000E+00 -0.00000000000E+00 -0.74505805969E-08  0.93827000000E+00  0.93827000000E+00 0. -1.
     999902    2    1    2    0    0 -0.92110158248E-02 -0.88945188165E-02 -0.65637974363E-02  0.10295411601E+01  0.10294406061E+01 0.  0.
     999903    2    3    3    0    0 -0.83894806795E-01  0.36625723008E-01 -0.99339805276E-01  0.14035212018E+00  0.38085936156E-01 0.  0.
         14    1    1    2    0    0  0.92110158248E-02  0.88945188165E-02  0.65637974363E-02  0.14388839921E-01  0.00000000000E+00 0. -1.
     999901    1    3    3    0    0  0.74683790971E-01 -0.45520241824E-01  0.92776007840E-01  0.88918903990E+00  0.88000000000E+00 0.  1.
        -11    1    4    4    0    0 -0.25349579060E-01  0.31364165881E-01 -0.42228360738E-01  0.58393558134E-01  0.51100000000E-03 0.  1.
         11    1    4    4    0    0 -0.58545227735E-01  0.52615571271E-02 -0.57111444538E-01  0.81958562043E-01  0.51100000000E-03 0. -1.
</event>
<event>
 8    1  0.2107254E+004  0.1043930E+01  0.7957747E-01            NaN
         13   -1    0    0    0    0  0.00000000000E+00  0.00000000000E+00  0.74505805969E-08  0.10566000000E+00  0.10566000000E+00 0.  1.
     999900   -1    0    0    0    0 -0.00000000000E+00 -0.00000000000E+00 -0.74505805969E-08  0.93827000000E+00  0.93827000000E+00 0. -1.
     999902    2    1    2    0    0  0.12760337221E-01 -0.34711575508E-02  0.15556485607E-02  0.10306147763E+01  0.10305287584E+01 0.  0.
     999903    2    3    3    0    0 -0.37130985252E-01  0.10080475347E+00 -0.79100664470E-01  0.13939760267E+00  0.40428555783E-01 0.  0.
         14    1    1    2    0    0 -0.12760337221E-01  0.34711575508E-02 -0.15556485607E-02  0.13315223737E-01  0.00000000000E+00 0.  1.
     999901    1    3    3    0    0  0.49891322472E-01 -0.10427591102E+00  0.80656313031E-01  0.89121717359E+00  0.88000000000E+00 0.  1.
        -11    1    4    4    0    0 -0.34248062352E-01  0.75674510504E-01 -0.78196572820E-01  0.11408122736E+00  0.51100000000E-03 0.  1.
         11    1    4    4    0    0 -0.28829228997E-02  0.25130242965E-01 -0.90409164975E-03  0.25316375306E-01  0.51100000000E-03 0. -1.
</event>
<event>
 8    1  0.2107254E+004  0.1043930E+01  0.7957747E-01            NaN
         13   -1    0    0    0    0  0.00000000000E+00  0.00000000000E+00  0.74505805969E-08  0.10566000000E+00  0.10566000000E+00 0.  1.
     999900   -1    0    0    0    0 -0.00000000000E+00 -0.00000000000E+00 -0.74505805969E-08  0.93827000000E+00  0.93827000000E+00 0. -1.
     999902    2    1    2    0    0  0.11545839853E-01 -0.29731237138E-03 -0.72081088453E-02  0.10303156089E+01  0.10302256560E+01 0.  0.
     999903    2    3    3    0    0  0.97481311599E-01  0.15919482459E-02  0.90627087369E-01  0.14073132381E+00  0.45682558238E-01 0.  0.
         14    1    1    2    0    0 -0.11545839853E-01  0.29731237138E-03  0.72081088453E-02  0.13614391124E-01  0.00000000000E+00 0.  1.
     999901    1    3    3    0    0 -0.85935471747E-01 -0.18892606173E-02 -0.97835196215E-01  0.88958428506E+00  0.88000000000E+00 0. -1.
        -11    1    4    4    0    0  0.22317077910E-01  0.11361889241E-01  0.35713913984E-02  0.25301392275E-01  0.51100000000E-03 0.  1.
         11    1    4    4    0    0  0.75164233690E-01 -0.97699409947E-02  0.87055695971E-01  0.11542993154E+00  0.51100000000E-03 0. -1.
</event>
<event>
 7    1  0.2107254E+004  0.1043930E+01  0.7957747E-01            NaN
         13   -1    0    0    0    0  0.00000000000E+00  0.00000000000E+00  0.74505805969E-08  0.10566000000E+00  0.10566000000E+00 0.  1.
     999900   -1    0    0    0    0 -0.00000000000E+00 -0.00000000000E+00 -0.74505805969E-08  0.93827000000E+00  0.93827000000E+00 0. -1.
     999902    2    1    2    0    0  0.11442436863E-01 -0.61363608497E-02 -0.52942979381E-02  0.10299080930E+01  0.10298126364E+01 0.  0.
         14    1    1    2    0    0 -0.11442436863E-01  0.61363608497E-02  0.52942979381E-02  0.14021907020E-01  0.00000000000E+00 0. -1.
     999901    1    3    3    0    0 -0.10162255112E+00  0.54796081548E-01 -0.58230967458E-01  0.88944960454E+00  0.88000000000E+00 0. -1.
        -11    1    3    3    0    0  0.10418261484E+00 -0.60851015275E-01  0.45803065755E-01  0.12905442747E+00  0.51100000000E-03 0. -1.
         11    1    3    3    0    0  0.88823731387E-02 -0.81427122484E-04  0.71336037650E-02  0.11404060971E-01  0.51100000000E-03 0.  1.
</event>
<event>
 8    1  0.2107254E+004  0.1043930E+01  0.7957747E-01            NaN
         13   -1    0    0    0    0  0.00000000000E+00  0.00000000000E+00  0.74505805969E-08  0.10566000000E+00  0.10566000000E+00 0. -1.
     999900   -1    0    0    0    0 -0.00000000000E+00 -0.00000000000E+00 -0.74505805969E-08  0.93827000000E+00  0.93827000000E+00 0.  1.
     999902    2    1    2    0    0 -0.91083988847E-02 -0.19639459946E-02 -0.10158834711E-01  0.10301451555E+01  0.10300529207E+01 0.  0.
     999903    2    3    3    0    0  0.10248343532E+00 -0.68772881488E-01 -0.47614509583E-01  0.13979741510E+00  0.45206327027E-01 0.  0.
         14    1    1    2    0    0  0.91083988847E-02  0.19639459946E-02  0.10158834711E-01  0.13784844461E-01  0.00000000000E+00 0. -1.
     999901    1    3    3    0    0 -0.11159183420E+00  0.66808935493E-01  0.37455674872E-01  0.89034774044E+00  0.88000000000E+00 0.  1.
        -11    1    4    4    0    0  0.53188275738E-01 -0.16292222644E-01 -0.43595977239E-02  0.55800505446E-01  0.51100000000E-03 0. -1.
         11    1    4    4    0    0  0.49295159581E-01 -0.52480658843E-01 -0.43254911859E-01  0.83996909656E-01  0.51100000000E-03 0.  1.
</event>
<event>
 8    1  0.2107254E+004  0.1043930E+01  0.7957747E-01            NaN
         13   -1    0    0    0    0  0.00000000000E+00  0.00000000000E+00  0.74505805969E-08  0.10566000000E+00  0.10566000000E+00 0. -1.
     999900   -1    0    0    0    0 -0.00000000000E+00 -0.00000000000E+00 -0.74505805969E-08  0.93827000000E+00  0.93827000000E+00 0.  1.
     999902    2    1    2    0    0  0.25361388541E-02 -0.11796693586E-01  0.62591285411E-02  0.10303369624E+01  0.10302472934E+01 0.  0.
     999903    2    3    3    0    0 -0.10874902308E+00  0.72555395050E-01  0.35139758706E-02  0.13932226112E+00  0.48038620339E-01 0.  0.
         14    1    1    2    0    0 -0.25361388541E-02  0.11796693586E-01 -0.62591285411E-02  0.13593037554E-01  0.00000000000E+00 0.  1.
     999901    1    3    3    0    0  0.11128516193E+00 -0.84352088636E-01  0.27451526705E-02  0.89101470133E+00  0.88000000000E+00 0. -1.
        -11    1    4    4    0    0 -0.28383300274E-02  0.21045920808E-01  0.36201503277E-02  0.21548863297E-01  0.51100000000E-03 0.  1.
         11    1    4    4    0    0 -0.10591069305E+00  0.51509474242E-01 -0.10617445711E-03  0.11777339782E+00  0.51100000000E-03 0. -1.
</event>
<event>
 8    1  0.2107254E+004  0.1043930E+01  0.7957747E-01            NaN
         13   -1    0    0    0    0  0.00000000000E+00  0.00000000000E+00  0.74505805969E-08  0.10566000000E+00  0.10566000000E+00 0.  1.
     999900   -1    0    0    0    0 -0.00000000000E+00 -0.00000000000E+00 -0.74505805969E-08  0.93827000000E+00  0.93827000000E+00 0. -1.
     999902    2    1    2    0    0 -0.11916820243E-02  0.84489518332E-02  0.11407059923E-01  0.10296847935E+01  0.10295862509E+01 0.  0.
     999903    2    3    3    0    0  0.13857406942E-01  0.10741981520E+00  0.79623666006E-01  0.14138573784E+00  0.43805870078E-01 0.  0.
         14    1    1    2    0    0  0.11916820243E-02 -0.84489518332E-02 -0.11407059923E-01  0.14245206535E-01  0.00000000000E+00 0. -1.
     999901    1    3    3    0    0 -0.15049088966E-01 -0.98970863363E-01 -0.68216606084E-01  0.88829905562E+00  0.88000000000E+00 0. -1.
        -11    1    4    4    0    0  0.58665825722E-02  0.47501805717E-01  0.94934766235E-02  0.48797802788E-01  0.51100000000E-03 0.  1.
         11    1    4    4    0    0  0.79908243697E-02  0.59918009479E-01  0.70130189383E-01  0.92587935056E-01  0.51100000000E-03 0. -1.
</event>
<event>
 8    1  0.2107254E+004  0.1043930E+01  0.7957747E-01            NaN
         13   -1    0    0    0    0  0.00000000000E+00  0.00000000000E+00  0.74505805969E-08  0.10566000000E+00  0.10566000000E+00 0. -1.
     999900   -1    0    0    0    0 -0.00000000000E+00 -0.00000000000E+00 -0.74505805969E-08  0.93827000000E+00  0.93827000000E+00 0. -1.
     999902    2    1    2    0    0 -0.11296042133E-01  0.99433559716E-02  0.13124535490E-01  0.10239619173E+01  0.10237672019E+01 0.  0.
     999903    2    3    3    0    0 -0.21531007730E-01 -0.83469817161E-01  0.87895927303E-01  0.13580566049E+00  0.57329649515E-01 0.  0.
         14    1    1    2    0    0  0.11296042133E-01 -0.99433559716E-02 -0.13124535490E-01  0.19968082724E-01  0.00000000000E+00 0.  1.
     999901    1    3    3    0    0  0.10234965598E-01  0.93413173133E-01 -0.74771391813E-01  0.88815625679E+00  0.88000000000E+00 0. -1.
        -11    1    4    4    0    0 -0.67506331444E-02 -0.45208975791E-01  0.82653239834E-01  0.94452325096E-01  0.51100000000E-03 0. -1.
         11    1    4    4    0    0 -0.14780374586E-01 -0.38260841371E-01  0.52426874696E-02  0.41353335394E-01  0.51100000000E-03 0.  1.
</event>
<event>
 8    1  0.2107254E+004  0.1043930E+01  0.7957747E-01            NaN
         13   -1    0    0    0    0  0.00000000000E+00  0.00000000000E+00  0.74505805969E-08  0.10566000000E+00  0.10566000000E+00 0. -1.
     999900   -1    0    0    0    0 -0.00000000000E+00 -0.00000000000E+00 -0.74505805969E-08  0.93827000000E+00  0.93827000000E+00 0.  1.
     999902    2    1    2    0    0  0.86176108325E-02 -0.14794282386E-01 -0.11637670607E-01  0.10232280826E+01  0.10230186409E+01 0.  0.
     999903    2    3    3    0    0 -0.44271814134E-01  0.11327075789E+00 -0.26016835584E-01  0.13227089719E+00  0.45038387960E-01 0.  0.
         14    1    1    2    0    0 -0.86176108325E-02  0.14794282386E-01  0.11637670607E-01  0.20701917422E-01  0.00000000000E+00 0. -1.
     999901    1    3    3    0    0  0.52889424967E-01 -0.12806504027E+00  0.14379164977E-01  0.89095718539E+00  0.88000000000E+00 0.  1.
        -11    1    4    4    0    0 -0.65492226545E-02  0.35154341421E-01  0.11768967601E-01  0.37649565170E-01  0.51100000000E-03 0.  1.
         11    1    4    4    0    0 -0.37722591480E-01  0.78116416466E-01 -0.37785803185E-01  0.94621332018E-01  0.51100000000E-03 0. -1.
</event>
<event>
 8    1  0.2107254E+004  0.1043930E+01  0.7957747E-01            NaN
         13   -1    0    0    0    0  0.00000000000E+00  0.00000000000E+00  0.74505805969E-08  0.10566000000E+00  0.10566000000E+00 0.  1.
     999900   -1    0    0    0    0 -0.00000000000E+00 -0.00000000000E+00 -0.74505805969E-08  0.93827000000E+00  0.93827000000E+00 0. -1.
     999902    2    1    2    0    0  0.88158482755E-02 -0.30292002523E-02  0.96678370305E-02  0.10305000965E+01  0.10304125808E+01 0.  0.
     999903    2    3    3    0    0 -0.88506017262E-01 -0.18258255053E-01 -0.95421670904E-01  0.13878978800E+00  0.44616488044E-01 0.  0.
         14    1    1    2    0    0 -0.88158482755E-02  0.30292002523E-02 -0.96678370305E-02  0.13429903493E-01  0.00000000000E+00 0. -1.
     999901    1    3    3    0    0  0.97321865538E-01  0.15229054801E-01  0.10508950793E+00  0.89171030851E+00  0.88000000000E+00 0.  1.
        -11    1    4    4    0    0 -0.10006853446E-01 -0.17038928388E-01 -0.33090681431E-01  0.38544993385E-01  0.51100000000E-03 0. -1.
         11    1    4    4    0    0 -0.78499163816E-01 -0.12193266644E-02 -0.62330989473E-01  0.10024479461E+00  0.51100000000E-03 0.  1.
</event>
<event>
 8    1  0.2107254E+004  0.1043930E+01  0.7957747E-01            NaN
         13   -1    0    0    0    0  0.00000000000E+00  0.00000000000E+00  0.74505805969E-08  0.10566000000E+00  0.10566000000E+00 0.  1.
     999900   -1    0    0    0    0 -0.00000000000E+00 -0.00000000000E+00 -0.74505805969E-08  0.93827000000E+00  0.93827000000E+00 0.  1.
     999902    2    1    2    0    0  0.75958168592E-02 -0.87564947255E-03 -0.11542222065E-01  0.10300849256E+01  0.10299918775E+01 0.  0.
     999903    2    3    3    0    0 -0.97113347623E-01  0.46146853267E-01 -0.80100479616E-01  0.13998641441E+00  0.40243944041E-01 0.  0.
         14    1    1    2    0    0 -0.75958168592E-02  0.87564947255E-03  0.11542222065E-01  0.13845074429E-01  0.00000000000E+00 0.  1.
     999901    1    3    3    0    0  0.10470916448E+00 -0.47022502740E-01  0.68558257551E-01  0.89009851116E+00  0.88000000000E+00 0.  1.
        -11    1    4    4    0    0 -0.11129656890E-01  0.81350188383E-02  0.34417822246E-02  0.14218114498E-01  0.51100000000E-03 0.  1.
         11    1    4    4    0    0 -0.85983690733E-01  0.38011834429E-01 -0.83542261840E-01  0.12576829991E+00  0.51100000000E-03 0. -1.
</event>
<event>
 8    1  0.2107254E+004  0.1043930E+01  0.7957747E-01            NaN
         13   -1    0    0    0    0  0.00000000000E+00  0.00000000000E+00  0.74505805969E-08  0.10566000000E+00  0.10566000000E+00 0. -1.
     999900   -1    0    0    0    0 -0.00000000000E+00 -0.00000000000E+00 -0.74505805969E-08  0.93827000000E+00  0.93827000000E+00 0. -1.
     999902    2    1    2    0    0 -0.74736949550E-02  0.23328763408E-03  0.12205478869E-01  0.10296162215E+01  0.10295167213E+01 0.  0.
     999903    2    3    3    0    0 -0.95566600432E-01 -0.21677436359E-03  0.94142602821E-01  0.14143028671E+00  0.44795917483E-01 0.  0.
         14    1    1    2    0    0  0.74736949550E-02 -0.23328763408E-03 -0.12205478869E-01  0.14313778461E-01  0.00000000000E+00 0.  1.
     999901    1    3    3    0    0  0.88092905477E-01  0.45006199768E-03 -0.81937123951E-01  0.88818593483E+00  0.88000000000E+00 0. -1.
        -11    1    4    4    0    0 -0.35975979963E-01 -0.21669942334E-01  0.33243410559E-01  0.53565315286E-01  0.51100000000E-03 0.  1.
         11    1    4    4    0    0 -0.59590620469E-01  0.21453167971E-01  0.60899192262E-01  0.87864971422E-01  0.51100000000E-03 0. -1.
</event>
<event>
 8    1  0.2107254E+004  0.1043930E+01  0.7957747E-01            NaN
         13   -1    0    0    0    0  0.00000000000E+00  0.00000000000E+00  0.74505805969E-08  0.10566000000E+00  0.10566000000E+00 0.  1.
     999900   -1    0    0    0    0 -0.00000000000E+00 -0.00000000000E+00 -0.74505805969E-08  0.93827000000E+00  0.93827000000E+00 0. -1.
     999902    2    1    2    0    0  0.92000132842E-02 -0.96568162877E-02  0.35642771312E-02  0.10301242615E+01  0.10300317450E+01 0.  0.
     999903    2    3    3    0    0  0.91285181588E-01 -0.71047316283E-01  0.68950121681E-01  0.14176505651E+00  0.44300185544E-01 0.  0.
         14    1    1    2    0    0 -0.92000132842E-02  0.96568162877E-02 -0.35642771312E-02  0.13805738543E-01  0.00000000000E+00 0. -1.
     999901    1    3    3    0    0 -0.82085168303E-01  0.61390499996E-01 -0.65385844550E-01  0.88835920495E+00  0.88000000000E+00 0. -1.
        -11    1    4    4    0    0  0.11021267827E-01 -0.32861353695E-01  0.14861596651E-01  0.37715581491E-01  0.51100000000E-03 0. -1.
         11    1    4    4    0    0  0.80263913761E-01 -0.38185962588E-01  0.54088525030E-01  0.10404947502E+00  0.51100000000E-03 0.  1.
</event>
<event>
 8    1  0.2107254E+004  0.1043930E+01  0.7957747E-01            NaN
         13   -1    0    0    0    0  0.00000000000E+00  0.00000000000E+00  0.74505805969E-08  0.10566000000E+00  0.10566000000E+00 0. -1.
     999900   -1    0    0    0    0 -0.00000000000E+00 -0.00000000000E+00 -0.74505805969E-08  0.93827000000E+00  0.93827000000E+00 0. -1.
     999902    2    1    2    0    0 -0.13496003078E-01 -0.41451980613E-03 -0.75176617563E-02  0.10284759014E+01  0.10283597865E+01 0.  0.
     999903    2    3    3    0    0 -0.52276426110E-01  0.12140444300E+00  0.13641203614E-02  0.13919379375E+00  0.43602613311E-01 0.  0.
         14    1    1    2    0    0  0.13496003078E-01  0.41451980613E-03  0.75176617563E-02  0.15454098616E-01  0.00000000000E+00 0. -1.
     999901    1    3    3    0    0  0.38780423032E-01 -0.12181896280E+00 -0.88817821177E-02  0.88928210764E+00  0.88000000000E+00 0. -1.
        -11    1    4    4    0    0 -0.10762580091E-01  0.76915473076E-01 -0.60010848331E-02  0.77897992714E-01  0.51100000000E-03 0. -1.
         11    1    4    4    0    0 -0.41513846019E-01  0.44488969920E-01  0.73652051945E-02  0.61295801033E-01  0.51100000000E-03 0.  1.
</event>
<event>
 7    1  0.2107254E+004  0.1043930E+01  0.7957747E-01            NaN
         13   -1    0    0    0    0  0.00000000000E+00  0.00000000000E+00  0.74505805969E-08  0.10566000000E+00  0.10566000000E+00 0. -1.
     999900   -1    0    0    0    0 -0.00000000000E+00 -0.00000000000E+00 -0.74505805969E-08  0.93827000000E+00  0.93827000000E+00 0.  1.
     999903    2    1    2    0    0 -0.96988588377E-01 -0.58763599598E-02 -0.42948071383E-01  0.11542956874E+00  0.45145660073E-01 0.  0.
         14    1    1    2    0    0  0.85743453568E-02 -0.38040477137E-01  0.17163751122E-01  0.42605066034E-01  0.00000000000E+00 0. -1.
     999901    1    1    2    0    0  0.88414243020E-01  0.43916837097E-01  0.25784320260E-01  0.88589536522E+00  0.88000000000E+00 0. -1.
        -11    1    3    3    0    0 -0.41873856357E-01 -0.23637730093E-01 -0.11142312909E-01  0.49361669219E-01  0.51100000000E-03 0.  1.
         11    1    3    3    0    0 -0.55114732020E-01  0.17761370133E-01 -0.31805758474E-01  0.66067899526E-01  0.51100000000E-03 0. -1.
</event>
<event>
 8    1  0.2107254E+004  0.1043930E+01  0.7957747E-01            NaN
         13   -1    0    0    0    0  0.00000000000E+00  0.00000000000E+00  0.74505805969E-08  0.10566000000E+00  0.10566000000E+00 0.  1.
     999900   -1    0    0    0    0 -0.00000000000E+00 -0.00000000000E+00 -0.74505805969E-08  0.93827000000E+00  0.93827000000E+00 0.  1.
     999902    2    1    2    0    0  0.64248816007E-02 -0.82602743630E-02 -0.81832408223E-02  0.10306455479E+01  0.10305599298E+01 0.  0.
     999903    2    3    3    0    0 -0.98301408547E-01 -0.16427369640E-01 -0.88938277957E-01  0.14072663404E+00  0.44282534337E-01 0.  0.
         14    1    1    2    0    0 -0.64248816007E-02  0.82602743630E-02  0.81832408223E-02  0.13284452058E-01  0.00000000000E+00 0.  1.
     999901    1    3    3    0    0  0.10472629015E+00  0.81670952769E-02  0.80755037135E-01  0.88991891390E+00  0.88000000000E+00 0. -1.
        -11    1    4    4    0    0 -0.66704890563E-01 -0.33399313821E-02 -0.82116706670E-01  0.10584947899E+00  0.51100000000E-03 0.  1.
         11    1    4    4    0    0 -0.31596517984E-01 -0.13087438258E-01 -0.68215712869E-02  0.34877155054E-01  0.51100000000E-03 0. -1.
</event>
<event>
 8    1  0.2107254E+004  0.1043930E+01  0.7957747E-01            NaN
         13   -1    0    0    0    0  0.00000000000E+00  0.00000000000E+00  0.74505805969E-08  0.10566000000E+00  0.10566000000E+00 0. -1.
     999900   -1    0    0    0    0 -0.00000000000E+00 -0.00000000000E+00 -0.74505805969E-08  0.93827000000E+00  0.93827000000E+00 0.  1.
     999902    2    1    2    0    0 -0.11433526556E-01 -0.60469818090E-02  0.13355993994E-01  0.10253376872E+01  0.10251691074E+01 0.  0.
     999903    2    3    3    0    0  0.77961250057E-01 -0.80531658368E-01 -0.60071026706E-01  0.13464642731E+00  0.44247346003E-01 0.  0.
         14    1    1    2    0    0  0.11433526556E-01  0.60469818090E-02 -0.13355993994E-01  0.18592312768E-01  0.00000000000E+00 0. -1.
     999901    1    3    3    0    0 -0.89394776613E-01  0.74484676559E-01  0.73427020700E-01  0.89069125992E+00  0.88000000000E+00 0. -1.
        -11    1    4    4    0    0  0.68265062763E-01 -0.42557372644E-01 -0.32690922041E-01  0.86834361086E-01  0.51100000000E-03 0.  1.
         11    1    4    4    0    0  0.96961872946E-02 -0.37974285724E-01 -0.27380104665E-01  0.47812066226E-01  0.51100000000E-03 0. -1.
</event>
<event>
 8    1  0.2107254E+004  0.1043930E+01  0.7957747E-01            NaN
         13   -1    0    0    0    0  0.00000000000E+00  0.00000000000E+00  0.74505805969E-08  0.10566000000E+00  0.10566000000E+00 0. -1.
     999900   -1    0    0    0    0 -0.00000000000E+00 -0.00000000000E+00 -0.74505805969E-08  0.93827000000E+00  0.93827000000E+00 0.  1.
     999902    2    1    2    0    0 -0.12848078233E-01  0.39398233513E-03 -0.58526870797E-02  0.10298061803E+01  0.10297093215E+01 0.  0.
     999903    2    3    3    0    0 -0.89051520321E-01 -0.90818621241E-01  0.39609294266E-01  0.14065293403E+00  0.45123789993E-01 0.  0.
         14    1    1    2    0    0  0.12848078233E-01 -0.39398233513E-03  0.58526870797E-02  0.14123819682E-01  0.00000000000E+00 0. -1.
     999901    1    3    3    0    0  0.76203442088E-01  0.91212603576E-01 -0.45461981346E-01  0.88915324629E+00  0.88000000000E+00 0.  1.
        -11    1    4    4    0    0 -0.22033917060E-01 -0.47881305886E-01  0.29542679381E-01  0.60424696775E-01  0.51100000000E-03 0. -1.
         11    1    4    4    0    0 -0.67017603261E-01 -0.42937315355E-01  0.10066614886E-01  0.80228237255E-01  0.51100000000E-03 0.  1.
</event>
<event>
 8    1  0.2107254E+004  0.1043930E+01  0.7957747E-01            NaN
         13   -1    0    0    0    0  0.00000000000E+00  0.00000000000E+00  0.74505805969E-08  0.10566000000E+00  0.10566000000E+00 0.  1.
     999900   -1    0    0    0    0 -0.00000000000E+00 -0.00000000000E+00 -0.74505805969E-08  0.93827000000E+00  0.93827000000E+00 0. -1.
     999902    2    1    2    0    0  0.70901993297E-02 -0.11598457329E-01  0.19423157946E-02  0.10301980034E+01  0.10301064792E+01 0.  0.
     999903    2    3    3    0    0  0.58050260826E-01 -0.12124991179E+00  0.39546127824E-02  0.14192753862E+00  0.45347694136E-01 0.  0.
         14    1    1    2    0    0 -0.70901993297E-02  0.11598457329E-01 -0.19423157946E-02  0.13731996563E-01  0.00000000000E+00 0.  1.
     999901    1    3    3    0    0 -0.50960061496E-01  0.10965145446E+00 -0.20122969878E-02  0.88827046482E+00  0.88000000000E+00 0.  1.
        -11    1    4    4    0    0  0.45672084682E-01 -0.89129493503E-01  0.22752282808E-01  0.10270313250E+00  0.51100000000E-03 0.  1.
         11    1    4    4    0    0  0.12378176144E-01 -0.32120418291E-01 -0.18797670025E-01  0.39224406117E-01  0.51100000000E-03 0. -1.
</event>
<event>
 8    1  0.2107254E+004  0.1043930E+01  0.7957747E-01            NaN
         13   -1    0    0    0    0  0.00000000000E+00  0.00000000000E+00  0.74505805969E-08  0.10566000000E+00  0.10566000000E+00 0.  1.
     999900   -1    0    0    0    0 -0.00000000000E+00 -0.00000000000E+00 -0.74505805969E-08  0.93827000000E+00  0.93827000000E+00 0.  1.
     999902    2    1    2    0    0  0.47354309577E-02 -0.78971184789E-02 -0.70168601635E-02  0.10323530784E+01  0.10322881639E+01 0.  0.
     999903    2    3    3    0    0 -0.11522481028E+00  0.11802634805E-01 -0.67460149892E-01  0.14194197616E+00  0.46696827309E-01 0.  0.
         14    1    1    2    0    0 -0.47354309577E-02  0.78971184789E-02  0.70168601635E-02  0.11576921576E-01  0.00000000000E+00 0. -1.
     999901    1    3    3    0    0  0.11996024124E+00 -0.19699753283E-01  0.60443289728E-01  0.89041110226E+00  0.88000000000E+00 0. -1.
        -11    1    4    4    0    0 -0.65886439481E-01 -0.11676815744E-01 -0.20758375443E-01  0.70060989184E-01  0.51100000000E-03 0. -1.
         11    1    4    4    0    0 -0.49338370800E-01  0.23479450548E-01 -0.46701774449E-01  0.71880986978E-01  0.51100000000E-03 0.  1.
</event>
<event>
 8    1  0.2107254E+004  0.1043930E+01  0.7957747E-01            NaN
         13   -1    0    0    0    0  0.00000000000E+00  0.00000000000E+00  0.74505805969E-08  0.10566000000E+00  0.10566000000E+00 0.  1.
     999900   -1    0    0    0    0 -0.00000000000E+00 -0.00000000000E+00 -0.74505805969E-08  0.93827000000E+00  0.93827000000E+00 0.  1.
     999902    2    1    2    0    0  0.48958152218E-02 -0.41071211129E-02  0.12112743835E-01  0.10302348909E+01  0.10301438610E+01 0.  0.
     999903    2    3    3    0    0 -0.10012028562E-01  0.68016565228E-01  0.11492818138E+00  0.14119322474E+00  0.44727463346E-01 0.  0.
         14    1    1    2    0    0 -0.48958152218E-02  0.41071211129E-02 -0.12112743835E-01  0.13695109117E-01  0.00000000000E+00 0. -1.
     999901    1    3    3    0    0  0.14907843784E-01 -0.72123686341E-01 -0.10281543754E+00  0.88904166614E+00  0.88000000000E+00 0.  1.
        -11    1    4    4    0    0  0.14941549499E-02  0.67840100657E-01  0.82750765232E-01  0.10701617646E+00  0.51100000000E-03 0.  1.
         11    1    4    4    0    0 -0.11506183512E-01  0.17646457109E-03  0.32177416143E-01  0.34177048284E-01  0.51100000000E-03 0. -1.
</event>
<event>
 8    1  0.2107254E+004  0.1043930E+01  0.7957747E-01            NaN
         13   -1    0    0    0    0  0.00000000000E+00  0.00000000000E+00  0.74505805969E-08  0.10566000000E+00  0.10566000000E+00 0.  1.
     999900   -1    0    0    0    0 -0.00000000000E+00 -0.00000000000E+00 -0.74505805969E-08  0.93827000000E+00  0.93827000000E+00 0.  1.
     999902    2    1    2    0    0 -0.57070123417E-03  0.28565452628E-02  0.13235552868E-01  0.10303776788E+01  0.10302885496E+01 0.  0.
     999903    2    3    3    0    0  0.63249302430E-01 -0.11131697887E+00  0.33352936032E-01  0.14048257508E+00  0.47233372928E-01 0.  0.
         14    1    1    2    0    0  0.57070123417E-03 -0.28565452628E-02 -0.13235552868E-01  0.13552321220E-01  0.00000000000E+00 0. -1.
     999901    1    3    3    0    0 -0.63820003664E-01  0.11417352413E+00 -0.20117383164E-01  0.88989510370E+00  0.88000000000E+00 0. -1.
        -11    1    4    4    0    0  0.44616254430E-01 -0.37386333278E-01  0.26410714044E-01  0.63922883325E-01  0.51100000000E-03 0. -1.
         11    1    4    4    0    0  0.18633048000E-01 -0.73930645588E-01  0.69422219882E-02  0.76559691757E-01  0.51100000000E-03 0.  1.
</event>
<event>
 8    1  0.2107254E+004  0.1043930E+01  0.7957747E-01            NaN
         13   -1    0    0    0    0  0.00000000000E+00  0.00000000000E+00  0.74505805969E-08  0.10566000000E+00  0.10566000000E+00 0.  1.
     999900   -1    0    0    0    0 -0.00000000000E+00 -0.00000000000E+00 -0.74505805969E-08  0.93827000000E+00  0.93827000000E+00 0.  1.
     999902    2    1    2    0    0 -0.10888698003E-01 -0.75773985534E-02 -0.35718113109E-02  0.10301917851E+01  0.10301001774E+01 0.  0.
     999903    2    3    3    0    0 -0.84272003304E-01  0.88328185283E-01 -0.53321386373E-01  0.14055252632E+00  0.44812984223E-01 0.  0.
         14    1    1    2    0    0  0.10888698003E-01  0.75773985534E-02  0.35718113109E-02  0.13738214916E-01  0.00000000000E+00 0.  1.
     999901    1    3    3    0    0  0.73383305301E-01 -0.95905583837E-01  0.49749575062E-01  0.88963925876E+00  0.88000000000E+00 0. -1.
        -11    1    4    4    0    0 -0.75788988389E-01  0.53617711217E-01 -0.28766010175E-01  0.97193488360E-01  0.51100000000E-03 0.  1.
         11    1    4    4    0    0 -0.84830149152E-02  0.34710474066E-01 -0.24555376198E-01  0.43359037964E-01  0.51100000000E-03 0. -1.
</event>
<event>
 8    1  0.2107254E+004  0.1043930E+01  0.7957747E-01            NaN
         13   -1    0    0    0    0  0.00000000000E+00  0.00000000000E+00  0.74505805969E-08  0.10566000000E+00  0.10566000000E+00 0.  1.
     999900   -1    0    0    0    0 -0.00000000000E+00 -0.00000000000E+00 -0.74505805969E-08  0.93827000000E+00  0.93827000000E+00 0.  1.
     999902    2    1    2    0    0 -0.51415911864E-02  0.81120932416E-02  0.87122666355E-02  0.10309629029E+01  0.10308813519E+01 0.  0.
     999903    2    3    3    0    0  0.11161578185E-01  0.91697479687E-01 -0.96267879733E-01  0.14064097166E+00  0.44490107126E-01 0.  0.
         14    1    1    2    0    0  0.51415911864E-02 -0.81120932416E-02 -0.87122666355E-02  0.12967097077E-01  0.00000000000E+00 0. -1.
     999901    1    3    3    0    0 -0.16303169371E-01 -0.83585386446E-01  0.10498014637E+00  0.89032193126E+00  0.88000000000E+00 0. -1.
        -11    1    4    4    0    0 -0.43233056492E-02  0.56916270850E-01 -0.30687361697E-01  0.64808395660E-01  0.51100000000E-03 0.  1.
         11    1    4    4    0    0  0.15484883834E-01  0.34781208838E-01 -0.65580518036E-01  0.75832575998E-01  0.51100000000E-03 0. -1.
</event>
<event>
 8    1  0.2107254E+004  0.1043930E+01  0.7957747E-01            NaN
         13   -1    0    0    0    0  0.00000000000E+00  0.00000000000E+00  0.74505805969E-08  0.10566000000E+00  0.10566000000E+00 0. -1.
     999900   -1    0    0    0    0 -0.00000000000E+00 -0.00000000000E+00 -0.74505805969E-08  0.93827000000E+00  0.93827000000E+00 0. -1.
     999902    2    1    2    0    0 -0.13567360405E-01  0.10992465270E-02 -0.33200674211E-02  0.10299191307E+01  0.10298238254E+01 0.  0.
     999903    2    3    3    0    0 -0.10044412877E+00 -0.61891520717E-01 -0.63554915722E-01  0.14135644489E+00  0.44975925306E-01 0.  0.
         14    1    1    2    0    0  0.13567360405E-01 -0.10992465270E-02  0.33200674211E-02  0.14010869315E-01  0.00000000000E+00 0. -1.
     999901    1    3    3    0    0  0.86876768369E-01  0.62990767244E-01  0.60234848300E-01  0.88856268580E+00  0.88000000000E+00 0. -1.
        -11    1    4    4    0    0 -0.88588842282E-01 -0.33728220373E-01 -0.40540423812E-01  0.10309880169E+00  0.51100000000E-03 0.  1.
         11    1    4    4    0    0 -0.11855286492E-01 -0.28163300344E-01 -0.23014491910E-01  0.38257643196E-01  0.51100000000E-03 0. -1.
</event>
<event>
 8    1  0.2107254E+004  0.1043930E+01  0.7957747E-01            NaN
         13   -1    0    0    0    0  0.00000000000E+00  0.00000000000E+00  0.74505805969E-08  0.10566000000E+00  0.10566000000E+00 0. -1.
     999900   -1    0    0    0    0 -0.00000000000E+00 -0.00000000000E+00 -0.74505805969E-08  0.93827000000E+00  0.93827000000E+00 0. -1.
     999902    2    1    2    0    0 -0.52171561925E-02 -0.86832458601E-02  0.52203916375E-02  0.10325339495E+01  0.10324710587E+01 0.  0.
     999903    2    3    3    0    0  0.37850714948E-01  0.12086847438E+00 -0.41220896083E-01  0.14079672201E+00  0.45636497839E-01 0.  0.
         14    1    1    2    0    0  0.52171561925E-02  0.86832458601E-02 -0.52203916375E-02  0.11396050467E-01  0.00000000000E+00 0.  1.
     999901    1    3    3    0    0 -0.43067871141E-01 -0.12955172024E+00  0.46441287721E-01  0.89173722752E+00  0.88000000000E+00 0.  1.
        -11    1    4    4    0    0  0.27852169317E-01  0.97386423795E-01 -0.12007291698E-01  0.10200144631E+00  0.51100000000E-03 0.  1.
         11    1    4    4    0    0  0.99985456313E-02  0.23482050582E-01 -0.29213604385E-01  0.38795275698E-01  0.51100000000E-03 0. -1.
</event>
<event>
 8    1  0.2107254E+004  0.1043930E+01  0.7957747E-01            NaN
         13   -1    0    0    0    0  0.00000000000E+00  0.00000000000E+00  0.74505805969E-08  0.10566000000E+00  0.10566000000E+00 0.  1.
     999900   -1    0    0    0    0 -0.00000000000E+00 -0.00000000000E+00 -0.74505805969E-08  0.93827000000E+00  0.93827000000E+00 0.  1.
     999902    2    1    2    0    0  0.30478257733E-02 -0.14978427971E-01 -0.78522739468E-02  0.10267456829E+01  0.10266018686E+01 0.  0.
     999903    2    3    3    0    0  0.55395737275E-01 -0.41529620198E-01 -0.11247739351E+00  0.13860623146E+00  0.42037201225E-01 0.  0.
         14    1    1    2    0    0 -0.30478257733E-02  0.14978427971E-01  0.78522739468E-02  0.17184317053E-01  0.00000000000E+00 0.  1.
     999901    1    3    3    0    0 -0.52347911502E-01  0.26551192227E-01  0.10462511956E+00  0.88813945149E+00  0.88000000000E+00 0. -1.
        -11    1    4    4    0    0  0.41452045216E-01 -0.83915061470E-02 -0.42656504654E-01  0.60071024115E-01  0.51100000000E-03 0. -1.
         11    1    4    4    0    0  0.13943692059E-01 -0.33138114051E-01 -0.69820888854E-01  0.78535207343E-01  0.51100000000E-03 0.  1.
</event>
<event>
 8    1  0.2107254E+004  0.1043930E+01  0.7957747E-01            NaN
         13   -1    0    0    0    0  0.00000000000E+00  0.00000000000E+00  0.74505805969E-08  0.10566000000E+00  0.10566000000E+00 0. -1.
     999900   -1    0    0    0    0 -0.00000000000E+00 -0.00000000000E+00 -0.74505805969E-08  0.93827000000E+00  0.93827000000E+00 0.  1.
     999902    2    1    2    0    0 -0.87796529981E-02 -0.10643480411E-01  0.22047386730E-02  0.10299576396E+01  0.10298628610E+01 0.  0.
     999903    2    3    3    0    0 -0.98523545820E-01  0.85627138926E-01  0.20897141403E-01  0.13997370473E+00  0.46011427868E-01 0.  0.
         14    1    1    2    0    0  0.87796529981E-02  0.10643480411E-01 -0.22047386730E-02  0.13972360382E-01  0.00000000000E+00 0. -1.
     999901    1    3    3    0    0  0.89743892822E-01 -0.96270619337E-01 -0.18692402730E-01  0.88998393489E+00  0.88000000000E+00 0.  1.
        -11    1    4    4    0    0 -0.62982242235E-01  0.32308720765E-01  0.26644624645E-01  0.75636058979E-01  0.51100000000E-03 0. -1.
         11    1    4    4    0    0 -0.35541303585E-01  0.53318418161E-01 -0.57474832415E-02  0.64337645747E-01  0.51100000000E-03 0.  1.
</event>
<event>
 8    1  0.2107254E+004  0.1043930E+01  0.7957747E-01            NaN
         13   -1    0    0    0    0  0.00000000000E+00  0.00000000000E+00  0.74505805969E-08  0.10566000000E+00  0.10566000000E+00 0.  1.
     999900   -1    0    0    0    0 -0.00000000000E+00 -0.00000000000E+00 -0.74505805969E-08  0.93827000000E+00  0.93827000000E+00 0.  1.
     999902    2    1    2    0    0 -0.12500039211E-01 -0.71162829099E-02  0.79587800625E-03  0.10295242413E+01  0.10294234491E+01 0.  0.
     999903    2    3    3    0    0 -0.58760689113E-01  0.54290394608E-01  0.10541595929E+00  0.13999841861E+00  0.45681147188E-01 0.  0.
         14    1    1    2    0    0  0.12500039211E-01  0.71162829099E-02 -0.79587800625E-03  0.14405758728E-01  0.00000000000E+00 0. -1.
     999901    1    3    3    0    0  0.46260649902E-01 -0.61406677518E-01 -0.10462008128E+00  0.88952582266E+00  0.88000000000E+00 0.  1.
        -11    1    4    4    0    0 -0.12866405646E-02  0.83850855072E-02  0.42081294337E-01  0.42930892805E-01  0.51100000000E-03 0. -1.
         11    1    4    4    0    0 -0.57474048549E-01  0.45905309101E-01  0.63334664954E-01  0.97067525806E-01  0.51100000000E-03 0.  1.
</event>
<event>
 8    1  0.2107254E+004  0.1043930E+01  0.7957747E-01            NaN
         13   -1    0    0    0    0  0.00000000000E+00  0.00000000000E+00  0.74505805969E-08  0.10566000000E+00  0.10566000000E+00 0.  1.
     999900   -1    0    0    0    0 -0.00000000000E+00 -0.00000000000E+00 -0.74505805969E-08  0.93827000000E+00  0.93827000000E+00 0. -1.
     999902    2    1    2    0    0 -0.38219717007E-02 -0.31751229453E-03 -0.62761981756E-02  0.10365748015E+01  0.10365487061E+01 0.  0.
     999903    2    3    3    0    0  0.20934313303E-01 -0.71353249576E-01 -0.11968282300E+00  0.14611423965E+00  0.38676364974E-01 0.  0.
         14    1    1    2    0    0  0.38219717007E-02  0.31751229453E-03  0.62761981756E-02  0.73551985206E-02  0.00000000000E+00 0.  1.
     999901    1    3    3    0    0 -0.24756285004E-01  0.71035737282E-01  0.11340662483E+00  0.89046056183E+00  0.88000000000E+00 0.  1.
        -11    1    4    4    0    0  0.30446702758E-01 -0.40235371167E-01 -0.82435909197E-01  0.96653127460E-01  0.51100000000E-03 0.  1.
         11    1    4    4    0    0 -0.95123894546E-02 -0.31117878410E-01 -0.37246913808E-01  0.49461112190E-01  0.51100000000E-03 0. -1.
</event>
<event>
 8    1  0.2107254E+004  0.1043930E+01  0.7957747E-01            NaN
         13   -1    0    0    0    0  0.00000000000E+00  0.00000000000E+00  0.74505805969E-08  0.10566000000E+00  0.10566000000E+00 0. -1.
     999900   -1    0    0    0    0 -0.00000000000E+00 -0.00000000000E+00 -0.74505805969E-08  0.93827000000E+00  0.93827000000E+00 0. -1.
     999902    2    1    2    0    0 -0.77099970850E-02 -0.82156570362E-02 -0.82603041849E-02  0.10299595419E+01  0.10298647893E+01 0.  0.
     999903    2    3    3    0    0  0.56396096518E-02  0.11585550884E+00  0.61802047884E-01  0.13839877590E+00  0.43363855025E-01 0.  0.
         14    1    1    2    0    0  0.77099970850E-02  0.82156570362E-02  0.82603041849E-02  0.13970458146E-01  0.00000000000E+00 0. -1.
     999901    1    3    3    0    0 -0.13349606737E-01 -0.12407116588E+00 -0.70062352068E-01  0.89156076595E+00  0.88000000000E+00 0. -1.
        -11    1    4    4    0    0 -0.10881916419E-01  0.47929495263E-01  0.71629729467E-02  0.49671137732E-01  0.51100000000E-03 0. -1.
         11    1    4    4    0    0  0.16521526071E-01  0.67926013581E-01  0.54639074937E-01  0.88727638173E-01  0.51100000000E-03 0.  1.
</event>
<event>
 8    1  0.2107254E+004  0.1043930E+01  0.7957747E-01            NaN
         13   -1    0    0    0    0  0.00000000000E+00  0.00000000000E+00  0.74505805969E-08  0.10566000000E+00  0.10566000000E+00 0.  1.
     999900   -1    0    0    0    0 -0.00000000000E+00 -0.00000000000E+00 -0.74505805969E-08  0.93827000000E+00  0.93827000000E+00 0. -1.
     999902    2    1    2    0    0  0.30955523731E-02  0.48824209972E-02 -0.12869675638E-01  0.10298215263E+01  0.10297248793E+01 0.  0.
     999903    2    3    3    0    0  0.12387028211E+00 -0.46646203762E-01 -0.94607997821E-02  0.14007248586E+00  0.44845060458E-01 0.  0.
         14    1    1    2    0    0 -0.30955523731E-02 -0.48824209972E-02  0.12869675638E-01  0.14108473706E-01  0.00000000000E+00 0. -1.
     999901    1    3    3    0    0 -0.12077472974E+00  0.51528624759E-01 -0.34088758559E-02  0.88974904043E+00  0.88000000000E+00 0. -1.
        -11    1    4    4    0    0  0.21382927000E-01 -0.17111838694E-01 -0.18464343801E-01  0.33033887201E-01  0.51100000000E-03 0.  1.
         11    1    4    4    0    0  0.10248735511E+00 -0.29534365068E-01  0.90035440187E-02  0.10703859866E+00  0.51100000000E-03 0. -1.
</event>
<event>
 8    1  0.2107254E+004  0.1043930E+01  0.7957747E-01            NaN
         13   -1    0    0    0    0  0.00000000000E+00  0.00000000000E+00  0.74505805969E-08  0.10566000000E+00  0.10566000000E+00 0. -1.
     999900   -1    0    0    0    0 -0.00000000000E+00 -0.00000000000E+00 -0.74505805969E-08  0.93827000000E+00  0.93827000000E+00 0. -1.
     999902    2    1    2    0    0  0.41677259994E-02 -0.11359011911E-01  0.71569104693E-02  0.10298723167E+01  0.10297763691E+01 0.  0.
     999903    2    3    3    0    0 -0.56179511862E-01 -0.11580325200E+00 -0.34580106787E-01  0.14066347342E+00  0.44987756584E-01 0.  0.
         14    1    1    2    0    0 -0.41677259994E-02  0.11359011911E-01 -0.71569104693E-02  0.14057683275E-01  0.00000000000E+00 0. -1.
     999901    1    3    3    0    0  0.60347237861E-01  0.10444424009E+00  0.41737017256E-01  0.88920884331E+00  0.88000000000E+00 0. -1.
        -11    1    4    4    0    0 -0.27564021417E-01 -0.84324780280E-01 -0.50216599400E-02  0.88859000870E-01  0.51100000000E-03 0.  1.
         11    1    4    4    0    0 -0.28615490445E-01 -0.31478471718E-01 -0.29558446847E-01  0.51804472549E-01  0.51100000000E-03 0. -1.
</event>
<event>
 8    1  0.2107254E+004  0.1043930E+01  0.7957747E-01            NaN
         13   -1    0    0    0    0  0.00000000000E+00  0.00000000000E+00  0.74505805969E-08  0.10566000000E+00  0.10566000000E+00 0.  1.
     999900   -1    0    0    0    0 -0.00000000000E+00 -0.00000000000E+00 -0.74505805969E-08  0.93827000000E+00  0.93827000000E+00 0. -1.
     999902    2    1    2    0    0  0.12989098198E-01 -0.10639587976E-02 -0.27481334311E-02  0.10306108064E+01  0.10305247369E+01 0.  0.
     999903    2    3    3    0    0 -0.24085782563E-01 -0.10962314906E+00 -0.71861495325E-01  0.14047806274E+00  0.44414545688E-01 0.  0.
         14    1    1    2    0    0 -0.12989098198E-01  0.10639587976E-02  0.27481334311E-02  0.13319193582E-01  0.00000000000E+00 0.  1.
     999901    1    3    3    0    0  0.37074880761E-01  0.10855919027E+00  0.69113361894E-01  0.89013274368E+00  0.88000000000E+00 0.  1.
        -11    1    4    4    0    0  0.91993583279E-02 -0.56738232176E-01 -0.26715927302E-01  0.63386568583E-01  0.51100000000E-03 0. -1.
         11    1    4    4    0    0 -0.33285140890E-01 -0.52884916887E-01 -0.45145568023E-01  0.77091494157E-01  0.51100000000E-03 0.  1.
</event>
<event>
 8    1  0.2107254E+004  0.1043930E+01  0.7957747E-01            NaN
         13   -1    0    0    0    0  0.00000000000E+00  0.00000000000E+00  0.74505805969E-08  0.10566000000E+00  0.10566000000E+00 0. -1.
     999900   -1    0    0    0    0 -0.00000000000E+00 -0.00000000000E+00 -0.74505805969E-08  0.93827000000E+00  0.93827000000E+00 0. -1.
     999902    2    1    2    0    0 -0.13178023333E-01  0.60008177809E-03 -0.43099536420E-02  0.10300521004E+01  0.10299586076E+01 0.  0.
     999903    2    3    3    0    0 -0.11827060598E+00 -0.48315489633E-01 -0.40615301104E-01  0.14170798784E+00  0.45926336205E-01 0.  0.
         14    1    1    2    0    0  0.13178023333E-01 -0.60008177809E-03  0.43099536420E-02  0.13877899607E-01  0.00000000000E+00 0.  1.
     999901    1    3    3    0    0  0.10509258264E+00  0.48915571411E-01  0.36305347462E-01  0.88834411255E+00  0.88000000000E+00 0. -1.
        -11    1    4    4    0    0 -0.50359861124E-01 -0.28962334193E-01  0.39075784461E-02  0.58227679884E-01  0.51100000000E-03 0.  1.
         11    1    4    4    0    0 -0.67910744853E-01 -0.19353155440E-01 -0.44522879550E-01  0.83480307956E-01  0.51100000000E-03 0. -1.
</event>
<event>
 8    1  0.2107254E+004  0.1043930E+01  0.7957747E-01            NaN
         13   -1    0    0    0    0  0.00000000000E+00  0.00000000000E+00  0.74505805969E-08  0.10566000000E+00  0.10566000000E+00 0.  1.
     999900   -1    0    0    0    0 -0.00000000000E+00 -0.00000000000E+00 -0.74505805969E-08  0.93827000000E+00  0.93827000000E+00 0.  1.
     999902    2    1    2    0    0  0.12195284695E-01 -0.26279819544E-02 -0.39401832888E-02  0.10308473282E+01  0.10307643075E+01 0.  0.
     999903    2    3    3    0    0 -0.26178841513E-01 -0.12507543217E+00  0.37632896944E-01  0.14056969022E+00  0.44882150153E-01 0.  0.
         14    1    1    2    0    0 -0.12195284695E-01  0.26279819544E-02  0.39401832888E-02  0.13082671833E-01  0.00000000000E+00 0.  1.
     999901    1    3    3    0    0  0.38374126209E-01  0.12244745021E+00 -0.41573080232E-01  0.89027763795E+00  0.88000000000E+00 0. -1.
        -11    1    4    4    0    0  0.50025285607E-02 -0.32608595596E-01 -0.62363679112E-02  0.33578254935E-01  0.51100000000E-03 0. -1.
         11    1    4    4    0    0 -0.31181370074E-01 -0.92466836569E-01  0.43869264855E-01  0.10699143529E+00  0.51100000000E-03 0.  1.
</event>
<event>
 8    1  0.2107254E+004  0.1043930E+01  0.7957747E-01            NaN
         13   -1    0    0    0    0  0.00000000000E+00  0.00000000000E+00  0.74505805969E-08  0.10566000000E+00  0.10566000000E+00 0. -1.
     999900   -1    0    0    0    0 -0.00000000000E+00 -0.00000000000E+00 -0.74505805969E-08  0.93827000000E+00  0.93827000000E+00 0.  1.
     999902    2    1    2    0    0 -0.22694234984E-02 -0.67067745969E-02  0.10362037548E-01  0.10313799828E+01  0.10313036246E+01 0.  0.
     999903    2    3    3    0    0 -0.64009221760E-02 -0.11124790103E+00 -0.74328915414E-01  0.14114491618E+00  0.44497555099E-01 0.  0.
         14    1    1    2    0    0  0.22694234984E-02  0.67067745969E-02 -0.10362037548E-01  0.12550017158E-01  0.00000000000E+00 0.  1.
     999901    1    3    3    0    0  0.41314986776E-02  0.10454112643E+00  0.84690952963E-01  0.89023506666E+00  0.88000000000E+00 0. -1.
        -11    1    4    4    0    0 -0.10039180020E-01 -0.10198290306E-01  0.19935791614E-02  0.14457722487E-01  0.51100000000E-03 0. -1.
         11    1    4    4    0    0  0.36382578444E-02 -0.10104961072E+00 -0.76322494576E-01  0.12668719370E+00  0.51100000000E-03 0.  1.
</event>
<event>
 8    1  0.2107254E+004  0.1043930E+01  0.7957747E-01            NaN
         13   -1    0    0    0    0  0.00000000000E+00  0.00000000000E+00  0.74505805969E-08  0.10566000000E+00  0.10566000000E+00 0. -1.
     999900   -1    0    0    0    0 -0.00000000000E+00 -0.00000000000E+00 -0.74505805969E-08  0.93827000000E+00  0.93827000000E+00 0.  1.
     999902    2    1    2    0    0  0.27692442086E-02  0.92309767265E-02  0.94056837493E-02  0.10304635034E+01  0.10303755069E+01 0.  0.
     999903    2    3    3    0    0 -0.22153036918E-01  0.12708623455E+00 -0.34889315545E-01  0.14115308014E+00  0.45445127748E-01 0.  0.
         14    1    1    2    0    0 -0.27692442086E-02 -0.92309767265E-02 -0.94056837493E-02  0.13466496634E-01  0.00000000000E+00 0.  1.
     999901    1    3    3    0    0  0.24922281126E-01 -0.11785525783E+00  0.44294999295E-01  0.88931042323E+00  0.88000000000E+00 0. -1.
        -11    1    4    4    0    0 -0.26389286868E-01  0.10269341487E+00 -0.43957432552E-01  0.11478174470E+00  0.51100000000E-03 0.  1.
         11    1    4    4    0    0  0.42362499506E-02  0.24392819684E-01  0.90681170069E-02  0.26371335439E-01  0.51100000000E-03 0. -1.
</event>
<event>
 8    1  0.2107254E+004  0.1043930E+01  0.7957747E-01            NaN
         13   -1    0    0    0    0  0.00000000000E+00  0.00000000000E+00  0.74505805969E-08  0.10566000000E+00  0.10566000000E+00 0.  1.
     999900   -1    0    0    0    0 -0.00000000000E+00 -0.00000000000E+00 -0.74505805969E-08  0.93827000000E+00  0.93827000000E+00 0.  1.
     999902    2    1    2    0    0  0.76630824824E-02 -0.13016000554E-01  0.56440681178E-03  0.10288151841E+01  0.10287041487E+01 0.  0.
     999903    2    3    3    0    0 -0.38103690339E-01  0.76437685743E-01  0.97642243595E-01  0.13779292522E+00  0.46457200602E-01 0.  0.
         14    1    1    2    0    0 -0.76630824824E-02  0.13016000554E-01 -0.56440681178E-03  0.15114815864E-01  0.00000000000E+00 0.  1.
     999901    1    3    3    0    0  0.45766772821E-01 -0.89453686297E-01 -0.97077836783E-01  0.89102225891E+00  0.88000000000E+00 0.  1.
        -11    1    4    4    0    0 -0.48846693277E-01  0.66492669645E-01  0.84739719771E-01  0.11827237965E+00  0.51100000000E-03 0.  1.
         11    1    4    4    0    0  0.10743002938E-01  0.99450160976E-02  0.12902523823E-01  0.19520545569E-01  0.51100000000E-03 0. -1.
</event>
<event>
 8    1  0.2107254E+004  0.1043930E+01  0.7957747E-01            NaN
         13   -1    0    0    0    0  0.00000000000E+00  0.00000000000E+00  0.74505805969E-08  0.10566000000E+00  0.10566000000E+00 0.  1.
     999900   -1    0    0    0    0 -0.00000000000E+00 -0.00000000000E+00 -0.74505805969E-08  0.93827000000E+00  0.93827000000E+00 0.  1.
     999902    2    1    2    0    0 -0.98585907052E-02  0.17289796624E-02  0.10017526734E-01  0.10297690670E+01  0.10296716949E+01 0.  0.
     999903    2    3    3    0    0 -0.10781901855E+00 -0.16745806459E-01  0.77536538611E-01  0.14157067694E+00  0.46097494022E-01 0.  0.
         14    1    1    2    0    0  0.98585907052E-02 -0.17289796624E-02 -0.10017526734E-01  0.14160932993E-01  0.00000000000E+00 0. -1.
     999901    1    3    3    0    0  0.97960427846E-01  0.18474786122E-01 -0.67519011877E-01  0.88819839006E+00  0.88000000000E+00 0.  1.
        -11    1    4    4    0    0 -0.60411263586E-01 -0.31665334233E-01  0.51454529336E-01  0.85440294185E-01  0.51100000000E-03 0. -1.
         11    1    4    4    0    0 -0.47407754965E-01  0.14919527774E-01  0.26082009276E-01  0.56130382759E-01  0.51100000000E-03 0.  1.
</event>
<event>
 8    1  0.2107254E+004  0.1043930E+01  0.7957747E-01            NaN
         13   -1    0    0    0    0  0.00000000000E+00  0.00000000000E+00  0.74505805969E-08  0.10566000000E+00  0.10566000000E+00 0. -1.
     999900   -1    0    0    0    0 -0.00000000000E+00 -0.00000000000E+00 -0.74505805969E-08  0.93827000000E+00  0.93827000000E+00 0.  1.
     999902    2    1    2    0    0 -0.90791708486E-02 -0.53812792053E-02 -0.91799798367E-02  0.10299420931E+01  0.10298471021E+01 0.  0.
     999903    2    3    3    0    0 -0.92569180580E-01 -0.36518244938E-02 -0.97503312735E-01  0.14158710558E+00  0.44245038794E-01 0.  0.
         14    1    1    2    0    0  0.90791708486E-02  0.53812792053E-02  0.91799798367E-02  0.13987906884E-01  0.00000000000E+00 0. -1.
     999901    1    3    3    0    0  0.83490009732E-01 -0.17294547115E-02  0.88323332899E-01  0.88835498753E+00  0.88000000000E+00 0. -1.
        -11    1    4    4    0    0 -0.42295847201E-01  0.20277660795E-01 -0.41874355428E-01  0.62879607039E-01  0.51100000000E-03 0.  1.
         11    1    4    4    0    0 -0.50273333379E-01 -0.23929485289E-01 -0.55628957307E-01  0.78707498546E-01  0.51100000000E-03 0. -1.
</event>
<event>
 8    1  0.2107254E+004  0.1043930E+01  0.7957747E-01            NaN
         13   -1    0    0    0    0  0.00000000000E+00  0.00000000000E+00  0.74505805969E-08  0.10566000000E+00  0.10566000000E+00 0. -1.
     999900   -1    0    0    0    0 -0.00000000000E+00 -0.00000000000E+00 -0.74505805969E-08  0.93827000000E+00  0.93827000000E+00 0. -1.
     999902    2    1    2    0    0 -0.10790669867E-02  0.13948538445E-01 -0.39741825715E-03  0.10299341416E+01  0.10298390418E+01 0.  0.
     999903    2    3    3    0    0  0.11298536798E+00 -0.33288962862E-02  0.68589174617E-01  0.13972722463E+00  0.45193445324E-01 0.  0.
         14    1    1    2    0    0  0.10790669867E-02 -0.13948538445E-01  0.39741825715E-03  0.13995858372E-01  0.00000000000E+00 0.  1.
     999901    1    3    3    0    0 -0.11406443497E+00  0.17277434731E-01 -0.68986592874E-01  0.89020691700E+00  0.88000000000E+00 0. -1.
        -11    1    4    4    0    0  0.99011865626E-01  0.35661873580E-02  0.73520107758E-01  0.12337558345E+00  0.51100000000E-03 0. -1.
         11    1    4    4    0    0  0.13973502353E-01 -0.68950836442E-02 -0.49309331412E-02  0.16351641175E-01  0.51100000000E-03 0.  1.
</event>
<event>
 8    1  0.2107254E+004  0.1043930E+01  0.7957747E-01            NaN
         13   -1    0    0    0    0  0.00000000000E+00  0.00000000000E+00  0.74505805969E-08  0.10566000000E+00  0.10566000000E+00 0. -1.
     999900   -1    0    0    0    0 -0.00000000000E+00 -0.00000000000E+00 -0.74505805969E-08  0.93827000000E+00  0.93827000000E+00 0.  1.
     999902    2    1    2    0    0 -0.13880711322E-01  0.30646051428E-02  0.46085847436E-02  0.10289866066E+01  0.10288780937E+01 0.  0.
     999903    2    3    3    0    0  0.12059772809E+00 -0.43290035862E-01  0.23991251060E-01  0.13735389574E+00  0.43274395675E-01 0.  0.
         14    1    1    2    0    0  0.13880711322E-01 -0.30646051428E-02 -0.46085847436E-02  0.14943393350E-01  0.00000000000E+00 0.  1.
     999901    1    3    3    0    0 -0.13447843942E+00  0.46354641005E-01 -0.19382666316E-01  0.89163271091E+00  0.88000000000E+00 0.  1.
        -11    1    4    4    0    0  0.97500203003E-01 -0.18274896206E-01  0.27978822706E-01  0.10306957387E+00  0.51100000000E-03 0. -1.
         11    1    4    4    0    0  0.23097525092E-01 -0.25015139656E-01 -0.39875716462E-02  0.34284321869E-01  0.51100000000E-03 0.  1.
</event>
<event>
 8    1  0.2107254E+004  0.1043930E+01  0.7957747E-01            NaN
         13   -1    0    0    0    0  0.00000000000E+00  0.00000000000E+00  0.74505805969E-08  0.10566000000E+00  0.10566000000E+00 0.  1.
     999900   -1    0    0    0    0 -0.00000000000E+00 -0.00000000000E+00 -0.74505805969E-08  0.93827000000E+00  0.93827000000E+00 0.  1.
     999902    2    1    2    0    0 -0.70001361911E-02  0.11675178306E-01 -0.59137229215E-02  0.10290880387E+01  0.10289810045E+01 0.  0.
     999903    2    3    3    0    0 -0.35761384414E-02 -0.37351805571E-01 -0.12666733828E+00  0.13948318009E+00  0.44754852204E-01 0.  0.
         14    1    1    2    0    0  0.70001361911E-02 -0.11675178306E-01  0.59137229215E-02  0.14841961257E-01  0.00000000000E+00 0. -1.
     999901    1    3    3    0    0 -0.34239977497E-02  0.49026983877E-01  0.12075361536E+00  0.88960485865E+00  0.88000000000E+00 0. -1.
        -11    1    4    4    0    0 -0.91683613639E-02 -0.21002584389E-02 -0.80874541687E-01  0.81421265954E-01  0.51100000000E-03 0. -1.
         11    1    4    4    0    0  0.55922229225E-02 -0.35251547132E-01 -0.45792796596E-01  0.58061914139E-01  0.51100000000E-03 0.  1.
</event>
<event>
 8    1  0.2107254E+004  0.1043930E+01  0.7957747E-01            NaN
         13   -1    0    0    0    0  0.00000000000E+00  0.00000000000E+00  0.74505805969E-08  0.10566000000E+00  0.10566000000E+00 0. -1.
     999900   -1    0    0    0    0 -0.00000000000E+00 -0.00000000000E+00 -0.74505805969E-08  0.93827000000E+00  0.93827000000E+00 0. -1.
     999902    2    1    2    0    0 -0.30849594379E-02  0.13080354025E-01 -0.62837751413E-02  0.10290942841E+01  0.10289873406E+01 0.  0.
     999903    2    3    3    0    0 -0.11587048782E+00 -0.38119404590E-01 -0.50262754656E-01  0.13933243881E+00  0.44812108240E-01 0.  0.
         14    1    1    2    0    0  0.30849594379E-02 -0.13080354025E-01  0.62837751413E-02  0.14835715897E-01  0.00000000000E+00 0. -1.
     999901    1    3    3    0    0  0.11278552839E+00  0.51199758615E-01  0.43978979514E-01  0.88976184529E+00  0.88000000000E+00 0.  1.
        -11    1    4    4    0    0 -0.30801681858E-01 -0.31445029635E-01 -0.10846612397E-01  0.45337000513E-01  0.51100000000E-03 0.  1.
         11    1    4    4    0    0 -0.85068805966E-01 -0.66743749555E-02 -0.39416142259E-01  0.93995438299E-01  0.51100000000E-03 0. -1.
</event>
<event>
 8    1  0.2107254E+004  0.1043930E+01  0.7957747E-01            NaN
         13   -1    0    0    0    0  0.00000000000E+00  0.00000000000E+00  0.74505805969E-08  0.10566000000E+00  0.10566000000E+00 0.  1.
     999900   -1    0    0    0    0 -0.00000000000E+00 -0.00000000000E+00 -0.74505805969E-08  0.93827000000E+00  0.93827000000E+00 0.  1.
     999902    2    1    2    0    0  0.10388750949E-01 -0.85594595956E-02  0.51092931766E-02  0.10295322442E+01  0.10294315648E+01 0.  0.
     999903    2    3    3    0    0 -0.51972168809E-01  0.11368244864E+00 -0.35645062303E-01  0.13796458782E+00  0.46247719574E-01 0.  0.
         14    1    1    2    0    0 -0.10388750949E-01  0.85594595956E-02 -0.51092931766E-02  0.14397755784E-01  0.00000000000E+00 0. -1.
     999901    1    3    3    0    0  0.62360919758E-01 -0.12224190824E+00  0.40754355479E-01  0.89156765640E+00  0.88000000000E+00 0. -1.
        -11    1    4    4    0    0 -0.25744364770E-01  0.57881485114E-01  0.58846333291E-02  0.63623334296E-01  0.51100000000E-03 0. -1.
         11    1    4    4    0    0 -0.26227804038E-01  0.55800963527E-01 -0.41529695632E-01  0.74341253524E-01  0.51100000000E-03 0.  1.
</event>
<event>
 8    1  0.2107254E+004  0.1043930E+01  0.7957747E-01            NaN
         13   -1    0    0    0    0  0.00000000000E+00  0.00000000000E+00  0.74505805969E-08  0.10566000000E+00  0.10566000000E+00 0. -1.
     999900   -1    0    0    0    0 -0.00000000000E+00 -0.00000000000E+00 -0.74505805969E-08  0.93827000000E+00  0.93827000000E+00 0.  1.
     999902    2    1    2    0    0  0.70520819976E-02 -0.98785255053E-03 -0.11553793673E-01  0.10303580487E+01  0.10302686595E+01 0.  0.
     999903    2    3    3    0    0  0.97361634610E-01  0.10293705944E-01  0.89229939869E-01  0.13994216286E+00  0.45128466638E-01 0.  0.
         14    1    1    2    0    0 -0.70520819976E-02  0.98785255053E-03  0.11553793673E-01  0.13571951274E-01  0.00000000000E+00 0. -1.
     999901    1    3    3    0    0 -0.90309552612E-01 -0.11281558495E-01 -0.10078373354E+00  0.89041588587E+00  0.88000000000E+00 0.  1.
        -11    1    4    4    0    0  0.44352135500E-01  0.52153658259E-02  0.12202431124E-01  0.46297650161E-01  0.51100000000E-03 0.  1.
         11    1    4    4    0    0  0.53009499110E-01  0.50783401181E-02  0.77027508745E-01  0.93644512699E-01  0.51100000000E-03 0. -1.
</event>
<event>
 8    1  0.2107254E+004  0.1043930E+01  0.7957747E-01            NaN
         13   -1    0    0    0    0  0.00000000000E+00  0.00000000000E+00  0.74505805969E-08  0.10566000000E+00  0.10566000000E+00 0.  1.
     999900   -1    0    0    0    0 -0.00000000000E+00 -0.00000000000E+00 -0.74505805969E-08  0.93827000000E+00  0.93827000000E+00 0. -1.
     999902    2    1    2    0    0 -0.26965916807E-02 -0.52666486783E-02 -0.13822998700E-01  0.10288938939E+01  0.10287840202E+01 0.  0.
     999903    2    3    3    0    0  0.77467256537E-01 -0.54059225345E-01  0.89565947953E-01  0.13788534598E+00  0.45461345361E-01 0.  0.
         14    1    1    2    0    0  0.26965916807E-02  0.52666486783E-02  0.13822998700E-01  0.15036106147E-01  0.00000000000E+00 0.  1.
     999901    1    3    3    0    0 -0.80163848218E-01  0.48792576667E-01 -0.10338894665E+00  0.89100854788E+00  0.88000000000E+00 0. -1.
        -11    1    4    4    0    0  0.29658199655E-01 -0.39632004728E-01  0.22783164662E-01  0.54494387955E-01  0.51100000000E-03 0. -1.
         11    1    4    4    0    0  0.47809056883E-01 -0.14427220617E-01  0.66782783291E-01  0.83390958022E-01  0.51100000000E-03 0.  1.
</event>
<event>
 8    1  0.2107254E+004  0.1043930E+01  0.7957747E-01            NaN
         13   -1    0    0    0    0  0.00000000000E+00  0.00000000000E+00  0.74505805969E-08  0.10566000000E+00  0.10566000000E+00 0. -1.
     999900   -1    0    0    0    0 -0.00000000000E+00 -0.00000000000E+00 -0.74505805969E-08  0.93827000000E+00  0.93827000000E+00 0.  1.
     999902    2    1    2    0    0  0.71792502202E-02 -0.10940396960E-01  0.52592945781E-02  0.10298270181E+01  0.10297304468E+01 0.  0.
     999903    2    3    3    0    0 -0.20386125861E-02 -0.77779341833E-01 -0.10748224881E+00  0.14007251872E+00  0.44878666790E-01 0.  0.
         14    1    1    2    0    0 -0.71792502202E-02  0.10940396960E-01 -0.52592945781E-02  0.14102981913E-01  0.00000000000E+00 0. -1.
     999901    1    3    3    0    0  0.92178628063E-02  0.66838944873E-01  0.11274154339E+00  0.88975449937E+00  0.88000000000E+00 0. -1.
        -11    1    4    4    0    0 -0.11362425855E-01 -0.57541331981E-02 -0.35908533536E-01  0.38103788156E-01  0.51100000000E-03 0.  1.
         11    1    4    4    0    0  0.93238132688E-02 -0.72025208635E-01 -0.71573715274E-01  0.10196873056E+00  0.51100000000E-03 0. -1.
</event>
<event>
 8    1  0.2107254E+004  0.1043930E+01  0.7957747E-01            NaN
         13   -1    0    0    0    0  0.00000000000E+00  0.00000000000E+00  0.74505805969E-08  0.10566000000E+00  0.10566000000E+00 0.  1.
     999900   -1    0    0    0    0 -0.00000000000E+00 -0.00000000000E+00 -0.74505805969E-08  0.93827000000E+00  0.93827000000E+00 0.  1.
     999902    2    1    2    0    0 -0.12642300974E-02 -0.10622588462E-01 -0.10365365385E-01  0.10290344146E+01  0.10289265999E+01 0.  0.
     999903    2    3    3    0    0 -0.11471981667E+00 -0.31416350855E-01 -0.58697478947E-01  0.14019216550E+00  0.45396319156E-01 0.  0.
         14    1    1    2    0    0  0.12642300974E-02  0.10622588462E-01  0.10365365385E-01  0.14895585350E-01  0.00000000000E+00 0.  1.
     999901    1    3    3    0    0  0.11345558658E+00  0.20793762393E-01  0.48332113563E-01  0.88884224915E+00  0.88000000000E+00 0. -1.
        -11    1    4    4    0    0 -0.89677718090E-01 -0.21032783432E-01 -0.64517889249E-01  0.11246017186E+00  0.51100000000E-03 0. -1.
         11    1    4    4    0    0 -0.25042098584E-01 -0.10383567423E-01  0.58204103020E-02  0.27731993635E-01  0.51100000000E-03 0.  1.
</event>
<event>
 8    1  0.2107254E+004  0.1043930E+01  0.7957747E-01            NaN
         13   -1    0    0    0    0  0.00000000000E+00  0.00000000000E+00  0.74505805969E-08  0.10566000000E+00  0.10566000000E+00 0. -1.
     999900   -1    0    0    0    0 -0.00000000000E+00 -0.00000000000E+00 -0.74505805969E-08  0.93827000000E+00  0.93827000000E+00 0.  1.
     999902    2    1    2    0    0 -0.14071576737E-01  0.36404898104E-02 -0.54343825204E-03  0.10293849746E+01  0.10292822102E+01 0.  0.
     999903    2    3    3    0    0  0.56977632746E-01  0.66327812528E-01  0.97871695876E-01  0.13884399903E+00  0.45309578065E-01 0.  0.
         14    1    1    2    0    0  0.14071576737E-01 -0.36404898104E-02  0.54343825204E-03  0.14545025372E-01  0.00000000000E+00 0. -1.
     999901    1    3    3    0    0 -0.71049209483E-01 -0.62687322718E-01 -0.98415134128E-01  0.89054097560E+00  0.88000000000E+00 0.  1.
        -11    1    4    4    0    0 -0.61455481966E-02  0.82938901545E-02  0.25812278984E-02  0.10652710218E-01  0.51100000000E-03 0.  1.
         11    1    4    4    0    0  0.63123180942E-01  0.58033922374E-01  0.95290467977E-01  0.12819128881E+00  0.51100000000E-03 0. -1.
</event>
<event>
 8    1  0.2107254E+004  0.1043930E+01  0.7957747E-01            NaN
         13   -1    0    0    0    0  0.00000000000E+00  0.00000000000E+00  0.74505805969E-08  0.10566000000E+00  0.10566000000E+00 0. -1.
     999900   -1    0    0    0    0 -0.00000000000E+00 -0.00000000000E+00 -0.74505805969E-08  0.93827000000E+00  0.93827000000E+00 0. -1.
     999902    2    1    2    0    0  0.19201704079E-02  0.13861053575E-01 -0.13168245547E-03  0.10299359584E+01  0.10298408834E+01 0.  0.
     999903    2    3    3    0    0  0.10290924119E+00  0.81196377276E-01  0.26121058416E-01  0.14121663000E+00  0.45570421210E-01 0.  0.
         14    1    1    2    0    0 -0.19201704079E-02 -0.13861053575E-01  0.13168245547E-03  0.13994041620E-01  0.00000000000E+00 0.  1.
     999901    1    3    3    0    0 -0.10098907079E+00 -0.67335323701E-01 -0.26252740872E-01  0.88871932838E+00  0.88000000000E+00 0.  1.
        -11    1    4    4    0    0  0.83959349454E-01  0.59212538690E-01  0.38421824205E-01  0.10968953822E+00  0.51100000000E-03 0.  1.
         11    1    4    4    0    0  0.18949891741E-01  0.21983838586E-01 -0.12300765789E-01  0.31527091777E-01  0.51100000000E-03 0. -1.
</event>
<event>
 8    1  0.2107254E+004  0.1043930E+01  0.7957747E-01            NaN
         13   -1    0    0    0    0  0.00000000000E+00  0.00000000000E+00  0.74505805969E-08  0.10566000000E+00  0.10566000000E+00 0.  1.
     999900   -1    0    0    0    0 -0.00000000000E+00 -0.00000000000E+00 -0.74505805969E-08  0.93827000000E+00  0.93827000000E+00 0. -1.
     999902    2    1    2    0    0 -0.28628360721E-02  0.12228818649E-01 -0.65780432967E-02  0.10297521832E+01  0.10296545772E+01 0.  0.
     999903    2    3    3    0    0 -0.84700736551E-01  0.98211688306E-01 -0.32643187991E-01  0.14139983890E+00  0.45919344808E-01 0.  0.
         14    1    1    2    0    0  0.28628360721E-02 -0.12228818649E-01  0.65780432967E-02  0.14177816811E-01  0.00000000000E+00 0.  1.
     999901    1    3    3    0    0  0.81837900479E-01 -0.85982869657E-01  0.26065144694E-01  0.88835234429E+00  0.88000000000E+00 0.  1.
        -11    1    4    4    0    0 -0.46895448609E-01  0.82501813269E-01 -0.12337908923E-01  0.95698575802E-01  0.51100000000E-03 0. -1.
         11    1    4    4    0    0 -0.37805287942E-01  0.15709875037E-01 -0.20305279068E-01  0.45701263102E-01  0.51100000000E-03 0.  1.
</event>
<event>
 8    1  0.2107254E+004  0.1043930E+01  0.7957747E-01            NaN
         13   -1    0    0    0    0  0.00000000000E+00  0.00000000000E+00  0.74505805969E-08  0.10566000000E+00  0.10566000000E+00 0.  1.
     999900   -1    0    0    0    0 -0.00000000000E+00 -0.00000000000E+00 -0.74505805969E-08  0.93827000000E+00  0.93827000000E+00 0.  1.
     999902    2    1    2    0    0 -0.86565968303E-02 -0.52003115501E-02 -0.93191738594E-02  0.10301885696E+01  0.10300969187E+01 0.  0.
     999903    2    3    3    0    0 -0.79421292853E-01  0.12846082639E-01 -0.10780480475E+00  0.14168829718E+00  0.44507685086E-01 0.  0.
         14    1    1    2    0    0  0.86565968303E-02  0.52003115501E-02  0.93191738594E-02  0.13741430432E-01  0.00000000000E+00 0.  1.
     999901    1    3    3    0    0  0.70764696022E-01 -0.18046394189E-01  0.98485630893E-01  0.88850027239E+00  0.88000000000E+00 0. -1.
        -11    1    4    4    0    0 -0.29741527067E-01 -0.43232182735E-02 -0.72179035097E-01  0.78187741220E-01  0.51100000000E-03 0. -1.
         11    1    4    4    0    0 -0.49679765786E-01  0.17169300912E-01 -0.35625769655E-01  0.63500555957E-01  0.51100000000E-03 0.  1.
</event>
<event>
 8    1  0.2107254E+004  0.1043930E+01  0.7957747E-01            NaN
         13   -1    0    0    0    0  0.00000000000E+00  0.00000000000E+00  0.74505805969E-08  0.10566000000E+00  0.10566000000E+00 0. -1.
     999900   -1    0    0    0    0 -0.00000000000E+00 -0.00000000000E+00 -0.74505805969E-08  0.93827000000E+00  0.93827000000E+00 0. -1.
     999902    2    1    2    0    0  0.56594351174E-02  0.98771088485E-02 -0.65722507102E-02  0.10307853827E+01  0.10307015689E+01 0.  0.
     999903    2    3    3    0    0 -0.73550589103E-02  0.13359357864E+00 -0.13930835353E-01  0.14200571892E+00  0.45499614146E-01 0.  0.
         14    1    1    2    0    0 -0.56594351174E-02 -0.98771088485E-02  0.65722507102E-02  0.13144617319E-01  0.00000000000E+00 0. -1.
     999901    1    3    3    0    0  0.13014494028E-01 -0.12371646979E+00  0.73585846427E-02  0.88877966376E+00  0.88000000000E+00 0.  1.
        -11    1    4    4    0    0 -0.11621698215E-01  0.20547196005E-01 -0.16571951078E-01  0.28846868401E-01  0.51100000000E-03 0. -1.
         11    1    4    4    0    0  0.42666393046E-02  0.11304638263E+00  0.26411157246E-02  0.11315885052E+00  0.51100000000E-03 0.  1.
</event>
<event>
 8    1  0.2107254E+004  0.1043930E+01  0.7957747E-01            NaN
         13   -1    0    0    0    0  0.00000000000E+00  0.00000000000E+00  0.74505805969E-08  0.10566000000E+00  0.10566000000E+00 0.  1.
     999900   -1    0    0    0    0 -0.00000000000E+00 -0.00000000000E+00 -0.74505805969E-08  0.93827000000E+00  0.93827000000E+00 0. -1.
     999902    2    1    2    0    0 -0.34845817784E-02  0.10897900182E-01  0.65563075268E-02  0.10307431995E+01  0.10306588435E+01 0.  0.
     999903    2    3    3    0    0 -0.56395132247E-01 -0.57525723759E-01 -0.10377543977E+00  0.13964589107E+00  0.47349901362E-01 0.  0.
         14    1    1    2    0    0  0.34845817784E-02 -0.10897900182E-01 -0.65563075268E-02  0.13186800481E-01  0.00000000000E+00 0. -1.
     999901    1    3    3    0    0  0.52910550469E-01  0.68423623940E-01  0.11033174729E+00  0.89109730845E+00  0.88000000000E+00 0.  1.
        -11    1    4    4    0    0 -0.34239826332E-01 -0.11502332679E-01 -0.19375794218E-01  0.40992095419E-01  0.51100000000E-03 0. -1.
         11    1    4    4    0    0 -0.22155305915E-01 -0.46023391080E-01 -0.84399645548E-01  0.98653795651E-01  0.51100000000E-03 0.  1.
</event>
<event>
 8    1  0.2107254E+004  0.1043930E+01  0.7957747E-01            NaN
         13   -1    0    0    0    0  0.00000000000E+00  0.00000000000E+00  0.74505805969E-08  0.10566000000E+00  0.10566000000E+00 0.  1.
     999900   -1    0    0    0    0 -0.00000000000E+00 -0.00000000000E+00 -0.74505805969E-08  0.93827000000E+00  0.93827000000E+00 0. -1.
     999902    2    1    2    0    0  0.21327774838E-03 -0.14240362371E-01 -0.16563931398E-02  0.10295920418E+01  0.10294922027E+01 0.  0.
     999903    2    3    3    0    0  0.97720905949E-01 -0.25818537407E-01 -0.85507661105E-01  0.14016929255E+00  0.46042351521E-01 0.  0.
         14    1    1    2    0    0 -0.21327774838E-03  0.14240362371E-01  0.16563931398E-02  0.14337958226E-01  0.00000000000E+00 0. -1.
     999901    1    3    3    0    0 -0.97507628201E-01  0.11578175036E-01  0.83851267965E-01  0.88942274922E+00  0.88000000000E+00 0. -1.
        -11    1    4    4    0    0  0.19997718381E-01 -0.25906043443E-01 -0.32243410515E-01  0.45944863368E-01  0.51100000000E-03 0. -1.
         11    1    4    4    0    0  0.77723187568E-01  0.87506036072E-04 -0.53264250590E-01  0.94224429184E-01  0.51100000000E-03 0.  1.
</event>
<event>
 8    1  0.2107254E+004  0.1043930E+01  0.7957747E-01            NaN
         13   -1    0    0    0    0  0.00000000000E+00  0.00000000000E+00  0.74505805969E-08  0.10566000000E+00  0.10566000000E+00 0.  1.
     999900   -1    0    0    0    0 -0.00000000000E+00 -0.00000000000E+00 -0.74505805969E-08  0.93827000000E+00  0.93827000000E+00 0.  1.
     999902    2    1    2    0    0  0.86349398120E-02 -0.10701490721E-01  0.22560941023E-02  0.10299953651E+01  0.10299011011E+01 0.  0.
     999903    2    3    3    0    0  0.36678633029E-01 -0.65406889707E-01  0.11084028829E+00  0.14119299301E+00  0.45016757153E-01 0.  0.
         14    1    1    2    0    0 -0.86349398120E-02  0.10701490721E-01 -0.22560941023E-02  0.13934634900E-01  0.00000000000E+00 0. -1.
     999901    1    3    3    0    0 -0.28043693217E-01  0.54705398986E-01 -0.10858419419E+00  0.88880237209E+00  0.88000000000E+00 0.  1.
        -11    1    4    4    0    0  0.13842756441E-01 -0.61809563641E-01  0.90056172468E-01  0.11010185913E+00  0.51100000000E-03 0. -1.
         11    1    4    4    0    0  0.22835876588E-01 -0.35973260661E-02  0.20784115822E-01  0.31091133878E-01  0.51100000000E-03 0.  1.
</event>
<event>
 8    1  0.2107254E+004  0.1043930E+01  0.7957747E-01            NaN
         13   -1    0    0    0    0  0.00000000000E+00  0.00000000000E+00  0.74505805969E-08  0.10566000000E+00  0.10566000000E+00 0.  1.
     999900   -1    0    0    0    0 -0.00000000000E+00 -0.00000000000E+00 -0.74505805969E-08  0.93827000000E+00  0.93827000000E+00 0. -1.
     999902    2    1    2    0    0  0.74680941329E-02 -0.10408123064E-01  0.32335861417E-02  0.10307179776E+01  0.10306332965E+01 0.  0.
     999903    2    3    3    0    0 -0.96890932254E-01  0.50096085999E-01  0.74486675438E-01  0.13963517091E+00  0.45301716878E-01 0.  0.
         14    1    1    2    0    0 -0.74680941329E-02  0.10408123064E-01 -0.32335861417E-02  0.13212022367E-01  0.00000000000E+00 0. -1.
     999901    1    3    3    0    0  0.10435902639E+00 -0.60504209062E-01 -0.71253089296E-01  0.89108280672E+00  0.88000000000E+00 0. -1.
        -11    1    4    4    0    0 -0.34713168341E-01  0.35195125130E-01  0.52269526919E-01  0.71944877889E-01  0.51100000000E-03 0.  1.
         11    1    4    4    0    0 -0.62177763913E-01  0.14900960868E-01  0.22217148519E-01  0.67690293021E-01  0.51100000000E-03 0. -1.
</event>
<event>
 8    1  0.2107254E+004  0.1043930E+01  0.7957747E-01            NaN
         13   -1    0    0    0    0  0.00000000000E+00  0.00000000000E+00  0.74505805969E-08  0.10566000000E+00  0.10566000000E+00 0.  1.
     999900   -1    0    0    0    0 -0.00000000000E+00 -0.00000000000E+00 -0.74505805969E-08  0.93827000000E+00  0.93827000000E+00 0. -1.
     999902    2    1    2    0    0 -0.19108587636E-02  0.14314132793E-01  0.10823582241E-02  0.10294483814E+01  0.10293465173E+01 0.  0.
     999903    2    3    3    0    0 -0.78951358524E-01  0.85787438676E-01  0.65056837967E-01  0.14088976984E+00  0.44997038047E-01 0.  0.
         14    1    1    2    0    0  0.19108587636E-02 -0.14314132793E-01 -0.10823582241E-02  0.14481618631E-01  0.00000000000E+00 0. -1.
     999901    1    3    3    0    0  0.77040499761E-01 -0.71473305883E-01 -0.63974479743E-01  0.88855861153E+00  0.88000000000E+00 0. -1.
        -11    1    4    4    0    0 -0.34885542968E-01  0.63921758432E-01  0.53478499523E-01  0.90350447378E-01  0.51100000000E-03 0. -1.
         11    1    4    4    0    0 -0.44065815557E-01  0.21865680244E-01  0.11578338444E-01  0.50539322466E-01  0.51100000000E-03 0.  1.
</event>
<event>
 8    1  0.2107254E+004  0.1043930E+01  0.7957747E-01            NaN
         13   -1    0    0    0    0  0.00000000000E+00  0.00000000000E+00  0.74505805969E-08  0.10566000000E+00  0.10566000000E+00 0. -1.
     999900   -1    0    0    0    0 -0.00000000000E+00 -0.00000000000E+00 -0.74505805969E-08  0.93827000000E+00  0.93827000000E+00 0.  1.
     999902    2    1    2    0    0  0.98073098005E-02 -0.78231102788E-02 -0.56912882362E-02  0.10301541101E+01  0.10300619959E+01 0.  0.
     999903    2    3    3    0    0  0.11052565832E+00  0.66753791181E-01  0.31493098220E-01  0.14049767163E+00  0.45560846289E-01 0.  0.
         14    1    1    2    0    0 -0.98073098005E-02  0.78231102788E-02  0.56912882362E-02  0.13775889871E-01  0.00000000000E+00 0. -1.
     999901    1    3    3    0    0 -0.10071834852E+00 -0.74576901460E-01 -0.37184386456E-01  0.88965643850E+00  0.88000000000E+00 0.  1.
        -11    1    4    4    0    0  0.97783138259E-01  0.72534764539E-01  0.22376248095E-01  0.12378930404E+00  0.51100000000E-03 0.  1.
         11    1    4    4    0    0  0.12742520062E-01 -0.57809733577E-02  0.91168501245E-02  0.16708367595E-01  0.51100000000E-03 0. -1.
</event>
<event>
 8    1  0.2107254E+004  0.1043930E+01  0.7957747E-01            NaN
         13   -1    0    0    0    0  0.00000000000E+00  0.00000000000E+00  0.74505805969E-08  0.10566000000E+00  0.10566000000E+00 0. -1.
     999900   -1    0    0    0    0 -0.00000000000E+00 -0.00000000000E+00 -0.74505805969E-08  0.93827000000E+00  0.93827000000E+00 0. -1.
     999902    2    1    2    0    0 -0.31065145785E-02 -0.39560924971E-02 -0.13603151110E-01  0.10294266617E+01  0.10293244897E+01 0.  0.
     999903    2    3    3    0    0  0.30283079016E-01 -0.85220587312E-01  0.94681430157E-01  0.13844723795E+00  0.44982786726E-01 0.  0.
         14    1    1    2    0    0  0.31065145785E-02  0.39560924971E-02  0.13603151110E-01  0.14503338264E-01  0.00000000000E+00 0. -1.
     999901    1    3    3    0    0 -0.33389593594E-01  0.81264494815E-01 -0.10828458127E+00  0.89097942379E+00  0.88000000000E+00 0. -1.
        -11    1    4    4    0    0 -0.32569564690E-02 -0.52150642322E-01  0.62164108183E-01  0.81209203464E-01  0.51100000000E-03 0.  1.
         11    1    4    4    0    0  0.33540035485E-01 -0.33069944990E-01  0.32517321974E-01  0.57238034482E-01  0.51100000000E-03 0. -1.
</event>
<event>
 8    1  0.2107254E+004  0.1043930E+01  0.7957747E-01            NaN
         13   -1    0    0    0    0  0.00000000000E+00  0.00000000000E+00  0.74505805969E-08  0.10566000000E+00  0.10566000000E+00 0.  1.
     999900   -1    0    0    0    0 -0.00000000000E+00 -0.00000000000E+00 -0.74505805969E-08  0.93827000000E+00  0.93827000000E+00 0.  1.
     999902    2    1    2    0    0 -0.54543719733E-02  0.13209306174E-01 -0.80760960122E-03  0.10296160845E+01  0.10295165823E+01 0.  0.
     999903    2    3    3    0    0 -0.10695827365E+00  0.23496026801E-01 -0.76898004021E-01  0.14045996392E+00  0.42703195012E-01 0.  0.
         14    1    1    2    0    0  0.54543719733E-02 -0.13209306174E-01  0.80760960122E-03  0.14313915484E-01  0.00000000000E+00 0. -1.
     999901    1    3    3    0    0  0.10150390167E+00 -0.10286720627E-01  0.76090394420E-01  0.88915612060E+00  0.88000000000E+00 0. -1.
        -11    1    4    4    0    0 -0.82670348576E-01  0.50649045893E-02 -0.38255349944E-01  0.91234712213E-01  0.51100000000E-03 0.  1.
         11    1    4    4    0    0 -0.24287925070E-01  0.18431122212E-01 -0.38642654077E-01  0.49225251703E-01  0.51100000000E-03 0. -1.
</event>
<event>
 8    1  0.2107254E+004  0.1043930E+01  0.7957747E-01            NaN
         13   -1    0    0    0    0  0.00000000000E+00  0.00000000000E+00  0.74505805969E-08  0.10566000000E+00  0.10566000000E+00 0.  1.
     999900   -1    0    0    0    0 -0.00000000000E+00 -0.00000000000E+00 -0.74505805969E-08  0.93827000000E+00  0.93827000000E+00 0. -1.
     999902    2    1    2    0    0 -0.26238350075E-02 -0.74450811597E-02  0.11098357639E-01  0.10303106283E+01  0.10302206091E+01 0.  0.
     999903    2    3    3    0    0  0.10964978417E+00 -0.74891191225E-01 -0.12390516645E-01  0.14030721787E+00  0.43598449435E-01 0.  0.
         14    1    1    2    0    0  0.26238350075E-02  0.74450811597E-02 -0.11098357639E-01  0.13619371715E-01  0.00000000000E+00 0. -1.
     999901    1    3    3    0    0 -0.11227361918E+00  0.67446110066E-01  0.23488874284E-01  0.89000341041E+00  0.88000000000E+00 0. -1.
        -11    1    4    4    0    0  0.54533605124E-01 -0.40219434511E-01  0.15428739141E-01  0.69496935995E-01  0.51100000000E-03 0. -1.
         11    1    4    4    0    0  0.55116179048E-01 -0.34671756714E-01 -0.27819255786E-01  0.70810281880E-01  0.51100000000E-03 0.  1.
</event>
<event>
 8    1  0.2107254E+004  0.1043930E+01  0.7957747E-01            NaN
         13   -1    0    0    0    0  0.00000000000E+00  0.00000000000E+00  0.74505805969E-08  0.10566000000E+00  0.10566000000E+00 0. -1.
     999900   -1    0    0    0    0 -0.00000000000E+00 -0.00000000000E+00 -0.74505805969E-08  0.93827000000E+00  0.93827000000E+00 0.  1.
     999902    2    1    2    0    0  0.10874534170E-01 -0.11703143605E-02  0.86647887865E-02  0.10299763735E+01  0.10298818506E+01 0.  0.
     999903    2    3    3    0    0  0.34641380605E-01  0.12211414044E+00  0.40108865137E-01  0.14050875194E+00  0.44967763583E-01 0.  0.
         14    1    1    2    0    0 -0.10874534170E-01  0.11703143605E-02 -0.86647887865E-02  0.13953626548E-01  0.00000000000E+00 0. -1.
     999901    1    3    3    0    0 -0.23766846435E-01 -0.12328445481E+00 -0.31444076351E-01  0.88946762152E+00  0.88000000000E+00 0.  1.
        -11    1    4    4    0    0  0.27330526689E-01  0.30313510371E-01  0.22961367053E-01  0.46833237108E-01  0.51100000000E-03 0.  1.
         11    1    4    4    0    0  0.73108539154E-02  0.91800630074E-01  0.17147498084E-01  0.93675514829E-01  0.51100000000E-03 0. -1.
</event>
<event>
 8    1  0.2107254E+004  0.1043930E+01  0.7957747E-01            NaN
         13   -1    0    0    0    0  0.00000000000E+00  0.00000000000E+00  0.74505805969E-08  0.10566000000E+00  0.10566000000E+00 0.  1.
     999900   -1    0    0    0    0 -0.00000000000E+00 -0.00000000000E+00 -0.74505805969E-08  0.93827000000E+00  0.93827000000E+00 0. -1.
     999902    2    1    2    0    0 -0.12690604645E-01  0.51101425339E-02 -0.14151715040E-02  0.10301761746E+01  0.10300843572E+01 0.  0.
     999903    2    3    3    0    0  0.65076799571E-01 -0.77531986394E-01  0.82883545768E-01  0.13889408436E+00  0.46644246749E-01 0.  0.
         14    1    1    2    0    0  0.12690604645E-01 -0.51101425339E-02  0.14151715040E-02  0.13753825409E-01  0.00000000000E+00 0.  1.
     999901    1    3    3    0    0 -0.77767404217E-01  0.82642128928E-01 -0.84298717272E-01  0.89128209023E+00  0.88000000000E+00 0. -1.
        -11    1    4    4    0    0  0.51423091068E-01 -0.31924146505E-01  0.62798519631E-01  0.87220413975E-01  0.51100000000E-03 0. -1.
         11    1    4    4    0    0  0.13653708503E-01 -0.45607839889E-01  0.20085026136E-01  0.51673670386E-01  0.51100000000E-03 0.  1.
</event>
<event>
 8    1  0.2107254E+004  0.1043930E+01  0.7957747E-01            NaN
         13   -1    0    0    0    0  0.00000000000E+00  0.00000000000E+00  0.74505805969E-08  0.10566000000E+00  0.10566000000E+00 0.  1.
     999900   -1    0    0    0    0 -0.00000000000E+00 -0.00000000000E+00 -0.74505805969E-08  0.93827000000E+00  0.93827000000E+00 0.  1.
     999902    2    1    2    0    0  0.57651969635E-02  0.68452718954E-02 -0.13627477635E-01  0.10276265221E+01  0.10274971852E+01 0.  0.
     999903    2    3    3    0    0 -0.64067564778E-01  0.10747664564E-01  0.11099991607E+00  0.13609759354E+00  0.44513014395E-01 0.  0.
         14    1    1    2    0    0 -0.57651969635E-02 -0.68452718954E-02  0.13627477635E-01  0.16303477851E-01  0.00000000000E+00 0.  1.
     999901    1    3    3    0    0  0.69832761741E-01 -0.39023926683E-02 -0.12462739370E+00  0.89152892861E+00  0.88000000000E+00 0.  1.
        -11    1    4    4    0    0 -0.20458247148E-01 -0.11152475831E-01  0.13167707486E-01  0.26768773505E-01  0.51100000000E-03 0.  1.
         11    1    4    4    0    0 -0.43609317630E-01  0.21900140395E-01  0.97832208583E-01  0.10932882004E+00  0.51100000000E-03 0. -1.
</event>
<event>
 8    1  0.2107254E+004  0.1043930E+01  0.7957747E-01            NaN
         13   -1    0    0    0    0  0.00000000000E+00  0.00000000000E+00  0.74505805969E-08  0.10566000000E+00  0.10566000000E+00 0. -1.
     999900   -1    0    0    0    0 -0.00000000000E+00 -0.00000000000E+00 -0.74505805969E-08  0.93827000000E+00  0.93827000000E+00 0.  1.
     999902    2    1    2    0    0  0.54259784211E-02  0.84219807292E-02  0.99965818820E-02  0.10297771681E+01  0.10296799082E+01 0.  0.
     999903    2    3    3    0    0 -0.11926503600E+00 -0.14782701042E-01  0.54216235663E-01  0.13958523144E+00  0.45847132568E-01 0.  0.
         14    1    1    2    0    0 -0.54259784211E-02 -0.84219807292E-02 -0.99965818820E-02  0.14152831892E-01  0.00000000000E+00 0.  1.
     999901    1    3    3    0    0  0.12469101442E+00  0.23204681772E-01 -0.44219653781E-01  0.89019193667E+00  0.88000000000E+00 0.  1.
        -11    1    4    4    0    0 -0.10688393392E+00 -0.24014327269E-01  0.35165147680E-01  0.11505525619E+00  0.51100000000E-03 0. -1.
         11    1    4    4    0    0 -0.12381102079E-01  0.92316262263E-02  0.19051087983E-01  0.24529975251E-01  0.51100000000E-03 0.  1.
</event>
<event>
 8    1  0.2107254E+004  0.1043930E+01  0.7957747E-01            NaN
         13   -1    0    0    0    0  0.00000000000E+00  0.00000000000E+00  0.74505805969E-08  0.10566000000E+00  0.10566000000E+00 0.  1.
     999900   -1    0    0    0    0 -0.00000000000E+00 -0.00000000000E+00 -0.74505805969E-08  0.93827000000E+00  0.93827000000E+00 0. -1.
     999902    2    1    2    0    0  0.10078784093E-01 -0.70127591732E-02  0.83226195779E-02  0.10290967038E+01  0.10289897954E+01 0.  0.
     999903    2    3    3    0    0  0.61386563870E-01  0.11275800702E+00 -0.34298355754E-01  0.13848226855E+00  0.38965152723E-01 0.  0.
         14    1    1    2    0    0 -0.10078784093E-01  0.70127591732E-02 -0.83226195779E-02  0.14833296217E-01  0.00000000000E+00 0. -1.
     999901    1    3    3    0    0 -0.51307779777E-01 -0.11977076619E+00  0.42620975331E-01  0.89061443523E+00  0.88000000000E+00 0. -1.
        -11    1    4    4    0    0  0.42098783299E-02  0.46119830356E-01 -0.10119550605E-01  0.47407048559E-01  0.51100000000E-03 0.  1.
         11    1    4    4    0    0  0.57176685540E-01  0.66638176661E-01 -0.24178805148E-01  0.91075219996E-01  0.51100000000E-03 0. -1.
</event>
<event>
 8    1  0.2107254E+004  0.1043930E+01  0.7957747E-01            NaN
         13   -1    0    0    0    0  0.00000000000E+00  0.00000000000E+00  0.74505805969E-08  0.10566000000E+00  0.10566000000E+00 0.  1.
     999900   -1    0    0    0    0 -0.00000000000E+00 -0.00000000000E+00 -0.74505805969E-08  0.93827000000E+00  0.93827000000E+00 0. -1.
     999902    2    1    2    0    0  0.12226036895E-01 -0.74228968780E-02 -0.27568750784E-02  0.10293637467E+01  0.10292606799E+01 0.  0.
     999903    2    3    3    0    0 -0.11697642981E+00 -0.51731097903E-01  0.27311705638E-01  0.13831907122E+00  0.45018269361E-01 0.  0.
         14    1    1    2    0    0 -0.12226036895E-01  0.74228968780E-02  0.27568750784E-02  0.14566253342E-01  0.00000000000E+00 0. -1.
     999901    1    3    3    0    0  0.12920246671E+00  0.44308201025E-01 -0.30068580717E-01  0.89104467544E+00  0.88000000000E+00 0. -1.
        -11    1    4    4    0    0 -0.90845751268E-02 -0.15104237770E-01 -0.75253593405E-02  0.19171845452E-01  0.51100000000E-03 0.  1.
         11    1    4    4    0    0 -0.10789185469E+00 -0.36626860133E-01  0.34837064979E-01  0.11914722577E+00  0.51100000000E-03 0. -1.
</event>
<event>
 8    1  0.2107254E+004  0.1043930E+01  0.7957747E-01            NaN
         13   -1    0    0    0    0  0.00000000000E+00  0.00000000000E+00  0.74505805969E-08  0.10566000000E+00  0.10566000000E+00 0.  1.
     999900   -1    0    0    0    0 -0.00000000000E+00 -0.00000000000E+00 -0.74505805969E-08  0.93827000000E+00  0.93827000000E+00 0.  1.
     999902    2    1    2    0    0  0.51747299456E-02 -0.23070327107E-02 -0.12751134615E-01  0.10299768045E+01  0.10298822875E+01 0.  0.
     999903    2    3    3    0    0  0.30069951937E-01  0.67652358174E-01  0.10820801243E+00  0.13860415310E+00  0.44956576010E-01 0.  0.
         14    1    1    2    0    0 -0.51747299456E-02  0.23070327107E-02  0.12751134615E-01  0.13953195473E-01  0.00000000000E+00 0.  1.
     999901    1    3    3    0    0 -0.24895221992E-01 -0.69959390885E-01 -0.12095914705E+00  0.89137265142E+00  0.88000000000E+00 0.  1.
        -11    1    4    4    0    0  0.22032010334E-01  0.49366755857E-01  0.39245400364E-01  0.66805303936E-01  0.51100000000E-03 0.  1.
         11    1    4    4    0    0  0.80379416032E-02  0.18285602317E-01  0.68962612070E-01  0.71798849168E-01  0.51100000000E-03 0. -1.
</event>
<event>
 7    1  0.4819088E+004  0.1043930E+01  0.7957747E-01            NaN
         13   -1    0    0    0    0  0.00000000000E+00  0.00000000000E+00  0.74505805969E-08  0.10566000000E+00  0.10566000000E+00 0.  1.
     999900   -1    0    0    0    0 -0.00000000000E+00 -0.00000000000E+00 -0.74505805969E-08  0.93827000000E+00  0.93827000000E+00 0.  1.
     999903    2    1    2    0    0 -0.60532548798E-02  0.35364372973E-01 -0.73596264529E-01  0.92565246629E-01  0.43181407580E-01 0.  0.
         14    1    1    2    0    0  0.36202261893E-01 -0.18165307094E-01  0.57749613820E-01  0.70537933372E-01  0.00000000000E+00 0.  1.
     999901    1    1    2    0    0 -0.30149007013E-01 -0.17199065878E-01  0.15846650709E-01  0.88082682000E+00  0.88000000000E+00 0. -1.
        -11    1    3    3    0    0  0.28487653829E-02  0.38164903625E-01 -0.31872588459E-01  0.49807613364E-01  0.51100000000E-03 0. -1.
         11    1    3    3    0    0 -0.89020202627E-02 -0.28005306525E-02 -0.41723676070E-01  0.42757633266E-01  0.51100000000E-03 0.  1.
</event>
<event>
 8    1  0.2107254E+004  0.1043930E+01  0.7957747E-01            NaN
         13   -1    0    0    0    0  0.00000000000E+00  0.00000000000E+00  0.74505805969E-08  0.10566000000E+00  0.10566000000E+00 0. -1.
     999900   -1    0    0    0    0 -0.00000000000E+00 -0.00000000000E+00 -0.74505805969E-08  0.93827000000E+00  0.93827000000E+00 0. -1.
     999902    2    1    2    0    0  0.67652904245E-02 -0.73881315507E-02  0.10769346473E-01  0.10292217552E+01  0.10291166546E+01 0.  0.
     999903    2    3    3    0    0 -0.70064878758E-01 -0.37623039022E-01  0.10562020135E+00  0.14028210076E+00  0.46892009554E-01 0.  0.
         14    1    1    2    0    0 -0.67652904245E-02  0.73881315507E-02 -0.10769346473E-01  0.14708244824E-01  0.00000000000E+00 0.  1.
     999901    1    3    3    0    0  0.76830169182E-01  0.30234907471E-01 -0.94850854874E-01  0.88893965442E+00  0.88000000000E+00 0. -1.
        -11    1    4    4    0    0 -0.58577771539E-01 -0.13304450948E-01  0.92645501466E-01  0.11041654675E+00  0.51100000000E-03 0.  1.
         11    1    4    4    0    0 -0.11487107219E-01 -0.24318588074E-01  0.12974699881E-01  0.29865554007E-01  0.51100000000E-03 0. -1.
</event>
<event>
 8    1  0.2107254E+004  0.1043930E+01  0.7957747E-01            NaN
         13   -1    0    0    0    0  0.00000000000E+00  0.00000000000E+00  0.74505805969E-08  0.10566000000E+00  0.10566000000E+00 0. -1.
     999900   -1    0    0    0    0 -0.00000000000E+00 -0.00000000000E+00 -0.74505805969E-08  0.93827000000E+00  0.93827000000E+00 0.  1.
     999902    2    1    2    0    0 -0.25497069556E-02 -0.64091331132E-02 -0.98806600369E-02  0.10318798782E+01  0.10318095161E+01 0.  0.
     999903    2    3    3    0    0  0.51169578613E-01  0.18589034341E-01 -0.12399824358E+00  0.14253546072E+00  0.44462514315E-01 0.  0.
         14    1    1    2    0    0  0.25497069556E-02  0.64091331132E-02  0.98806600369E-02  0.12050121808E-01  0.00000000000E+00 0. -1.
     999901    1    3    3    0    0 -0.53719285569E-01 -0.24998167454E-01  0.11411758354E+00  0.88934441747E+00  0.88000000000E+00 0. -1.
        -11    1    4    4    0    0  0.39365074990E-01  0.29785057392E-01 -0.66772226726E-01  0.83039449395E-01  0.51100000000E-03 0. -1.
         11    1    4    4    0    0  0.11804503623E-01 -0.11196023051E-01 -0.57226016850E-01  0.59496011324E-01  0.51100000000E-03 0.  1.
</event>
<event>
 8    1  0.2107254E+004  0.1043930E+01  0.7957747E-01            NaN
         13   -1    0    0    0    0  0.00000000000E+00  0.00000000000E+00  0.74505805969E-08  0.10566000000E+00  0.10566000000E+00 0.  1.
     999900   -1    0    0    0    0 -0.00000000000E+00 -0.00000000000E+00 -0.74505805969E-08  0.93827000000E+00  0.93827000000E+00 0. -1.
     999902    2    1    2    0    0  0.23467099969E-02 -0.10916250617E-01 -0.67175842366E-02  0.10308993625E+01  0.10308170052E+01 0.  0.
     999903    2    3    3    0    0 -0.64779254116E-01  0.41202740547E-01 -0.10907711987E+00  0.14089949800E+00  0.45396397050E-01 0.  0.
         14    1    1    2    0    0 -0.23467099969E-02  0.10916250617E-01  0.67175842366E-02  0.13030637487E-01  0.00000000000E+00 0.  1.
     999901    1    3    3    0    0  0.67125964113E-01 -0.52118991164E-01  0.10235953563E+00  0.88999986451E+00  0.88000000000E+00 0.  1.
        -11    1    4    4    0    0 -0.35923136012E-01 -0.14899977100E-02 -0.31718255273E-01  0.47947894977E-01  0.51100000000E-03 0.  1.
         11    1    4    4    0    0 -0.28856118104E-01  0.42692738257E-01 -0.77358864597E-01  0.92951603023E-01  0.51100000000E-03 0. -1.
</event>
<event>
 8    1  0.2107254E+004  0.1043930E+01  0.7957747E-01            NaN
         13   -1    0    0    0    0  0.00000000000E+00  0.00000000000E+00  0.74505805969E-08  0.10566000000E+00  0.10566000000E+00 0. -1.
     999900   -1    0    0    0    0 -0.00000000000E+00 -0.00000000000E+00 -0.74505805969E-08  0.93827000000E+00  0.93827000000E+00 0.  1.
     999902    2    1    2    0    0 -0.82567133881E-02  0.10062093015E-01  0.33209653565E-02  0.10304969124E+01  0.10304093549E+01 0.  0.
     999903    2    3    3    0    0  0.17817611950E-01  0.10500223888E-01  0.13276321883E+00  0.14064559931E+00  0.41561885599E-01 0.  0.
         14    1    1    2    0    0  0.82567133881E-02 -0.10062093015E-01 -0.33209653565E-02  0.13433087609E-01  0.00000000000E+00 0. -1.
     999901    1    3    3    0    0 -0.26074325339E-01 -0.43813087259E-03 -0.12944225347E+00  0.88985131308E+00  0.88000000000E+00 0.  1.
        -11    1    4    4    0    0 -0.13907720932E-02 -0.68037886021E-02  0.92706173664E-01  0.92967314378E-01  0.51100000000E-03 0.  1.
         11    1    4    4    0    0  0.19208384044E-01  0.17304012490E-01  0.40057045167E-01  0.47678284935E-01  0.51100000000E-03 0. -1.
</event>
<event>
 8    1  0.2107254E+004  0.1043930E+01  0.7957747E-01            NaN
         13   -1    0    0    0    0  0.00000000000E+00  0.00000000000E+00  0.74505805969E-08  0.10566000000E+00  0.10566000000E+00 0. -1.
     999900   -1    0    0    0    0 -0.00000000000E+00 -0.00000000000E+00 -0.74505805969E-08  0.93827000000E+00  0.93827000000E+00 0. -1.
     999902    2    1    2    0    0 -0.39927339791E-02 -0.12932803210E-01  0.14796741651E-02  0.10303142459E+01  0.10302242749E+01 0.  0.
     999903    2    3    3    0    0  0.30521687836E-01 -0.11041478082E+00  0.70836519522E-01  0.14154861131E+00  0.43533890409E-01 0.  0.
         14    1    1    2    0    0  0.39927339791E-02  0.12932803210E-01 -0.14796741651E-02  0.13615754078E-01  0.00000000000E+00 0.  1.
     999901    1    3    3    0    0 -0.34514421815E-01  0.97481977608E-01 -0.69356845357E-01  0.88876563461E+00  0.88000000000E+00 0. -1.
        -11    1    4    4    0    0  0.14654854391E-01 -0.79594081335E-01  0.26280414743E-01  0.85093500697E-01  0.51100000000E-03 0.  1.
         11    1    4    4    0    0  0.15866833446E-01 -0.30820699483E-01  0.44556104778E-01  0.56455110612E-01  0.51100000000E-03 0. -1.
</event>
<event>
 8    1  0.2107254E+004  0.1043930E+01  0.7957747E-01            NaN
         13   -1    0    0    0    0  0.00000000000E+00  0.00000000000E+00  0.74505805969E-08  0.10566000000E+00  0.10566000000E+00 0.  1.
     999900   -1    0    0    0    0 -0.00000000000E+00 -0.00000000000E+00 -0.74505805969E-08  0.93827000000E+00  0.93827000000E+00 0. -1.
     999902    2    1    2    0    0 -0.11646724695E-01 -0.41562758879E-02  0.22386929738E-02  0.10313628774E+01  0.10312863095E+01 0.  0.
     999903    2    3    3    0    0 -0.61946390850E-01 -0.48606554790E-01 -0.10912588769E+00  0.14180795857E+00  0.44733491268E-01 0.  0.
         14    1    1    2    0    0  0.11646724695E-01  0.41562758879E-02 -0.22386929738E-02  0.12567122646E-01  0.00000000000E+00 0.  1.
     999901    1    3    3    0    0  0.50299666155E-01  0.44450278902E-01  0.11136458066E+00  0.88955491879E+00  0.88000000000E+00 0.  1.
        -11    1    4    4    0    0 -0.10326022307E-01 -0.13864082627E-01 -0.13352708877E-02  0.17345996458E-01  0.51100000000E-03 0. -1.
         11    1    4    4    0    0 -0.51620368543E-01 -0.34742472163E-01 -0.10779061680E+00  0.12446196211E+00  0.51100000000E-03 0.  1.
</event>
<event>
 8    1  0.2107254E+004  0.1043930E+01  0.7957747E-01            NaN
         13   -1    0    0    0    0  0.00000000000E+00  0.00000000000E+00  0.74505805969E-08  0.10566000000E+00  0.10566000000E+00 0. -1.
     999900   -1    0    0    0    0 -0.00000000000E+00 -0.00000000000E+00 -0.74505805969E-08  0.93827000000E+00  0.93827000000E+00 0. -1.
     999902    2    1    2    0    0 -0.71398781210E-02 -0.23812449073E-01 -0.12738926886E-01  0.10159963134E+01  0.10156122380E+01 0.  0.
     999903    2    3    3    0    0  0.86582721432E-01  0.61478035120E-01 -0.51964388416E-01  0.12605416402E+00  0.43740577848E-01 0.  0.
         14    1    1    2    0    0  0.71398781210E-02  0.23812449073E-01  0.12738926886E-01  0.27933686628E-01  0.00000000000E+00 0. -1.
     999901    1    3    3    0    0 -0.93722599553E-01 -0.85290484193E-01  0.39225461530E-01  0.88994214935E+00  0.88000000000E+00 0.  1.
        -11    1    4    4    0    0  0.71140455752E-01  0.67585950688E-01 -0.46285402263E-01  0.10849619698E+00  0.51100000000E-03 0. -1.
         11    1    4    4    0    0  0.15442265681E-01 -0.61079155679E-02 -0.56789861526E-02  0.17557967042E-01  0.51100000000E-03 0.  1.
</event>
<event>
 8    1  0.2107254E+004  0.1043930E+01  0.7957747E-01            NaN
         13   -1    0    0    0    0  0.00000000000E+00  0.00000000000E+00  0.74505805969E-08  0.10566000000E+00  0.10566000000E+00 0. -1.
     999900   -1    0    0    0    0 -0.00000000000E+00 -0.00000000000E+00 -0.74505805969E-08  0.93827000000E+00  0.93827000000E+00 0.  1.
     999902    2    1    2    0    0 -0.44609303968E-02 -0.51799371186E-02  0.11944860301E-01  0.10301673209E+01  0.10300753845E+01 0.  0.
     999903    2    3    3    0    0  0.10407954591E+00 -0.59271876751E-01  0.58513363744E-01  0.14063058841E+00  0.44804479787E-01 0.  0.
         14    1    1    2    0    0  0.44609303968E-02  0.51799371186E-02 -0.11944860301E-01  0.13762679106E-01  0.00000000000E+00 0.  1.
     999901    1    3    3    0    0 -0.10854047631E+00  0.54091939632E-01 -0.46568503443E-01  0.88953673249E+00  0.88000000000E+00 0.  1.
        -11    1    4    4    0    0  0.39065531940E-01 -0.30303455408E-01  0.47578897420E-01  0.68617984495E-01  0.51100000000E-03 0. -1.
         11    1    4    4    0    0  0.65014013970E-01 -0.28968421342E-01  0.10934466324E-01  0.72012603913E-01  0.51100000000E-03 0.  1.
</event>
<event>
 8    1  0.2107254E+004  0.1043930E+01  0.7957747E-01            NaN
         13   -1    0    0    0    0  0.00000000000E+00  0.00000000000E+00  0.74505805969E-08  0.10566000000E+00  0.10566000000E+00 0.  1.
     999900   -1    0    0    0    0 -0.00000000000E+00 -0.00000000000E+00 -0.74505805969E-08  0.93827000000E+00  0.93827000000E+00 0. -1.
     999902    2    1    2    0    0 -0.11556666351E-01 -0.64208626894E-02 -0.56370244513E-02  0.10295578026E+01  0.10294574827E+01 0.  0.
     999903    2    3    3    0    0 -0.12950457573E-01 -0.79918315501E-01 -0.10616650414E+00  0.14078899431E+00  0.44671722742E-01 0.  0.
         14    1    1    2    0    0  0.11556666351E-01  0.64208626894E-02  0.56370244513E-02  0.14372197448E-01  0.00000000000E+00 0.  1.
     999901    1    3    3    0    0  0.13937912223E-02  0.73497452812E-01  0.10052947969E+00  0.88876880825E+00  0.88000000000E+00 0.  1.
        -11    1    4    4    0    0 -0.16746079672E-01 -0.52725534098E-01 -0.37500340794E-01  0.66835243778E-01  0.51100000000E-03 0. -1.
         11    1    4    4    0    0  0.37956220988E-02 -0.27192781404E-01 -0.68666163346E-01  0.73953750528E-01  0.51100000000E-03 0.  1.
</event>
<event>
 8    1  0.2107254E+004  0.1043930E+01  0.7957747E-01            NaN
         13   -1    0    0    0    0  0.00000000000E+00  0.00000000000E+00  0.74505805969E-08  0.10566000000E+00  0.10566000000E+00 0. -1.
     999900   -1    0    0    0    0 -0.00000000000E+00 -0.00000000000E+00 -0.74505805969E-08  0.93827000000E+00  0.93827000000E+00 0. -1.
     999902    2    1    2    0    0 -0.99770310644E-02 -0.11231866345E-01 -0.54861514934E-02  0.10279364442E+01  0.10278120156E+01 0.  0.
     999903    2    3    3    0    0 -0.99622454047E-01 -0.10441636025E-01 -0.86138816504E-01  0.13971249790E+00  0.45453550433E-01 0.  0.
         14    1    1    2    0    0  0.99770310644E-02  0.11231866345E-01  0.54861514934E-02  0.15993555848E-01  0.00000000000E+00 0.  1.
     999901    1    3    3    0    0  0.89645422982E-01 -0.79023032012E-03  0.80652665011E-01  0.88822394625E+00  0.88000000000E+00 0.  1.
        -11    1    4    4    0    0 -0.20697921732E-01  0.16605358148E-01 -0.19497388429E-01  0.32932524346E-01  0.51100000000E-03 0. -1.
         11    1    4    4    0    0 -0.78924532315E-01 -0.27046994173E-01 -0.66641428076E-01  0.10677997355E+00  0.51100000000E-03 0.  1.
</event>
<event>
 8    1  0.2167962E+004  0.1043930E+01  0.7957747E-01            NaN
         13   -1    0    0    0    0  0.00000000000E+00  0.00000000000E+00  0.74505805969E-08  0.10566000000E+00  0.10566000000E+00 0. -1.
     999900   -1    0    0    0    0 -0.00000000000E+00 -0.00000000000E+00 -0.74505805969E-08  0.93827000000E+00  0.93827000000E+00 0.  1.
     999902    2    1    2    0    0  0.19476141763E-02  0.12725879112E-01  0.35346710137E-03  0.10310510971E+01  0.10309706585E+01 0.  0.
     999903    2    3    3    0    0 -0.95936374763E-01 -0.47777317542E-01  0.79343083529E-01  0.14005094472E+00  0.42807500956E-01 0.  0.
         14    1    1    2    0    0 -0.19476141763E-02 -0.12725879112E-01 -0.35346710137E-03  0.12878902870E-01  0.00000000000E+00 0.  1.
     999901    1    3    3    0    0  0.97883988939E-01  0.60503196654E-01 -0.78989616428E-01  0.89100015241E+00  0.88000000000E+00 0.  1.
        -11    1    4    4    0    0 -0.39405088140E-01 -0.20419214318E-01  0.59409167022E-01  0.74158044283E-01  0.51100000000E-03 0. -1.
         11    1    4    4    0    0 -0.56531286623E-01 -0.27358103224E-01  0.19933916507E-01  0.65892900434E-01  0.51100000000E-03 0.  1.
</event>
<event>
 8    1  0.2107254E+004  0.1043930E+01  0.7957747E-01            NaN
         13   -1    0    0    0    0  0.00000000000E+00  0.00000000000E+00  0.74505805969E-08  0.10566000000E+00  0.10566000000E+00 0. -1.
     999900   -1    0    0    0    0 -0.00000000000E+00 -0.00000000000E+00 -0.74505805969E-08  0.93827000000E+00  0.93827000000E+00 0.  1.
     999902    2    1    2    0    0  0.41814200311E-02  0.12071232761E-01 -0.44405969637E-02  0.10304052880E+01  0.10303165240E+01 0.  0.
     999903    2    3    3    0    0  0.83117818559E-01  0.57887067525E-01 -0.88335069565E-01  0.14171618134E+00  0.44954501328E-01 0.  0.
         14    1    1    2    0    0 -0.41814200311E-02 -0.12071232761E-01  0.44405969637E-02  0.13524712021E-01  0.00000000000E+00 0. -1.
     999901    1    3    3    0    0 -0.78936398528E-01 -0.45815834765E-01  0.83894472601E-01  0.88868910664E+00  0.88000000000E+00 0. -1.
        -11    1    4    4    0    0  0.53899304439E-01  0.55633537508E-01 -0.45575192343E-01  0.89875384799E-01  0.51100000000E-03 0.  1.
         11    1    4    4    0    0  0.29218514120E-01  0.22535300177E-02 -0.42759877222E-01  0.51840796540E-01  0.51100000000E-03 0. -1.
</event>
<event>
 8    1  0.2107254E+004  0.1043930E+01  0.7957747E-01            NaN
         13   -1    0    0    0    0  0.00000000000E+00  0.00000000000E+00  0.74505805969E-08  0.10566000000E+00  0.10566000000E+00 0.  1.
     999900   -1    0    0    0    0 -0.00000000000E+00 -0.00000000000E+00 -0.74505805969E-08  0.93827000000E+00  0.93827000000E+00 0.  1.
     999902    2    1    2    0    0  0.48564611646E-02 -0.12280604791E-01 -0.33979863673E-02  0.10302938429E+01  0.10302036002E+01 0.  0.
     999903    2    3    3    0    0 -0.10404079603E+00  0.46151945075E-01 -0.66502589952E-01  0.13942058227E+00  0.45398403259E-01 0.  0.
         14    1    1    2    0    0 -0.48564611646E-02  0.12280604791E-01  0.33979863673E-02  0.13636157099E-01  0.00000000000E+00 0. -1.
     999901    1    3    3    0    0  0.10889725719E+00 -0.58432549866E-01  0.63104603585E-01  0.89087326063E+00  0.88000000000E+00 0. -1.
        -11    1    4    4    0    0 -0.14059833977E-01  0.15907776743E-01 -0.32020476485E-01  0.38422757939E-01  0.51100000000E-03 0.  1.
         11    1    4    4    0    0 -0.89980962052E-01  0.30244168332E-01 -0.34482113467E-01  0.10099782433E+00  0.51100000000E-03 0. -1.
</event>
<event>
 8    1  0.2107254E+004  0.1043930E+01  0.7957747E-01            NaN
         13   -1    0    0    0    0  0.00000000000E+00  0.00000000000E+00  0.74505805969E-08  0.10566000000E+00  0.10566000000E+00 0.  1.
     999900   -1    0    0    0    0 -0.00000000000E+00 -0.00000000000E+00 -0.74505805969E-08  0.93827000000E+00  0.93827000000E+00 0.  1.
     999902    2    1    2    0    0  0.55310449422E-02  0.91313717879E-02  0.83298777296E-02  0.10303889043E+01  0.10302999238E+01 0.  0.
     999903    2    3    3    0    0  0.11271771658E-01 -0.10064889627E-01 -0.13108484968E+00  0.13918863581E+00  0.44293156163E-01 0.  0.
         14    1    1    2    0    0 -0.55310449422E-02 -0.91313717879E-02 -0.83298777296E-02  0.13541095667E-01  0.00000000000E+00 0. -1.
     999901    1    3    3    0    0 -0.57407267156E-02  0.19196261415E-01  0.13941472741E+00  0.89120026852E+00  0.88000000000E+00 0. -1.
        -11    1    4    4    0    0 -0.10684114844E-01  0.11521336656E-01 -0.51816463683E-01  0.54148855371E-01  0.51100000000E-03 0.  1.
         11    1    4    4    0    0  0.21955886502E-01 -0.21586226283E-01 -0.79268385999E-01  0.85039780439E-01  0.51100000000E-03 0. -1.
</event>
<event>
 8    1  0.2107254E+004  0.1043930E+01  0.7957747E-01            NaN
         13   -1    0    0    0    0  0.00000000000E+00  0.00000000000E+00  0.74505805969E-08  0.10566000000E+00  0.10566000000E+00 0. -1.
     999900   -1    0    0    0    0 -0.00000000000E+00 -0.00000000000E+00 -0.74505805969E-08  0.93827000000E+00  0.93827000000E+00 0.  1.
     999902    2    1    2    0    0  0.68919476262E-02  0.58550966615E-02  0.11401525159E-01  0.10293774787E+01  0.10292746076E+01 0.  0.
     999903    2    3    3    0    0  0.75547224297E-01  0.29487569310E-01  0.10578299687E+00  0.14135726333E+00  0.47063081368E-01 0.  0.
         14    1    1    2    0    0 -0.68919476262E-02 -0.58550966615E-02 -0.11401525159E-01  0.14552521257E-01  0.00000000000E+00 0. -1.
     999901    1    3    3    0    0 -0.68655276671E-01 -0.23632472648E-01 -0.94381471706E-01  0.88802021541E+00  0.88000000000E+00 0. -1.
        -11    1    4    4    0    0  0.14989045337E-01 -0.12026406571E-01  0.31560555536E-01  0.36954508817E-01  0.51100000000E-03 0.  1.
         11    1    4    4    0    0  0.60558178959E-01  0.41513975881E-01  0.74222441329E-01  0.10440275451E+00  0.51100000000E-03 0. -1.
</event>
<event>
 8    1  0.2107254E+004  0.1043930E+01  0.7957747E-01            NaN
         13   -1    0    0    0    0  0.00000000000E+00  0.00000000000E+00  0.74505805969E-08  0.10566000000E+00  0.10566000000E+00 0.  1.
     999900   -1    0    0    0    0 -0.00000000000E+00 -0.00000000000E+00 -0.74505805969E-08  0.93827000000E+00  0.93827000000E+00 0. -1.
     999902    2    1    2    0    0 -0.11156275897E-01 -0.71986012284E-05  0.13551201671E-01  0.10263772905E+01  0.10262271897E+01 0.  0.
     999903    2    3    3    0    0  0.27911409617E-01 -0.76492215343E-01  0.10169555000E+00  0.13781346727E+00  0.44949539205E-01 0.  0.
         14    1    1    2    0    0  0.11156275897E-01  0.71986012284E-05 -0.13551201671E-01  0.17552709490E-01  0.00000000000E+00 0. -1.
     999901    1    3    3    0    0 -0.39067685514E-01  0.76485016742E-01 -0.88144348330E-01  0.88856382325E+00  0.88000000000E+00 0. -1.
        -11    1    4    4    0    0 -0.12354634962E-01 -0.15712579671E-01  0.19266821321E-01  0.27766773125E-01  0.51100000000E-03 0. -1.
         11    1    4    4    0    0  0.40266044579E-01 -0.60779635672E-01  0.82428728679E-01  0.11004669414E+00  0.51100000000E-03 0.  1.
</event>
<event>
 8    1  0.2107254E+004  0.1043930E+01  0.7957747E-01            NaN
         13   -1    0    0    0    0  0.00000000000E+00  0.00000000000E+00  0.74505805969E-08  0.10566000000E+00  0.10566000000E+00 0.  1.
     999900   -1    0    0    0    0 -0.00000000000E+00 -0.00000000000E+00 -0.74505805969E-08  0.93827000000E+00  0.93827000000E+00 0.  1.
     999902    2    1    2    0    0  0.42658887804E-02  0.10233170654E-01 -0.66470065000E-02  0.10310033498E+01  0.10309223099E+01 0.  0.
     999903    2    3    3    0    0  0.88652727252E-01 -0.76513594061E-01 -0.64798705741E-01  0.14081923416E+00  0.43789819810E-01 0.  0.
         14    1    1    2    0    0 -0.42658887804E-02 -0.10233170654E-01  0.66470065000E-02  0.12926650151E-01  0.00000000000E+00 0. -1.
     999901    1    3    3    0    0 -0.84386838472E-01  0.86746764715E-01  0.58151699241E-01  0.89018411569E+00  0.88000000000E+00 0. -1.
        -11    1    4    4    0    0  0.78683085630E-01 -0.50834618901E-01 -0.34401900177E-01  0.99794480308E-01  0.51100000000E-03 0. -1.
         11    1    4    4    0    0  0.99696416222E-02 -0.25678975160E-01 -0.30396805564E-01  0.41024753855E-01  0.51100000000E-03 0.  1.
</event>
<event>
 8    1  0.2107254E+004  0.1043930E+01  0.7957747E-01            NaN
         13   -1    0    0    0    0  0.00000000000E+00  0.00000000000E+00  0.74505805969E-08  0.10566000000E+00  0.10566000000E+00 0. -1.
     999900   -1    0    0    0    0 -0.00000000000E+00 -0.00000000000E+00 -0.74505805969E-08  0.93827000000E+00  0.93827000000E+00 0. -1.
     999902    2    1    2    0    0 -0.49435291036E-02  0.65546132860E-02 -0.11197520582E-01  0.10300452637E+01  0.10299516782E+01 0.  0.
     999903    2    3    3    0    0  0.24689651518E-01  0.59765440919E-01  0.11476046893E+00  0.13899255330E+00  0.44356260230E-01 0.  0.
         14    1    1    2    0    0  0.49435291036E-02 -0.65546132860E-02  0.11197520582E-01  0.13884736314E-01  0.00000000000E+00 0. -1.
     999901    1    3    3    0    0 -0.29633180622E-01 -0.53210827633E-01 -0.12595798951E+00  0.89105271039E+00  0.88000000000E+00 0. -1.
        -11    1    4    4    0    0 -0.42604814469E-02 -0.34896204335E-02  0.24047689234E-01  0.24675526974E-01  0.51100000000E-03 0. -1.
         11    1    4    4    0    0  0.28950132965E-01  0.63255061353E-01  0.90712779698E-01  0.11431702632E+00  0.51100000000E-03 0.  1.
</event>
<event>
 8    1  0.2107254E+004  0.1043930E+01  0.7957747E-01            NaN
         13   -1    0    0    0    0  0.00000000000E+00  0.00000000000E+00  0.74505805969E-08  0.10566000000E+00  0.10566000000E+00 0. -1.
     999900   -1    0    0    0    0 -0.00000000000E+00 -0.00000000000E+00 -0.74505805969E-08  0.93827000000E+00  0.93827000000E+00 0.  1.
     999902    2    1    2    0    0  0.19916294969E-02 -0.77376412746E-02 -0.11443387619E-01  0.10299733242E+01  0.10298787597E+01 0.  0.
     999903    2    3    3    0    0 -0.15275834017E-01 -0.13286516651E+00 -0.10746589880E-01  0.14095389332E+00  0.43197306311E-01 0.  0.
         14    1    1    2    0    0 -0.19916294969E-02  0.77376412746E-02  0.11443387619E-01  0.13956675849E-01  0.00000000000E+00 0. -1.
     999901    1    3    3    0    0  0.17267463514E-01  0.12512752523E+00 -0.69679773904E-03  0.88901943083E+00  0.88000000000E+00 0. -1.
        -11    1    4    4    0    0 -0.58270953553E-02 -0.26808787079E-01 -0.20177122086E-01  0.34059411058E-01  0.51100000000E-03 0. -1.
         11    1    4    4    0    0 -0.94487386621E-02 -0.10605637943E+00  0.94305322059E-02  0.10689448226E+00  0.51100000000E-03 0.  1.
</event>
<event>
 8    1  0.2107254E+004  0.1043930E+01  0.7957747E-01            NaN
         13   -1    0    0    0    0  0.00000000000E+00  0.00000000000E+00  0.74505805969E-08  0.10566000000E+00  0.10566000000E+00 0. -1.
     999900   -1    0    0    0    0 -0.00000000000E+00 -0.00000000000E+00 -0.74505805969E-08  0.93827000000E+00  0.93827000000E+00 0. -1.
     999902    2    1    2    0    0 -0.10626464216E-01 -0.58540957153E-02  0.71633977660E-02  0.10298407684E+01  0.10297443867E+01 0.  0.
     999903    2    3    3    0    0 -0.75120378444E-01 -0.11066322090E+00 -0.10934646283E-02  0.14123928663E+00  0.45364310937E-01 0.  0.
         14    1    1    2    0    0  0.10626464216E-01  0.58540957153E-02 -0.71633977660E-02  0.14089231560E-01  0.00000000000E+00 0.  1.
     999901    1    3    3    0    0  0.64493914228E-01  0.10480912518E+00  0.82568623943E-02  0.88860148181E+00  0.88000000000E+00 0.  1.
        -11    1    4    4    0    0 -0.54577031377E-01 -0.56290009490E-01  0.17261001451E-01  0.80283378195E-01  0.51100000000E-03 0. -1.
         11    1    4    4    0    0 -0.20543347068E-01 -0.54373211407E-01 -0.18354466080E-01  0.60955908438E-01  0.51100000000E-03 0.  1.
</event>
<event>
 8    1  0.2107254E+004  0.1043930E+01  0.7957747E-01            NaN
         13   -1    0    0    0    0  0.00000000000E+00  0.00000000000E+00  0.74505805969E-08  0.10566000000E+00  0.10566000000E+00 0.  1.
     999900   -1    0    0    0    0 -0.00000000000E+00 -0.00000000000E+00 -0.74505805969E-08  0.93827000000E+00  0.93827000000E+00 0. -1.
     999902    2    1    2    0    0 -0.56541735600E-02 -0.12585666429E-01 -0.61526170192E-03  0.10301188731E+01  0.10300262839E+01 0.  0.
     999903    2    3    3    0    0  0.10871174933E+00  0.61218966533E-01 -0.40927216917E-01  0.13874255424E+00  0.44815766947E-01 0.  0.
         14    1    1    2    0    0  0.56541735600E-02  0.12585666429E-01  0.61526170192E-03  0.13811126858E-01  0.00000000000E+00 0.  1.
     999901    1    3    3    0    0 -0.11436592289E+00 -0.73804632962E-01  0.40311955215E-01  0.89137631890E+00  0.88000000000E+00 0.  1.
        -11    1    4    4    0    0  0.56102740614E-01  0.22145596626E-01 -0.41484317296E-01  0.73206247390E-01  0.51100000000E-03 0.  1.
         11    1    4    4    0    0  0.52609008715E-01  0.39073369907E-01  0.55710037897E-03  0.65536306851E-01  0.51100000000E-03 0. -1.
</event>
<event>
 8    1  0.2107254E+004  0.1043930E+01  0.7957747E-01            NaN
         13   -1    0    0    0    0  0.00000000000E+00  0.00000000000E+00  0.74505805969E-08  0.10566000000E+00  0.10566000000E+00 0. -1.
     999900   -1    0    0    0    0 -0.00000000000E+00 -0.00000000000E+00 -0.74505805969E-08  0.93827000000E+00  0.93827000000E+00 0.  1.
     999902    2    1    2    0    0 -0.66411565551E-02  0.10412699182E-01 -0.58498476291E-02  0.10302643503E+01  0.10301737142E+01 0.  0.
     999903    2    3    3    0    0  0.56243076018E-02  0.69073916801E-01 -0.11496112398E+00  0.14150293647E+00  0.44768093385E-01 0.  0.
         14    1    1    2    0    0  0.66411565551E-02 -0.10412699182E-01  0.58498476291E-02  0.13665649707E-01  0.00000000000E+00 0.  1.
     999901    1    3    3    0    0 -0.12265464157E-01 -0.58661217620E-01  0.10911127635E+00  0.88876141382E+00  0.88000000000E+00 0. -1.
        -11    1    4    4    0    0  0.78834661309E-02  0.47675475888E-01 -0.10890215763E+00  0.11914294396E+00  0.51100000000E-03 0. -1.
         11    1    4    4    0    0 -0.22591585290E-02  0.21398440913E-01 -0.60589663545E-02  0.22359992510E-01  0.51100000000E-03 0.  1.
</event>
<event>
 8    1  0.2107254E+004  0.1043930E+01  0.7957747E-01            NaN
         13   -1    0    0    0    0  0.00000000000E+00  0.00000000000E+00  0.74505805969E-08  0.10566000000E+00  0.10566000000E+00 0. -1.
     999900   -1    0    0    0    0 -0.00000000000E+00 -0.00000000000E+00 -0.74505805969E-08  0.93827000000E+00  0.93827000000E+00 0. -1.
     999902    2    1    2    0    0 -0.63005654624E-03  0.93094467233E-02  0.10297441264E-01  0.10300339550E+01  0.10299402159E+01 0.  0.
     999903    2    3    3    0    0  0.96677133896E-02  0.96227089071E-01  0.93551676785E-01  0.14178174514E+00  0.44688137947E-01 0.  0.
         14    1    1    2    0    0  0.63005654624E-03 -0.93094467233E-02 -0.10297441264E-01  0.13896044982E-01  0.00000000000E+00 0.  1.
     999901    1    3    3    0    0 -0.10297769936E-01 -0.86917642347E-01 -0.83254235521E-01  0.88825220988E+00  0.88000000000E+00 0. -1.
        -11    1    4    4    0    0  0.26725616832E-01  0.49888017429E-01  0.57153622270E-01  0.80435505453E-01  0.51100000000E-03 0.  1.
         11    1    4    4    0    0 -0.17057903442E-01  0.46339071642E-01  0.36398054515E-01  0.61346239689E-01  0.51100000000E-03 0. -1.
</event>
<event>
 8    1  0.2107254E+004  0.1043930E+01  0.7957747E-01            NaN
         13   -1    0    0    0    0  0.00000000000E+00  0.00000000000E+00  0.74505805969E-08  0.10566000000E+00  0.10566000000E+00 0.  1.
     999900   -1    0    0    0    0 -0.00000000000E+00 -0.00000000000E+00 -0.74505805969E-08  0.93827000000E+00  0.93827000000E+00 0.  1.
     999902    2    1    2    0    0  0.99774845353E-02  0.29198279444E-02 -0.88579527067E-02  0.10302720749E+01  0.10301815419E+01 0.  0.
     999903    2    3    3    0    0  0.96947675937E-01 -0.11239228140E-01 -0.92917552757E-01  0.14188572343E+00  0.44415253942E-01 0.  0.
         14    1    1    2    0    0 -0.99774845353E-02 -0.29198279444E-02  0.88579527067E-02  0.13657925136E-01  0.00000000000E+00 0.  1.
     999901    1    3    3    0    0 -0.86970191402E-01  0.14159056085E-01  0.84059600050E-01  0.88838635144E+00  0.88000000000E+00 0. -1.
        -11    1    4    4    0    0  0.60605847122E-01  0.58589254061E-02 -0.31648250910E-01  0.68624111062E-01  0.51100000000E-03 0. -1.
         11    1    4    4    0    0  0.36341828815E-01 -0.17098153546E-01 -0.61269301847E-01  0.73261612364E-01  0.51100000000E-03 0.  1.
</event>
<event>
 8    1  0.2107254E+004  0.1043930E+01  0.7957747E-01            NaN
         13   -1    0    0    0    0  0.00000000000E+00  0.00000000000E+00  0.74505805969E-08  0.10566000000E+00  0.10566000000E+00 0.  1.
     999900   -1    0    0    0    0 -0.00000000000E+00 -0.00000000000E+00 -0.74505805969E-08  0.93827000000E+00  0.93827000000E+00 0.  1.
     999902    2    1    2    0    0 -0.11208118932E-01 -0.58148397730E-02  0.20886996354E-01  0.10195230152E+01  0.10192308264E+01 0.  0.
     999903    2    3    3    0    0  0.10968220454E+00  0.48169232503E-01  0.20486872004E-01  0.12961913808E+00  0.45066041300E-01 0.  0.
         14    1    1    2    0    0  0.11208118932E-01  0.58148397730E-02 -0.20886996354E-01  0.24406984825E-01  0.00000000000E+00 0. -1.
     999901    1    3    3    0    0 -0.12089032348E+00 -0.53984072276E-01  0.40012434951E-03  0.88990387710E+00  0.88000000000E+00 0. -1.
        -11    1    4    4    0    0  0.24003321133E-01 -0.14615035860E-04 -0.10987581881E-01  0.26403554980E-01  0.51100000000E-03 0. -1.
         11    1    4    4    0    0  0.85678883411E-01  0.48183847539E-01  0.31474453885E-01  0.10321558310E+00  0.51100000000E-03 0.  1.
</event>
<event>
 8    1  0.2107254E+004  0.1043930E+01  0.7957747E-01            NaN
         13   -1    0    0    0    0  0.00000000000E+00  0.00000000000E+00  0.74505805969E-08  0.10566000000E+00  0.10566000000E+00 0. -1.
     999900   -1    0    0    0    0 -0.00000000000E+00 -0.00000000000E+00 -0.74505805969E-08  0.93827000000E+00  0.93827000000E+00 0. -1.
     999902    2    1    2    0    0  0.94666752067E-02  0.15388608829E-01  0.17098957405E-02  0.10257819708E+01  0.10256214217E+01 0.  0.
     999903    2    3    3    0    0 -0.20023187274E-01  0.31866409438E-01  0.12338449431E+00  0.13676797885E+00  0.45446127714E-01 0.  0.
         14    1    1    2    0    0 -0.94666752067E-02 -0.15388608829E-01 -0.17098957405E-02  0.18148029221E-01  0.00000000000E+00 0. -1.
     999901    1    3    3    0    0  0.29489862481E-01 -0.16477800609E-01 -0.12167459857E+00  0.88901399193E+00  0.88000000000E+00 0. -1.
        -11    1    4    4    0    0 -0.25507402767E-01  0.90338463695E-02  0.10010211063E+00  0.10369634347E+00  0.51100000000E-03 0.  1.
         11    1    4    4    0    0  0.54842154925E-02  0.22832563069E-01  0.23282383681E-01  0.33071635380E-01  0.51100000000E-03 0. -1.
</event>
<event>
 8    1  0.2107254E+004  0.1043930E+01  0.7957747E-01            NaN
         13   -1    0    0    0    0  0.00000000000E+00  0.00000000000E+00  0.74505805969E-08  0.10566000000E+00  0.10566000000E+00 0. -1.
     999900   -1    0    0    0    0 -0.00000000000E+00 -0.00000000000E+00 -0.74505805969E-08  0.93827000000E+00  0.93827000000E+00 0. -1.
     999902    2    1    2    0    0 -0.79532933872E-02 -0.93966999909E-02  0.67469368573E-02  0.10298916951E+01  0.10297960136E+01 0.  0.
     999903    2    3    3    0    0  0.33601577578E-01 -0.10732164500E+00 -0.70950294437E-01  0.14008668172E+00  0.44083246406E-01 0.  0.
         14    1    1    2    0    0  0.79532933872E-02  0.93966999909E-02 -0.67469368573E-02  0.14038304861E-01  0.00000000000E+00 0. -1.
     999901    1    3    3    0    0 -0.41554870965E-01  0.97924945006E-01  0.77697231294E-01  0.88980501342E+00  0.88000000000E+00 0. -1.
        -11    1    4    4    0    0 -0.72795968049E-02 -0.42726910415E-02 -0.11544837632E-01  0.14310584031E-01  0.51100000000E-03 0. -1.
         11    1    4    4    0    0  0.40881174383E-01 -0.10304895396E+00 -0.59405456806E-01  0.12577609769E+00  0.51100000000E-03 0.  1.
</event>
<event>
 8    1  0.2107254E+004  0.1043930E+01  0.7957747E-01            NaN
         13   -1    0    0    0    0  0.00000000000E+00  0.00000000000E+00  0.74505805969E-08  0.10566000000E+00  0.10566000000E+00 0. -1.
     999900   -1    0    0    0    0 -0.00000000000E+00 -0.00000000000E+00 -0.74505805969E-08  0.93827000000E+00  0.93827000000E+00 0.  1.
     999902    2    1    2    0    0  0.52695114221E-02 -0.43942701624E-02  0.11733536725E-01  0.10303376034E+01  0.10302479429E+01 0.  0.
     999903    2    3    3    0    0 -0.10350444056E+00  0.79634927990E-01 -0.17213684778E-01  0.13919753563E+00  0.44997244477E-01 0.  0.
         14    1    1    2    0    0 -0.52695114221E-02  0.43942701624E-02 -0.11733536725E-01  0.13592396586E-01  0.00000000000E+00 0.  1.
     999901    1    3    3    0    0  0.10877395198E+00 -0.84029198153E-01  0.28947221503E-01  0.89114006778E+00  0.88000000000E+00 0.  1.
        -11    1    4    4    0    0 -0.70219653479E-02  0.27454789749E-01 -0.14457037547E-02  0.28380004543E-01  0.51100000000E-03 0. -1.
         11    1    4    4    0    0 -0.96482475214E-01  0.52180138242E-01 -0.15767981023E-01  0.11081753109E+00  0.51100000000E-03 0.  1.
</event>
<event>
 8    1  0.2107254E+004  0.1043930E+01  0.7957747E-01            NaN
         13   -1    0    0    0    0  0.00000000000E+00  0.00000000000E+00  0.74505805969E-08  0.10566000000E+00  0.10566000000E+00 0. -1.
     999900   -1    0    0    0    0 -0.00000000000E+00 -0.00000000000E+00 -0.74505805969E-08  0.93827000000E+00  0.93827000000E+00 0. -1.
     999902    2    1    2    0    0 -0.17618087672E-02  0.74315180508E-02 -0.77567538607E-02  0.10330442910E+01  0.10329869353E+01 0.  0.
     999903    2    3    3    0    0  0.61716212035E-01  0.11620942420E+00  0.33777665136E-01  0.14310766404E+00  0.45003908086E-01 0.  0.
         14    1    1    2    0    0  0.17618087672E-02 -0.74315180508E-02  0.77567538607E-02  0.10885709032E-01  0.00000000000E+00 0. -1.
     999901    1    3    3    0    0 -0.63478020802E-01 -0.10877790615E+00 -0.41534418997E-01  0.88993662693E+00  0.88000000000E+00 0. -1.
        -11    1    4    4    0    0  0.31796167692E-01  0.47053236644E-01 -0.73444336250E-02  0.57264344795E-01  0.51100000000E-03 0. -1.
         11    1    4    4    0    0  0.29920044342E-01  0.69156187558E-01  0.41122098761E-01  0.85843319242E-01  0.51100000000E-03 0.  1.
</event>
<event>
 8    1  0.2107254E+004  0.1043930E+01  0.7957747E-01            NaN
         13   -1    0    0    0    0  0.00000000000E+00  0.00000000000E+00  0.74505805969E-08  0.10566000000E+00  0.10566000000E+00 0.  1.
     999900   -1    0    0    0    0 -0.00000000000E+00 -0.00000000000E+00 -0.74505805969E-08  0.93827000000E+00  0.93827000000E+00 0. -1.
     999902    2    1    2    0    0 -0.13789764386E-03 -0.11783124857E-01 -0.79195965416E-02  0.10297320756E+01  0.10296341906E+01 0.  0.
     999903    2    3    3    0    0  0.42826438058E-02 -0.58652111171E-01  0.11804378594E+00  0.13951692366E+00  0.45521702571E-01 0.  0.
         14    1    1    2    0    0  0.13789764386E-03  0.11783124857E-01  0.79195965416E-02  0.14197924374E-01  0.00000000000E+00 0.  1.
     999901    1    3    3    0    0 -0.44205414497E-02  0.46868986314E-01 -0.12596338248E+00  0.89021515197E+00  0.88000000000E+00 0. -1.
        -11    1    4    4    0    0 -0.58314598851E-02 -0.46873410759E-01  0.11409821238E+00  0.12349002288E+00  0.51100000000E-03 0.  1.
         11    1    4    4    0    0  0.10114103691E-01 -0.11778700412E-01  0.39455735567E-02  0.16026900778E-01  0.51100000000E-03 0. -1.
</event>
<event>
 8    1  0.2107254E+004  0.1043930E+01  0.7957747E-01            NaN
         13   -1    0    0    0    0  0.00000000000E+00  0.00000000000E+00  0.74505805969E-08  0.10566000000E+00  0.10566000000E+00 0. -1.
     999900   -1    0    0    0    0 -0.00000000000E+00 -0.00000000000E+00 -0.74505805969E-08  0.93827000000E+00  0.93827000000E+00 0. -1.
     999902    2    1    2    0    0  0.13176919999E-01  0.74772039385E-03 -0.66086346774E-02  0.10291697710E+01  0.10290639209E+01 0.  0.
     999903    2    3    3    0    0 -0.83966085904E-01  0.23516479814E-01 -0.98772348272E-01  0.13874889859E+00  0.43496570810E-01 0.  0.
         14    1    1    2    0    0 -0.13176919999E-01 -0.74772039385E-03  0.66086346774E-02  0.14760228953E-01  0.00000000000E+00 0. -1.
     999901    1    3    3    0    0  0.97143005903E-01 -0.22768759420E-01  0.92163713595E-01  0.89042087246E+00  0.88000000000E+00 0.  1.
        -11    1    4    4    0    0 -0.48987378807E-01  0.30480549676E-01 -0.40741839493E-01  0.70632753006E-01  0.51100000000E-03 0.  1.
         11    1    4    4    0    0 -0.34978707097E-01 -0.69640698625E-02 -0.58030508779E-01  0.68116145586E-01  0.51100000000E-03 0. -1.
</event>
<event>
 8    1  0.2107254E+004  0.1043930E+01  0.7957747E-01            NaN
         13   -1    0    0    0    0  0.00000000000E+00  0.00000000000E+00  0.74505805969E-08  0.10566000000E+00  0.10566000000E+00 0. -1.
     999900   -1    0    0    0    0 -0.00000000000E+00 -0.00000000000E+00 -0.74505805969E-08  0.93827000000E+00  0.93827000000E+00 0.  1.
     999902    2    1    2    0    0  0.40967498919E-02 -0.11907969319E-01  0.41989646108E-02  0.10306554229E+01  0.10305699328E+01 0.  0.
     999903    2    3    3    0    0 -0.42189074982E-01  0.83336387295E-02 -0.12498125978E+00  0.13979088178E+00  0.45517114928E-01 0.  0.
         14    1    1    2    0    0 -0.40967498919E-02  0.11907969319E-01 -0.41989646108E-02  0.13274577085E-01  0.00000000000E+00 0.  1.
     999901    1    3    3    0    0  0.46285824874E-01 -0.20241608048E-01  0.12918022439E+00  0.89086454114E+00  0.88000000000E+00 0. -1.
        -11    1    4    4    0    0 -0.38136874290E-01 -0.27731601395E-02 -0.45510724789E-01  0.59444081199E-01  0.51100000000E-03 0.  1.
         11    1    4    4    0    0 -0.40522006926E-02  0.11106798869E-01 -0.79470534986E-01  0.80346800580E-01  0.51100000000E-03 0. -1.
</event>
<event>
 8    1  0.2107254E+004  0.1043930E+01  0.7957747E-01            NaN
         13   -1    0    0    0    0  0.00000000000E+00  0.00000000000E+00  0.74505805969E-08  0.10566000000E+00  0.10566000000E+00 0.  1.
     999900   -1    0    0    0    0 -0.00000000000E+00 -0.00000000000E+00 -0.74505805969E-08  0.93827000000E+00  0.93827000000E+00 0. -1.
     999902    2    1    2    0    0 -0.15456535259E-02  0.45354672280E-03  0.13565750698E-01  0.10302689480E+01  0.10301783733E+01 0.  0.
     999903    2    3    3    0    0  0.12376060816E+00  0.14810848095E-01 -0.44326940177E-01  0.13939333662E+00  0.43926931533E-01 0.  0.
         14    1    1    2    0    0  0.15456535259E-02 -0.45354672280E-03 -0.13565750698E-01  0.13661051990E-01  0.00000000000E+00 0. -1.
     999901    1    3    3    0    0 -0.12530626169E+00 -0.14357301372E-01  0.57892690875E-01  0.89087561139E+00  0.88000000000E+00 0.  1.
        -11    1    4    4    0    0  0.69855273849E-01 -0.89836983709E-02 -0.98369187325E-02  0.71116047500E-01  0.51100000000E-03 0. -1.
         11    1    4    4    0    0  0.53905334312E-01  0.23794546466E-01 -0.34490021444E-01  0.68277289116E-01  0.51100000000E-03 0.  1.
</event>
<event>
 8    1  0.2107254E+004  0.1043930E+01  0.7957747E-01            NaN
         13   -1    0    0    0    0  0.00000000000E+00  0.00000000000E+00  0.74505805969E-08  0.10566000000E+00  0.10566000000E+00 0. -1.
     999900   -1    0    0    0    0 -0.00000000000E+00 -0.00000000000E+00 -0.74505805969E-08  0.93827000000E+00  0.93827000000E+00 0. -1.
     999902    2    1    2    0    0 -0.74232185959E-02 -0.92095308379E-02 -0.56567648558E-02  0.10308182259E+01  0.10307348331E+01 0.  0.
     999903    2    3    3    0    0  0.79621679068E-01 -0.31910960858E-01 -0.10255686663E+00  0.14094081921E+00  0.44592403229E-01 0.  0.
         14    1    1    2    0    0  0.74232185959E-02  0.92095308379E-02  0.56567648558E-02  0.13111774144E-01  0.00000000000E+00 0. -1.
     999901    1    3    3    0    0 -0.87044897664E-01  0.22701430020E-01  0.96900101776E-01  0.88987740665E+00  0.88000000000E+00 0.  1.
        -11    1    4    4    0    0 -0.18818144638E-02  0.11090004241E-03 -0.21582958984E-01  0.21671150500E-01  0.51100000000E-03 0. -1.
         11    1    4    4    0    0  0.81503493531E-01 -0.32021860901E-01 -0.80973907648E-01  0.11926966871E+00  0.51100000000E-03 0.  1.
</event>
<event>
 7    1  0.2107254E+004  0.1043930E+01  0.7957747E-01            NaN
         13   -1    0    0    0    0  0.00000000000E+00  0.00000000000E+00  0.74505805969E-08  0.10566000000E+00  0.10566000000E+00 0.  1.
     999900   -1    0    0    0    0 -0.00000000000E+00 -0.00000000000E+00 -0.74505805969E-08  0.93827000000E+00  0.93827000000E+00 0.  1.
     999902    2    1    2    0    0  0.62289728400E-02  0.93522750770E-02  0.81191640631E-02  0.10300668843E+01  0.10299735920E+01 0.  0.
         14    1    1    2    0    0 -0.62289728400E-02 -0.93522750770E-02 -0.81191640631E-02  0.13863115697E-01  0.00000000000E+00 0. -1.
     999901    1    3    3    0    0  0.16520787360E-01  0.57291676153E-01 -0.87815054069E-02  0.88206144197E+00  0.88000000000E+00 0.  1.
        -11    1    3    3    0    0  0.14539255208E-01 -0.23228939824E-02  0.71291940467E-01  0.72798266978E-01  0.51100000000E-03 0. -1.
         11    1    3    3    0    0 -0.24831069728E-01 -0.45616507094E-01 -0.54391270997E-01  0.75207175355E-01  0.51100000000E-03 0.  1.
</event>
<event>
 8    1  0.2107254E+004  0.1043930E+01  0.7957747E-01            NaN
         13   -1    0    0    0    0  0.00000000000E+00  0.00000000000E+00  0.74505805969E-08  0.10566000000E+00  0.10566000000E+00 0. -1.
     999900   -1    0    0    0    0 -0.00000000000E+00 -0.00000000000E+00 -0.74505805969E-08  0.93827000000E+00  0.93827000000E+00 0. -1.
     999902    2    1    2    0    0  0.11935280693E-01  0.25525090652E-02 -0.87103738234E-02  0.10289354397E+01  0.10288261768E+01 0.  0.
     999903    2    3    3    0    0  0.10437594043E+00 -0.52881531823E-01 -0.63404765503E-01  0.14067326837E+00  0.45585203689E-01 0.  0.
         14    1    1    2    0    0 -0.11935280693E-01 -0.25525090652E-02  0.87103738234E-02  0.14994560343E-01  0.00000000000E+00 0.  1.
     999901    1    3    3    0    0 -0.92440659740E-01  0.55434040888E-01  0.54694391679E-01  0.88826217129E+00  0.88000000000E+00 0.  1.
        -11    1    4    4    0    0  0.24415971588E-01 -0.31960969870E-01 -0.34868724932E-01  0.53232812841E-01  0.51100000000E-03 0. -1.
         11    1    4    4    0    0  0.79959968845E-01 -0.20920561953E-01 -0.28536040571E-01  0.87440455526E-01  0.51100000000E-03 0.  1.
</event>
<event>
 8    1  0.2107254E+004  0.1043930E+01  0.7957747E-01            NaN
         13   -1    0    0    0    0  0.00000000000E+00  0.00000000000E+00  0.74505805969E-08  0.10566000000E+00  0.10566000000E+00 0. -1.
     999900   -1    0    0    0    0 -0.00000000000E+00 -0.00000000000E+00 -0.74505805969E-08  0.93827000000E+00  0.93827000000E+00 0.  1.
     999902    2    1    2    0    0  0.11395002444E-02 -0.41008147553E-04 -0.15495652681E-01  0.10283924521E+01  0.10282750703E+01 0.  0.
     999903    2    3    3    0    0  0.59186166479E-01  0.54194047758E-01 -0.10613275856E+00  0.14017742087E+00  0.44108386590E-01 0.  0.
         14    1    1    2    0    0 -0.11395002444E-02  0.41008147553E-04  0.15495652681E-01  0.15537547891E-01  0.00000000000E+00 0. -1.
     999901    1    3    3    0    0 -0.58046666235E-01 -0.54235055905E-01  0.90637105883E-01  0.88821503124E+00  0.88000000000E+00 0.  1.
        -11    1    4    4    0    0  0.27684205484E-01  0.10578672207E-01 -0.68149502621E-01  0.74316481129E-01  0.51100000000E-03 0. -1.
         11    1    4    4    0    0  0.31501960995E-01  0.43615375551E-01 -0.37983255943E-01  0.65860939744E-01  0.51100000000E-03 0.  1.
</event>
<event>
 8    1  0.2107254E+004  0.1043930E+01  0.7957747E-01            NaN
         13   -1    0    0    0    0  0.00000000000E+00  0.00000000000E+00  0.74505805969E-08  0.10566000000E+00  0.10566000000E+00 0. -1.
     999900   -1    0    0    0    0 -0.00000000000E+00 -0.00000000000E+00 -0.74505805969E-08  0.93827000000E+00  0.93827000000E+00 0.  1.
     999902    2    1    2    0    0 -0.33908215013E-02  0.19716797100E-02  0.13349412610E-01  0.10300162655E+01  0.10299222860E+01 0.  0.
     999903    2    3    3    0    0 -0.29738796093E-02 -0.10057527532E+00  0.87950031837E-01  0.14092611020E+00  0.44729525712E-01 0.  0.
         14    1    1    2    0    0  0.33908215013E-02 -0.19716797100E-02 -0.13349412610E-01  0.13913734522E-01  0.00000000000E+00 0.  1.
     999901    1    3    3    0    0 -0.41694189191E-03  0.10254695503E+00 -0.74600619227E-01  0.88909015528E+00  0.88000000000E+00 0. -1.
        -11    1    4    4    0    0  0.13462405623E-01 -0.63815851480E-01  0.33848636026E-01  0.73482586692E-01  0.51100000000E-03 0. -1.
         11    1    4    4    0    0 -0.16436285232E-01 -0.36759423838E-01  0.54101395811E-01  0.67443523506E-01  0.51100000000E-03 0.  1.
</event>
<event>
 8    1  0.2107254E+004  0.1043930E+01  0.7957747E-01            NaN
         13   -1    0    0    0    0  0.00000000000E+00  0.00000000000E+00  0.74505805969E-08  0.10566000000E+00  0.10566000000E+00 0.  1.
     999900   -1    0    0    0    0 -0.00000000000E+00 -0.00000000000E+00 -0.74505805969E-08  0.93827000000E+00  0.93827000000E+00 0. -1.
     999902    2    1    2    0    0 -0.13403661695E-01 -0.78913983156E-02 -0.12320255815E-01  0.10240875955E+01  0.10238953473E+01 0.  0.
     999903    2    3    3    0    0 -0.18012825873E-01 -0.10722127286E+00  0.66231091611E-01  0.13501055575E+00  0.44949187071E-01 0.  0.
         14    1    1    2    0    0  0.13403661695E-01  0.78913983156E-02  0.12320255815E-01  0.19842404531E-01  0.00000000000E+00 0. -1.
     999901    1    3    3    0    0  0.46091641780E-02  0.99329874545E-01 -0.78551347426E-01  0.88907703972E+00  0.88000000000E+00 0. -1.
        -11    1    4    4    0    0  0.62013404835E-02 -0.67092962392E-01  0.54580776456E-01  0.86713577402E-01  0.51100000000E-03 0. -1.
         11    1    4    4    0    0 -0.24214166357E-01 -0.40128310469E-01  0.11650315156E-01  0.48296978349E-01  0.51100000000E-03 0.  1.
</event>
<event>
 8    1  0.2107254E+004  0.1043930E+01  0.7957747E-01            NaN
         13   -1    0    0    0    0  0.00000000000E+00  0.00000000000E+00  0.74505805969E-08  0.10566000000E+00  0.10566000000E+00 0.  1.
     999900   -1    0    0    0    0 -0.00000000000E+00 -0.00000000000E+00 -0.74505805969E-08  0.93827000000E+00  0.93827000000E+00 0. -1.
     999902    2    1    2    0    0  0.14236509099E-01  0.60175421583E-03  0.46644810215E-02  0.10289367454E+01  0.10288275018E+01 0.  0.
     999903    2    3    3    0    0  0.11712981149E+00 -0.12354684546E-01 -0.61015091875E-01  0.14041622947E+00  0.46063489793E-01 0.  0.
         14    1    1    2    0    0 -0.14236509099E-01 -0.60175421583E-03 -0.46644810215E-02  0.14993254572E-01  0.00000000000E+00 0. -1.
     999901    1    3    3    0    0 -0.10289330239E+00  0.12956438762E-01  0.65679572896E-01  0.88852051596E+00  0.88000000000E+00 0.  1.
        -11    1    4    4    0    0  0.75689482398E-01  0.66601584276E-02 -0.56314463130E-01  0.94577139598E-01  0.51100000000E-03 0.  1.
         11    1    4    4    0    0  0.41440329094E-01 -0.19014842973E-01 -0.47006287446E-02  0.45839089872E-01  0.51100000000E-03 0. -1.
</event>
<event>
 8    1  0.2107254E+004  0.1043930E+01  0.7957747E-01            NaN
         13   -1    0    0    0    0  0.00000000000E+00  0.00000000000E+00  0.74505805969E-08  0.10566000000E+00  0.10566000000E+00 0. -1.
     999900   -1    0    0    0    0 -0.00000000000E+00 -0.00000000000E+00 -0.74505805969E-08  0.93827000000E+00  0.93827000000E+00 0.  1.
     999902    2    1    2    0    0  0.47485896674E-02 -0.48001029250E-02  0.12539279023E-01  0.10296883846E+01  0.10295898920E+01 0.  0.
     999903    2    3    3    0    0 -0.48769523786E-01 -0.10751346429E+00 -0.65214023006E-01  0.13870028192E+00  0.32361828670E-01 0.  0.
         14    1    1    2    0    0 -0.47485896674E-02  0.48001029250E-02 -0.12539279023E-01  0.14241615440E-01  0.00000000000E+00 0.  1.
     999901    1    3    3    0    0  0.53518113454E-01  0.10271336136E+00  0.77753302029E-01  0.89098810264E+00  0.88000000000E+00 0. -1.
        -11    1    4    4    0    0 -0.33352313555E-01 -0.39553781682E-01 -0.19186929107E-01  0.55184036047E-01  0.51100000000E-03 0.  1.
         11    1    4    4    0    0 -0.15417210231E-01 -0.67959682604E-01 -0.46027093899E-01  0.83516245873E-01  0.51100000000E-03 0. -1.
</event>
<event>
 8    1  0.2107254E+004  0.1043930E+01  0.7957747E-01            NaN
         13   -1    0    0    0    0  0.00000000000E+00  0.00000000000E+00  0.74505805969E-08  0.10566000000E+00  0.10566000000E+00 0. -1.
     999900   -1    0    0    0    0 -0.00000000000E+00 -0.00000000000E+00 -0.74505805969E-08  0.93827000000E+00  0.93827000000E+00 0.  1.
     999902    2    1    2    0    0 -0.11017774230E-01 -0.33686080348E-02  0.74271156184E-02  0.10302223045E+01  0.10301311061E+01 0.  0.
     999903    2    3    3    0    0 -0.71094357151E-01  0.10282724053E+00  0.45685260596E-01  0.14098080766E+00  0.46482212518E-01 0.  0.
         14    1    1    2    0    0  0.11017774230E-01  0.33686080348E-02 -0.74271156184E-02  0.13707695484E-01  0.00000000000E+00 0. -1.
     999901    1    3    3    0    0  0.60076582922E-01 -0.10619584856E+00 -0.38258144977E-01  0.88924149685E+00  0.88000000000E+00 0.  1.
        -11    1    4    4    0    0  0.37227796069E-02  0.21383553000E-01  0.14381249515E-01  0.26042213529E-01  0.51100000000E-03 0.  1.
         11    1    4    4    0    0 -0.74817136758E-01  0.81443687528E-01  0.31304011081E-01  0.11493859413E+00  0.51100000000E-03 0. -1.
</event>
<event>
 8    1  0.2107254E+004  0.1043930E+01  0.7957747E-01            NaN
         13   -1    0    0    0    0  0.00000000000E+00  0.00000000000E+00  0.74505805969E-08  0.10566000000E+00  0.10566000000E+00 0.  1.
     999900   -1    0    0    0    0 -0.00000000000E+00 -0.00000000000E+00 -0.74505805969E-08  0.93827000000E+00  0.93827000000E+00 0.  1.
     999902    2    1    2    0    0  0.11473298458E-01  0.23710359618E-02 -0.65940031551E-02  0.10304860695E+01  0.10303983697E+01 0.  0.
     999903    2    3    3    0    0 -0.32244223477E-01 -0.41762887571E-01 -0.12204665731E+00  0.14077356524E+00  0.46238310782E-01 0.  0.
         14    1    1    2    0    0 -0.11473298458E-01 -0.23710359618E-02  0.65940031551E-02  0.13443930476E-01  0.00000000000E+00 0. -1.
     999901    1    3    3    0    0  0.43717521935E-01  0.44133923533E-01  0.11545265415E+00  0.88971250429E+00  0.88000000000E+00 0. -1.
        -11    1    4    4    0    0 -0.83231813562E-02 -0.25508120934E-01 -0.10227240487E+00  0.10573478850E+00  0.51100000000E-03 0. -1.
         11    1    4    4    0    0 -0.23921042121E-01 -0.16254766637E-01 -0.19774252443E-01  0.35038776737E-01  0.51100000000E-03 0.  1.
</event>
<event>
 8    1  0.2107254E+004  0.1043930E+01  0.7957747E-01            NaN
         13   -1    0    0    0    0  0.00000000000E+00  0.00000000000E+00  0.74505805969E-08  0.10566000000E+00  0.10566000000E+00 0.  1.
     999900   -1    0    0    0    0 -0.00000000000E+00 -0.00000000000E+00 -0.74505805969E-08  0.93827000000E+00  0.93827000000E+00 0.  1.
     999902    2    1    2    0    0 -0.10681464466E-01  0.92666533578E-02  0.33285731665E-03  0.10297852009E+01  0.10296880521E+01 0.  0.
     999903    2    3    3    0    0 -0.85656893253E-01 -0.46454907607E-01 -0.90119628467E-01  0.14023033499E+00  0.45253039833E-01 0.  0.
         14    1    1    2    0    0  0.10681464466E-01 -0.92666533578E-02 -0.33285731665E-03  0.14144799100E-01  0.00000000000E+00 0.  1.
     999901    1    3    3    0    0  0.74975428788E-01  0.55721560965E-01  0.90452485783E-01  0.88955486591E+00  0.88000000000E+00 0.  1.
        -11    1    4    4    0    0 -0.33704960307E-01 -0.55206302829E-02 -0.56526700477E-01  0.66045671288E-01  0.51100000000E-03 0. -1.
         11    1    4    4    0    0 -0.51951932946E-01 -0.40934277324E-01 -0.33592927990E-01  0.74184663703E-01  0.51100000000E-03 0.  1.
</event>
<event>
 8    1  0.2107254E+004  0.1043930E+01  0.7957747E-01            NaN
         13   -1    0    0    0    0  0.00000000000E+00  0.00000000000E+00  0.74505805969E-08  0.10566000000E+00  0.10566000000E+00 0.  1.
     999900   -1    0    0    0    0 -0.00000000000E+00 -0.00000000000E+00 -0.74505805969E-08  0.93827000000E+00  0.93827000000E+00 0.  1.
     999902    2    1    2    0    0  0.12901050840E-01 -0.45813561713E-02 -0.81307211451E-03  0.10302155177E+01  0.10301242284E+01 0.  0.
     999903    2    3    3    0    0 -0.26404813202E-01 -0.11588246163E+00 -0.59588596411E-01  0.14039112537E+00  0.45087783104E-01 0.  0.
         14    1    1    2    0    0 -0.12901050840E-01  0.45813561713E-02  0.81307211451E-03  0.13714482250E-01  0.00000000000E+00 0.  1.
     999901    1    3    3    0    0  0.39305864041E-01  0.11130110546E+00  0.58775524297E-01  0.88982439238E+00  0.88000000000E+00 0. -1.
        -11    1    4    4    0    0 -0.21423191361E-01 -0.18516282336E-01 -0.53400990835E-02  0.28819847655E-01  0.51100000000E-03 0.  1.
         11    1    4    4    0    0 -0.49816218409E-02 -0.97366179295E-01 -0.54248497328E-01  0.11157127771E+00  0.51100000000E-03 0. -1.
</event>
<event>
 8    1  0.2107254E+004  0.1043930E+01  0.7957747E-01            NaN
         13   -1    0    0    0    0  0.00000000000E+00  0.00000000000E+00  0.74505805969E-08  0.10566000000E+00  0.10566000000E+00 0. -1.
     999900   -1    0    0    0    0 -0.00000000000E+00 -0.00000000000E+00 -0.74505805969E-08  0.93827000000E+00  0.93827000000E+00 0. -1.
     999902    2    1    2    0    0 -0.48629891926E-02 -0.11389547350E-01 -0.30660281216E-02  0.10311718269E+01  0.10310928986E+01 0.  0.
     999903    2    3    3    0    0 -0.54962157792E-01 -0.10766678629E+00  0.59878301933E-01  0.14227294506E+00  0.45201816264E-01 0.  0.
         14    1    1    2    0    0  0.48629891926E-02  0.11389547350E-01  0.30660281216E-02  0.12758173112E-01  0.00000000000E+00 0.  1.
     999901    1    3    3    0    0  0.50099168599E-01  0.96277238942E-01 -0.62944330054E-01  0.88889888183E+00  0.88000000000E+00 0. -1.
        -11    1    4    4    0    0 -0.29405766956E-01 -0.96973857697E-01  0.47919023810E-01  0.11209425574E+00  0.51100000000E-03 0.  1.
         11    1    4    4    0    0 -0.25556390836E-01 -0.10692928595E-01  0.11959278123E-01  0.30178689314E-01  0.51100000000E-03 0. -1.
</event>
<event>
 8    1  0.2107254E+004  0.1043930E+01  0.7957747E-01            NaN
         13   -1    0    0    0    0  0.00000000000E+00  0.00000000000E+00  0.74505805969E-08  0.10566000000E+00  0.10566000000E+00 0. -1.
     999900   -1    0    0    0    0 -0.00000000000E+00 -0.00000000000E+00 -0.74505805969E-08  0.93827000000E+00  0.93827000000E+00 0. -1.
     999902    2    1    2    0    0 -0.69623357798E-02 -0.41425941672E-02  0.11620656853E-01  0.10297640242E+01  0.10296665822E+01 0.  0.
     999903    2    3    3    0    0  0.70640300991E-01 -0.11074359213E+00  0.86002521235E-02  0.13993535253E+00  0.47473605599E-01 0.  0.
         14    1    1    2    0    0  0.69623357798E-02  0.41425941672E-02 -0.11620656853E-01  0.14165975845E-01  0.00000000000E+00 0.  1.
     999901    1    3    3    0    0 -0.77602636771E-01  0.10660099797E+00  0.30204047293E-02  0.88982867162E+00  0.88000000000E+00 0.  1.
        -11    1    4    4    0    0  0.24612616441E-01 -0.20293534025E-01  0.20237536931E-01  0.37781310635E-01  0.51100000000E-03 0. -1.
         11    1    4    4    0    0  0.46027684550E-01 -0.90450058108E-01 -0.11637284807E-01  0.10215404189E+00  0.51100000000E-03 0.  1.
</event>
<event>
 8    1  0.2107254E+004  0.1043930E+01  0.7957747E-01            NaN
         13   -1    0    0    0    0  0.00000000000E+00  0.00000000000E+00  0.74505805969E-08  0.10566000000E+00  0.10566000000E+00 0.  1.
     999900   -1    0    0    0    0 -0.00000000000E+00 -0.00000000000E+00 -0.74505805969E-08  0.93827000000E+00  0.93827000000E+00 0. -1.
     999902    2    1    2    0    0 -0.95681240698E-02 -0.59675090527E-02 -0.63275686880E-02  0.10309994823E+01  0.10309183936E+01 0.  0.
     999903    2    3    3    0    0  0.12500255188E+00  0.41960288323E-01  0.11121002537E-02  0.13944932148E+00  0.45371496775E-01 0.  0.
         14    1    1    2    0    0  0.95681240698E-02  0.59675090527E-02  0.63275686880E-02  0.12930517701E-01  0.00000000000E+00 0.  1.
     999901    1    3    3    0    0 -0.13457067595E+00 -0.47927797376E-01 -0.74396689417E-02  0.89155016082E+00  0.88000000000E+00 0. -1.
        -11    1    4    4    0    0  0.95463128550E-01  0.21078810387E-01 -0.16607682736E-01  0.99164516873E-01  0.51100000000E-03 0.  1.
         11    1    4    4    0    0  0.29539423335E-01  0.20881477937E-01  0.17719782990E-01  0.40284804604E-01  0.51100000000E-03 0. -1.
</event>
<event>
 8    1  0.2107254E+004  0.1043930E+01  0.7957747E-01            NaN
         13   -1    0    0    0    0  0.00000000000E+00  0.00000000000E+00  0.74505805969E-08  0.10566000000E+00  0.10566000000E+00 0. -1.
     999900   -1    0    0    0    0 -0.00000000000E+00 -0.00000000000E+00 -0.74505805969E-08  0.93827000000E+00  0.93827000000E+00 0.  1.
     999902    2    1    2    0    0 -0.10645428562E-01  0.31817061141E-03 -0.91497012615E-02  0.10298892231E+01  0.10297935077E+01 0.  0.
     999903    2    3    3    0    0  0.38585547251E-01 -0.93978217108E-01  0.83011873648E-01  0.13870503701E+00  0.45026285398E-01 0.  0.
         14    1    1    2    0    0  0.10645428562E-01 -0.31817061141E-03  0.91497012615E-02  0.14040776865E-01  0.00000000000E+00 0. -1.
     999901    1    3    3    0    0 -0.49230975813E-01  0.94296387720E-01 -0.92161574910E-01  0.89118418613E+00  0.88000000000E+00 0.  1.
        -11    1    4    4    0    0  0.27717132700E-01 -0.94610455122E-01  0.81058161429E-01  0.12763253629E+00  0.51100000000E-03 0.  1.
         11    1    4    4    0    0  0.10868414551E-01  0.63223801391E-03  0.19537122190E-02  0.11072500720E-01  0.51100000000E-03 0. -1.
</event>
<event>
 8    1  0.2464681E+004  0.1043930E+01  0.7957747E-01            NaN
         13   -1    0    0    0    0  0.00000000000E+00  0.00000000000E+00  0.74505805969E-08  0.10566000000E+00  0.10566000000E+00 0. -1.
     999900   -1    0    0    0    0 -0.00000000000E+00 -0.00000000000E+00 -0.74505805969E-08  0.93827000000E+00  0.93827000000E+00 0.  1.
     999902    2    1    2    0    0 -0.20758113374E-02  0.10040035969E-01  0.87040288727E-02  0.10304811549E+01  0.10303933905E+01 0.  0.
     999903    2    3    3    0    0  0.22701403091E-01 -0.77774207226E-02 -0.12973252887E+00  0.13913607438E+00  0.44186832539E-01 0.  0.
         14    1    1    2    0    0  0.20758113374E-02 -0.10040035969E-01 -0.87040288727E-02  0.13448845065E-01  0.00000000000E+00 0.  1.
     999901    1    3    3    0    0 -0.24777214428E-01  0.17817456691E-01  0.13843655774E+00  0.89134508056E+00  0.88000000000E+00 0. -1.
        -11    1    4    4    0    0  0.19076091867E-01  0.16589664840E-01 -0.73954815946E-01  0.78158110155E-01  0.51100000000E-03 0.  1.
         11    1    4    4    0    0  0.36253112235E-02 -0.24367085562E-01 -0.55777712926E-01  0.60977964221E-01  0.51100000000E-03 0. -1.
</event>
<event>
 8    1  0.2107254E+004  0.1043930E+01  0.7957747E-01            NaN
         13   -1    0    0    0    0  0.00000000000E+00  0.00000000000E+00  0.74505805969E-08  0.10566000000E+00  0.10566000000E+00 0. -1.
     999900   -1    0    0    0    0 -0.00000000000E+00 -0.00000000000E+00 -0.74505805969E-08  0.93827000000E+00  0.93827000000E+00 0. -1.
     999902    2    1    2    0    0  0.42086991260E-03 -0.41989147107E-02 -0.18031159333E-01  0.10254116112E+01  0.10252443815E+01 0.  0.
     999903    2    3    3    0    0 -0.49249124926E-01 -0.82212284647E-01  0.84294177557E-01  0.13466828744E+00  0.42961648249E-01 0.  0.
         14    1    1    2    0    0 -0.42086991260E-03  0.41989147107E-02  0.18031159333E-01  0.18518388783E-01  0.00000000000E+00 0. -1.
     999901    1    3    3    0    0  0.49669994839E-01  0.78013369936E-01 -0.10232533689E+00  0.89074332377E+00  0.88000000000E+00 0. -1.
        -11    1    4    4    0    0 -0.54006881315E-02 -0.10200872218E-01 -0.43367448428E-02  0.12340733492E-01  0.51100000000E-03 0. -1.
         11    1    4    4    0    0 -0.43848436795E-01 -0.72011412429E-01  0.88630922400E-01  0.12232755395E+00  0.51100000000E-03 0.  1.
</event>
<event>
 8    1  0.2107254E+004  0.1043930E+01  0.7957747E-01            NaN
         13   -1    0    0    0    0  0.00000000000E+00  0.00000000000E+00  0.74505805969E-08  0.10566000000E+00  0.10566000000E+00 0.  1.
     999900   -1    0    0    0    0 -0.00000000000E+00 -0.00000000000E+00 -0.74505805969E-08  0.93827000000E+00  0.93827000000E+00 0.  1.
     999902    2    1    2    0    0 -0.46290465161E-02 -0.38946661725E-02 -0.72002747218E-02  0.10345257216E+01  0.10344829763E+01 0.  0.
     999903    2    3    3    0    0  0.70190077259E-01 -0.29704650506E-01  0.11203564748E+00  0.14296458420E+00  0.45583690313E-01 0.  0.
         14    1    1    2    0    0  0.46290465161E-02  0.38946661725E-02  0.72002747218E-02  0.94042784047E-02  0.00000000000E+00 0.  1.
     999901    1    3    3    0    0 -0.74819123775E-01  0.25809984333E-01 -0.11923592220E+00  0.89156113740E+00  0.88000000000E+00 0.  1.
        -11    1    4    4    0    0  0.37314280097E-01 -0.38544703868E-01  0.57235155833E-01  0.78448542878E-01  0.51100000000E-03 0. -1.
         11    1    4    4    0    0  0.32875797162E-01  0.88400533619E-02  0.54800491643E-01  0.64516041321E-01  0.51100000000E-03 0.  1.
</event>
<event>
 8    1  0.2107254E+004  0.1043930E+01  0.7957747E-01            NaN
         13   -1    0    0    0    0  0.00000000000E+00  0.00000000000E+00  0.74505805969E-08  0.10566000000E+00  0.10566000000E+00 0. -1.
     999900   -1    0    0    0    0 -0.00000000000E+00 -0.00000000000E+00 -0.74505805969E-08  0.93827000000E+00  0.93827000000E+00 0. -1.
     999902    2    1    2    0    0 -0.65689135233E-02  0.65785220377E-02 -0.10800549940E-01  0.10296794051E+01  0.10295807874E+01 0.  0.
     999903    2    3    3    0    0  0.59463919702E-01  0.11650487242E+00  0.20943088480E-01  0.13981885635E+00  0.44736524130E-01 0.  0.
         14    1    1    2    0    0  0.65689135233E-02 -0.65785220377E-02  0.10800549940E-01  0.14250594938E-01  0.00000000000E+00 0. -1.
     999901    1    3    3    0    0 -0.66032833226E-01 -0.10992635039E+00 -0.31743638419E-01  0.88986054871E+00  0.88000000000E+00 0.  1.
        -11    1    4    4    0    0  0.46845539644E-01  0.65879690811E-01  0.31187372342E-01  0.86646128364E-01  0.51100000000E-03 0. -1.
         11    1    4    4    0    0  0.12618380058E-01  0.50625181614E-01 -0.10244283862E-01  0.53172727987E-01  0.51100000000E-03 0.  1.
</event>
<event>
 8    1  0.2179523E+004  0.1043930E+01  0.7957747E-01            NaN
         13   -1    0    0    0    0  0.00000000000E+00  0.00000000000E+00  0.74505805969E-08  0.10566000000E+00  0.10566000000E+00 0.  1.
     999900   -1    0    0    0    0 -0.00000000000E+00 -0.00000000000E+00 -0.74505805969E-08  0.93827000000E+00  0.93827000000E+00 0.  1.
     999902    2    1    2    0    0 -0.11690347780E-01  0.49598794111E-02  0.31651699006E-02  0.10308424893E+01  0.10307594069E+01 0.  0.
     999903    2    3    3    0    0 -0.80310722750E-01 -0.41947866230E-01 -0.99373916097E-01  0.14099792053E+00  0.42376912634E-01 0.  0.
         14    1    1    2    0    0  0.11690347780E-01 -0.49598794111E-02 -0.31651699006E-02  0.13087510668E-01  0.00000000000E+00 0. -1.
     999901    1    3    3    0    0  0.68620374970E-01  0.46907745641E-01  0.10253908600E+00  0.88984456880E+00  0.88000000000E+00 0. -1.
        -11    1    4    4    0    0 -0.61107432451E-01 -0.21321418523E-01 -0.42231363104E-01  0.77281759421E-01  0.51100000000E-03 0. -1.
         11    1    4    4    0    0 -0.19203290299E-01 -0.20626447708E-01 -0.57142552994E-01  0.63716161113E-01  0.51100000000E-03 0.  1.
</event>
<event>
 8    1  0.2107254E+004  0.1043930E+01  0.7957747E-01            NaN
         13   -1    0    0    0    0  0.00000000000E+00  0.00000000000E+00  0.74505805969E-08  0.10566000000E+00  0.10566000000E+00 0. -1.
     999900   -1    0    0    0    0 -0.00000000000E+00 -0.00000000000E+00 -0.74505805969E-08  0.93827000000E+00  0.93827000000E+00 0. -1.
     999902    2    1    2    0    0  0.47877628452E-02  0.89171746037E-03 -0.12827068071E-01  0.10302095223E+01  0.10301181526E+01 0.  0.
     999903    2    3    3    0    0 -0.19533230302E-01  0.10076087199E-01  0.12891918473E+00  0.13848766906E+00  0.45558793559E-01 0.  0.
         14    1    1    2    0    0 -0.47877628452E-02 -0.89171746037E-03  0.12827068071E-01  0.13720477702E-01  0.00000000000E+00 0. -1.
     999901    1    3    3    0    0  0.24320993147E-01 -0.91843697382E-02 -0.14174625280E+00  0.89172185324E+00  0.88000000000E+00 0. -1.
        -11    1    4    4    0    0 -0.18760401380E-01  0.26216478647E-01  0.65018449093E-01  0.72573523107E-01  0.51100000000E-03 0.  1.
         11    1    4    4    0    0 -0.77282892223E-03 -0.16140391449E-01  0.63900735640E-01  0.65914145955E-01  0.51100000000E-03 0. -1.
</event>
<event>
 8    1  0.2107254E+004  0.1043930E+01  0.7957747E-01            NaN
         13   -1    0    0    0    0  0.00000000000E+00  0.00000000000E+00  0.74505805969E-08  0.10566000000E+00  0.10566000000E+00 0. -1.
     999900   -1    0    0    0    0 -0.00000000000E+00 -0.00000000000E+00 -0.74505805969E-08  0.93827000000E+00  0.93827000000E+00 0.  1.
     999902    2    1    2    0    0 -0.11010675643E-04 -0.30632356461E-02 -0.13381520666E-01  0.10302023407E+01  0.10301108747E+01 0.  0.
     999903    2    3    3    0    0  0.16015592382E-01  0.13131863089E+00  0.76835500030E-03  0.13974428049E+00  0.45019901605E-01 0.  0.
         14    1    1    2    0    0  0.11010675643E-04  0.30632356461E-02  0.13381520666E-01  0.13727659276E-01  0.00000000000E+00 0. -1.
     999901    1    3    3    0    0 -0.16026603057E-01 -0.13438186654E+00 -0.14149875666E-01  0.89045806024E+00  0.88000000000E+00 0.  1.
        -11    1    4    4    0    0 -0.10463902466E-01  0.69712879289E-01  0.12708915192E-01  0.71632090853E-01  0.51100000000E-03 0. -1.
         11    1    4    4    0    0  0.26479494848E-01  0.61605751603E-01 -0.11940560191E-01  0.68112189634E-01  0.51100000000E-03 0.  1.
</event>
<event>
 8    1  0.2107254E+004  0.1043930E+01  0.7957747E-01            NaN
         13   -1    0    0    0    0  0.00000000000E+00  0.00000000000E+00  0.74505805969E-08  0.10566000000E+00  0.10566000000E+00 0.  1.
     999900   -1    0    0    0    0 -0.00000000000E+00 -0.00000000000E+00 -0.74505805969E-08  0.93827000000E+00  0.93827000000E+00 0. -1.
     999902    2    1    2    0    0 -0.10477164548E-01 -0.20014110557E-02  0.50937035825E-02  0.10321095753E+01  0.10320418853E+01 0.  0.
     999903    2    3    3    0    0  0.10285471974E+00 -0.22946093228E-01  0.83355480186E-01  0.14115070906E+00  0.43240837454E-01 0.  0.
         14    1    1    2    0    0  0.10477164548E-01  0.20014110557E-02 -0.50937035825E-02  0.11820424670E-01  0.00000000000E+00 0. -1.
     999901    1    3    3    0    0 -0.11333188429E+00  0.20944682173E-01 -0.78261776604E-01  0.89095886627E+00  0.88000000000E+00 0. -1.
        -11    1    4    4    0    0  0.38710949733E-01  0.74169481651E-02  0.47223912571E-01  0.61513476482E-01  0.51100000000E-03 0. -1.
         11    1    4    4    0    0  0.64143770008E-01 -0.30363041394E-01  0.36131567615E-01  0.79637232579E-01  0.51100000000E-03 0.  1.
</event>
<event>
 8    1  0.2107254E+004  0.1043930E+01  0.7957747E-01            NaN
         13   -1    0    0    0    0  0.00000000000E+00  0.00000000000E+00  0.74505805969E-08  0.10566000000E+00  0.10566000000E+00 0. -1.
     999900   -1    0    0    0    0 -0.00000000000E+00 -0.00000000000E+00 -0.74505805969E-08  0.93827000000E+00  0.93827000000E+00 0.  1.
     999902    2    1    2    0    0  0.67850130993E-02  0.73709404084E-02  0.11370908472E-01  0.10287753068E+01  0.10286636803E+01 0.  0.
     999903    2    3    3    0    0 -0.70369476461E-01  0.80445872307E-01 -0.75145201697E-01  0.13817000804E+00  0.44952732903E-01 0.  0.
         14    1    1    2    0    0 -0.67850130993E-02 -0.73709404084E-02 -0.11370908472E-01  0.15154693159E-01  0.00000000000E+00 0.  1.
     999901    1    3    3    0    0  0.77154489560E-01 -0.73074931898E-01  0.86516110169E-01  0.89060529880E+00  0.88000000000E+00 0. -1.
        -11    1    4    4    0    0 -0.43441964436E-01  0.77230179499E-01 -0.61016921337E-01  0.10758731668E+00  0.51100000000E-03 0. -1.
         11    1    4    4    0    0 -0.26927512025E-01  0.32156928072E-02 -0.14128280360E-01  0.30582691363E-01  0.51100000000E-03 0.  1.
</event>
<event>
 8    1  0.2107254E+004  0.1043930E+01  0.7957747E-01            NaN
         13   -1    0    0    0    0  0.00000000000E+00  0.00000000000E+00  0.74505805969E-08  0.10566000000E+00  0.10566000000E+00 0. -1.
     999900   -1    0    0    0    0 -0.00000000000E+00 -0.00000000000E+00 -0.74505805969E-08  0.93827000000E+00  0.93827000000E+00 0.  1.
     999902    2    1    2    0    0 -0.12739869576E-01 -0.19311472315E-02 -0.44806247315E-02  0.10302878006E+01  0.10301974774E+01 0.  0.
     999903    2    3    3    0    0  0.66731990038E-01  0.51823877380E-01  0.10029484906E+00  0.13889379173E+00  0.45755391728E-01 0.  0.
         14    1    1    2    0    0  0.12739869576E-01  0.19311472315E-02  0.44806247315E-02  0.13642199399E-01  0.00000000000E+00 0. -1.
     999901    1    3    3    0    0 -0.79471859615E-01 -0.53755024612E-01 -0.10477547379E+00  0.89139400887E+00  0.88000000000E+00 0.  1.
        -11    1    4    4    0    0  0.15482640247E-02  0.19959150925E-01  0.39287935164E-01  0.44097253855E-01  0.51100000000E-03 0. -1.
         11    1    4    4    0    0  0.65183726013E-01  0.31864726455E-01  0.61006913896E-01  0.94796537876E-01  0.51100000000E-03 0.  1.
</event>
<event>
 8    1  0.2107254E+004  0.1043930E+01  0.7957747E-01            NaN
         13   -1    0    0    0    0  0.00000000000E+00  0.00000000000E+00  0.74505805969E-08  0.10566000000E+00  0.10566000000E+00 0. -1.
     999900   -1    0    0    0    0 -0.00000000000E+00 -0.00000000000E+00 -0.74505805969E-08  0.93827000000E+00  0.93827000000E+00 0. -1.
     999902    2    1    2    0    0  0.12437471317E-01  0.27890296283E-02  0.43084429172E-02  0.10304751845E+01  0.10303873417E+01 0.  0.
     999903    2    3    3    0    0 -0.40366289559E-01 -0.85109856345E-01  0.93627209348E-01  0.14003018715E+00  0.44376502826E-01 0.  0.
         14    1    1    2    0    0 -0.12437471317E-01 -0.27890296283E-02 -0.43084429172E-02  0.13454815473E-01  0.00000000000E+00 0.  1.
     999901    1    3    3    0    0  0.52803760876E-01  0.87898885973E-01 -0.89318766431E-01  0.89044499738E+00  0.88000000000E+00 0.  1.
        -11    1    4    4    0    0 -0.69749223911E-02  0.68997609928E-03  0.22831317445E-01  0.23888402765E-01  0.51100000000E-03 0. -1.
         11    1    4    4    0    0 -0.33391367168E-01 -0.85799832444E-01  0.70795891903E-01  0.11614178438E+00  0.51100000000E-03 0.  1.
</event>
<event>
 8    1  0.2107254E+004  0.1043930E+01  0.7957747E-01            NaN
         13   -1    0    0    0    0  0.00000000000E+00  0.00000000000E+00  0.74505805969E-08  0.10566000000E+00  0.10566000000E+00 0.  1.
     999900   -1    0    0    0    0 -0.00000000000E+00 -0.00000000000E+00 -0.74505805969E-08  0.93827000000E+00  0.93827000000E+00 0. -1.
     999902    2    1    2    0    0 -0.60714201488E-02 -0.10008285055E-01  0.24952929345E-03  0.10322214485E+01  0.10321550410E+01 0.  0.
     999903    2    3    3    0    0 -0.34585318387E-01 -0.90889902998E-01  0.94830727452E-01  0.14300804246E+00  0.44736055077E-01 0.  0.
         14    1    1    2    0    0  0.60714201488E-02  0.10008285055E-01 -0.24952929345E-03  0.11708551458E-01  0.00000000000E+00 0. -1.
     999901    1    3    3    0    0  0.28513898238E-01  0.80881617943E-01 -0.94581198159E-01  0.88921340608E+00  0.88000000000E+00 0. -1.
        -11    1    4    4    0    0 -0.34697067330E-01 -0.30725778810E-01  0.48364116421E-01  0.66987378237E-01  0.51100000000E-03 0.  1.
         11    1    4    4    0    0  0.11174894294E-03 -0.60164124188E-01  0.46466611031E-01  0.76020664222E-01  0.51100000000E-03 0. -1.
</event>
<event>
 8    1  0.2107254E+004  0.1043930E+01  0.7957747E-01            NaN
         13   -1    0    0    0    0  0.00000000000E+00  0.00000000000E+00  0.74505805969E-08  0.10566000000E+00  0.10566000000E+00 0. -1.
     999900   -1    0    0    0    0 -0.00000000000E+00 -0.00000000000E+00 -0.74505805969E-08  0.93827000000E+00  0.93827000000E+00 0.  1.
     999902    2    1    2    0    0 -0.10017182830E-01  0.80879004432E-02 -0.64271007711E-02  0.10295402220E+01  0.10294396549E+01 0.  0.
     999903    2    3    3    0    0 -0.26010065591E-01  0.39860671567E-01 -0.12478325366E+00  0.14090449228E+00  0.44920139135E-01 0.  0.
         14    1    1    2    0    0  0.10017182830E-01 -0.80879004432E-02  0.64271007711E-02  0.14389777960E-01  0.00000000000E+00 0.  1.
     999901    1    3    3    0    0  0.15992882761E-01 -0.31772771124E-01  0.11835615289E+00  0.88863572976E+00  0.88000000000E+00 0.  1.
        -11    1    4    4    0    0 -0.36785063473E-01  0.20116292633E-01 -0.92446906891E-01  0.10151107249E+00  0.51100000000E-03 0.  1.
         11    1    4    4    0    0  0.10774997882E-01  0.19744378935E-01 -0.32336346769E-01  0.39393419784E-01  0.51100000000E-03 0. -1.
</event>
<event>
 8    1  0.2107254E+004  0.1043930E+01  0.7957747E-01            NaN
         13   -1    0    0    0    0  0.00000000000E+00  0.00000000000E+00  0.74505805969E-08  0.10566000000E+00  0.10566000000E+00 0. -1.
     999900   -1    0    0    0    0 -0.00000000000E+00 -0.00000000000E+00 -0.74505805969E-08  0.93827000000E+00  0.93827000000E+00 0. -1.
     999902    2    1    2    0    0  0.11517197868E-01 -0.68518411095E-02 -0.83085996324E-03  0.10305030159E+01  0.10304155385E+01 0.  0.
     999903    2    3    3    0    0 -0.12512632127E+00 -0.40020016356E-01  0.64225910282E-02  0.13931044878E+00  0.45912454521E-01 0.  0.
         14    1    1    2    0    0 -0.11517197868E-01  0.68518411095E-02  0.83085996324E-03  0.13426984084E-01  0.00000000000E+00 0. -1.
     999901    1    3    3    0    0  0.13664351913E+00  0.33168175247E-01 -0.72534509915E-02  0.89119256714E+00  0.88000000000E+00 0. -1.
        -11    1    4    4    0    0 -0.40081002028E-01 -0.34403347413E-01  0.10994886161E-01  0.53955775219E-01  0.51100000000E-03 0.  1.
         11    1    4    4    0    0 -0.85045319240E-01 -0.56166689428E-02 -0.45722951329E-02  0.85354673559E-01  0.51100000000E-03 0. -1.
</event>
<event>
 8    1  0.2107254E+004  0.1043930E+01  0.7957747E-01            NaN
         13   -1    0    0    0    0  0.00000000000E+00  0.00000000000E+00  0.74505805969E-08  0.10566000000E+00  0.10566000000E+00 0.  1.
     999900   -1    0    0    0    0 -0.00000000000E+00 -0.00000000000E+00 -0.74505805969E-08  0.93827000000E+00  0.93827000000E+00 0.  1.
     999902    2    1    2    0    0 -0.53403819260E-02 -0.10990402032E-01 -0.83208164485E-02  0.10291467459E+01  0.10290405628E+01 0.  0.
     999903    2    3    3    0    0  0.44577044314E-01 -0.10446186970E+00 -0.69450527243E-01  0.14068430647E+00  0.45489594976E-01 0.  0.
         14    1    1    2    0    0  0.53403819260E-02  0.10990402032E-01  0.83208164485E-02  0.14783254118E-01  0.00000000000E+00 0.  1.
     999901    1    3    3    0    0 -0.49917426240E-01  0.93471467666E-01  0.61129710795E-01  0.88846243942E+00  0.88000000000E+00 0. -1.
        -11    1    4    4    0    0  0.29790742071E-02 -0.35769125817E-01 -0.43259658058E-01  0.56213560473E-01  0.51100000000E-03 0.  1.
         11    1    4    4    0    0  0.41597970107E-01 -0.68692743881E-01 -0.26190869185E-01  0.84470745993E-01  0.51100000000E-03 0. -1.
</event>
<event>
 8    1  0.2107254E+004  0.1043930E+01  0.7957747E-01            NaN
         13   -1    0    0    0    0  0.00000000000E+00  0.00000000000E+00  0.74505805969E-08  0.10566000000E+00  0.10566000000E+00 0. -1.
     999900   -1    0    0    0    0 -0.00000000000E+00 -0.00000000000E+00 -0.74505805969E-08  0.93827000000E+00  0.93827000000E+00 0.  1.
     999902    2    1    2    0    0 -0.17150544630E-02 -0.11224303360E-01  0.69625790034E-02  0.10306106943E+01  0.10305246233E+01 0.  0.
     999903    2    3    3    0    0  0.32089160922E-01 -0.86114272407E-01 -0.96764761993E-01  0.14071710870E+00  0.44637465830E-01 0.  0.
         14    1    1    2    0    0  0.17150544630E-02  0.11224303360E-01 -0.69625790034E-02  0.13319305691E-01  0.00000000000E+00 0. -1.
     999901    1    3    3    0    0 -0.33804215385E-01  0.74889969047E-01  0.10372734100E+00  0.88989358561E+00  0.88000000000E+00 0. -1.
        -11    1    4    4    0    0 -0.52955307212E-02 -0.27391847568E-01 -0.48679560625E-01  0.56109862791E-01  0.51100000000E-03 0. -1.
         11    1    4    4    0    0  0.37384691643E-01 -0.58722424839E-01 -0.48085201369E-01  0.84607245907E-01  0.51100000000E-03 0.  1.
</event>
<event>
 8    1  0.2107254E+004  0.1043930E+01  0.7957747E-01            NaN
         13   -1    0    0    0    0  0.00000000000E+00  0.00000000000E+00  0.74505805969E-08  0.10566000000E+00  0.10566000000E+00 0.  1.
     999900   -1    0    0    0    0 -0.00000000000E+00 -0.00000000000E+00 -0.74505805969E-08  0.93827000000E+00  0.93827000000E+00 0. -1.
     999902    2    1    2    0    0 -0.30908658995E-02  0.90309478527E-02  0.66255958105E-02  0.10323106200E+01  0.10322452258E+01 0.  0.
     999903    2    3    3    0    0 -0.68709864548E-01  0.11644078726E+00 -0.11843543058E-01  0.14316280573E+00  0.45561134836E-01 0.  0.
         14    1    1    2    0    0  0.30908658995E-02 -0.90309478527E-02 -0.66255958105E-02  0.11619379974E-01  0.00000000000E+00 0. -1.
     999901    1    3    3    0    0  0.65618998648E-01 -0.10740983941E+00  0.18469138868E-01  0.88914781430E+00  0.88000000000E+00 0. -1.
        -11    1    4    4    0    0 -0.36012147284E-01  0.44927813662E-01  0.15967270476E-01  0.59754481338E-01  0.51100000000E-03 0.  1.
         11    1    4    4    0    0 -0.32697717264E-01  0.71512973597E-01 -0.27810813534E-01  0.83408324388E-01  0.51100000000E-03 0. -1.
</event>
<event>
 8    1  0.2107254E+004  0.1043930E+01  0.7957747E-01            NaN
         13   -1    0    0    0    0  0.00000000000E+00  0.00000000000E+00  0.74505805969E-08  0.10566000000E+00  0.10566000000E+00 0. -1.
     999900   -1    0    0    0    0 -0.00000000000E+00 -0.00000000000E+00 -0.74505805969E-08  0.93827000000E+00  0.93827000000E+00 0. -1.
     999902    2    1    2    0    0 -0.12663072394E-02  0.14197869389E-01  0.85465841829E-03  0.10296501726E+01  0.10295511471E+01 0.  0.
     999903    2    3    3    0    0 -0.17049985724E-01  0.13324638545E+00  0.83484618615E-02  0.14146222472E+00  0.43549546031E-01 0.  0.
         14    1    1    2    0    0  0.12663072394E-02 -0.14197869389E-01 -0.85465841829E-03  0.14279827388E-01  0.00000000000E+00 0.  1.
     999901    1    3    3    0    0  0.15783678484E-01 -0.11904851606E+00 -0.74938034432E-02  0.88818794789E+00  0.88000000000E+00 0. -1.
        -11    1    4    4    0    0 -0.16846690417E-01  0.16623675629E-01 -0.46187701407E-02  0.24119530013E-01  0.51100000000E-03 0. -1.
         11    1    4    4    0    0 -0.20329530625E-03  0.11662270982E+00  0.12967232002E-01  0.11734269471E+00  0.51100000000E-03 0.  1.
</event>
<event>
 8    1  0.2107254E+004  0.1043930E+01  0.7957747E-01            NaN
         13   -1    0    0    0    0  0.00000000000E+00  0.00000000000E+00  0.74505805969E-08  0.10566000000E+00  0.10566000000E+00 0. -1.
     999900   -1    0    0    0    0 -0.00000000000E+00 -0.00000000000E+00 -0.74505805969E-08  0.93827000000E+00  0.93827000000E+00 0. -1.
     999902    2    1    2    0    0  0.72222191534E-02 -0.10222267027E-01 -0.11900540191E-01  0.10266592719E+01  0.10265139953E+01 0.  0.
     999903    2    3    3    0    0  0.79011164913E-01  0.82325074552E-01 -0.61541083971E-01  0.13751201369E+00  0.45848302186E-01 0.  0.
         14    1    1    2    0    0 -0.72222191534E-02  0.10222267027E-01  0.11900540191E-01  0.17270728111E-01  0.00000000000E+00 0. -1.
     999901    1    3    3    0    0 -0.71788945759E-01 -0.92547341578E-01  0.49640543780E-01  0.88914725819E+00  0.88000000000E+00 0.  1.
        -11    1    4    4    0    0  0.26646530937E-01  0.17594699309E-01  0.31262620158E-02  0.32088092651E-01  0.51100000000E-03 0. -1.
         11    1    4    4    0    0  0.52364633975E-01  0.64730375243E-01 -0.64667345987E-01  0.10542392104E+00  0.51100000000E-03 0.  1.
</event>
<event>
 8    1  0.2107254E+004  0.1043930E+01  0.7957747E-01            NaN
         13   -1    0    0    0    0  0.00000000000E+00  0.00000000000E+00  0.74505805969E-08  0.10566000000E+00  0.10566000000E+00 0. -1.
     999900   -1    0    0    0    0 -0.00000000000E+00 -0.00000000000E+00 -0.74505805969E-08  0.93827000000E+00  0.93827000000E+00 0.  1.
     999902    2    1    2    0    0 -0.11654498750E-01  0.77481021986E-02  0.13566462281E-02  0.10298693842E+01  0.10297733962E+01 0.  0.
     999903    2    3    3    0    0 -0.63334459308E-01 -0.89457216749E-01 -0.74482231917E-01  0.13977319397E+00  0.44442046722E-01 0.  0.
         14    1    1    2    0    0  0.11654498750E-01 -0.77481021986E-02 -0.13566462281E-02  0.14060615839E-01  0.00000000000E+00 0. -1.
     999901    1    3    3    0    0  0.51679960558E-01  0.97205318947E-01  0.75838878145E-01  0.89009619019E+00  0.88000000000E+00 0.  1.
        -11    1    4    4    0    0 -0.24318476260E-02 -0.21158994243E-01 -0.33048559148E-01  0.39320291238E-01  0.51100000000E-03 0.  1.
         11    1    4    4    0    0 -0.60902611682E-01 -0.68298222506E-01 -0.41433672769E-01  0.10045290273E+00  0.51100000000E-03 0. -1.
</event>
<event>
 8    1  0.2107254E+004  0.1043930E+01  0.7957747E-01            NaN
         13   -1    0    0    0    0  0.00000000000E+00  0.00000000000E+00  0.74505805969E-08  0.10566000000E+00  0.10566000000E+00 0.  1.
     999900   -1    0    0    0    0 -0.00000000000E+00 -0.00000000000E+00 -0.74505805969E-08  0.93827000000E+00  0.93827000000E+00 0.  1.
     999902    2    1    2    0    0 -0.72376251174E-02  0.50736123910E-02 -0.94459870947E-02  0.10309935618E+01  0.10309123984E+01 0.  0.
     999903    2    3    3    0    0  0.83086766722E-01 -0.82912042322E-01 -0.62450033994E-01  0.14042666363E+00  0.45186541659E-01 0.  0.
         14    1    1    2    0    0  0.72376251174E-02 -0.50736123910E-02  0.94459870947E-02  0.12936438158E-01  0.00000000000E+00 0.  1.
     999901    1    3    3    0    0 -0.90324391839E-01  0.87985654713E-01  0.53004046899E-01  0.89056689821E+00  0.88000000000E+00 0.  1.
        -11    1    4    4    0    0  0.34382259894E-01 -0.40794042210E-01 -0.40672230868E-02  0.53507916236E-01  0.51100000000E-03 0.  1.
         11    1    4    4    0    0  0.48704506828E-01 -0.42118000112E-01 -0.58382810907E-01  0.86918747398E-01  0.51100000000E-03 0. -1.
</event>
<event>
 8    1  0.2107254E+004  0.1043930E+01  0.7957747E-01            NaN
         13   -1    0    0    0    0  0.00000000000E+00  0.00000000000E+00  0.74505805969E-08  0.10566000000E+00  0.10566000000E+00 0.  1.
     999900   -1    0    0    0    0 -0.00000000000E+00 -0.00000000000E+00 -0.74505805969E-08  0.93827000000E+00  0.93827000000E+00 0.  1.
     999902    2    1    2    0    0  0.10797371884E-01 -0.35712829150E-02  0.95593443137E-02  0.10290734067E+01  0.10289661598E+01 0.  0.
     999903    2    3    3    0    0 -0.10557633577E+00 -0.37827293058E-01  0.68311717277E-01  0.13881043689E+00  0.44995331943E-01 0.  0.
         14    1    1    2    0    0 -0.10797371884E-01  0.35712829150E-02 -0.95593443137E-02  0.14856593317E-01  0.00000000000E+00 0.  1.
     999901    1    3    3    0    0  0.11637370765E+00  0.34256010143E-01 -0.58752372964E-01  0.89026296980E+00  0.88000000000E+00 0.  1.
        -11    1    4    4    0    0 -0.53027668960E-01 -0.39787031587E-01  0.50319064556E-01  0.83229868057E-01  0.51100000000E-03 0.  1.
         11    1    4    4    0    0 -0.52548666808E-01  0.19597385297E-02  0.17992652721E-01  0.55580568829E-01  0.51100000000E-03 0. -1.
</event>
<event>
 8    1  0.2107254E+004  0.1043930E+01  0.7957747E-01            NaN
         13   -1    0    0    0    0  0.00000000000E+00  0.00000000000E+00  0.74505805969E-08  0.10566000000E+00  0.10566000000E+00 0.  1.
     999900   -1    0    0    0    0 -0.00000000000E+00 -0.00000000000E+00 -0.74505805969E-08  0.93827000000E+00  0.93827000000E+00 0.  1.
     999902    2    1    2    0    0 -0.13577646510E-01 -0.69076210992E-04 -0.29056953206E-02  0.10300447445E+01  0.10299511519E+01 0.  0.
     999903    2    3    3    0    0 -0.61313591789E-02  0.10661087088E+00 -0.78755096290E-01  0.14033176268E+00  0.45685523648E-01 0.  0.
         14    1    1    2    0    0  0.13577646510E-01  0.69076210992E-04  0.29056953206E-02  0.13885255546E-01  0.00000000000E+00 0.  1.
     999901    1    3    3    0    0 -0.74462873315E-02 -0.10667994709E+00  0.75849400969E-01  0.88971298177E+00  0.88000000000E+00 0. -1.
        -11    1    4    4    0    0 -0.21376222672E-01  0.24122565541E-01 -0.23234095734E-01  0.39735694150E-01  0.51100000000E-03 0. -1.
         11    1    4    4    0    0  0.15244863493E-01  0.82488305338E-01 -0.55521000556E-01  0.10059606853E+00  0.51100000000E-03 0.  1.
</event>
<event>
 8    1  0.2107254E+004  0.1043930E+01  0.7957747E-01            NaN
         13   -1    0    0    0    0  0.00000000000E+00  0.00000000000E+00  0.74505805969E-08  0.10566000000E+00  0.10566000000E+00 0. -1.
     999900   -1    0    0    0    0 -0.00000000000E+00 -0.00000000000E+00 -0.74505805969E-08  0.93827000000E+00  0.93827000000E+00 0. -1.
     999902    2    1    2    0    0 -0.63146352541E-02  0.94800059204E-02  0.50003860036E-02  0.10314901853E+01  0.10314151702E+01 0.  0.
     999903    2    3    3    0    0 -0.36715325403E-01  0.70455772029E-01  0.10983846962E+00  0.14265202800E+00  0.44419373621E-01 0.  0.
         14    1    1    2    0    0  0.63146352541E-02 -0.94800059204E-02 -0.50003860036E-02  0.12439814743E-01  0.00000000000E+00 0. -1.
     999901    1    3    3    0    0  0.30400690149E-01 -0.60975766109E-01 -0.10483808362E+00  0.88883815725E+00  0.88000000000E+00 0.  1.
        -11    1    4    4    0    0 -0.10845701876E-01  0.18394105132E-01  0.67316653810E-01  0.70624113119E-01  0.51100000000E-03 0.  1.
         11    1    4    4    0    0 -0.25869623527E-01  0.52061666897E-01  0.42521815813E-01  0.72027914884E-01  0.51100000000E-03 0. -1.
</event>
<event>
 8    1  0.2107254E+004  0.1043930E+01  0.7957747E-01            NaN
         13   -1    0    0    0    0  0.00000000000E+00  0.00000000000E+00  0.74505805969E-08  0.10566000000E+00  0.10566000000E+00 0.  1.
     999900   -1    0    0    0    0 -0.00000000000E+00 -0.00000000000E+00 -0.74505805969E-08  0.93827000000E+00  0.93827000000E+00 0.  1.
     999902    2    1    2    0    0  0.79820586592E-02 -0.32371704882E-02  0.11559358327E-01  0.10295143384E+01  0.10294134066E+01 0.  0.
     999903    2    3    3    0    0 -0.10466775050E+00 -0.82192275919E-02  0.80508652595E-01  0.13964423243E+00  0.44676333918E-01 0.  0.
         14    1    1    2    0    0 -0.79820586592E-02  0.32371704882E-02 -0.11559358327E-01  0.14415661557E-01  0.00000000000E+00 0. -1.
     999901    1    3    3    0    0  0.11264980915E+00  0.49820571037E-02 -0.68949294268E-01  0.88987010601E+00  0.88000000000E+00 0.  1.
        -11    1    4    4    0    0 -0.61584061888E-02  0.10724827129E-01  0.16577436415E-01  0.20688653964E-01  0.51100000000E-03 0. -1.
         11    1    4    4    0    0 -0.98509344306E-01 -0.18944054721E-01  0.63931216180E-01  0.11895557847E+00  0.51100000000E-03 0.  1.
</event>
<event>
 8    1  0.2107254E+004  0.1043930E+01  0.7957747E-01            NaN
         13   -1    0    0    0    0  0.00000000000E+00  0.00000000000E+00  0.74505805969E-08  0.10566000000E+00  0.10566000000E+00 0.  1.
     999900   -1    0    0    0    0 -0.00000000000E+00 -0.00000000000E+00 -0.74505805969E-08  0.93827000000E+00  0.93827000000E+00 0.  1.
     999902    2    1    2    0    0 -0.61959560370E-02 -0.35079084429E-02 -0.11699767168E-01  0.10302340209E+01  0.10301429793E+01 0.  0.
     999903    2    3    3    0    0  0.43108198478E-01  0.57814992518E-01  0.10890462041E+00  0.13852957647E+00  0.46144740481E-01 0.  0.
         14    1    1    2    0    0  0.61959560370E-02  0.35079084429E-02  0.11699767168E-01  0.13695979142E-01  0.00000000000E+00 0.  1.
     999901    1    3    3    0    0 -0.49304154515E-01 -0.61322900961E-01 -0.12060438758E+00  0.89170444439E+00  0.88000000000E+00 0.  1.
        -11    1    4    4    0    0  0.46232314882E-02  0.71586653857E-03  0.42858078280E-01  0.43115690057E-01  0.51100000000E-03 0. -1.
         11    1    4    4    0    0  0.38484966990E-01  0.57099125979E-01  0.66046542135E-01  0.95413886415E-01  0.51100000000E-03 0.  1.
</event>
<event>
 8    1  0.2107254E+004  0.1043930E+01  0.7957747E-01            NaN
         13   -1    0    0    0    0  0.00000000000E+00  0.00000000000E+00  0.74505805969E-08  0.10566000000E+00  0.10566000000E+00 0. -1.
     999900   -1    0    0    0    0 -0.00000000000E+00 -0.00000000000E+00 -0.74505805969E-08  0.93827000000E+00  0.93827000000E+00 0.  1.
     999902    2    1    2    0    0  0.48215684903E-02  0.43106634724E-02 -0.99887913560E-02  0.10320301977E+01  0.10319615902E+01 0.  0.
     999903    2    3    3    0    0 -0.42824651704E-01  0.14111766727E-01 -0.12781698540E+00  0.14284534220E+00  0.45105623548E-01 0.  0.
         14    1    1    2    0    0 -0.48215684903E-02 -0.43106634724E-02  0.99887913560E-02  0.11899802311E-01  0.00000000000E+00 0. -1.
     999901    1    3    3    0    0  0.47646220194E-01 -0.98011032548E-02  0.11782819405E+00  0.88918485549E+00  0.88000000000E+00 0. -1.
        -11    1    4    4    0    0 -0.42523984898E-01  0.26548953940E-01 -0.89870190768E-01  0.10290796158E+00  0.51100000000E-03 0. -1.
         11    1    4    4    0    0 -0.30066680582E-03 -0.12437187213E-01 -0.37946794637E-01  0.39937380617E-01  0.51100000000E-03 0.  1.
</event>
<event>
 8    1  0.2107254E+004  0.1043930E+01  0.7957747E-01            NaN
         13   -1    0    0    0    0  0.00000000000E+00  0.00000000000E+00  0.74505805969E-08  0.10566000000E+00  0.10566000000E+00 0.  1.
     999900   -1    0    0    0    0 -0.00000000000E+00 -0.00000000000E+00 -0.74505805969E-08  0.93827000000E+00  0.93827000000E+00 0.  1.
     999902    2    1    2    0    0  0.74506962097E-02  0.96260612051E-02 -0.85844053263E-02  0.10290348349E+01  0.10289270263E+01 0.  0.
     999903    2    3    3    0    0  0.88462207094E-01  0.92974851871E-01  0.37889060281E-01  0.14017620227E+00  0.41760048259E-01 0.  0.
         14    1    1    2    0    0 -0.74506962097E-02 -0.96260612051E-02  0.85844053263E-02  0.14895165093E-01  0.00000000000E+00 0. -1.
     999901    1    3    3    0    0 -0.81011510884E-01 -0.83348790666E-01 -0.46473465607E-01  0.88885863263E+00  0.88000000000E+00 0.  1.
        -11    1    4    4    0    0  0.39158040719E-01  0.64930884869E-01  0.34626232035E-01  0.83358317094E-01  0.51100000000E-03 0. -1.
         11    1    4    4    0    0  0.49304166375E-01  0.28043967002E-01  0.32628282464E-02  0.56817885180E-01  0.51100000000E-03 0.  1.
</event>
<event>
 8    1  0.2107254E+004  0.1043930E+01  0.7957747E-01            NaN
         13   -1    0    0    0    0  0.00000000000E+00  0.00000000000E+00  0.74505805969E-08  0.10566000000E+00  0.10566000000E+00 0. -1.
     999900   -1    0    0    0    0 -0.00000000000E+00 -0.00000000000E+00 -0.74505805969E-08  0.93827000000E+00  0.93827000000E+00 0. -1.
     999902    2    1    2    0    0  0.12834730147E-02 -0.10563974993E-01  0.83528910389E-02  0.10304016720E+01  0.10303128602E+01 0.  0.
     999903    2    3    3    0    0  0.98192645256E-01  0.84583979184E-01 -0.24471588699E-01  0.13937868275E+00  0.45070094677E-01 0.  0.
         14    1    1    2    0    0 -0.12834730147E-02  0.10563974993E-01 -0.83528910389E-02  0.13528328032E-01  0.00000000000E+00 0. -1.
     999901    1    3    3    0    0 -0.96909172241E-01 -0.95147954177E-01  0.32824479737E-01  0.89102298922E+00  0.88000000000E+00 0. -1.
        -11    1    4    4    0    0  0.51346668481E-01  0.16827256445E-01 -0.17083211702E-01  0.56672163949E-01  0.51100000000E-03 0. -1.
         11    1    4    4    0    0  0.46845976775E-01  0.67756722739E-01 -0.73883769969E-02  0.82706518799E-01  0.51100000000E-03 0.  1.
</event>
<event>
 8    1  0.2107254E+004  0.1043930E+01  0.7957747E-01            NaN
         13   -1    0    0    0    0  0.00000000000E+00  0.00000000000E+00  0.74505805969E-08  0.10566000000E+00  0.10566000000E+00 0.  1.
     999900   -1    0    0    0    0 -0.00000000000E+00 -0.00000000000E+00 -0.74505805969E-08  0.93827000000E+00  0.93827000000E+00 0.  1.
     999902    2    1    2    0    0  0.11071873841E-01 -0.30365755784E-02 -0.80661854980E-02  0.10298989441E+01  0.10298033621E+01 0.  0.
     999903    2    3    3    0    0  0.49556690164E-01 -0.51926082440E-01  0.11110803946E+00  0.13968899084E+00  0.44898041726E-01 0.  0.
         14    1    1    2    0    0 -0.11071873841E-01  0.30365755784E-02  0.80661854980E-02  0.14031055915E-01  0.00000000000E+00 0.  1.
     999901    1    3    3    0    0 -0.38484816322E-01  0.48889506862E-01 -0.11917422496E+00  0.89020995325E+00  0.88000000000E+00 0.  1.
        -11    1    4    4    0    0  0.45936471485E-01 -0.27252559994E-01  0.47933589914E-01  0.71768736939E-01  0.51100000000E-03 0.  1.
         11    1    4    4    0    0  0.36202186784E-02 -0.24673522447E-01  0.63174449545E-01  0.67920253898E-01  0.51100000000E-03 0. -1.
</event>
<event>
 8    1  0.2107254E+004  0.1043930E+01  0.7957747E-01            NaN
         13   -1    0    0    0    0  0.00000000000E+00  0.00000000000E+00  0.74505805969E-08  0.10566000000E+00  0.10566000000E+00 0. -1.
     999900   -1    0    0    0    0 -0.00000000000E+00 -0.00000000000E+00 -0.74505805969E-08  0.93827000000E+00  0.93827000000E+00 0.  1.
     999902    2    1    2    0    0  0.12508383065E-02  0.12372363951E-01  0.61661939531E-02  0.10300497286E+01  0.10299562037E+01 0.  0.
     999903    2    3    3    0    0 -0.27270793833E-01  0.12973132886E+00 -0.20734478043E-01  0.14139329539E+00  0.44589589789E-01 0.  0.
         14    1    1    2    0    0 -0.12508383065E-02 -0.12372363951E-01 -0.61661939531E-02  0.13880271398E-01  0.00000000000E+00 0.  1.
     999901    1    3    3    0    0  0.28521632139E-01 -0.11735896490E+00  0.26900671997E-01  0.88865643322E+00  0.88000000000E+00 0. -1.
        -11    1    4    4    0    0 -0.17005251579E-01  0.26255086623E-01 -0.20507525379E-01  0.37407591115E-01  0.51100000000E-03 0. -1.
         11    1    4    4    0    0 -0.10265542254E-01  0.10347624223E+00 -0.22695266437E-03  0.10398570427E+00  0.51100000000E-03 0.  1.
</event>
<event>
 8    1  0.2107254E+004  0.1043930E+01  0.7957747E-01            NaN
         13   -1    0    0    0    0  0.00000000000E+00  0.00000000000E+00  0.74505805969E-08  0.10566000000E+00  0.10566000000E+00 0. -1.
     999900   -1    0    0    0    0 -0.00000000000E+00 -0.00000000000E+00 -0.74505805969E-08  0.93827000000E+00  0.93827000000E+00 0.  1.
     999902    2    1    2    0    0  0.66420437004E-02  0.10378973108E-01  0.73740038196E-02  0.10295697855E+01  0.10294696341E+01 0.  0.
     999903    2    3    3    0    0 -0.89758860036E-01  0.94126257411E-01  0.25491912376E-01  0.14016830112E+00  0.45616989727E-01 0.  0.
         14    1    1    2    0    0 -0.66420437004E-02 -0.10378973108E-01 -0.73740038196E-02  0.14360214470E-01  0.00000000000E+00 0. -1.
     999901    1    3    3    0    0  0.96400903737E-01 -0.83747284303E-01 -0.18117908556E-01  0.88940148442E+00  0.88000000000E+00 0.  1.
        -11    1    4    4    0    0 -0.26110362210E-01  0.51601528072E-01  0.26492586868E-01  0.63612789548E-01  0.51100000000E-03 0. -1.
         11    1    4    4    0    0 -0.63648497826E-01  0.42524729339E-01 -0.10006744923E-02  0.76555511567E-01  0.51100000000E-03 0.  1.
</event>
<event>
 8    1  0.2107254E+004  0.1043930E+01  0.7957747E-01            NaN
         13   -1    0    0    0    0  0.00000000000E+00  0.00000000000E+00  0.74505805969E-08  0.10566000000E+00  0.10566000000E+00 0. -1.
     999900   -1    0    0    0    0 -0.00000000000E+00 -0.00000000000E+00 -0.74505805969E-08  0.93827000000E+00  0.93827000000E+00 0. -1.
     999902    2    1    2    0    0  0.49182358061E-02 -0.13679414668E-01  0.16206923316E-02  0.10293032412E+01  0.10291993103E+01 0.  0.
     999903    2    3    3    0    0 -0.12606659593E+00 -0.37957162406E-01  0.82729879523E-02  0.13925229423E+00  0.44600743619E-01 0.  0.
         14    1    1    2    0    0 -0.49182358061E-02  0.13679414668E-01 -0.16206923316E-02  0.14626758791E-01  0.00000000000E+00 0. -1.
     999901    1    3    3    0    0  0.13098483174E+00  0.24277747738E-01 -0.66522956207E-02  0.89005094698E+00  0.88000000000E+00 0.  1.
        -11    1    4    4    0    0 -0.43424720144E-01 -0.29592077890E-01  0.18158809075E-01  0.55600367457E-01  0.51100000000E-03 0. -1.
         11    1    4    4    0    0 -0.82641875787E-01 -0.83650845160E-02 -0.98858211229E-02  0.83651926773E-01  0.51100000000E-03 0.  1.
</event>
<event>
 8    1  0.2107254E+004  0.1043930E+01  0.7957747E-01            NaN
         13   -1    0    0    0    0  0.00000000000E+00  0.00000000000E+00  0.74505805969E-08  0.10566000000E+00  0.10566000000E+00 0. -1.
     999900   -1    0    0    0    0 -0.00000000000E+00 -0.00000000000E+00 -0.74505805969E-08  0.93827000000E+00  0.93827000000E+00 0.  1.
     999902    2    1    2    0    0  0.16102470687E-01  0.26866118194E-02 -0.55102229074E-02  0.10267000841E+01  0.10265554991E+01 0.  0.
     999903    2    3    3    0    0  0.87001186986E-02  0.69130052834E-01  0.10883839812E+00  0.13678709240E+00  0.44835872601E-01 0.  0.
         14    1    1    2    0    0 -0.16102470687E-01 -0.26866118194E-02  0.55102229074E-02  0.17229915896E-01  0.00000000000E+00 0.  1.
     999901    1    3    3    0    0  0.74023519889E-02 -0.66443441015E-01 -0.11434862103E+00  0.88991299170E+00  0.88000000000E+00 0.  1.
        -11    1    4    4    0    0  0.25975786094E-01  0.53523226879E-01  0.75614760121E-01  0.96215021426E-01  0.51100000000E-03 0. -1.
         11    1    4    4    0    0 -0.17275667395E-01  0.15606825955E-01  0.33223638000E-01  0.40572070976E-01  0.51100000000E-03 0.  1.
</event>
<event>
 8    1  0.2107254E+004  0.1043930E+01  0.7957747E-01            NaN
         13   -1    0    0    0    0  0.00000000000E+00  0.00000000000E+00  0.74505805969E-08  0.10566000000E+00  0.10566000000E+00 0.  1.
     999900   -1    0    0    0    0 -0.00000000000E+00 -0.00000000000E+00 -0.74505805969E-08  0.93827000000E+00  0.93827000000E+00 0. -1.
     999902    2    1    2    0    0 -0.90122988210E-02 -0.10010152516E-01 -0.32408220466E-02  0.10300762059E+01  0.10299830398E+01 0.  0.
     999903    2    3    3    0    0 -0.28305980504E-01  0.11784552460E+00  0.51523150058E-01  0.13894298748E+00  0.44291337523E-01 0.  0.
         14    1    1    2    0    0  0.90122988210E-02  0.10010152516E-01  0.32408220466E-02  0.13853794100E-01  0.00000000000E+00 0.  1.
     999901    1    3    3    0    0  0.19293681683E-01 -0.12785567711E+00 -0.54763972104E-01  0.89113321842E+00  0.88000000000E+00 0. -1.
        -11    1    4    4    0    0 -0.35675843744E-01  0.60323705842E-01  0.36566279960E-01  0.79051054796E-01  0.51100000000E-03 0. -1.
         11    1    4    4    0    0  0.73698632399E-02  0.57521818754E-01  0.14956870098E-01  0.59891932688E-01  0.51100000000E-03 0.  1.
</event>
<event>
 8    1  0.2107254E+004  0.1043930E+01  0.7957747E-01            NaN
         13   -1    0    0    0    0  0.00000000000E+00  0.00000000000E+00  0.74505805969E-08  0.10566000000E+00  0.10566000000E+00 0.  1.
     999900   -1    0    0    0    0 -0.00000000000E+00 -0.00000000000E+00 -0.74505805969E-08  0.93827000000E+00  0.93827000000E+00 0. -1.
     999902    2    1    2    0    0  0.11827552717E-01 -0.44484051953E-02 -0.15307669826E-02  0.10312011917E+01  0.10311226286E+01 0.  0.
     999903    2    3    3    0    0 -0.10578888334E+00  0.18444025302E-01 -0.78178413384E-01  0.13977954566E+00  0.43531450221E-01 0.  0.
         14    1    1    2    0    0 -0.11827552717E-01  0.44484051953E-02  0.15307669826E-02  0.12728808256E-01  0.00000000000E+00 0. -1.
     999901    1    3    3    0    0  0.11761643606E+00 -0.22892430497E-01  0.76647646402E-01  0.89142164608E+00  0.88000000000E+00 0.  1.
        -11    1    4    4    0    0 -0.43153713640E-01  0.12810147547E-01 -0.83151355166E-02  0.45779312804E-01  0.51100000000E-03 0.  1.
         11    1    4    4    0    0 -0.62635169701E-01  0.56338777553E-02 -0.69863277868E-01  0.94000232858E-01  0.51100000000E-03 0. -1.
</event>
<event>
 8    1  0.2107254E+004  0.1043930E+01  0.7957747E-01            NaN
         13   -1    0    0    0    0  0.00000000000E+00  0.00000000000E+00  0.74505805969E-08  0.10566000000E+00  0.10566000000E+00 0. -1.
     999900   -1    0    0    0    0 -0.00000000000E+00 -0.00000000000E+00 -0.74505805969E-08  0.93827000000E+00  0.93827000000E+00 0.  1.
     999902    2    1    2    0    0 -0.12724033146E-01 -0.53848909128E-02 -0.12812318009E-02  0.10300541352E+01  0.10299606700E+01 0.  0.
     999903    2    3    3    0    0  0.30339660036E-01  0.73461964327E-01  0.10469364723E+00  0.13915459918E+00  0.45673707192E-01 0.  0.
         14    1    1    2    0    0  0.12724033146E-01  0.53848909128E-02  0.12812318009E-02  0.13875864823E-01  0.00000000000E+00 0. -1.
     999901    1    3    3    0    0 -0.43063693183E-01 -0.78846855239E-01 -0.10597487903E+00  0.89089953600E+00  0.88000000000E+00 0.  1.
        -11    1    4    4    0    0 -0.20249295708E-02  0.28904968070E-01  0.65302069360E-01  0.71443816405E-01  0.51100000000E-03 0.  1.
         11    1    4    4    0    0  0.32364589607E-01  0.44556996257E-01  0.39391577872E-01  0.67710782776E-01  0.51100000000E-03 0. -1.
</event>
<event>
 8    1  0.2107254E+004  0.1043930E+01  0.7957747E-01            NaN
         13   -1    0    0    0    0  0.00000000000E+00  0.00000000000E+00  0.74505805969E-08  0.10566000000E+00  0.10566000000E+00 0. -1.
     999900   -1    0    0    0    0 -0.00000000000E+00 -0.00000000000E+00 -0.74505805969E-08  0.93827000000E+00  0.93827000000E+00 0. -1.
     999902    2    1    2    0    0 -0.11837805328E-01  0.76534161960E-02  0.31721389612E-02  0.10294810942E+01  0.10293796930E+01 0.  0.
     999903    2    3    3    0    0  0.15705929965E-01 -0.11895590133E+00 -0.52145825959E-01  0.13827480273E+00  0.44761045634E-01 0.  0.
         14    1    1    2    0    0  0.11837805328E-01 -0.76534161960E-02 -0.31721389612E-02  0.14448905843E-01  0.00000000000E+00 0.  1.
     999901    1    3    3    0    0 -0.27543735294E-01  0.12660931753E+00  0.55317964920E-01  0.89120629143E+00  0.88000000000E+00 0.  1.
        -11    1    4    4    0    0  0.24365796923E-01 -0.10899274100E+00 -0.35850302509E-01  0.11729712257E+00  0.51100000000E-03 0. -1.
         11    1    4    4    0    0 -0.86598669575E-02 -0.99631603298E-02 -0.16295523450E-01  0.20977680162E-01  0.51100000000E-03 0.  1.
</event>
<event>
 8    1  0.2107254E+004  0.1043930E+01  0.7957747E-01            NaN
         13   -1    0    0    0    0  0.00000000000E+00  0.00000000000E+00  0.74505805969E-08  0.10566000000E+00  0.10566000000E+00 0.  1.
     999900   -1    0    0    0    0 -0.00000000000E+00 -0.00000000000E+00 -0.74505805969E-08  0.93827000000E+00  0.93827000000E+00 0.  1.
     999902    2    1    2    0    0 -0.88689588335E-02  0.78568790700E-02 -0.79568830732E-02  0.10296576152E+01  0.10295586936E+01 0.  0.
     999903    2    3    3    0    0 -0.30029290151E-01  0.11673150885E+00  0.55212774561E-01  0.14044906246E+00  0.46362541412E-01 0.  0.
         14    1    1    2    0    0  0.88689588335E-02 -0.78568790700E-02  0.79568830732E-02  0.14272384796E-01  0.00000000000E+00 0. -1.
     999901    1    3    3    0    0  0.21160331317E-01 -0.10887462978E+00 -0.63169657634E-01  0.88920855275E+00  0.88000000000E+00 0.  1.
        -11    1    4    4    0    0 -0.25309992621E-01  0.35784630389E-01  0.36955136448E-01  0.57333050935E-01  0.51100000000E-03 0. -1.
         11    1    4    4    0    0 -0.47192975296E-02  0.80946878457E-01  0.18257638113E-01  0.83116011524E-01  0.51100000000E-03 0.  1.
</event>
<event>
 8    1  0.2107254E+004  0.1043930E+01  0.7957747E-01            NaN
         13   -1    0    0    0    0  0.00000000000E+00  0.00000000000E+00  0.74505805969E-08  0.10566000000E+00  0.10566000000E+00 0. -1.
     999900   -1    0    0    0    0 -0.00000000000E+00 -0.00000000000E+00 -0.74505805969E-08  0.93827000000E+00  0.93827000000E+00 0.  1.
     999902    2    1    2    0    0 -0.32352336199E-02 -0.23549599211E-02  0.15504786496E-01  0.10279171621E+01  0.10277924310E+01 0.  0.
     999903    2    3    3    0    0  0.18898924314E-01 -0.11356254264E+00 -0.59321504154E-01  0.13749253242E+00  0.46168551886E-01 0.  0.
         14    1    1    2    0    0  0.32352336199E-02  0.23549599211E-02 -0.15504786496E-01  0.16012837883E-01  0.00000000000E+00 0.  1.
     999901    1    3    3    0    0 -0.22134157934E-01  0.11120758272E+00  0.74826290650E-01  0.89042462970E+00  0.88000000000E+00 0. -1.
        -11    1    4    4    0    0  0.32224815599E-01 -0.94065767309E-01 -0.54478885760E-01  0.11337996928E+00  0.51100000000E-03 0.  1.
         11    1    4    4    0    0 -0.13325891285E-01 -0.19496775335E-01 -0.48426183940E-02  0.24112563135E-01  0.51100000000E-03 0. -1.
</event>
<event>
 8    1  0.2107254E+004  0.1043930E+01  0.7957747E-01            NaN
         13   -1    0    0    0    0  0.00000000000E+00  0.00000000000E+00  0.74505805969E-08  0.10566000000E+00  0.10566000000E+00 0. -1.
     999900   -1    0    0    0    0 -0.00000000000E+00 -0.00000000000E+00 -0.74505805969E-08  0.93827000000E+00  0.93827000000E+00 0.  1.
     999902    2    1    2    0    0 -0.29010458933E-02 -0.10638420157E-01  0.36270988315E-02  0.10323219038E+01  0.10322566373E+01 0.  0.
     999903    2    3    3    0    0 -0.38928840589E-01  0.36176695667E-01 -0.12278169462E+00  0.14132872758E+00  0.45544009134E-01 0.  0.
         14    1    1    2    0    0  0.29010458933E-02  0.10638420157E-01 -0.36270988315E-02  0.11608096168E-01  0.00000000000E+00 0.  1.
     999901    1    3    3    0    0  0.36027794696E-01 -0.46815115824E-01  0.12640879345E+00  0.89099317625E+00  0.88000000000E+00 0. -1.
        -11    1    4    4    0    0 -0.43324544792E-02  0.12204086744E-01 -0.80962311059E-01  0.81993090124E-01  0.51100000000E-03 0. -1.
         11    1    4    4    0    0 -0.34596386110E-01  0.23972608923E-01 -0.41819383559E-01  0.59335637459E-01  0.51100000000E-03 0.  1.
</event>
<event>
 8    1  0.2107254E+004  0.1043930E+01  0.7957747E-01            NaN
         13   -1    0    0    0    0  0.00000000000E+00  0.00000000000E+00  0.74505805969E-08  0.10566000000E+00  0.10566000000E+00 0.  1.
     999900   -1    0    0    0    0 -0.00000000000E+00 -0.00000000000E+00 -0.74505805969E-08  0.93827000000E+00  0.93827000000E+00 0. -1.
     999902    2    1    2    0    0 -0.33469950542E-02 -0.21850189717E-02 -0.12975475312E-01  0.10303528264E+01  0.10302633679E+01 0.  0.
     999903    2    3    3    0    0  0.13327777897E+00  0.35022310135E-02 -0.45194425384E-02  0.13975180563E+00  0.41652248755E-01 0.  0.
         14    1    1    2    0    0  0.33469950542E-02  0.21850189717E-02  0.12975475312E-01  0.13577173615E-01  0.00000000000E+00 0.  1.
     999901    1    3    3    0    0 -0.13662477402E+00 -0.56872499851E-02 -0.84560327731E-02  0.89060102076E+00  0.88000000000E+00 0.  1.
        -11    1    4    4    0    0  0.11007455973E+00  0.44711094363E-02 -0.19821637821E-01  0.11193550807E+00  0.51100000000E-03 0. -1.
         11    1    4    4    0    0  0.23203219233E-01 -0.96887842279E-03  0.15302195283E-01  0.27816297554E-01  0.51100000000E-03 0.  1.
</event>
<event>
 8    1  0.2107254E+004  0.1043930E+01  0.7957747E-01            NaN
         13   -1    0    0    0    0  0.00000000000E+00  0.00000000000E+00  0.74505805969E-08  0.10566000000E+00  0.10566000000E+00 0.  1.
     999900   -1    0    0    0    0 -0.00000000000E+00 -0.00000000000E+00 -0.74505805969E-08  0.93827000000E+00  0.93827000000E+00 0. -1.
     999902    2    1    2    0    0 -0.94642929173E-02  0.12621758229E-02 -0.10750549407E-01  0.10295515355E+01  0.10294511276E+01 0.  0.
     999903    2    3    3    0    0  0.13075578176E+00  0.26006790813E-02 -0.91959935150E-02  0.13844779432E+00  0.44490307480E-01 0.  0.
         14    1    1    2    0    0  0.94642929173E-02 -0.12621758229E-02  0.10750549407E-01  0.14378464480E-01  0.00000000000E+00 0.  1.
     999901    1    3    3    0    0 -0.14022007468E+00 -0.13385032583E-02 -0.15545558924E-02  0.89110374120E+00  0.88000000000E+00 0. -1.
        -11    1    4    4    0    0  0.12246187945E+00 -0.47117423645E-02  0.21832711268E-02  0.12257299959E+00  0.51100000000E-03 0.  1.
         11    1    4    4    0    0  0.82939023112E-02  0.73124214458E-02 -0.11379264642E-01  0.15874794731E-01  0.51100000000E-03 0. -1.
</event>
<event>
 8    1  0.2107254E+004  0.1043930E+01  0.7957747E-01            NaN
         13   -1    0    0    0    0  0.00000000000E+00  0.00000000000E+00  0.74505805969E-08  0.10566000000E+00  0.10566000000E+00 0.  1.
     999900   -1    0    0    0    0 -0.00000000000E+00 -0.00000000000E+00 -0.74505805969E-08  0.93827000000E+00  0.93827000000E+00 0. -1.
     999902    2    1    2    0    0  0.26331916858E-03 -0.87552791563E-02 -0.47259499722E-02  0.10339771686E+01  0.10339292656E+01 0.  0.
     999903    2    3    3    0    0 -0.10207375606E-01 -0.86898957706E-02 -0.13721057179E+00  0.14399862123E+00  0.41583134804E-01 0.  0.
         14    1    1    2    0    0 -0.26331916858E-03  0.87552791563E-02  0.47259499722E-02  0.99528314177E-02  0.00000000000E+00 0.  1.
     999901    1    3    3    0    0  0.10470694774E-01 -0.65383385719E-04  0.13248462182E+00  0.88997854735E+00  0.88000000000E+00 0.  1.
        -11    1    4    4    0    0 -0.67745975279E-03  0.16617871010E-01 -0.53157642466E-01  0.55701065180E-01  0.51100000000E-03 0. -1.
         11    1    4    4    0    0 -0.95299158527E-02 -0.25307766781E-01 -0.84052929326E-01  0.88297556052E-01  0.51100000000E-03 0.  1.
</event>
<event>
 8    1  0.2107254E+004  0.1043930E+01  0.7957747E-01            NaN
         13   -1    0    0    0    0  0.00000000000E+00  0.00000000000E+00  0.74505805969E-08  0.10566000000E+00  0.10566000000E+00 0.  1.
     999900   -1    0    0    0    0 -0.00000000000E+00 -0.00000000000E+00 -0.74505805969E-08  0.93827000000E+00  0.93827000000E+00 0.  1.
     999902    2    1    2    0    0 -0.13242479202E-01 -0.29532682768E-02  0.10960733414E-02  0.10303180043E+01  0.10302280833E+01 0.  0.
     999903    2    3    3    0    0 -0.12797026281E+00  0.37145233636E-01 -0.16177500845E-01  0.14179747529E+00  0.45701815275E-01 0.  0.
         14    1    1    2    0    0  0.13242479202E-01  0.29532682768E-02 -0.10960733414E-02  0.13611995655E-01  0.00000000000E+00 0.  1.
     999901    1    3    3    0    0  0.11472778361E+00 -0.40098501913E-01  0.17273574186E-01  0.88852052906E+00  0.88000000000E+00 0.  1.
        -11    1    4    4    0    0 -0.66001167243E-01  0.46203005876E-03 -0.21932705812E-01  0.69553377016E-01  0.51100000000E-03 0. -1.
         11    1    4    4    0    0 -0.61969095568E-01  0.36683203577E-01  0.57552049669E-02  0.72244098274E-01  0.51100000000E-03 0.  1.
</event>
<event>
 8    1  0.2107254E+004  0.1043930E+01  0.7957747E-01            NaN
         13   -1    0    0    0    0  0.00000000000E+00  0.00000000000E+00  0.74505805969E-08  0.10566000000E+00  0.10566000000E+00 0.  1.
     999900   -1    0    0    0    0 -0.00000000000E+00 -0.00000000000E+00 -0.74505805969E-08  0.93827000000E+00  0.93827000000E+00 0.  1.
     999902    2    1    2    0    0  0.74965521686E-02  0.85889944037E-02 -0.91413246350E-02  0.10293172338E+01  0.10292135031E+01 0.  0.
     999903    2    3    3    0    0 -0.75942105554E-01  0.93666831744E-01 -0.55190895930E-01  0.14009239666E+00  0.45157123951E-01 0.  0.
         14    1    1    2    0    0 -0.74965521686E-02 -0.85889944037E-02  0.91413246350E-02  0.14612766178E-01  0.00000000000E+00 0.  1.
     999901    1    3    3    0    0  0.83438657723E-01 -0.85077837340E-01  0.46049571295E-01  0.88922483716E+00  0.88000000000E+00 0.  1.
        -11    1    4    4    0    0 -0.17218993831E-01  0.13781031761E-01 -0.30977908642E-01  0.38030284377E-01  0.51100000000E-03 0. -1.
         11    1    4    4    0    0 -0.58723111723E-01  0.79885799983E-01 -0.24212987288E-01  0.10206211228E+00  0.51100000000E-03 0.  1.
</event>
<event>
 8    1  0.2107254E+004  0.1043930E+01  0.7957747E-01            NaN
         13   -1    0    0    0    0  0.00000000000E+00  0.00000000000E+00  0.74505805969E-08  0.10566000000E+00  0.10566000000E+00 0. -1.
     999900   -1    0    0    0    0 -0.00000000000E+00 -0.00000000000E+00 -0.74505805969E-08  0.93827000000E+00  0.93827000000E+00 0. -1.
     999902    2    1    2    0    0  0.10852585053E-01 -0.70914288550E-02 -0.31725153688E-02  0.10305833967E+01  0.10304969703E+01 0.  0.
     999903    2    3    3    0    0  0.24137869197E-01  0.11521499896E+00 -0.61690914813E-01  0.14010051415E+00  0.44331167141E-01 0.  0.
         14    1    1    2    0    0 -0.10852585053E-01  0.70914288550E-02  0.31725153688E-02  0.13346603287E-01  0.00000000000E+00 0. -1.
     999901    1    3    3    0    0 -0.13285284143E-01 -0.12230642782E+00  0.58518399444E-01  0.89048288256E+00  0.88000000000E+00 0.  1.
        -11    1    4    4    0    0  0.82747554655E-02  0.78731751041E-01 -0.61608119748E-01  0.10031441442E+00  0.51100000000E-03 0.  1.
         11    1    4    4    0    0  0.15863113731E-01  0.36483247921E-01 -0.82795065508E-04  0.39786099735E-01  0.51100000000E-03 0. -1.
</event>
<event>
 8    1  0.2107254E+004  0.1043930E+01  0.7957747E-01            NaN
         13   -1    0    0    0    0  0.00000000000E+00  0.00000000000E+00  0.74505805969E-08  0.10566000000E+00  0.10566000000E+00 0.  1.
     999900   -1    0    0    0    0 -0.00000000000E+00 -0.00000000000E+00 -0.74505805969E-08  0.93827000000E+00  0.93827000000E+00 0.  1.
     999902    2    1    2    0    0  0.10638360662E-01 -0.94674184775E-02  0.16608283923E-03  0.10296880088E+01  0.10295895110E+01 0.  0.
     999903    2    3    3    0    0 -0.66522780044E-01  0.48045531280E-01 -0.10186529767E+00  0.13858084148E+00  0.45765242423E-01 0.  0.
         14    1    1    2    0    0 -0.10638360662E-01  0.94674184775E-02 -0.16608283923E-03  0.14241991213E-01  0.00000000000E+00 0. -1.
     999901    1    3    3    0    0  0.77161140706E-01 -0.57512949757E-01  0.10203138051E+00  0.89110716731E+00  0.88000000000E+00 0. -1.
        -11    1    4    4    0    0 -0.64423592062E-01  0.54108526019E-01 -0.81162453423E-01  0.11690054221E+00  0.51100000000E-03 0.  1.
         11    1    4    4    0    0 -0.20991879817E-02 -0.60629947394E-02 -0.20702844246E-01  0.21680299266E-01  0.51100000000E-03 0. -1.
</event>
<event>
 8    1  0.2107254E+004  0.1043930E+01  0.7957747E-01            NaN
         13   -1    0    0    0    0  0.00000000000E+00  0.00000000000E+00  0.74505805969E-08  0.10566000000E+00  0.10566000000E+00 0.  1.
     999900   -1    0    0    0    0 -0.00000000000E+00 -0.00000000000E+00 -0.74505805969E-08  0.93827000000E+00  0.93827000000E+00 0. -1.
     999902    2    1    2    0    0 -0.67906318806E-02  0.95002356476E-03  0.11644560639E-01  0.10304166356E+01  0.10303280215E+01 0.  0.
     999903    2    3    3    0    0 -0.11071883414E+00  0.35266468290E-01 -0.64025699917E-01  0.14041400751E+00  0.45982814576E-01 0.  0.
         14    1    1    2    0    0  0.67906318806E-02 -0.95002356476E-03 -0.11644560639E-01  0.13513364444E-01  0.00000000000E+00 0. -1.
     999901    1    3    3    0    0  0.10392820225E+00 -0.34316444725E-01  0.75670260556E-01  0.89000262805E+00  0.88000000000E+00 0.  1.
        -11    1    4    4    0    0 -0.15867327198E-01  0.24914935687E-01 -0.15821887333E-01  0.33512972600E-01  0.51100000000E-03 0. -1.
         11    1    4    4    0    0 -0.94851506938E-01  0.10351532603E-01 -0.48203812584E-01  0.10690103491E+00  0.51100000000E-03 0.  1.
</event>
<event>
 8    1  0.2107254E+004  0.1043930E+01  0.7957747E-01            NaN
         13   -1    0    0    0    0  0.00000000000E+00  0.00000000000E+00  0.74505805969E-08  0.10566000000E+00  0.10566000000E+00 0. -1.
     999900   -1    0    0    0    0 -0.00000000000E+00 -0.00000000000E+00 -0.74505805969E-08  0.93827000000E+00  0.93827000000E+00 0. -1.
     999902    2    1    2    0    0  0.75336319299E-03 -0.10700398026E-01 -0.66866378025E-02  0.10312896994E+01  0.10312122317E+01 0.  0.
     999903    2    3    3    0    0 -0.12958672701E+00  0.24023545098E-01  0.16995758999E-01  0.14069711732E+00  0.46227399478E-01 0.  0.
         14    1    1    2    0    0 -0.75336319299E-03  0.10700398026E-01  0.66866378025E-02  0.12640300594E-01  0.00000000000E+00 0. -1.
     999901    1    3    3    0    0  0.13034009021E+00 -0.34723943124E-01 -0.23682396802E-01  0.89059258208E+00  0.88000000000E+00 0. -1.
        -11    1    4    4    0    0 -0.57230338357E-01  0.32220020051E-01  0.17130532524E-01  0.67876045745E-01  0.51100000000E-03 0.  1.
         11    1    4    4    0    0 -0.72356388656E-01 -0.81964749527E-02 -0.13477352452E-03  0.72821071578E-01  0.51100000000E-03 0. -1.
</event>
<event>
 8    1  0.2107254E+004  0.1043930E+01  0.7957747E-01            NaN
         13   -1    0    0    0    0  0.00000000000E+00  0.00000000000E+00  0.74505805969E-08  0.10566000000E+00  0.10566000000E+00 0.  1.
     999900   -1    0    0    0    0 -0.00000000000E+00 -0.00000000000E+00 -0.74505805969E-08  0.93827000000E+00  0.93827000000E+00 0.  1.
     999902    2    1    2    0    0  0.85741724000E-02 -0.11232303722E-01  0.17809330393E-01  0.10211955915E+01  0.10209424973E+01 0.  0.
     999903    2    3    3    0    0 -0.10330907351E+00 -0.43523197325E-01  0.55469264037E-01  0.13272565218E+00  0.44409752524E-01 0.  0.
         14    1    1    2    0    0 -0.85741724000E-02  0.11232303722E-01 -0.17809330393E-01  0.22734408466E-01  0.00000000000E+00 0. -1.
     999901    1    3    3    0    0  0.11188324591E+00  0.32290893603E-01 -0.37659933643E-01  0.88846993935E+00  0.88000000000E+00 0.  1.
        -11    1    4    4    0    0 -0.44368715290E-01 -0.25705686190E-01  0.22359222772E-02  0.51328604778E-01  0.51100000000E-03 0. -1.
         11    1    4    4    0    0 -0.58940358224E-01 -0.17817511135E-01  0.53233341759E-01  0.81397047406E-01  0.51100000000E-03 0.  1.
</event>
<event>
 8    1  0.2107254E+004  0.1043930E+01  0.7957747E-01            NaN
         13   -1    0    0    0    0  0.00000000000E+00  0.00000000000E+00  0.74505805969E-08  0.10566000000E+00  0.10566000000E+00 0.  1.
     999900   -1    0    0    0    0 -0.00000000000E+00 -0.00000000000E+00 -0.74505805969E-08  0.93827000000E+00  0.93827000000E+00 0.  1.
     999902    2    1    2    0    0 -0.63720492767E-02 -0.11966375242E-01 -0.52709734352E-02  0.10293841996E+01  0.10292814241E+01 0.  0.
     999903    2    3    3    0    0 -0.11307180735E-01  0.86952334000E-01 -0.98005208210E-01  0.13898602751E+00  0.44983711294E-01 0.  0.
         14    1    1    2    0    0  0.63720492767E-02  0.11966375242E-01  0.52709734352E-02  0.14545800404E-01  0.00000000000E+00 0.  1.
     999901    1    3    3    0    0  0.49351314578E-02 -0.98918709243E-01  0.92734234774E-01  0.89039817209E+00  0.88000000000E+00 0.  1.
        -11    1    4    4    0    0  0.90160461387E-02  0.16964820597E-01 -0.33247577309E-02  0.19504085747E-01  0.51100000000E-03 0. -1.
         11    1    4    4    0    0 -0.20323226873E-01  0.69987513404E-01 -0.94680450479E-01  0.11948194176E+00  0.51100000000E-03 0.  1.
</event>
<event>
 8    1  0.2107254E+004  0.1043930E+01  0.7957747E-01            NaN
         13   -1    0    0    0    0  0.00000000000E+00  0.00000000000E+00  0.74505805969E-08  0.10566000000E+00  0.10566000000E+00 0. -1.
     999900   -1    0    0    0    0 -0.00000000000E+00 -0.00000000000E+00 -0.74505805969E-08  0.93827000000E+00  0.93827000000E+00 0.  1.
     999902    2    1    2    0    0  0.12855667136E-01 -0.15572329947E-01 -0.12914934515E-01  0.10199599943E+01  0.10196782968E+01 0.  0.
     999903    2    3    3    0    0 -0.17319583776E-01 -0.41369385010E-01 -0.11688305236E+00  0.13295074786E+00  0.44753317539E-01 0.  0.
         14    1    1    2    0    0 -0.12855667136E-01  0.15572329947E-01  0.12914934515E-01  0.23970005653E-01  0.00000000000E+00 0. -1.
     999901    1    3    3    0    0  0.30175250912E-01  0.25797055063E-01  0.10396811784E+00  0.88700924648E+00  0.88000000000E+00 0. -1.
        -11    1    4    4    0    0 -0.25762861204E-01 -0.10516013397E-01 -0.76664877003E-01  0.81560260189E-01  0.51100000000E-03 0.  1.
         11    1    4    4    0    0  0.84432774278E-02 -0.30853371613E-01 -0.40218175355E-01  0.51390487675E-01  0.51100000000E-03 0. -1.
</event>
<event>
 8    1  0.2107254E+004  0.1043930E+01  0.7957747E-01            NaN
         13   -1    0    0    0    0  0.00000000000E+00  0.00000000000E+00  0.74505805969E-08  0.10566000000E+00  0.10566000000E+00 0. -1.
     999900   -1    0    0    0    0 -0.00000000000E+00 -0.00000000000E+00 -0.74505805969E-08  0.93827000000E+00  0.93827000000E+00 0. -1.
     999902    2    1    2    0    0 -0.34486958362E-02 -0.10947784827E-02 -0.14236496054E-01  0.10292408931E+01  0.10291360678E+01 0.  0.
     999903    2    3    3    0    0  0.21128061111E-01 -0.37417487581E-01 -0.12652194906E+00  0.14102280096E+00  0.45090613780E-01 0.  0.
         14    1    1    2    0    0  0.34486958362E-02  0.10947784827E-02  0.14236496054E-01  0.14689106943E-01  0.00000000000E+00 0. -1.
     999901    1    3    3    0    0 -0.24576756947E-01  0.36322709098E-01  0.11228545301E+00  0.88821809210E+00  0.88000000000E+00 0.  1.
        -11    1    4    4    0    0 -0.10777023827E-01 -0.22350055554E-01 -0.71232184680E-01  0.75431786941E-01  0.51100000000E-03 0. -1.
         11    1    4    4    0    0  0.31905084937E-01 -0.15067432027E-01 -0.55289764384E-01  0.65591014014E-01  0.51100000000E-03 0.  1.
</event>
<event>
 8    1  0.2107254E+004  0.1043930E+01  0.7957747E-01            NaN
         13   -1    0    0    0    0  0.00000000000E+00  0.00000000000E+00  0.74505805969E-08  0.10566000000E+00  0.10566000000E+00 0.  1.
     999900   -1    0    0    0    0 -0.00000000000E+00 -0.00000000000E+00 -0.74505805969E-08  0.93827000000E+00  0.93827000000E+00 0. -1.
     999902    2    1    2    0    0 -0.32831180356E-02  0.88781648150E-02  0.11311768249E-01  0.10291801941E+01  0.10290744944E+01 0.  0.
     999903    2    3    3    0    0  0.61586245562E-01  0.44623212603E-01 -0.10606215214E+00  0.13830288490E+00  0.45764736527E-01 0.  0.
         14    1    1    2    0    0  0.32831180356E-02 -0.88781648150E-02 -0.11311768249E-01  0.14749805946E-01  0.00000000000E+00 0.  1.
     999901    1    3    3    0    0 -0.64869363598E-01 -0.35745047788E-01  0.11737392039E+00  0.89087730915E+00  0.88000000000E+00 0.  1.
        -11    1    4    4    0    0  0.38793112399E-01  0.99272335968E-02 -0.79499557163E-01  0.89016269561E-01  0.51100000000E-03 0.  1.
         11    1    4    4    0    0  0.22793133163E-01  0.34695979007E-01 -0.26562594980E-01  0.49286615340E-01  0.51100000000E-03 0. -1.
</event>
<event>
 8    1  0.2107254E+004  0.1043930E+01  0.7957747E-01            NaN
         13   -1    0    0    0    0  0.00000000000E+00  0.00000000000E+00  0.74505805969E-08  0.10566000000E+00  0.10566000000E+00 0. -1.
     999900   -1    0    0    0    0 -0.00000000000E+00 -0.00000000000E+00 -0.74505805969E-08  0.93827000000E+00  0.93827000000E+00 0. -1.
     999902    2    1    2    0    0  0.37259300567E-02  0.60203672731E-02  0.11748519475E-01  0.10302130365E+01  0.10301217140E+01 0.  0.
     999903    2    3    3    0    0 -0.96339900499E-01 -0.54280071769E-01 -0.70367363121E-01  0.13870177381E+00  0.45375253667E-01 0.  0.
         14    1    1    2    0    0 -0.37259300567E-02 -0.60203672731E-02 -0.11748519475E-01  0.13716963466E-01  0.00000000000E+00 0.  1.
     999901    1    3    3    0    0  0.10006583056E+00  0.60300439042E-01  0.82115882596E-01  0.89151126273E+00  0.88000000000E+00 0.  1.
        -11    1    4    4    0    0 -0.67534709329E-01 -0.12471679030E-01 -0.42874146467E-01  0.80962542562E-01  0.51100000000E-03 0. -1.
         11    1    4    4    0    0 -0.28805191170E-01 -0.41808392739E-01 -0.27493216654E-01  0.57739231245E-01  0.51100000000E-03 0.  1.
</event>
<event>
 8    1  0.2107254E+004  0.1043930E+01  0.7957747E-01            NaN
         13   -1    0    0    0    0  0.00000000000E+00  0.00000000000E+00  0.74505805969E-08  0.10566000000E+00  0.10566000000E+00 0. -1.
     999900   -1    0    0    0    0 -0.00000000000E+00 -0.00000000000E+00 -0.74505805969E-08  0.93827000000E+00  0.93827000000E+00 0. -1.
     999902    2    1    2    0    0  0.11579972666E-02  0.53290596410E-02  0.12999156189E-01  0.10298332665E+01  0.10297367813E+01 0.  0.
     999903    2    3    3    0    0  0.26711732370E-01 -0.11341954129E+00 -0.59406756914E-01  0.13854384107E+00  0.45691619997E-01 0.  0.
         14    1    1    2    0    0 -0.11579972666E-02 -0.53290596410E-02 -0.12999156189E-01  0.14096733520E-01  0.00000000000E+00 0.  1.
     999901    1    3    3    0    0 -0.25553735104E-01  0.11874860093E+00  0.72405913103E-01  0.89128942541E+00  0.88000000000E+00 0.  1.
        -11    1    4    4    0    0  0.27087702552E-01 -0.43430886604E-01 -0.42518274834E-01  0.66543597413E-01  0.51100000000E-03 0. -1.
         11    1    4    4    0    0 -0.37597018152E-03 -0.69988654685E-01 -0.16888482080E-01  0.72000243654E-01  0.51100000000E-03 0.  1.
</event>
<event>
 8    1  0.2107254E+004  0.1043930E+01  0.7957747E-01            NaN
         13   -1    0    0    0    0  0.00000000000E+00  0.00000000000E+00  0.74505805969E-08  0.10566000000E+00  0.10566000000E+00 0. -1.
     999900   -1    0    0    0    0 -0.00000000000E+00 -0.00000000000E+00 -0.74505805969E-08  0.93827000000E+00  0.93827000000E+00 0. -1.
     999902    2    1    2    0    0  0.29172841665E-02 -0.52221275640E-02 -0.13759444596E-01  0.10289265511E+01  0.10288171578E+01 0.  0.
     999903    2    3    3    0    0  0.64311390091E-01 -0.74927622805E-01  0.86021559256E-01  0.13842986889E+00  0.44866651186E-01 0.  0.
         14    1    1    2    0    0 -0.29172841665E-02  0.52221275640E-02  0.13759444596E-01  0.15003448897E-01  0.00000000000E+00 0. -1.
     999901    1    3    3    0    0 -0.61394105924E-01  0.69705495241E-01 -0.99781003852E-01  0.89049668222E+00  0.88000000000E+00 0. -1.
        -11    1    4    4    0    0  0.37435367122E-01 -0.10985097441E-01  0.28470042694E-01  0.48299933016E-01  0.51100000000E-03 0. -1.
         11    1    4    4    0    0  0.26876022969E-01 -0.63942525364E-01  0.57551516562E-01  0.90129935871E-01  0.51100000000E-03 0.  1.
</event>
<event>
 8    1  0.2107254E+004  0.1043930E+01  0.7957747E-01            NaN
         13   -1    0    0    0    0  0.00000000000E+00  0.00000000000E+00  0.74505805969E-08  0.10566000000E+00  0.10566000000E+00 0. -1.
     999900   -1    0    0    0    0 -0.00000000000E+00 -0.00000000000E+00 -0.74505805969E-08  0.93827000000E+00  0.93827000000E+00 0. -1.
     999902    2    1    2    0    0 -0.10689369314E-01 -0.93024411129E-02 -0.10870313136E-02  0.10297180450E+01  0.10296199651E+01 0.  0.
     999903    2    3    3    0    0  0.38099947098E-01  0.12679459408E-01 -0.12563856026E+00  0.13933796624E+00  0.44918218477E-01 0.  0.
         14    1    1    2    0    0  0.10689369314E-01  0.93024411129E-02  0.10870313136E-02  0.14211954970E-01  0.00000000000E+00 0. -1.
     999901    1    3    3    0    0 -0.48789316411E-01 -0.21981900520E-01  0.12455152895E+00  0.89038007879E+00  0.88000000000E+00 0.  1.
        -11    1    4    4    0    0  0.28318857507E-01 -0.70647316708E-02 -0.32753836312E-01  0.43874172793E-01  0.51100000000E-03 0. -1.
         11    1    4    4    0    0  0.97810895911E-02  0.19744191078E-01 -0.92884723949E-01  0.95463793446E-01  0.51100000000E-03 0.  1.
</event>
<event>
 8    1  0.2107254E+004  0.1043930E+01  0.7957747E-01            NaN
         13   -1    0    0    0    0  0.00000000000E+00  0.00000000000E+00  0.74505805969E-08  0.10566000000E+00  0.10566000000E+00 0. -1.
     999900   -1    0    0    0    0 -0.00000000000E+00 -0.00000000000E+00 -0.74505805969E-08  0.93827000000E+00  0.93827000000E+00 0. -1.
     999902    2    1    2    0    0 -0.10517049842E-01  0.10552768751E-02  0.94316787114E-02  0.10297638957E+01  0.10296664520E+01 0.  0.
     999903    2    3    3    0    0 -0.97359850034E-01  0.13409800324E-01 -0.89319939238E-01  0.13990649804E+00  0.44011515583E-01 0.  0.
         14    1    1    2    0    0  0.10517049842E-01 -0.10552768751E-02 -0.94316787114E-02  0.14166104262E-01  0.00000000000E+00 0.  1.
     999901    1    3    3    0    0  0.86842800192E-01 -0.12354523449E-01  0.98751617950E-01  0.88985739770E+00  0.88000000000E+00 0.  1.
        -11    1    4    4    0    0 -0.45849288064E-01  0.76047761112E-02 -0.71129269534E-01  0.84968370239E-01  0.51100000000E-03 0. -1.
         11    1    4    4    0    0 -0.51510561970E-01  0.58050242126E-02 -0.18190669705E-01  0.54938127798E-01  0.51100000000E-03 0.  1.
</event>
<event>
 8    1  0.2107254E+004  0.1043930E+01  0.7957747E-01            NaN
         13   -1    0    0    0    0  0.00000000000E+00  0.00000000000E+00  0.74505805969E-08  0.10566000000E+00  0.10566000000E+00 0.  1.
     999900   -1    0    0    0    0 -0.00000000000E+00 -0.00000000000E+00 -0.74505805969E-08  0.93827000000E+00  0.93827000000E+00 0. -1.
     999902    2    1    2    0    0 -0.38496033195E-02  0.96173771666E-03  0.14651400095E-01  0.10287508067E+01  0.10286388163E+01 0.  0.
     999903    2    3    3    0    0 -0.34649931779E-01 -0.12051881529E+00  0.42530795587E-01  0.13943452678E+00  0.43677409207E-01 0.  0.
         14    1    1    2    0    0  0.38496033195E-02 -0.96173771666E-03 -0.14651400095E-01  0.15179193322E-01  0.00000000000E+00 0. -1.
     999901    1    3    3    0    0  0.30800328459E-01  0.12148055301E+00 -0.27879395492E-01  0.88931627989E+00  0.88000000000E+00 0.  1.
        -11    1    4    4    0    0 -0.43130571100E-01 -0.77500711981E-01  0.32421046832E-01  0.94435120160E-01  0.51100000000E-03 0. -1.
         11    1    4    4    0    0  0.84806393215E-02 -0.43018103309E-01  0.10109748755E-01  0.44999406624E-01  0.51100000000E-03 0.  1.
</event>
<event>
 8    1  0.2107254E+004  0.1043930E+01  0.7957747E-01            NaN
         13   -1    0    0    0    0  0.00000000000E+00  0.00000000000E+00  0.74505805969E-08  0.10566000000E+00  0.10566000000E+00 0. -1.
     999900   -1    0    0    0    0 -0.00000000000E+00 -0.00000000000E+00 -0.74505805969E-08  0.93827000000E+00  0.93827000000E+00 0. -1.
     999902    2    1    2    0    0 -0.10505669604E-01 -0.16380320638E-02 -0.70198076006E-02  0.10311891232E+01  0.10311104101E+01 0.  0.
     999903    2    3    3    0    0 -0.11914116797E+00 -0.36481310492E-01  0.50669205547E-01  0.14195138907E+00  0.45357739687E-01 0.  0.
         14    1    1    2    0    0  0.10505669604E-01  0.16380320638E-02  0.70198076006E-02  0.12740876800E-01  0.00000000000E+00 0. -1.
     999901    1    3    3    0    0  0.10863549836E+00  0.34843278429E-01 -0.57689013148E-01  0.88923773413E+00  0.88000000000E+00 0. -1.
        -11    1    4    4    0    0 -0.74683276839E-01 -0.10185323729E-02  0.37490385724E-01  0.83572838832E-01  0.51100000000E-03 0.  1.
         11    1    4    4    0    0 -0.44457891128E-01 -0.35462778119E-01  0.13178819823E-01  0.58378550242E-01  0.51100000000E-03 0. -1.
</event>
<event>
 8    1  0.2107254E+004  0.1043930E+01  0.7957747E-01            NaN
         13   -1    0    0    0    0  0.00000000000E+00  0.00000000000E+00  0.74505805969E-08  0.10566000000E+00  0.10566000000E+00 0. -1.
     999900   -1    0    0    0    0 -0.00000000000E+00 -0.00000000000E+00 -0.74505805969E-08  0.93827000000E+00  0.93827000000E+00 0.  1.
     999902    2    1    2    0    0  0.16038263798E-01 -0.62733780334E-02  0.37797073629E-02  0.10262985688E+01  0.10261471069E+01 0.  0.
     999903    2    3    3    0    0 -0.26263808785E-02 -0.91341711824E-01 -0.91462840016E-01  0.13688520418E+00  0.44965562647E-01 0.  0.
         14    1    1    2    0    0 -0.16038263798E-01  0.62733780334E-02 -0.37797073629E-02  0.17631431177E-01  0.00000000000E+00 0.  1.
     999901    1    3    3    0    0  0.18664644676E-01  0.85068333790E-01  0.95242547379E-01  0.88941336464E+00  0.88000000000E+00 0. -1.
        -11    1    4    4    0    0  0.20100236471E-01 -0.43365837083E-01 -0.52713019404E-01  0.71158547398E-01  0.51100000000E-03 0.  1.
         11    1    4    4    0    0 -0.22726617349E-01 -0.47975874740E-01 -0.38749820612E-01  0.65726656782E-01  0.51100000000E-03 0. -1.
</event>
<event>
 8    1  0.2107254E+004  0.1043930E+01  0.7957747E-01            NaN
         13   -1    0    0    0    0  0.00000000000E+00  0.00000000000E+00  0.74505805969E-08  0.10566000000E+00  0.10566000000E+00 0. -1.
     999900   -1    0    0    0    0 -0.00000000000E+00 -0.00000000000E+00 -0.74505805969E-08  0.93827000000E+00  0.93827000000E+00 0.  1.
     999902    2    1    2    0    0 -0.14449451591E-01 -0.27088384221E-02 -0.20697807307E-02  0.10290838406E+01  0.10289767454E+01 0.  0.
     999903    2    3    3    0    0 -0.83160814494E-01  0.28892355832E-01 -0.99669161944E-01  0.14046382839E+00  0.45228928256E-01 0.  0.
         14    1    1    2    0    0  0.14449451591E-01  0.27088384221E-02  0.20697807307E-02  0.14846159408E-01  0.00000000000E+00 0. -1.
     999901    1    3    3    0    0  0.68711362902E-01 -0.31601194254E-01  0.97599381213E-01  0.88862001220E+00  0.88000000000E+00 0. -1.
        -11    1    4    4    0    0 -0.70439572992E-03  0.12577275217E-01 -0.42573571664E-02  0.13306774074E-01  0.51100000000E-03 0. -1.
         11    1    4    4    0    0 -0.82456418764E-01  0.16315080615E-01 -0.95411804777E-01  0.12715705432E+00  0.51100000000E-03 0.  1.
</event>
<event>
 8    1  0.2107254E+004  0.1043930E+01  0.7957747E-01            NaN
         13   -1    0    0    0    0  0.00000000000E+00  0.00000000000E+00  0.74505805969E-08  0.10566000000E+00  0.10566000000E+00 0. -1.
     999900   -1    0    0    0    0 -0.00000000000E+00 -0.00000000000E+00 -0.74505805969E-08  0.93827000000E+00  0.93827000000E+00 0. -1.
     999902    2    1    2    0    0 -0.10936117445E-01  0.44690029811E-02 -0.37422190004E-03  0.10321100721E+01  0.10320423879E+01 0.  0.
     999903    2    3    3    0    0 -0.48467813980E-01  0.12426436886E+00 -0.23815647860E-01  0.14289184337E+00  0.45388671056E-01 0.  0.
         14    1    1    2    0    0  0.10936117445E-01 -0.44690029811E-02  0.37422190004E-03  0.11819927853E-01  0.00000000000E+00 0. -1.
     999901    1    3    3    0    0  0.37531696535E-01 -0.11979536588E+00  0.23441425960E-01  0.88921822877E+00  0.88000000000E+00 0. -1.
        -11    1    4    4    0    0 -0.83095155451E-02  0.81660821616E-01 -0.96167974300E-02  0.82645518629E-01  0.51100000000E-03 0.  1.
         11    1    4    4    0    0 -0.40158298435E-01  0.42603547242E-01 -0.14198850430E-01  0.60246324745E-01  0.51100000000E-03 0. -1.
</event>
<event>
 8    1  0.2107254E+004  0.1043930E+01  0.7957747E-01            NaN
         13   -1    0    0    0    0  0.00000000000E+00  0.00000000000E+00  0.74505805969E-08  0.10566000000E+00  0.10566000000E+00 0. -1.
     999900   -1    0    0    0    0 -0.00000000000E+00 -0.00000000000E+00 -0.74505805969E-08  0.93827000000E+00  0.93827000000E+00 0. -1.
     999902    2    1    2    0    0 -0.17319370647E-01 -0.41104548525E-02  0.14791223721E-02  0.10260681904E+01  0.10259127093E+01 0.  0.
     999903    2    3    3    0    0  0.64894611121E-02 -0.23373588257E-02  0.12876720842E+00  0.13658954470E+00  0.45034802142E-01 0.  0.
         14    1    1    2    0    0  0.17319370647E-01  0.41104548525E-02 -0.14791223721E-02  0.17861809587E-01  0.00000000000E+00 0.  1.
     999901    1    3    3    0    0 -0.23808831760E-01 -0.17730960267E-02 -0.12728808605E+00  0.88947864572E+00  0.88000000000E+00 0. -1.
        -11    1    4    4    0    0 -0.62797458881E-02  0.15368440855E-01  0.94555116122E-01  0.96002892084E-01  0.51100000000E-03 0.  1.
         11    1    4    4    0    0  0.12769207000E-01 -0.17705799681E-01  0.34212092298E-01  0.40586652611E-01  0.51100000000E-03 0. -1.
</event>
<event>
 8    1  0.2107254E+004  0.1043930E+01  0.7957747E-01            NaN
         13   -1    0    0    0    0  0.00000000000E+00  0.00000000000E+00  0.74505805969E-08  0.10566000000E+00  0.10566000000E+00 0.  1.
     999900   -1    0    0    0    0 -0.00000000000E+00 -0.00000000000E+00 -0.74505805969E-08  0.93827000000E+00  0.93827000000E+00 0.  1.
     999902    2    1    2    0    0  0.19368878188E-01 -0.85793810568E-03  0.33785659874E-02  0.10242499541E+01  0.10240608694E+01 0.  0.
     999903    2    3    3    0    0 -0.23601576866E-01  0.20945023042E-01 -0.12218494320E+00  0.13403198976E+00  0.45162877613E-01 0.  0.
         14    1    1    2    0    0 -0.19368878188E-01  0.85793810568E-03 -0.33785659874E-02  0.19680045939E-01  0.00000000000E+00 0. -1.
     999901    1    3    3    0    0  0.42970455053E-01 -0.21802961148E-01  0.12556350919E+00  0.89021796430E+00  0.88000000000E+00 0. -1.
        -11    1    4    4    0    0 -0.36787534382E-01  0.13021605134E-01 -0.96428075707E-01  0.10402653408E+00  0.51100000000E-03 0. -1.
         11    1    4    4    0    0  0.13185957516E-01  0.79234179082E-02 -0.25756867491E-01  0.30005455686E-01  0.51100000000E-03 0.  1.
</event>
<event>
 8    1  0.2107254E+004  0.1043930E+01  0.7957747E-01            NaN
         13   -1    0    0    0    0  0.00000000000E+00  0.00000000000E+00  0.74505805969E-08  0.10566000000E+00  0.10566000000E+00 0. -1.
     999900   -1    0    0    0    0 -0.00000000000E+00 -0.00000000000E+00 -0.74505805969E-08  0.93827000000E+00  0.93827000000E+00 0. -1.
     999902    2    1    2    0    0 -0.24710409869E-03 -0.97348589325E-02 -0.92286358174E-02  0.10305137316E+01  0.10304263946E+01 0.  0.
     999903    2    3    3    0    0 -0.13151775548E+00  0.18470977917E-02  0.20886032136E-01  0.14019186909E+00  0.43785865791E-01 0.  0.
         14    1    1    2    0    0  0.24710409869E-03  0.97348589325E-02  0.92286358174E-02  0.13416268405E-01  0.00000000000E+00 0. -1.
     999901    1    3    3    0    0  0.13127065138E+00 -0.11581956724E-01 -0.30114667953E-01  0.89032186251E+00  0.88000000000E+00 0.  1.
        -11    1    4    4    0    0 -0.85151072985E-01 -0.49824205823E-02  0.33521710447E-01  0.91648763973E-01  0.51100000000E-03 0.  1.
         11    1    4    4    0    0 -0.46366682493E-01  0.68295183740E-02 -0.12635678311E-01  0.48543105113E-01  0.51100000000E-03 0. -1.
</event>
<event>
 8    1  0.2107254E+004  0.1043930E+01  0.7957747E-01            NaN
         13   -1    0    0    0    0  0.00000000000E+00  0.00000000000E+00  0.74505805969E-08  0.10566000000E+00  0.10566000000E+00 0. -1.
     999900   -1    0    0    0    0 -0.00000000000E+00 -0.00000000000E+00 -0.74505805969E-08  0.93827000000E+00  0.93827000000E+00 0. -1.
     999902    2    1    2    0    0 -0.38759786804E-02 -0.13839771571E-01 -0.22569320543E-02  0.10293815901E+01  0.10292787775E+01 0.  0.
     999903    2    3    3    0    0 -0.23178962738E-01 -0.10731893579E+00  0.75711063251E-01  0.14079283955E+00  0.45120286765E-01 0.  0.
         14    1    1    2    0    0  0.38759786804E-02  0.13839771571E-01  0.22569320543E-02  0.14548409885E-01  0.00000000000E+00 0. -1.
     999901    1    3    3    0    0  0.19302984058E-01  0.93479164218E-01 -0.77967995305E-01  0.88858875056E+00  0.88000000000E+00 0.  1.
        -11    1    4    4    0    0 -0.18552765563E-01 -0.82664184436E-01  0.78561659992E-01  0.11554119629E+00  0.51100000000E-03 0.  1.
         11    1    4    4    0    0 -0.46261971750E-02 -0.24654751353E-01 -0.28505967410E-02  0.25251643261E-01  0.51100000000E-03 0. -1.
</event>
<event>
 8    1  0.2107254E+004  0.1043930E+01  0.7957747E-01            NaN
         13   -1    0    0    0    0  0.00000000000E+00  0.00000000000E+00  0.74505805969E-08  0.10566000000E+00  0.10566000000E+00 0. -1.
     999900   -1    0    0    0    0 -0.00000000000E+00 -0.00000000000E+00 -0.74505805969E-08  0.93827000000E+00  0.93827000000E+00 0.  1.
     999902    2    1    2    0    0  0.92111728300E-02  0.18362152066E-02 -0.14065407246E-01  0.10270168964E+01  0.10268776229E+01 0.  0.
     999903    2    3    3    0    0 -0.10656146782E+00 -0.70636557000E-01 -0.18216002566E-01  0.13647052792E+00  0.44130631453E-01 0.  0.
         14    1    1    2    0    0 -0.92111728300E-02 -0.18362152066E-02  0.14065407246E-01  0.16913103565E-01  0.00000000000E+00 0. -1.
     999901    1    3    3    0    0  0.11577264065E+00  0.72472772207E-01  0.41505953192E-02  0.89054636852E+00  0.88000000000E+00 0.  1.
        -11    1    4    4    0    0 -0.95703879620E-01 -0.76531859938E-01 -0.19319950628E-01  0.12405595420E+00  0.51100000000E-03 0. -1.
         11    1    4    4    0    0 -0.10857588200E-01  0.58953029378E-02  0.11039480624E-02  0.12414573717E-01  0.51100000000E-03 0.  1.
</event>
<event>
 8    1  0.2107254E+004  0.1043930E+01  0.7957747E-01            NaN
         13   -1    0    0    0    0  0.00000000000E+00  0.00000000000E+00  0.74505805969E-08  0.10566000000E+00  0.10566000000E+00 0. -1.
     999900   -1    0    0    0    0 -0.00000000000E+00 -0.00000000000E+00 -0.74505805969E-08  0.93827000000E+00  0.93827000000E+00 0. -1.
     999902    2    1    2    0    0  0.55418318905E-03 -0.41174206355E-02  0.13252308184E-01  0.10300417336E+01  0.10299481001E+01 0.  0.
     999903    2    3    3    0    0  0.25926089806E-01  0.47892831024E-01  0.12278064839E+00  0.14136560742E+00  0.44082444856E-01 0.  0.
         14    1    1    2    0    0 -0.55418318905E-03  0.41174206355E-02 -0.13252308184E-01  0.13888266411E-01  0.00000000000E+00 0.  1.
     999901    1    3    3    0    0 -0.25371906617E-01 -0.52010251660E-01 -0.10952834021E+00  0.88867612617E+00  0.88000000000E+00 0. -1.
        -11    1    4    4    0    0 -0.39449483506E-03  0.42087178561E-01  0.86163420025E-01  0.95895163052E-01  0.51100000000E-03 0. -1.
         11    1    4    4    0    0  0.26320584641E-01  0.58056524634E-02  0.36617228366E-01  0.45470444363E-01  0.51100000000E-03 0.  1.
</event>
<event>
 8    1  0.2107254E+004  0.1043930E+01  0.7957747E-01            NaN
         13   -1    0    0    0    0  0.00000000000E+00  0.00000000000E+00  0.74505805969E-08  0.10566000000E+00  0.10566000000E+00 0. -1.
     999900   -1    0    0    0    0 -0.00000000000E+00 -0.00000000000E+00 -0.74505805969E-08  0.93827000000E+00  0.93827000000E+00 0. -1.
     999902    2    1    2    0    0  0.69710120018E-02 -0.56966454124E-02 -0.10673423927E-01  0.10299668787E+01  0.10298722263E+01 0.  0.
     999903    2    3    3    0    0  0.70819293615E-01  0.10832852794E+00 -0.25163283150E-01  0.14019820135E+00  0.47664478687E-01 0.  0.
         14    1    1    2    0    0 -0.69710120018E-02  0.56966454124E-02  0.10673423927E-01  0.13963121270E-01  0.00000000000E+00 0. -1.
     999901    1    3    3    0    0 -0.63848281614E-01 -0.11402517336E+00  0.14489859224E-01  0.88976867738E+00  0.88000000000E+00 0. -1.
        -11    1    4    4    0    0  0.30090868132E-01  0.17624570894E-01  0.72438392829E-02  0.35620502140E-01  0.51100000000E-03 0. -1.
         11    1    4    4    0    0  0.40728425483E-01  0.90703957050E-01 -0.32407122433E-01  0.10457769921E+00  0.51100000000E-03 0.  1.
</event>
<event>
 8    1  0.2107254E+004  0.1043930E+01  0.7957747E-01            NaN
         13   -1    0    0    0    0  0.00000000000E+00  0.00000000000E+00  0.74505805969E-08  0.10566000000E+00  0.10566000000E+00 0.  1.
     999900   -1    0    0    0    0 -0.00000000000E+00 -0.00000000000E+00 -0.74505805969E-08  0.93827000000E+00  0.93827000000E+00 0.  1.
     999902    2    1    2    0    0  0.12137354533E-01  0.70145747071E-02 -0.37326907087E-02  0.10294230150E+01  0.10293207912E+01 0.  0.
     999903    2    3    3    0    0 -0.80948550139E-02  0.11857692928E+00  0.58171020480E-01  0.13999197737E+00  0.45693230030E-01 0.  0.
         14    1    1    2    0    0 -0.12137354533E-01 -0.70145747071E-02  0.37326907087E-02  0.14506984984E-01  0.00000000000E+00 0.  1.
     999901    1    3    3    0    0  0.20232209547E-01 -0.11156235457E+00 -0.61903711189E-01  0.88943103764E+00  0.88000000000E+00 0. -1.
        -11    1    4    4    0    0  0.50405818757E-02 -0.23738993254E-02  0.35814010488E-02  0.66430729430E-02  0.51100000000E-03 0. -1.
         11    1    4    4    0    0 -0.13135436890E-01  0.12095082861E+00  0.54589619431E-01  0.13334890443E+00  0.51100000000E-03 0.  1.
</event>
<event>
 8    1  0.2107254E+004  0.1043930E+01  0.7957747E-01            NaN
         13   -1    0    0    0    0  0.00000000000E+00  0.00000000000E+00  0.74505805969E-08  0.10566000000E+00  0.10566000000E+00 0.  1.
     999900   -1    0    0    0    0 -0.00000000000E+00 -0.00000000000E+00 -0.74505805969E-08  0.93827000000E+00  0.93827000000E+00 0. -1.
     999902    2    1    2    0    0 -0.34991681383E-02  0.82997546632E-02  0.14824461394E-01  0.10265836816E+01  0.10264371197E+01 0.  0.
     999903    2    3    3    0    0 -0.48212690001E-01 -0.11794411367E+00  0.17421934972E-01  0.13644686058E+00  0.45595444038E-01 0.  0.
         14    1    1    2    0    0  0.34991681383E-02 -0.82997546632E-02 -0.14824461394E-01  0.17346318363E-01  0.00000000000E+00 0. -1.
     999901    1    3    3    0    0  0.44713521863E-01  0.12624386834E+00 -0.25974735775E-02  0.89013682106E+00  0.88000000000E+00 0.  1.
        -11    1    4    4    0    0 -0.54218835619E-01 -0.96859708373E-01  0.47177951906E-02  0.11110357309E+00  0.51100000000E-03 0.  1.
         11    1    4    4    0    0  0.60061456176E-02 -0.21084405300E-01  0.12704139781E-01  0.25343287486E-01  0.51100000000E-03 0. -1.
</event>
<event>
 8    1  0.2107254E+004  0.1043930E+01  0.7957747E-01            NaN
         13   -1    0    0    0    0  0.00000000000E+00  0.00000000000E+00  0.74505805969E-08  0.10566000000E+00  0.10566000000E+00 0.  1.
     999900   -1    0    0    0    0 -0.00000000000E+00 -0.00000000000E+00 -0.74505805969E-08  0.93827000000E+00  0.93827000000E+00 0.  1.
     999902    2    1    2    0    0  0.52248220936E-02 -0.10562430938E-01 -0.79839315456E-02  0.10296959958E+01  0.10295976092E+01 0.  0.
     999903    2    3    3    0    0  0.40805967569E-01 -0.12710407914E+00  0.50756942707E-02  0.14120371809E+00  0.45740063497E-01 0.  0.
         14    1    1    2    0    0 -0.52248220936E-02  0.10562430938E-01  0.79839315456E-02  0.14234004220E-01  0.00000000000E+00 0.  1.
     999901    1    3    3    0    0 -0.35581145475E-01  0.11654164820E+00 -0.13059625816E-01  0.88849227768E+00  0.88000000000E+00 0.  1.
        -11    1    4    4    0    0  0.20029534041E-01 -0.87341856591E-01  0.23596701991E-01  0.92665244901E-01  0.51100000000E-03 0.  1.
         11    1    4    4    0    0  0.20776433528E-01 -0.39762222547E-01 -0.18521007721E-01  0.48538473194E-01  0.51100000000E-03 0. -1.
</event>
<event>
 8    1  0.2107254E+004  0.1043930E+01  0.7957747E-01            NaN
         13   -1    0    0    0    0  0.00000000000E+00  0.00000000000E+00  0.74505805969E-08  0.10566000000E+00  0.10566000000E+00 0. -1.
     999900   -1    0    0    0    0 -0.00000000000E+00 -0.00000000000E+00 -0.74505805969E-08  0.93827000000E+00  0.93827000000E+00 0. -1.
     999902    2    1    2    0    0 -0.12266866886E-01 -0.33510959755E-02 -0.64705261537E-02  0.10296620788E+01  0.10295632195E+01 0.  0.
     999903    2    3    3    0    0 -0.12587999601E+00 -0.19065889137E-01  0.40059678267E-01  0.14100018708E+00  0.45464199204E-01 0.  0.
         14    1    1    2    0    0  0.12266866886E-01  0.33510959755E-02  0.64705261537E-02  0.14267921227E-01  0.00000000000E+00 0.  1.
     999901    1    3    3    0    0  0.11361312912E+00  0.15714793161E-01 -0.46530204420E-01  0.88866189170E+00  0.88000000000E+00 0. -1.
        -11    1    4    4    0    0 -0.89875651409E-01 -0.51160713712E-02  0.72250260461E-02  0.90312064670E-01  0.51100000000E-03 0. -1.
         11    1    4    4    0    0 -0.36004344597E-01 -0.13949817766E-01  0.32834652220E-01  0.50688122406E-01  0.51100000000E-03 0.  1.
</event>
<event>
 8    1  0.2107254E+004  0.1043930E+01  0.7957747E-01            NaN
         13   -1    0    0    0    0  0.00000000000E+00  0.00000000000E+00  0.74505805969E-08  0.10566000000E+00  0.10566000000E+00 0.  1.
     999900   -1    0    0    0    0 -0.00000000000E+00 -0.00000000000E+00 -0.74505805969E-08  0.93827000000E+00  0.93827000000E+00 0.  1.
     999902    2    1    2    0    0 -0.77106465758E-02 -0.12142441001E-01  0.36531580126E-02  0.10290895651E+01  0.10289825531E+01 0.  0.
     999903    2    3    3    0    0 -0.65996080870E-01  0.57086619169E-01 -0.98301379882E-01  0.13859274737E+00  0.43936585643E-01 0.  0.
         14    1    1    2    0    0  0.77106465758E-02  0.12142441001E-01 -0.36531580126E-02  0.14840434884E-01  0.00000000000E+00 0. -1.
     999901    1    3    3    0    0  0.58285434294E-01 -0.69229060170E-01  0.10195453789E+00  0.89049681775E+00  0.88000000000E+00 0. -1.
        -11    1    4    4    0    0 -0.36190063246E-01  0.35546348628E-02 -0.34339741762E-01  0.50018347554E-01  0.51100000000E-03 0.  1.
         11    1    4    4    0    0 -0.29806017624E-01  0.53531984306E-01 -0.63961638120E-01  0.88574399814E-01  0.51100000000E-03 0. -1.
</event>
<event>
 8    1  0.2107254E+004  0.1043930E+01  0.7957747E-01            NaN
         13   -1    0    0    0    0  0.00000000000E+00  0.00000000000E+00  0.74505805969E-08  0.10566000000E+00  0.10566000000E+00 0. -1.
     999900   -1    0    0    0    0 -0.00000000000E+00 -0.00000000000E+00 -0.74505805969E-08  0.93827000000E+00  0.93827000000E+00 0.  1.
     999902    2    1    2    0    0  0.13856332990E-01 -0.47046125144E-02 -0.39113842807E-03  0.10292915461E+01  0.10291874477E+01 0.  0.
     999903    2    3    3    0    0  0.10221509224E+00  0.18185626576E-01  0.83614652244E-01  0.14059125566E+00  0.44674925892E-01 0.  0.
         14    1    1    2    0    0 -0.13856332990E-01  0.47046125144E-02  0.39113842807E-03  0.14638453884E-01  0.00000000000E+00 0.  1.
     999901    1    3    3    0    0 -0.88358759251E-01 -0.22890239090E-01 -0.84005790672E-01  0.88870029045E+00  0.88000000000E+00 0.  1.
        -11    1    4    4    0    0  0.78075043952E-01  0.29308027872E-01  0.76264622622E-01  0.11300985254E+00  0.51100000000E-03 0. -1.
         11    1    4    4    0    0  0.24140048290E-01 -0.11122401296E-01  0.73500296219E-02  0.27581403127E-01  0.51100000000E-03 0.  1.
</event>
<event>
 8    1  0.2107254E+004  0.1043930E+01  0.7957747E-01            NaN
         13   -1    0    0    0    0  0.00000000000E+00  0.00000000000E+00  0.74505805969E-08  0.10566000000E+00  0.10566000000E+00 0.  1.
     999900   -1    0    0    0    0 -0.00000000000E+00 -0.00000000000E+00 -0.74505805969E-08  0.93827000000E+00  0.93827000000E+00 0. -1.
     999902    2    1    2    0    0  0.11691266341E-01  0.25260295874E-02 -0.21803188720E-02  0.10317718618E+01  0.10317002251E+01 0.  0.
     999903    2    3    3    0    0 -0.11529763235E+00 -0.52838028417E-01 -0.39120283058E-01  0.14016885582E+00  0.45072278897E-01 0.  0.
         14    1    1    2    0    0 -0.11691266341E-01 -0.25260295874E-02  0.21803188720E-02  0.12158138201E-01  0.00000000000E+00 0. -1.
     999901    1    3    3    0    0  0.12698889869E+00  0.55364058004E-01  0.36939964186E-01  0.89160300597E+00  0.88000000000E+00 0.  1.
        -11    1    4    4    0    0 -0.65705488403E-01 -0.52363669625E-01 -0.32693999144E-01  0.90157217148E-01  0.51100000000E-03 0. -1.
         11    1    4    4    0    0 -0.49592143944E-01 -0.47435879178E-03 -0.64262839144E-02  0.50011638677E-01  0.51100000000E-03 0.  1.
</event>
<event>
 8    1  0.2107254E+004  0.1043930E+01  0.7957747E-01            NaN
         13   -1    0    0    0    0  0.00000000000E+00  0.00000000000E+00  0.74505805969E-08  0.10566000000E+00  0.10566000000E+00 0.  1.
     999900   -1    0    0    0    0 -0.00000000000E+00 -0.00000000000E+00 -0.74505805969E-08  0.93827000000E+00  0.93827000000E+00 0. -1.
     999902    2    1    2    0    0 -0.34587229614E-02 -0.11575699649E-01  0.12100670311E-02  0.10317881777E+01  0.10317167343E+01 0.  0.
     999903    2    3    3    0    0 -0.13882629786E-02  0.10503602829E+00  0.81788318879E-01  0.14044344271E+00  0.44727362784E-01 0.  0.
         14    1    1    2    0    0  0.34587229614E-02  0.11575699649E-01 -0.12100670311E-02  0.12141822314E-01  0.00000000000E+00 0. -1.
     999901    1    3    3    0    0 -0.20704599829E-02 -0.11661172794E+00 -0.80578251848E-01  0.89134473498E+00  0.88000000000E+00 0. -1.
        -11    1    4    4    0    0 -0.16597965282E-01  0.16789178076E-01  0.98867918418E-02  0.25600365737E-01  0.51100000000E-03 0.  1.
         11    1    4    4    0    0  0.15209702303E-01  0.88246850217E-01  0.71901527037E-01  0.11484307697E+00  0.51100000000E-03 0. -1.
</event>
<event>
 8    1  0.2107254E+004  0.1043930E+01  0.7957747E-01            NaN
         13   -1    0    0    0    0  0.00000000000E+00  0.00000000000E+00  0.74505805969E-08  0.10566000000E+00  0.10566000000E+00 0. -1.
     999900   -1    0    0    0    0 -0.00000000000E+00 -0.00000000000E+00 -0.74505805969E-08  0.93827000000E+00  0.93827000000E+00 0.  1.
     999902    2    1    2    0    0 -0.82330215312E-02  0.16053870154E-02  0.11376387186E-01  0.10297955705E+01  0.10296985651E+01 0.  0.
     999903    2    3    3    0    0 -0.85592055340E-01 -0.93903480726E-01 -0.38041989047E-01  0.13988066458E+00  0.44447089467E-01 0.  0.
         14    1    1    2    0    0  0.82330215312E-02 -0.16053870154E-02 -0.11376387186E-01  0.14134429469E-01  0.00000000000E+00 0.  1.
     999901    1    3    3    0    0  0.77359033809E-01  0.95508867741E-01  0.49418376233E-01  0.88991490595E+00  0.88000000000E+00 0. -1.
        -11    1    4    4    0    0 -0.91080071910E-02 -0.47905730597E-02 -0.18009158483E-01  0.20748404650E-01  0.51100000000E-03 0.  1.
         11    1    4    4    0    0 -0.76484048149E-01 -0.89112907666E-01 -0.20032830564E-01  0.11913225993E+00  0.51100000000E-03 0. -1.
</event>
<event>
 8    1  0.2107254E+004  0.1043930E+01  0.7957747E-01            NaN
         13   -1    0    0    0    0  0.00000000000E+00  0.00000000000E+00  0.74505805969E-08  0.10566000000E+00  0.10566000000E+00 0.  1.
     999900   -1    0    0    0    0 -0.00000000000E+00 -0.00000000000E+00 -0.74505805969E-08  0.93827000000E+00  0.93827000000E+00 0. -1.
     999902    2    1    2    0    0 -0.66252106309E-02  0.11940120945E-01  0.71468679731E-03  0.10302562777E+01  0.10301655338E+01 0.  0.
     999903    2    3    3    0    0 -0.48058514314E-01 -0.93759976547E-01 -0.79639188266E-01  0.13933205281E+00  0.44389938429E-01 0.  0.
         14    1    1    2    0    0  0.66252106309E-02 -0.11940120945E-01 -0.71468679731E-03  0.13673722292E-01  0.00000000000E+00 0.  1.
     999901    1    3    3    0    0  0.41433303683E-01  0.10570009749E+00  0.80353875063E-01  0.89092422489E+00  0.88000000000E+00 0. -1.
        -11    1    4    4    0    0 -0.35056286739E-01 -0.29373896344E-01 -0.48405490219E-01  0.66596708858E-01  0.51100000000E-03 0. -1.
         11    1    4    4    0    0 -0.13002227575E-01 -0.64386080204E-01 -0.31233698047E-01  0.72735343957E-01  0.51100000000E-03 0.  1.
</event>
<event>
 8    1  0.2107254E+004  0.1043930E+01  0.7957747E-01            NaN
         13   -1    0    0    0    0  0.00000000000E+00  0.00000000000E+00  0.74505805969E-08  0.10566000000E+00  0.10566000000E+00 0.  1.
     999900   -1    0    0    0    0 -0.00000000000E+00 -0.00000000000E+00 -0.74505805969E-08  0.93827000000E+00  0.93827000000E+00 0.  1.
     999902    2    1    2    0    0 -0.61581346759E-02 -0.36963451579E-02  0.10169177821E-01  0.10314801901E+01  0.10314050537E+01 0.  0.
     999903    2    3    3    0    0  0.67087518030E-01  0.48781007889E-01  0.10639452281E+00  0.14166104256E+00  0.43217296186E-01 0.  0.
         14    1    1    2    0    0  0.61581346759E-02  0.36963451579E-02 -0.10169177821E-01  0.12449809949E-01  0.00000000000E+00 0. -1.
     999901    1    3    3    0    0 -0.73245652706E-01 -0.52477353047E-01 -0.96225344987E-01  0.88981914749E+00  0.88000000000E+00 0.  1.
        -11    1    4    4    0    0  0.51030927536E-01  0.30539361792E-01  0.41935410712E-01  0.72771202934E-01  0.51100000000E-03 0.  1.
         11    1    4    4    0    0  0.16056590495E-01  0.18241646097E-01  0.64459112096E-01  0.68889839627E-01  0.51100000000E-03 0. -1.
</event>
<event>
 8    1  0.2107254E+004  0.1043930E+01  0.7957747E-01            NaN
         13   -1    0    0    0    0  0.00000000000E+00  0.00000000000E+00  0.74505805969E-08  0.10566000000E+00  0.10566000000E+00 0.  1.
     999900   -1    0    0    0    0 -0.00000000000E+00 -0.00000000000E+00 -0.74505805969E-08  0.93827000000E+00  0.93827000000E+00 0. -1.
     999902    2    1    2    0    0 -0.58870704526E-02  0.54423450081E-02 -0.11207747206E-01  0.10301499305E+01  0.10300577600E+01 0.  0.
     999903    2    3    3    0    0 -0.83095391656E-01  0.59316030824E-01 -0.87490122387E-01  0.14184677300E+00  0.45196790451E-01 0.  0.
         14    1    1    2    0    0  0.58870704526E-02 -0.54423450081E-02  0.11207747206E-01  0.13780069489E-01  0.00000000000E+00 0.  1.
     999901    1    3    3    0    0  0.77208321203E-01 -0.53873685816E-01  0.76282375181E-01  0.88830315751E+00  0.88000000000E+00 0.  1.
        -11    1    4    4    0    0 -0.21183167291E-01  0.10356725626E-02 -0.20616210727E-02  0.21314563016E-01  0.51100000000E-03 0.  1.
         11    1    4    4    0    0 -0.61912224365E-01  0.58280358261E-01 -0.85428501314E-01  0.12053220998E+00  0.51100000000E-03 0. -1.
</event>
<event>
 8    1  0.2107254E+004  0.1043930E+01  0.7957747E-01            NaN
         13   -1    0    0    0    0  0.00000000000E+00  0.00000000000E+00  0.74505805969E-08  0.10566000000E+00  0.10566000000E+00 0. -1.
     999900   -1    0    0    0    0 -0.00000000000E+00 -0.00000000000E+00 -0.74505805969E-08  0.93827000000E+00  0.93827000000E+00 0.  1.
     999902    2    1    2    0    0  0.70486838309E-02 -0.14967886977E-01 -0.10302050482E-01  0.10244401609E+01  0.10242547483E+01 0.  0.
     999903    2    3    3    0    0 -0.59368444220E-01  0.10432761981E+00  0.35489918192E-01  0.13273417951E+00  0.44158393226E-01 0.  0.
         14    1    1    2    0    0 -0.70486838309E-02  0.14967886977E-01  0.10302050482E-01  0.19489839107E-01  0.00000000000E+00 0. -1.
     999901    1    3    3    0    0  0.66417128051E-01 -0.11929550679E+00 -0.45791968674E-01  0.89170598138E+00  0.88000000000E+00 0.  1.
        -11    1    4    4    0    0 -0.42956213298E-01  0.75294035011E-01  0.45508750774E-01  0.97906769363E-01  0.51100000000E-03 0. -1.
         11    1    4    4    0    0 -0.16412230923E-01  0.29033584801E-01 -0.10018832582E-01  0.34827410147E-01  0.51100000000E-03 0.  1.
</event>
<event>
 8    1  0.2107254E+004  0.1043930E+01  0.7957747E-01            NaN
         13   -1    0    0    0    0  0.00000000000E+00  0.00000000000E+00  0.74505805969E-08  0.10566000000E+00  0.10566000000E+00 0. -1.
     999900   -1    0    0    0    0 -0.00000000000E+00 -0.00000000000E+00 -0.74505805969E-08  0.93827000000E+00  0.93827000000E+00 0.  1.
     999902    2    1    2    0    0 -0.77697652775E-02 -0.66691460473E-02 -0.85452865625E-02  0.10305932581E+01  0.10305069602E+01 0.  0.
     999903    2    3    3    0    0 -0.65234809735E-01  0.11480400071E+00  0.11534789431E-01  0.14016573936E+00  0.45583375722E-01 0.  0.
         14    1    1    2    0    0  0.77697652775E-02  0.66691460473E-02  0.85452865625E-02  0.13336741877E-01  0.00000000000E+00 0.  1.
     999901    1    3    3    0    0  0.57465044458E-01 -0.12147314676E+00 -0.20080075994E-01  0.89042751876E+00  0.88000000000E+00 0. -1.
        -11    1    4    4    0    0 -0.88122289806E-02  0.47890502673E-01 -0.10697117874E-01  0.49858249845E-01  0.51100000000E-03 0. -1.
         11    1    4    4    0    0 -0.56422580755E-01  0.66913498040E-01  0.22231907305E-01  0.90307489514E-01  0.51100000000E-03 0.  1.
</event>
<event>
 8    1  0.2107254E+004  0.1043930E+01  0.7957747E-01            NaN
         13   -1    0    0    0    0  0.00000000000E+00  0.00000000000E+00  0.74505805969E-08  0.10566000000E+00  0.10566000000E+00 0. -1.
     999900   -1    0    0    0    0 -0.00000000000E+00 -0.00000000000E+00 -0.74505805969E-08  0.93827000000E+00  0.93827000000E+00 0. -1.
     999902    2    1    2    0    0 -0.99639770985E-03 -0.81433313290E-02 -0.15176822637E-01  0.10266776784E+01  0.10265327140E+01 0.  0.
     999903    2    3    3    0    0 -0.42233977902E-01 -0.10071319343E+00 -0.75364737789E-01  0.13881941131E+00  0.40793737684E-01 0.  0.
         14    1    1    2    0    0  0.99639770985E-03  0.81433313290E-02  0.15176822637E-01  0.17252321551E-01  0.00000000000E+00 0. -1.
     999901    1    3    3    0    0  0.41237580192E-01  0.92569862106E-01  0.60187915152E-01  0.88785826714E+00  0.88000000000E+00 0.  1.
        -11    1    4    4    0    0 -0.74730946598E-02 -0.16722607484E-01 -0.34692312854E-01  0.39234046911E-01  0.51100000000E-03 0. -1.
         11    1    4    4    0    0 -0.34760883242E-01 -0.83990585950E-01 -0.40672424935E-01  0.99585364402E-01  0.51100000000E-03 0.  1.
</event>
<event>
 8    1  0.2107254E+004  0.1043930E+01  0.7957747E-01            NaN
         13   -1    0    0    0    0  0.00000000000E+00  0.00000000000E+00  0.74505805969E-08  0.10566000000E+00  0.10566000000E+00 0. -1.
     999900   -1    0    0    0    0 -0.00000000000E+00 -0.00000000000E+00 -0.74505805969E-08  0.93827000000E+00  0.93827000000E+00 0.  1.
     999902    2    1    2    0    0 -0.16428431059E-01 -0.23123824053E-01 -0.16905751825E-02  0.10155141131E+01  0.10151164717E+01 0.  0.
     999903    2    3    3    0    0  0.37535827213E-01 -0.55830369305E-01 -0.99112025021E-01  0.12789212248E+00  0.44802154285E-01 0.  0.
         14    1    1    2    0    0  0.16428431059E-01  0.23123824053E-01  0.16905751825E-02  0.28415886935E-01  0.00000000000E+00 0.  1.
     999901    1    3    3    0    0 -0.53964258272E-01  0.32706545252E-01  0.97421449839E-01  0.88762199058E+00  0.88000000000E+00 0. -1.
        -11    1    4    4    0    0  0.33473541926E-01 -0.48807567532E-01 -0.10306719335E+00  0.11885185789E+00  0.51100000000E-03 0. -1.
         11    1    4    4    0    0  0.40622852870E-02 -0.70228017724E-02  0.39551683276E-02  0.90402645972E-02  0.51100000000E-03 0.  1.
</event>
<event>
 8    1  0.2107254E+004  0.1043930E+01  0.7957747E-01            NaN
         13   -1    0    0    0    0  0.00000000000E+00  0.00000000000E+00  0.74505805969E-08  0.10566000000E+00  0.10566000000E+00 0. -1.
     999900   -1    0    0    0    0 -0.00000000000E+00 -0.00000000000E+00 -0.74505805969E-08  0.93827000000E+00  0.93827000000E+00 0.  1.
     999902    2    1    2    0    0 -0.72524512985E-02 -0.84317270276E-04  0.79329985983E-02  0.10331811570E+01  0.10331252419E+01 0.  0.
     999903    2    3    3    0    0 -0.85640355750E-01  0.58835108739E-01 -0.86768501819E-01  0.14268436502E+00  0.45102267802E-01 0.  0.
         14    1    1    2    0    0  0.72524512985E-02  0.84317270276E-04 -0.79329985983E-02  0.10748843008E-01  0.00000000000E+00 0.  1.
     999901    1    3    3    0    0  0.78387904451E-01 -0.58919426010E-01  0.94701500418E-01  0.89049679197E+00  0.88000000000E+00 0. -1.
        -11    1    4    4    0    0 -0.34292117813E-01 -0.84187558523E-03 -0.30626850949E-01  0.45988294365E-01  0.51100000000E-03 0. -1.
         11    1    4    4    0    0 -0.51348237937E-01  0.59676984325E-01 -0.56141650870E-01  0.96696070658E-01  0.51100000000E-03 0.  1.
</event>
<event>
 8    1  0.2107254E+004  0.1043930E+01  0.7957747E-01            NaN
         13   -1    0    0    0    0  0.00000000000E+00  0.00000000000E+00  0.74505805969E-08  0.10566000000E+00  0.10566000000E+00 0.  1.
     999900   -1    0    0    0    0 -0.00000000000E+00 -0.00000000000E+00 -0.74505805969E-08  0.93827000000E+00  0.93827000000E+00 0. -1.
     999902    2    1    2    0    0  0.28588461465E-02 -0.62375884051E-02  0.14377733326E-01  0.10279989069E+01  0.10278754560E+01 0.  0.
     999903    2    3    3    0    0  0.11035788051E+00 -0.70670858867E-01 -0.17387727660E-01  0.13855147553E+00  0.41484288789E-01 0.  0.
         14    1    1    2    0    0 -0.28588461465E-02  0.62375884051E-02 -0.14377733326E-01  0.15931093057E-01  0.00000000000E+00 0. -1.
     999901    1    3    3    0    0 -0.10749903436E+00  0.64433270462E-01  0.31765460987E-01  0.88944743141E+00  0.88000000000E+00 0. -1.
        -11    1    4    4    0    0  0.76026082699E-01 -0.61513447002E-01  0.25014785373E-02  0.97828359530E-01  0.51100000000E-03 0. -1.
         11    1    4    4    0    0  0.34331797807E-01 -0.91574118648E-02 -0.19889206198E-01  0.40723116002E-01  0.51100000000E-03 0.  1.
</event>
<event>
 8    1  0.2107254E+004  0.1043930E+01  0.7957747E-01            NaN
         13   -1    0    0    0    0  0.00000000000E+00  0.00000000000E+00  0.74505805969E-08  0.10566000000E+00  0.10566000000E+00 0. -1.
     999900   -1    0    0    0    0 -0.00000000000E+00 -0.00000000000E+00 -0.74505805969E-08  0.93827000000E+00  0.93827000000E+00 0. -1.
     999902    2    1    2    0    0  0.59190973873E-02  0.10486910808E-01  0.61365801054E-02  0.10304145042E+01  0.10303258619E+01 0.  0.
     999903    2    3    3    0    0 -0.99526330212E-01 -0.69041132627E-01  0.52034083518E-01  0.13937576836E+00  0.45231521732E-01 0.  0.
         14    1    1    2    0    0 -0.59190973873E-02 -0.10486910808E-01 -0.61365801054E-02  0.13515495831E-01  0.00000000000E+00 0.  1.
     999901    1    3    3    0    0  0.10544542760E+00  0.79528043435E-01 -0.45897503413E-01  0.89103873581E+00  0.88000000000E+00 0. -1.
        -11    1    4    4    0    0 -0.26974852594E-01 -0.19379362887E-01  0.37778113032E-01  0.50305559569E-01  0.51100000000E-03 0.  1.
         11    1    4    4    0    0 -0.72551477618E-01 -0.49661769740E-01  0.14255970487E-01  0.89070208790E-01  0.51100000000E-03 0. -1.
</event>
<event>
 8    1  0.2107254E+004  0.1043930E+01  0.7957747E-01            NaN
         13   -1    0    0    0    0  0.00000000000E+00  0.00000000000E+00  0.74505805969E-08  0.10566000000E+00  0.10566000000E+00 0.  1.
     999900   -1    0    0    0    0 -0.00000000000E+00 -0.00000000000E+00 -0.74505805969E-08  0.93827000000E+00  0.93827000000E+00 0. -1.
     999902    2    1    2    0    0  0.87246355545E-02 -0.22948676187E-02 -0.10543670873E-01  0.10300535927E+01  0.10299601202E+01 0.  0.
     999903    2    3    3    0    0 -0.66440267429E-01  0.10021915464E+00 -0.55437106249E-01  0.13978716748E+00  0.44821773191E-01 0.  0.
         14    1    1    2    0    0 -0.87246355545E-02  0.22948676187E-02  0.10543670873E-01  0.13876407259E-01  0.00000000000E+00 0.  1.
     999901    1    3    3    0    0  0.75164902984E-01 -0.10251402225E+00  0.44893435376E-01  0.89026642526E+00  0.88000000000E+00 0.  1.
        -11    1    4    4    0    0 -0.26767654540E-01  0.30856996446E-01  0.27404902377E-02  0.40944266595E-01  0.51100000000E-03 0.  1.
         11    1    4    4    0    0 -0.39672612889E-01  0.69362158190E-01 -0.58177596487E-01  0.98842900889E-01  0.51100000000E-03 0. -1.
</event>
<event>
 8    1  0.2107254E+004  0.1043930E+01  0.7957747E-01            NaN
         13   -1    0    0    0    0  0.00000000000E+00  0.00000000000E+00  0.74505805969E-08  0.10566000000E+00  0.10566000000E+00 0. -1.
     999900   -1    0    0    0    0 -0.00000000000E+00 -0.00000000000E+00 -0.74505805969E-08  0.93827000000E+00  0.93827000000E+00 0. -1.
     999902    2    1    2    0    0 -0.51139625756E-02 -0.81499353954E-02 -0.10307833395E-01  0.10298294507E+01  0.10297329130E+01 0.  0.
     999903    2    3    3    0    0 -0.18389663864E-01 -0.12295519786E+00 -0.49647503320E-01  0.14140156837E+00  0.45534256704E-01 0.  0.
         14    1    1    2    0    0  0.51139625756E-02  0.81499353954E-02  0.10307833395E-01  0.14100549261E-01  0.00000000000E+00 0. -1.
     999901    1    3    3    0    0  0.13275701288E-01  0.11480526247E+00  0.39339669926E-01  0.88842788237E+00  0.88000000000E+00 0.  1.
        -11    1    4    4    0    0 -0.84288629006E-04 -0.98800117455E-01 -0.23950345510E-01  0.10166292581E+00  0.51100000000E-03 0. -1.
         11    1    4    4    0    0 -0.18305375235E-01 -0.24155080409E-01 -0.25697157810E-01  0.39738642561E-01  0.51100000000E-03 0.  1.
</event>
<event>
 8    1  0.2107254E+004  0.1043930E+01  0.7957747E-01            NaN
         13   -1    0    0    0    0  0.00000000000E+00  0.00000000000E+00  0.74505805969E-08  0.10566000000E+00  0.10566000000E+00 0.  1.
     999900   -1    0    0    0    0 -0.00000000000E+00 -0.00000000000E+00 -0.74505805969E-08  0.93827000000E+00  0.93827000000E+00 0. -1.
     999902    2    1    2    0    0 -0.19370276458E-02  0.86926833402E-02 -0.91863153012E-02  0.10311353445E+01  0.10310559614E+01 0.  0.
     999903    2    3    3    0    0 -0.68108433254E-01 -0.65834717934E-01 -0.93705025894E-01  0.14148575008E+00  0.47587990429E-01 0.  0.
         14    1    1    2    0    0  0.19370276458E-02 -0.86926833402E-02  0.91863153012E-02  0.12794655469E-01  0.00000000000E+00 0.  1.
     999901    1    3    3    0    0  0.66171405608E-01  0.74527401275E-01  0.84518710592E-01  0.88964959445E+00  0.88000000000E+00 0.  1.
        -11    1    4    4    0    0 -0.67633021305E-01 -0.41019270746E-01 -0.58390167422E-01  0.98318253219E-01  0.51100000000E-03 0. -1.
         11    1    4    4    0    0 -0.47541194872E-03 -0.24815447188E-01 -0.35314858472E-01  0.43167496865E-01  0.51100000000E-03 0.  1.
</event>
<event>
 8    1  0.2107254E+004  0.1043930E+01  0.7957747E-01            NaN
         13   -1    0    0    0    0  0.00000000000E+00  0.00000000000E+00  0.74505805969E-08  0.10566000000E+00  0.10566000000E+00 0.  1.
     999900   -1    0    0    0    0 -0.00000000000E+00 -0.00000000000E+00 -0.74505805969E-08  0.93827000000E+00  0.93827000000E+00 0. -1.
     999902    2    1    2    0    0  0.10976905213E-01  0.12682995850E-02 -0.70417882888E-02  0.10308270303E+01  0.10307437502E+01 0.  0.
     999903    2    3    3    0    0 -0.78593598168E-01 -0.80389494899E-01  0.69159240286E-01  0.13925680470E+00  0.44385049000E-01 0.  0.
         14    1    1    2    0    0 -0.10976905213E-01 -0.12682995850E-02  0.70417882888E-02  0.13102969671E-01  0.00000000000E+00 0. -1.
     999901    1    3    3    0    0  0.89570503381E-01  0.81657794484E-01 -0.76201028574E-01  0.89157022563E+00  0.88000000000E+00 0. -1.
        -11    1    4    4    0    0 -0.48226890284E-01 -0.45854780648E-01  0.15023600446E-01  0.68223628943E-01  0.51100000000E-03 0.  1.
         11    1    4    4    0    0 -0.30366707884E-01 -0.34534714251E-01  0.54135639839E-01  0.71033175755E-01  0.51100000000E-03 0. -1.
</event>
<event>
 8    1  0.2107254E+004  0.1043930E+01  0.7957747E-01            NaN
         13   -1    0    0    0    0  0.00000000000E+00  0.00000000000E+00  0.74505805969E-08  0.10566000000E+00  0.10566000000E+00 0. -1.
     999900   -1    0    0    0    0 -0.00000000000E+00 -0.00000000000E+00 -0.74505805969E-08  0.93827000000E+00  0.93827000000E+00 0.  1.
     999902    2    1    2    0    0  0.11192778583E-02 -0.18841578621E-02 -0.14205291580E-01  0.10295566517E+01  0.10294563156E+01 0.  0.
     999903    2    3    3    0    0 -0.40768504208E-01  0.15711910472E-01 -0.12661856321E+00  0.14124310817E+00  0.44815399009E-01 0.  0.
         14    1    1    2    0    0 -0.11192778583E-02  0.18841578621E-02  0.14205291580E-01  0.14373348345E-01  0.00000000000E+00 0. -1.
     999901    1    3    3    0    0  0.41887782067E-01 -0.17596068334E-01  0.11241327163E+00  0.88831354349E+00  0.88000000000E+00 0. -1.
        -11    1    4    4    0    0 -0.35625934853E-01 -0.57734845541E-02 -0.10181426145E+00  0.10802289254E+00  0.51100000000E-03 0. -1.
         11    1    4    4    0    0 -0.51425693552E-02  0.21485395026E-01 -0.24804301761E-01  0.33220215621E-01  0.51100000000E-03 0.  1.
</event>
<event>
 8    1  0.2107254E+004  0.1043930E+01  0.7957747E-01            NaN
         13   -1    0    0    0    0  0.00000000000E+00  0.00000000000E+00  0.74505805969E-08  0.10566000000E+00  0.10566000000E+00 0.  1.
     999900   -1    0    0    0    0 -0.00000000000E+00 -0.00000000000E+00 -0.74505805969E-08  0.93827000000E+00  0.93827000000E+00 0.  1.
     999902    2    1    2    0    0  0.12401060969E-01 -0.12611334291E-02 -0.43717590222E-02  0.10307205697E+01  0.10306359221E+01 0.  0.
     999903    2    3    3    0    0 -0.15145611522E-01  0.72676040699E-01  0.10979144901E+00  0.13984529062E+00  0.44624506664E-01 0.  0.
         14    1    1    2    0    0 -0.12401060969E-01  0.12611334291E-02  0.43717590222E-02  0.13209430254E-01  0.00000000000E+00 0. -1.
     999901    1    3    3    0    0  0.27546672491E-01 -0.73937174128E-01 -0.11416320803E+00  0.89087527912E+00  0.88000000000E+00 0.  1.
        -11    1    4    4    0    0 -0.26357875811E-01  0.21340135997E-01  0.47140336944E-01  0.58074189704E-01  0.51100000000E-03 0.  1.
         11    1    4    4    0    0  0.11212264289E-01  0.51335904702E-01  0.62651112062E-01  0.81771100920E-01  0.51100000000E-03 0. -1.
</event>
<event>
 8    1  0.2107254E+004  0.1043930E+01  0.7957747E-01            NaN
         13   -1    0    0    0    0  0.00000000000E+00  0.00000000000E+00  0.74505805969E-08  0.10566000000E+00  0.10566000000E+00 0.  1.
     999900   -1    0    0    0    0 -0.00000000000E+00 -0.00000000000E+00 -0.74505805969E-08  0.93827000000E+00  0.93827000000E+00 0.  1.
     999902    2    1    2    0    0 -0.10590224407E-01  0.37275061905E-02  0.63005074791E-02  0.10310558573E+01  0.10309754785E+01 0.  0.
     999903    2    3    3    0    0 -0.22721591316E-01 -0.74131193257E-01  0.10951734742E+00  0.14152628322E+00  0.44988164324E-01 0.  0.
         14    1    1    2    0    0  0.10590224407E-01 -0.37275061905E-02 -0.63005074791E-02  0.12874142685E-01  0.00000000000E+00 0. -1.
     999901    1    3    3    0    0  0.12131366909E-01  0.77858699447E-01 -0.10321683995E+00  0.88952957410E+00  0.88000000000E+00 0.  1.
        -11    1    4    4    0    0 -0.29437066945E-01 -0.64295886996E-01  0.10856887455E+00  0.12956837437E+00  0.51100000000E-03 0.  1.
         11    1    4    4    0    0  0.67154756288E-02 -0.98353062604E-02  0.94847287021E-03  0.11957908845E-01  0.51100000000E-03 0. -1.
</event>
<event>
 8    1  0.2107254E+004  0.1043930E+01  0.7957747E-01            NaN
         13   -1    0    0    0    0  0.00000000000E+00  0.00000000000E+00  0.74505805969E-08  0.10566000000E+00  0.10566000000E+00 0.  1.
     999900   -1    0    0    0    0 -0.00000000000E+00 -0.00000000000E+00 -0.74505805969E-08  0.93827000000E+00  0.93827000000E+00 0. -1.
     999902    2    1    2    0    0  0.14884949982E-01 -0.63592749947E-02 -0.13778735716E-02  0.10276849808E+01  0.10275565770E+01 0.  0.
     999903    2    3    3    0    0 -0.51706717899E-01 -0.71663305009E-01  0.94785994478E-01  0.13754647689E+00  0.46102435876E-01 0.  0.
         14    1    1    2    0    0 -0.14884949982E-01  0.63592749947E-02  0.13778735716E-02  0.16245019236E-01  0.00000000000E+00 0.  1.
     999901    1    3    3    0    0  0.66591667881E-01  0.65304030015E-01 -0.96163868050E-01  0.89013850388E+00  0.88000000000E+00 0. -1.
        -11    1    4    4    0    0 -0.22636053284E-02 -0.33247357463E-01  0.16175001953E-01  0.37045951149E-01  0.51100000000E-03 0. -1.
         11    1    4    4    0    0 -0.49443112571E-01 -0.38415947546E-01  0.78610992526E-01  0.10050052574E+00  0.51100000000E-03 0.  1.
</event>
<event>
 8    1  0.2107254E+004  0.1043930E+01  0.7957747E-01            NaN
         13   -1    0    0    0    0  0.00000000000E+00  0.00000000000E+00  0.74505805969E-08  0.10566000000E+00  0.10566000000E+00 0. -1.
     999900   -1    0    0    0    0 -0.00000000000E+00 -0.00000000000E+00 -0.74505805969E-08  0.93827000000E+00  0.93827000000E+00 0.  1.
     999902    2    1    2    0    0 -0.95615509705E-02 -0.87094737416E-02 -0.44450974716E-02  0.10302538499E+01  0.10301630736E+01 0.  0.
     999903    2    3    3    0    0  0.51000679950E-01  0.64737082123E-02  0.12117961789E+00  0.13914225087E+00  0.45089776350E-01 0.  0.
         14    1    1    2    0    0  0.95615509705E-02  0.87094737416E-02  0.44450974716E-02  0.13676150092E-01  0.00000000000E+00 0. -1.
     999901    1    3    3    0    0 -0.60562230920E-01 -0.15183181954E-01 -0.12562471536E+00  0.89111159904E+00  0.88000000000E+00 0. -1.
        -11    1    4    4    0    0  0.54823962819E-01 -0.45580651638E-02  0.86182662300E-01  0.10224556352E+00  0.51100000000E-03 0. -1.
         11    1    4    4    0    0 -0.38232828698E-02  0.11031773376E-01  0.34996955593E-01  0.36896687351E-01  0.51100000000E-03 0.  1.
</event>
<event>
 8    1  0.2107254E+004  0.1043930E+01  0.7957747E-01            NaN
         13   -1    0    0    0    0  0.00000000000E+00  0.00000000000E+00  0.74505805969E-08  0.10566000000E+00  0.10566000000E+00 0. -1.
     999900   -1    0    0    0    0 -0.00000000000E+00 -0.00000000000E+00 -0.74505805969E-08  0.93827000000E+00  0.93827000000E+00 0. -1.
     999902    2    1    2    0    0  0.66379707199E-02 -0.11784719514E-01 -0.19633317575E-02  0.10302626323E+01  0.10301719733E+01 0.  0.
     999903    2    3    3    0    0  0.11792643679E+00 -0.43861660180E-01  0.45679941610E-01  0.14139597505E+00  0.45559576027E-01 0.  0.
         14    1    1    2    0    0 -0.66379707199E-02  0.11784719514E-01  0.19633317575E-02  0.13667367738E-01  0.00000000000E+00 0. -1.
     999901    1    3    3    0    0 -0.11128846607E+00  0.32076940666E-01 -0.47643273368E-01  0.88886665721E+00  0.88000000000E+00 0. -1.
        -11    1    4    4    0    0  0.23671531733E-01 -0.28176924033E-01  0.22271172561E-01  0.43017981250E-01  0.51100000000E-03 0.  1.
         11    1    4    4    0    0  0.94254905056E-01 -0.15684736147E-01  0.23408769049E-01  0.98377993802E-01  0.51100000000E-03 0. -1.
</event>
<event>
 8    1  0.2107254E+004  0.1043930E+01  0.7957747E-01            NaN
         13   -1    0    0    0    0  0.00000000000E+00  0.00000000000E+00  0.74505805969E-08  0.10566000000E+00  0.10566000000E+00 0.  1.
     999900   -1    0    0    0    0 -0.00000000000E+00 -0.00000000000E+00 -0.74505805969E-08  0.93827000000E+00  0.93827000000E+00 0. -1.
     999902    2    1    2    0    0 -0.99399644501E-02 -0.80482084263E-02  0.48247935719E-02  0.10302605016E+01  0.10301698142E+01 0.  0.
     999903    2    3    3    0    0 -0.56532999555E-02  0.32256315107E-01 -0.12758494952E+00  0.13943213986E+00  0.45727154022E-01 0.  0.
         14    1    1    2    0    0  0.99399644501E-02  0.80482084263E-02 -0.48247935719E-02  0.13669498350E-01  0.00000000000E+00 0. -1.
     999901    1    3    3    0    0 -0.42866644945E-02 -0.40304523534E-01  0.13240974310E+00  0.89082836179E+00  0.88000000000E+00 0.  1.
        -11    1    4    4    0    0 -0.90141426591E-02  0.19102031174E-01 -0.14715249941E-01  0.25747661344E-01  0.51100000000E-03 0. -1.
         11    1    4    4    0    0  0.33608427036E-02  0.13154283933E-01 -0.11286969958E+00  0.11368447851E+00  0.51100000000E-03 0.  1.
</event>
<event>
 8    1  0.2107254E+004  0.1043930E+01  0.7957747E-01            NaN
         13   -1    0    0    0    0  0.00000000000E+00  0.00000000000E+00  0.74505805969E-08  0.10566000000E+00  0.10566000000E+00 0. -1.
     999900   -1    0    0    0    0 -0.00000000000E+00 -0.00000000000E+00 -0.74505805969E-08  0.93827000000E+00  0.93827000000E+00 0. -1.
     999902    2    1    2    0    0  0.10384147903E-01  0.48192180236E-02 -0.84916259793E-02  0.10296764705E+01  0.10295778120E+01 0.  0.
     999903    2    3    3    0    0 -0.13521655695E-02  0.99489894228E-01 -0.89071892211E-01  0.14086070939E+00  0.44809263120E-01 0.  0.
         14    1    1    2    0    0 -0.10384147903E-01 -0.48192180236E-02  0.84916259793E-02  0.14253529451E-01  0.00000000000E+00 0. -1.
     999901    1    3    3    0    0  0.11736313472E-01 -0.94670676204E-01  0.80580266232E-01  0.88881576116E+00  0.88000000000E+00 0.  1.
        -11    1    4    4    0    0  0.19358446245E-01  0.35440547139E-01 -0.22710105925E-01  0.46333485242E-01  0.51100000000E-03 0.  1.
         11    1    4    4    0    0 -0.20710611815E-01  0.64049347088E-01 -0.66361786286E-01  0.94527224144E-01  0.51100000000E-03 0. -1.
</event>
<event>
 8    1  0.2107254E+004  0.1043930E+01  0.7957747E-01            NaN
         13   -1    0    0    0    0  0.00000000000E+00  0.00000000000E+00  0.74505805969E-08  0.10566000000E+00  0.10566000000E+00 0. -1.
     999900   -1    0    0    0    0 -0.00000000000E+00 -0.00000000000E+00 -0.74505805969E-08  0.93827000000E+00  0.93827000000E+00 0. -1.
     999902    2    1    2    0    0 -0.30172743698E-02  0.13561493196E-01  0.13487307235E-02  0.10299715933E+01  0.10298770052E+01 0.  0.
     999903    2    3    3    0    0 -0.44652814846E-01 -0.13523657667E-02 -0.12449632253E+00  0.13991939326E+00  0.45633315897E-01 0.  0.
         14    1    1    2    0    0  0.30172743698E-02 -0.13561493196E-01 -0.13487307235E-02  0.13958406675E-01  0.00000000000E+00 0.  1.
     999901    1    3    3    0    0  0.41635540476E-01  0.14913858963E-01  0.12584505325E+00  0.89005220007E+00  0.88000000000E+00 0.  1.
        -11    1    4    4    0    0 -0.40501048310E-01 -0.15987976675E-01 -0.63118025067E-01  0.76681787419E-01  0.51100000000E-03 0.  1.
         11    1    4    4    0    0 -0.41517665362E-02  0.14635610909E-01 -0.61378297459E-01  0.63237605837E-01  0.51100000000E-03 0. -1.
</event>
<event>
 8    1  0.2107254E+004  0.1043930E+01  0.7957747E-01            NaN
         13   -1    0    0    0    0  0.00000000000E+00  0.00000000000E+00  0.74505805969E-08  0.10566000000E+00  0.10566000000E+00 0. -1.
     999900   -1    0    0    0    0 -0.00000000000E+00 -0.00000000000E+00 -0.74505805969E-08  0.93827000000E+00  0.93827000000E+00 0. -1.
     999902    2    1    2    0    0 -0.97024587065E-02  0.70633532773E-03 -0.98007373203E-02  0.10301209064E+01  0.10300283446E+01 0.  0.
     999903    2    3    3    0    0 -0.90572454530E-02  0.72049509740E-01  0.10983411090E+00  0.13916481221E+00  0.45057158042E-01 0.  0.
         14    1    1    2    0    0  0.97024587065E-02 -0.70633532773E-03  0.98007373203E-02  0.13809093619E-01  0.00000000000E+00 0. -1.
     999901    1    3    3    0    0 -0.64521325353E-03 -0.71343174413E-01 -0.11963484822E+00  0.89095609417E+00  0.88000000000E+00 0. -1.
        -11    1    4    4    0    0 -0.13552043769E-01  0.73901252260E-01  0.83279739702E-01  0.11216429531E+00  0.51100000000E-03 0.  1.
         11    1    4    4    0    0  0.44947983159E-02 -0.18517425191E-02  0.26554371197E-01  0.27000516901E-01  0.51100000000E-03 0. -1.
</event>
<event>
 8    1  0.2107254E+004  0.1043930E+01  0.7957747E-01            NaN
         13   -1    0    0    0    0  0.00000000000E+00  0.00000000000E+00  0.74505805969E-08  0.10566000000E+00  0.10566000000E+00 0. -1.
     999900   -1    0    0    0    0 -0.00000000000E+00 -0.00000000000E+00 -0.74505805969E-08  0.93827000000E+00  0.93827000000E+00 0. -1.
     999902    2    1    2    0    0 -0.23900578476E-02 -0.98612007362E-02  0.10354320324E-01  0.10294328415E+01  0.10293307571E+01 0.  0.
     999903    2    3    3    0    0  0.71911568525E-01 -0.10617647156E+00 -0.34702051191E-01  0.13992317895E+00  0.43926607541E-01 0.  0.
         14    1    1    2    0    0  0.23900578476E-02  0.98612007362E-02 -0.10354320324E-01  0.14497158544E-01  0.00000000000E+00 0.  1.
     999901    1    3    3    0    0 -0.74301626372E-01  0.96315270825E-01  0.45056371515E-01  0.88950966250E+00  0.88000000000E+00 0.  1.
        -11    1    4    4    0    0  0.32825961695E-01 -0.45400654002E-01 -0.37816385598E-01  0.67595142471E-01  0.51100000000E-03 0. -1.
         11    1    4    4    0    0  0.39085606830E-01 -0.60775817560E-01  0.31143344071E-02  0.72328036480E-01  0.51100000000E-03 0.  1.
</event>
<event>
 8    1  0.2107254E+004  0.1043930E+01  0.7957747E-01            NaN
         13   -1    0    0    0    0  0.00000000000E+00  0.00000000000E+00  0.74505805969E-08  0.10566000000E+00  0.10566000000E+00 0.  1.
     999900   -1    0    0    0    0 -0.00000000000E+00 -0.00000000000E+00 -0.74505805969E-08  0.93827000000E+00  0.93827000000E+00 0. -1.
     999902    2    1    2    0    0  0.75245526091E-03 -0.82641445367E-02 -0.10525425784E-01  0.10305267593E+01  0.10304395930E+01 0.  0.
     999903    2    3    3    0    0  0.50832109337E-01 -0.63880749080E-01 -0.10620708598E+00  0.14218214228E+00  0.47656720715E-01 0.  0.
         14    1    1    2    0    0 -0.75245526091E-03  0.82641445367E-02  0.10525425784E-01  0.13403240719E-01  0.00000000000E+00 0.  1.
     999901    1    3    3    0    0 -0.50079654076E-01  0.55616604543E-01  0.95681660194E-01  0.88834461700E+00  0.88000000000E+00 0.  1.
        -11    1    4    4    0    0  0.31900887418E-01 -0.51700539989E-02 -0.29626332067E-01  0.43844917028E-01  0.51100000000E-03 0. -1.
         11    1    4    4    0    0  0.18931221919E-01 -0.58710695081E-01 -0.76580753911E-01  0.98337225255E-01  0.51100000000E-03 0.  1.
</event>
<event>
 8    1  0.2107254E+004  0.1043930E+01  0.7957747E-01            NaN
         13   -1    0    0    0    0  0.00000000000E+00  0.00000000000E+00  0.74505805969E-08  0.10566000000E+00  0.10566000000E+00 0. -1.
     999900   -1    0    0    0    0 -0.00000000000E+00 -0.00000000000E+00 -0.74505805969E-08  0.93827000000E+00  0.93827000000E+00 0. -1.
     999902    2    1    2    0    0 -0.11754401430E-01  0.68475125387E-02 -0.18473209390E-02  0.10302016725E+01  0.10301101975E+01 0.  0.
     999903    2    3    3    0    0  0.10592634720E-01  0.73814902634E-02 -0.13129535695E+00  0.14045088202E+00  0.48179759193E-01 0.  0.
         14    1    1    2    0    0  0.11754401430E-01 -0.68475125387E-02  0.18473209390E-02  0.13728327488E-01  0.00000000000E+00 0. -1.
     999901    1    3    3    0    0 -0.22347036150E-01 -0.53397772464E-03  0.12944803601E+00  0.88975079049E+00  0.88000000000E+00 0.  1.
        -11    1    4    4    0    0  0.21582304002E-01  0.21846824582E-01 -0.68334312495E-01  0.74919416545E-01  0.51100000000E-03 0. -1.
         11    1    4    4    0    0 -0.10989669283E-01 -0.14465334318E-01 -0.62961044451E-01  0.65531465474E-01  0.51100000000E-03 0.  1.
</event>
<event>
 7    1  0.3012305E+004  0.1043930E+01  0.7957747E-01            NaN
         13   -1    0    0    0    0  0.00000000000E+00  0.00000000000E+00  0.74505805969E-08  0.10566000000E+00  0.10566000000E+00 0. -1.
     999900   -1    0    0    0    0 -0.00000000000E+00 -0.00000000000E+00 -0.74505805969E-08  0.93827000000E+00  0.93827000000E+00 0. -1.
     999903    2    1    2    0    0  0.58196104647E-01  0.82752627694E-01 -0.17810724931E-01  0.11204411517E+00  0.44742349464E-01 0.  0.
         14    1    1    2    0    0  0.23668561434E-01 -0.29209855428E-01  0.27221552873E-01  0.46415831300E-01  0.00000000000E+00 0. -1.
     999901    1    1    2    0    0 -0.81864666081E-01 -0.53542772266E-01 -0.94108279420E-02  0.88547005353E+00  0.88000000000E+00 0. -1.
        -11    1    3    3    0    0  0.60238983105E-01  0.64100861378E-01 -0.28001784722E-02  0.88009985998E-01  0.51100000000E-03 0.  1.
         11    1    3    3    0    0 -0.20428784583E-02  0.18651766315E-01 -0.15010546459E-01  0.24034129172E-01  0.51100000000E-03 0. -1.
</event>
<event>
 8    1  0.2107254E+004  0.1043930E+01  0.7957747E-01            NaN
         13   -1    0    0    0    0  0.00000000000E+00  0.00000000000E+00  0.74505805969E-08  0.10566000000E+00  0.10566000000E+00 0.  1.
     999900   -1    0    0    0    0 -0.00000000000E+00 -0.00000000000E+00 -0.74505805969E-08  0.93827000000E+00  0.93827000000E+00 0. -1.
     999902    2    1    2    0    0 -0.53972662161E-02  0.78159156466E-02  0.10581305764E-01  0.10297108913E+01  0.10296127120E+01 0.  0.
     999903    2    3    3    0    0  0.70884223155E-02 -0.16019903173E-01  0.13241904120E+00  0.14090918540E+00  0.44874413954E-01 0.  0.
         14    1    1    2    0    0  0.53972662161E-02 -0.78159156466E-02 -0.10581305764E-01  0.14219108680E-01  0.00000000000E+00 0.  1.
     999901    1    3    3    0    0 -0.12485688532E-01  0.23835818819E-01 -0.12183773544E+00  0.88880170592E+00  0.88000000000E+00 0. -1.
        -11    1    4    4    0    0  0.11368119777E-01  0.11131910566E-01  0.22227986106E-01  0.27340410886E-01  0.51100000000E-03 0.  1.
         11    1    4    4    0    0 -0.42796974611E-02 -0.27151813739E-01  0.11019105509E+00  0.11356877451E+00  0.51100000000E-03 0. -1.
</event>
<event>
 8    1  0.2107254E+004  0.1043930E+01  0.7957747E-01            NaN
         13   -1    0    0    0    0  0.00000000000E+00  0.00000000000E+00  0.74505805969E-08  0.10566000000E+00  0.10566000000E+00 0.  1.
     999900   -1    0    0    0    0 -0.00000000000E+00 -0.00000000000E+00 -0.74505805969E-08  0.93827000000E+00  0.93827000000E+00 0. -1.
     999902    2    1    2    0    0 -0.12141560844E-02 -0.10501915406E-01 -0.28255295842E-02  0.10329870562E+01  0.10329290925E+01 0.  0.
     999903    2    3    3    0    0  0.42395060748E-01 -0.12985580245E+00 -0.13064900962E-02  0.14385859435E+00  0.45096758694E-01 0.  0.
         14    1    1    2    0    0  0.12141560844E-02  0.10501915406E-01  0.28255295842E-02  0.10942943828E-01  0.00000000000E+00 0.  1.
     999901    1    3    3    0    0 -0.43609216832E-01  0.11935388705E+00 -0.15190394880E-02  0.88912846182E+00  0.88000000000E+00 0. -1.
        -11    1    4    4    0    0  0.17680210248E-01 -0.65402030757E-01 -0.22918399086E-01  0.71522930584E-01  0.51100000000E-03 0.  1.
         11    1    4    4    0    0  0.24714850500E-01 -0.64453771695E-01  0.21611908989E-01  0.72335663764E-01  0.51100000000E-03 0. -1.
</event>
<event>
 8    1  0.2107254E+004  0.1043930E+01  0.7957747E-01            NaN
         13   -1    0    0    0    0  0.00000000000E+00  0.00000000000E+00  0.74505805969E-08  0.10566000000E+00  0.10566000000E+00 0.  1.
     999900   -1    0    0    0    0 -0.00000000000E+00 -0.00000000000E+00 -0.74505805969E-08  0.93827000000E+00  0.93827000000E+00 0. -1.
     999902    2    1    2    0    0  0.22845256329E-02 -0.13693417731E-01 -0.28617696703E-02  0.10297554287E+01  0.10296578677E+01 0.  0.
     999903    2    3    3    0    0 -0.58299576487E-01 -0.77742580472E-01 -0.91662494706E-01  0.14090319268E+00  0.44821282150E-01 0.  0.
         14    1    1    2    0    0 -0.22845256329E-02  0.13693417731E-01  0.28617696703E-02  0.14174571323E-01  0.00000000000E+00 0. -1.
     999901    1    3    3    0    0  0.60584102120E-01  0.64049162740E-01  0.88800725036E-01  0.88885223600E+00  0.88000000000E+00 0. -1.
        -11    1    4    4    0    0 -0.82285330486E-02 -0.46669463015E-01 -0.32985053026E-01  0.57740993915E-01  0.51100000000E-03 0. -1.
         11    1    4    4    0    0 -0.50071043439E-01 -0.31073117457E-01 -0.58677441681E-01  0.83162198761E-01  0.51100000000E-03 0.  1.
</event>
<event>
 8    1  0.2107254E+004  0.1043930E+01  0.7957747E-01            NaN
         13   -1    0    0    0    0  0.00000000000E+00  0.00000000000E+00  0.74505805969E-08  0.10566000000E+00  0.10566000000E+00 0. -1.
     999900   -1    0    0    0    0 -0.00000000000E+00 -0.00000000000E+00 -0.74505805969E-08  0.93827000000E+00  0.93827000000E+00 0. -1.
     999902    2    1    2    0    0 -0.37029579315E-02  0.66715497592E-02 -0.11149717371E-01  0.10304193497E+01  0.10303307715E+01 0.  0.
     999903    2    3    3    0    0 -0.25925126309E-01 -0.10900653947E+00  0.68806384774E-01  0.13897769522E+00  0.45010480578E-01 0.  0.
         14    1    1    2    0    0  0.37029579315E-02 -0.66715497592E-02  0.11149717371E-01  0.13510650284E-01  0.00000000000E+00 0. -1.
     999901    1    3    3    0    0  0.22222168378E-01  0.11567808923E+00 -0.79956102145E-01  0.89144165449E+00  0.88000000000E+00 0. -1.
        -11    1    4    4    0    0  0.25071493548E-02 -0.65746719837E-01  0.22549850677E-01  0.69553388514E-01  0.51100000000E-03 0. -1.
         11    1    4    4    0    0 -0.28432275664E-01 -0.43259819635E-01  0.46256534097E-01  0.69424306709E-01  0.51100000000E-03 0.  1.
</event>
<event>
 8    1  0.2107254E+004  0.1043930E+01  0.7957747E-01            NaN
         13   -1    0    0    0    0  0.00000000000E+00  0.00000000000E+00  0.74505805969E-08  0.10566000000E+00  0.10566000000E+00 0. -1.
     999900   -1    0    0    0    0 -0.00000000000E+00 -0.00000000000E+00 -0.74505805969E-08  0.93827000000E+00  0.93827000000E+00 0.  1.
     999902    2    1    2    0    0  0.86749904685E-02 -0.69016368613E-02  0.10427315282E-01  0.10287110331E+01  0.10285984506E+01 0.  0.
     999903    2    3    3    0    0 -0.12717492220E+00 -0.26402371795E-01 -0.82811568865E-02  0.13787688218E+00  0.45507263211E-01 0.  0.
         14    1    1    2    0    0 -0.86749904685E-02  0.69016368613E-02 -0.10427315282E-01  0.15218966948E-01  0.00000000000E+00 0.  1.
     999901    1    3    3    0    0  0.13584991267E+00  0.19500734933E-01  0.18708472168E-01  0.89083415088E+00  0.88000000000E+00 0. -1.
        -11    1    4    4    0    0 -0.27458492796E-01  0.14475551824E-02  0.15609412165E-01  0.31622446328E-01  0.51100000000E-03 0. -1.
         11    1    4    4    0    0 -0.99716429409E-01 -0.27849926977E-01 -0.23890569052E-01  0.10625443585E+00  0.51100000000E-03 0.  1.
</event>
<event>
 8    1  0.2107254E+004  0.1043930E+01  0.7957747E-01            NaN
         13   -1    0    0    0    0  0.00000000000E+00  0.00000000000E+00  0.74505805969E-08  0.10566000000E+00  0.10566000000E+00 0. -1.
     999900   -1    0    0    0    0 -0.00000000000E+00 -0.00000000000E+00 -0.74505805969E-08  0.93827000000E+00  0.93827000000E+00 0. -1.
     999902    2    1    2    0    0 -0.11732260903E-01  0.71648643784E-02 -0.47044649070E-02  0.10294002644E+01  0.10292977174E+01 0.  0.
     999903    2    3    3    0    0  0.10912662920E+00  0.44684711529E-01  0.56471853639E-01  0.13824531028E+00  0.44914929759E-01 0.  0.
         14    1    1    2    0    0  0.11732260903E-01 -0.71648643784E-02  0.47044649070E-02  0.14529735631E-01  0.00000000000E+00 0. -1.
     999901    1    3    3    0    0 -0.12085889010E+00 -0.37519847151E-01 -0.61176318546E-01  0.89115495409E+00  0.88000000000E+00 0. -1.
        -11    1    4    4    0    0  0.66012065261E-01  0.23908703282E-01  0.89155644399E-02  0.70774057839E-01  0.51100000000E-03 0. -1.
         11    1    4    4    0    0  0.43114563941E-01  0.20776008248E-01  0.47556289199E-01  0.67471252441E-01  0.51100000000E-03 0.  1.
</event>
<event>
 8    1  0.2107254E+004  0.1043930E+01  0.7957747E-01            NaN
         13   -1    0    0    0    0  0.00000000000E+00  0.00000000000E+00  0.74505805969E-08  0.10566000000E+00  0.10566000000E+00 0. -1.
     999900   -1    0    0    0    0 -0.00000000000E+00 -0.00000000000E+00 -0.74505805969E-08  0.93827000000E+00  0.93827000000E+00 0. -1.
     999902    2    1    2    0    0  0.83583383093E-02 -0.83751946879E-02 -0.30424900725E-02  0.10317126987E+01  0.10316403589E+01 0.  0.
     999903    2    3    3    0    0 -0.31841057983E-01  0.40391431580E-01 -0.12356645493E+00  0.14125203061E+00  0.45145837544E-01 0.  0.
         14    1    1    2    0    0 -0.83583383093E-02  0.83751946879E-02  0.30424900725E-02  0.12217301306E-01  0.00000000000E+00 0.  1.
     999901    1    3    3    0    0  0.40199396293E-01 -0.48766626268E-01  0.12052396486E+00  0.89046066808E+00  0.88000000000E+00 0.  1.
        -11    1    4    4    0    0  0.97681798594E-02  0.75975572911E-02 -0.43613045782E-01  0.45337612398E-01  0.51100000000E-03 0.  1.
         11    1    4    4    0    0 -0.41609237843E-01  0.32793874289E-01 -0.79953409153E-01  0.95914418212E-01  0.51100000000E-03 0. -1.
</event>
<event>
 8    1  0.2107254E+004  0.1043930E+01  0.7957747E-01            NaN
         13   -1    0    0    0    0  0.00000000000E+00  0.00000000000E+00  0.74505805969E-08  0.10566000000E+00  0.10566000000E+00 0. -1.
     999900   -1    0    0    0    0 -0.00000000000E+00 -0.00000000000E+00 -0.74505805969E-08  0.93827000000E+00  0.93827000000E+00 0. -1.
     999902    2    1    2    0    0 -0.44347549895E-02  0.11709874438E-01 -0.49769255506E-02  0.10304556540E+01  0.10303675543E+01 0.  0.
     999903    2    3    3    0    0  0.63276449719E-01 -0.57704583516E-01 -0.10089535188E+00  0.13994820391E+00  0.45518124968E-01 0.  0.
         14    1    1    2    0    0  0.44347549895E-02 -0.11709874438E-01  0.49769255506E-02  0.13474345963E-01  0.00000000000E+00 0. -1.
     999901    1    3    3    0    0 -0.67711204709E-01  0.69414457955E-01  0.95918426326E-01  0.89050745012E+00  0.88000000000E+00 0.  1.
        -11    1    4    4    0    0  0.19314143948E-01 -0.20552599052E-01 -0.58141562614E-02  0.28801232930E-01  0.51100000000E-03 0. -1.
         11    1    4    4    0    0  0.43962305771E-01 -0.37151984465E-01 -0.95081195616E-01  0.11114697098E+00  0.51100000000E-03 0.  1.
</event>
<event>
 7    1  0.2107254E+004  0.1043930E+01  0.7957747E-01            NaN
         13   -1    0    0    0    0  0.00000000000E+00  0.00000000000E+00  0.74505805969E-08  0.10566000000E+00  0.10566000000E+00 0. -1.
     999900   -1    0    0    0    0 -0.00000000000E+00 -0.00000000000E+00 -0.74505805969E-08  0.93827000000E+00  0.93827000000E+00 0.  1.
     999902    2    1    2    0    0  0.12160181560E-01 -0.83005173902E-02  0.32022463511E-02  0.10288627180E+01  0.10287523850E+01 0.  0.
         14    1    1    2    0    0 -0.12160181560E-01  0.83005173902E-02 -0.32022463511E-02  0.15067281978E-01  0.00000000000E+00 0.  1.
     999901    1    3    3    0    0 -0.11018081967E+00  0.22823750609E-01  0.59370663210E-01  0.88914881334E+00  0.88000000000E+00 0.  1.
        -11    1    3    3    0    0  0.49451671666E-01 -0.23069185530E-01 -0.25216056820E-01  0.60114605498E-01  0.51100000000E-03 0. -1.
         11    1    3    3    0    0  0.72889329562E-01 -0.80550824687E-02 -0.30952360039E-01  0.79599299184E-01  0.51100000000E-03 0.  1.
</event>
<event>
 7    1  0.2107254E+004  0.1043930E+01  0.7957747E-01            NaN
         13   -1    0    0    0    0  0.00000000000E+00  0.00000000000E+00  0.74505805969E-08  0.10566000000E+00  0.10566000000E+00 0.  1.
     999900   -1    0    0    0    0 -0.00000000000E+00 -0.00000000000E+00 -0.74505805969E-08  0.93827000000E+00  0.93827000000E+00 0. -1.
     999903    2    1    2    0    0 -0.22522189609E-01  0.84329198652E-01  0.79304656813E-01  0.12612300706E+00  0.44711537063E-01 0.  0.
         14    1    1    2    0    0  0.18358040908E-01  0.57141498690E-02 -0.24998395979E-01  0.31537104754E-01  0.00000000000E+00 0. -1.
     999901    1    1    2    0    0  0.41641487008E-02 -0.90043348521E-01 -0.54306260834E-01  0.88626988819E+00  0.88000000000E+00 0. -1.
        -11    1    3    3    0    0 -0.21916999190E-01  0.18892496329E-01  0.41350338833E-01  0.50471704089E-01  0.51100000000E-03 0. -1.
         11    1    3    3    0    0 -0.60519041927E-03  0.65436702322E-01  0.37954317981E-01  0.75651302967E-01  0.51100000000E-03 0.  1.
</event>
<event>
 8    1  0.2107254E+004  0.1043930E+01  0.7957747E-01            NaN
         13   -1    0    0    0    0  0.00000000000E+00  0.00000000000E+00  0.74505805969E-08  0.10566000000E+00  0.10566000000E+00 0.  1.
     999900   -1    0    0    0    0 -0.00000000000E+00 -0.00000000000E+00 -0.74505805969E-08  0.93827000000E+00  0.93827000000E+00 0. -1.
     999902    2    1    2    0    0 -0.20018671484E-02  0.10808052818E-01  0.89432779841E-02  0.10297594778E+01  0.10296619729E+01 0.  0.
     999903    2    3    3    0    0 -0.11072082020E+00 -0.66622638344E-01  0.26297701198E-01  0.13952552054E+00  0.45586465393E-01 0.  0.
         14    1    1    2    0    0  0.20018671484E-02 -0.10808052818E-01 -0.89432779841E-02  0.14170522181E-01  0.00000000000E+00 0. -1.
     999901    1    3    3    0    0  0.10871895306E+00  0.77430691162E-01 -0.17354423214E-01  0.89023395728E+00  0.88000000000E+00 0. -1.
        -11    1    4    4    0    0 -0.84320804955E-01 -0.26946647111E-01  0.24417549133E-01  0.91829177092E-01  0.51100000000E-03 0.  1.
         11    1    4    4    0    0 -0.26400015249E-01 -0.39675991233E-01  0.18801520653E-02  0.47696343447E-01  0.51100000000E-03 0. -1.
</event>
<event>
 8    1  0.2107254E+004  0.1043930E+01  0.7957747E-01            NaN
         13   -1    0    0    0    0  0.00000000000E+00  0.00000000000E+00  0.74505805969E-08  0.10566000000E+00  0.10566000000E+00 0. -1.
     999900   -1    0    0    0    0 -0.00000000000E+00 -0.00000000000E+00 -0.74505805969E-08  0.93827000000E+00  0.93827000000E+00 0.  1.
     999902    2    1    2    0    0  0.10068431537E-01 -0.93225533328E-02 -0.66680533759E-02  0.10286739766E+01  0.10285608411E+01 0.  0.
     999903    2    3    3    0    0  0.13090275892E+00 -0.39102610471E-04  0.20434615597E-01  0.13995485798E+00  0.45102715379E-01 0.  0.
         14    1    1    2    0    0 -0.10068431537E-01  0.93225533328E-02  0.66680533759E-02  0.15256023403E-01  0.00000000000E+00 0.  1.
     999901    1    3    3    0    0 -0.12083432739E+00 -0.92834507223E-02 -0.27102668973E-01  0.88871911862E+00  0.88000000000E+00 0. -1.
        -11    1    4    4    0    0  0.66122990175E-01  0.10815041734E-01  0.30294981012E-01  0.73534087013E-01  0.51100000000E-03 0. -1.
         11    1    4    4    0    0  0.64779768748E-01 -0.10854144344E-01 -0.98603654150E-02  0.66420770966E-01  0.51100000000E-03 0.  1.
</event>
<event>
 8    1  0.2107254E+004  0.1043930E+01  0.7957747E-01            NaN
         13   -1    0    0    0    0  0.00000000000E+00  0.00000000000E+00  0.74505805969E-08  0.10566000000E+00  0.10566000000E+00 0. -1.
     999900   -1    0    0    0    0 -0.00000000000E+00 -0.00000000000E+00 -0.74505805969E-08  0.93827000000E+00  0.93827000000E+00 0.  1.
     999902    2    1    2    0    0 -0.14718932652E-01 -0.11464297406E-01 -0.35636111388E-02  0.10249358847E+01  0.10247598700E+01 0.  0.
     999903    2    3    3    0    0 -0.10985293700E+00  0.65371003151E-01  0.15166516035E-01  0.13628243147E+00  0.44741950094E-01 0.  0.
         14    1    1    2    0    0  0.14718932652E-01  0.11464297406E-01  0.35636111388E-02  0.18994115347E-01  0.00000000000E+00 0. -1.
     999901    1    3    3    0    0  0.95134004345E-01 -0.76835300557E-01 -0.18730127174E-01  0.88865345319E+00  0.88000000000E+00 0.  1.
        -11    1    4    4    0    0 -0.95858741537E-01  0.49415581244E-01  0.28068637062E-01  0.11144015213E+00  0.51100000000E-03 0. -1.
         11    1    4    4    0    0 -0.13994195461E-01  0.15955421907E-01 -0.12902121027E-01  0.24842279341E-01  0.51100000000E-03 0.  1.
</event>
<event>
 8    1  0.2107254E+004  0.1043930E+01  0.7957747E-01            NaN
         13   -1    0    0    0    0  0.00000000000E+00  0.00000000000E+00  0.74505805969E-08  0.10566000000E+00  0.10566000000E+00 0.  1.
     999900   -1    0    0    0    0 -0.00000000000E+00 -0.00000000000E+00 -0.74505805969E-08  0.93827000000E+00  0.93827000000E+00 0.  1.
     999902    2    1    2    0    0  0.14145276160E-01 -0.24144093989E-02  0.38238315655E-02  0.10290794142E+01  0.10289722547E+01 0.  0.
     999903    2    3    3    0    0 -0.56282662726E-01  0.10094538910E+00  0.61433396101E-01  0.13837059285E+00  0.44884842715E-01 0.  0.
         14    1    1    2    0    0 -0.14145276160E-01  0.24144093989E-02 -0.38238315655E-02  0.14850585787E-01  0.00000000000E+00 0. -1.
     999901    1    3    3    0    0  0.70427938886E-01 -0.10335979850E+00 -0.57609564535E-01  0.89070882136E+00  0.88000000000E+00 0.  1.
        -11    1    4    4    0    0 -0.36762785615E-02  0.45423534440E-01  0.11423371687E-01  0.46984753344E-01  0.51100000000E-03 0.  1.
         11    1    4    4    0    0 -0.52606384164E-01  0.55521854662E-01  0.50010024413E-01  0.91385839509E-01  0.51100000000E-03 0. -1.
</event>
<event>
 8    1  0.2107254E+004  0.1043930E+01  0.7957747E-01            NaN
         13   -1    0    0    0    0  0.00000000000E+00  0.00000000000E+00  0.74505805969E-08  0.10566000000E+00  0.10566000000E+00 0.  1.
     999900   -1    0    0    0    0 -0.00000000000E+00 -0.00000000000E+00 -0.74505805969E-08  0.93827000000E+00  0.93827000000E+00 0.  1.
     999902    2    1    2    0    0 -0.99973776433E-02 -0.32322740618E-02  0.15768629011E-01  0.10249815221E+01  0.10248063601E+01 0.  0.
     999903    2    3    3    0    0  0.20946086435E-02 -0.11957797510E+00 -0.44567399375E-01  0.13519335929E+00  0.44583761549E-01 0.  0.
         14    1    1    2    0    0  0.99973776433E-02  0.32322740618E-02 -0.15768629011E-01  0.18948477940E-01  0.00000000000E+00 0. -1.
     999901    1    3    3    0    0 -0.12091986287E-01  0.11634570104E+00  0.60336028386E-01  0.88978816277E+00  0.88000000000E+00 0.  1.
        -11    1    4    4    0    0 -0.19414436450E-01 -0.77477766061E-01 -0.33628011033E-01  0.86665038069E-01  0.51100000000E-03 0.  1.
         11    1    4    4    0    0  0.21509045093E-01 -0.42100209043E-01 -0.10939388342E-01  0.48528321222E-01  0.51100000000E-03 0. -1.
</event>
<event>
 8    1  0.2107254E+004  0.1043930E+01  0.7957747E-01            NaN
         13   -1    0    0    0    0  0.00000000000E+00  0.00000000000E+00  0.74505805969E-08  0.10566000000E+00  0.10566000000E+00 0.  1.
     999900   -1    0    0    0    0 -0.00000000000E+00 -0.00000000000E+00 -0.74505805969E-08  0.93827000000E+00  0.93827000000E+00 0. -1.
     999902    2    1    2    0    0 -0.60502841708E-02 -0.91095986612E-02  0.86592250097E-02  0.10299810608E+01  0.10298866019E+01 0.  0.
     999903    2    3    3    0    0  0.75409074958E-01  0.10604576384E+00 -0.12868409196E-01  0.13848803015E+00  0.45619139920E-01 0.  0.
         14    1    1    2    0    0  0.60502841708E-02  0.91095986612E-02 -0.86592250097E-02  0.13948939174E-01  0.00000000000E+00 0.  1.
     999901    1    3    3    0    0 -0.81459359129E-01 -0.11515536250E+00  0.21527634206E-01  0.89149303067E+00  0.88000000000E+00 0. -1.
        -11    1    4    4    0    0  0.23736488683E-01  0.71888117327E-01 -0.11118379769E-01  0.76519290362E-01  0.51100000000E-03 0.  1.
         11    1    4    4    0    0  0.51672586275E-01  0.34157646509E-01 -0.17500294279E-02  0.61968739792E-01  0.51100000000E-03 0. -1.
</event>
<event>
 8    1  0.2107254E+004  0.1043930E+01  0.7957747E-01            NaN
         13   -1    0    0    0    0  0.00000000000E+00  0.00000000000E+00  0.74505805969E-08  0.10566000000E+00  0.10566000000E+00 0.  1.
     999900   -1    0    0    0    0 -0.00000000000E+00 -0.00000000000E+00 -0.74505805969E-08  0.93827000000E+00  0.93827000000E+00 0.  1.
     999902    2    1    2    0    0 -0.54888744040E-02  0.97181038094E-02  0.63456652663E-02  0.10310911234E+01  0.10310111872E+01 0.  0.
     999903    2    3    3    0    0 -0.12184118845E+00  0.54124254823E-01 -0.16261673856E-01  0.14203496153E+00  0.46203658919E-01 0.  0.
         14    1    1    2    0    0  0.54888744040E-02 -0.97181038094E-02 -0.63456652663E-02  0.12838876569E-01  0.00000000000E+00 0. -1.
     999901    1    3    3    0    0  0.11635231405E+00 -0.44406151014E-01  0.22607339123E-01  0.88905616190E+00  0.88000000000E+00 0.  1.
        -11    1    4    4    0    0 -0.55987271196E-01  0.46943370932E-01  0.27429041032E-02  0.73116614079E-01  0.51100000000E-03 0.  1.
         11    1    4    4    0    0 -0.65853917253E-01  0.71808838909E-02 -0.19004577959E-01  0.68918347451E-01  0.51100000000E-03 0. -1.
</event>
<event>
 8    1  0.2107254E+004  0.1043930E+01  0.7957747E-01            NaN
         13   -1    0    0    0    0  0.00000000000E+00  0.00000000000E+00  0.74505805969E-08  0.10566000000E+00  0.10566000000E+00 0.  1.
     999900   -1    0    0    0    0 -0.00000000000E+00 -0.00000000000E+00 -0.74505805969E-08  0.93827000000E+00  0.93827000000E+00 0. -1.
     999902    2    1    2    0    0 -0.85978607857E-02 -0.10683022151E-01 -0.23969338224E-02  0.10300089561E+01  0.10299148771E+01 0.  0.
     999903    2    3    3    0    0 -0.76017944187E-02 -0.13635510558E+00  0.68453303929E-02  0.14103208115E+00  0.34535304655E-01 0.  0.
         14    1    1    2    0    0  0.85978607857E-02  0.10683022151E-01  0.23969338224E-02  0.13921043930E-01  0.00000000000E+00 0.  1.
     999901    1    3    3    0    0 -0.99606636704E-03  0.12567208343E+00 -0.92422642154E-02  0.88897687492E+00  0.88000000000E+00 0.  1.
        -11    1    4    4    0    0  0.11215267289E-01 -0.78949797190E-01  0.10888961914E-01  0.80484056243E-01  0.51100000000E-03 0. -1.
         11    1    4    4    0    0 -0.18817061707E-01 -0.57405308391E-01 -0.40436315207E-02  0.60548024903E-01  0.51100000000E-03 0.  1.
</event>
<event>
 8    1  0.2107254E+004  0.1043930E+01  0.7957747E-01            NaN
         13   -1    0    0    0    0  0.00000000000E+00  0.00000000000E+00  0.74505805969E-08  0.10566000000E+00  0.10566000000E+00 0.  1.
     999900   -1    0    0    0    0 -0.00000000000E+00 -0.00000000000E+00 -0.74505805969E-08  0.93827000000E+00  0.93827000000E+00 0. -1.
     999902    2    1    2    0    0 -0.11127715312E-01 -0.18332420509E-02 -0.10286759028E-01  0.10286655237E+01  0.10285522619E+01 0.  0.
     999903    2    3    3    0    0  0.20132434208E-01  0.71395902800E-01 -0.10917436136E+00  0.13955447189E+00  0.45317983218E-01 0.  0.
         14    1    1    2    0    0  0.11127715312E-01  0.18332420509E-02  0.10286759028E-01  0.15264476269E-01  0.00000000000E+00 0. -1.
     999901    1    3    3    0    0 -0.31260149520E-01 -0.73229144851E-01  0.98887602334E-01  0.88911105184E+00  0.88000000000E+00 0.  1.
        -11    1    4    4    0    0  0.33697079843E-01  0.38262291268E-01 -0.60300871321E-01  0.78968046235E-01  0.51100000000E-03 0. -1.
         11    1    4    4    0    0 -0.13564645635E-01  0.33133611531E-01 -0.48873490041E-01  0.60586425658E-01  0.51100000000E-03 0.  1.
</event>
<event>
 8    1  0.2428925E+004  0.1043930E+01  0.7957747E-01            NaN
         13   -1    0    0    0    0  0.00000000000E+00  0.00000000000E+00  0.74505805969E-08  0.10566000000E+00  0.10566000000E+00 0. -1.
     999900   -1    0    0    0    0 -0.00000000000E+00 -0.00000000000E+00 -0.74505805969E-08  0.93827000000E+00  0.93827000000E+00 0.  1.
     999902    2    1    2    0    0 -0.10740743366E-01  0.21398820162E-01 -0.12969276701E-01  0.10166999576E+01  0.10163352442E+01 0.  0.
     999903    2    3    3    0    0 -0.80192960558E-01  0.65829611031E-01 -0.66392080685E-01  0.13123301769E+00  0.45274142086E-01 0.  0.
         14    1    1    2    0    0  0.10740743366E-01 -0.21398820162E-01  0.12969276701E-01  0.27230042426E-01  0.00000000000E+00 0.  1.
     999901    1    3    3    0    0  0.69452217192E-01 -0.44430790870E-01  0.53422803984E-01  0.88546693989E+00  0.88000000000E+00 0. -1.
        -11    1    4    4    0    0 -0.47989926759E-01  0.62011405844E-01 -0.34236851736E-01  0.85562086597E-01  0.51100000000E-03 0. -1.
         11    1    4    4    0    0 -0.32203033800E-01  0.38182051871E-02 -0.32155228949E-01  0.45670931089E-01  0.51100000000E-03 0.  1.
</event>
<event>
 8    1  0.2107254E+004  0.1043930E+01  0.7957747E-01            NaN
         13   -1    0    0    0    0  0.00000000000E+00  0.00000000000E+00  0.74505805969E-08  0.10566000000E+00  0.10566000000E+00 0.  1.
     999900   -1    0    0    0    0 -0.00000000000E+00 -0.00000000000E+00 -0.74505805969E-08  0.93827000000E+00  0.93827000000E+00 0. -1.
     999902    2    1    2    0    0 -0.99267485019E-02  0.59439511429E-02  0.70421380718E-02  0.10303851634E+01  0.10302961333E+01 0.  0.
     999903    2    3    3    0    0 -0.48288981903E-01  0.92754807053E-01  0.84836924966E-01  0.14186965166E+00  0.44658864975E-01 0.  0.
         14    1    1    2    0    0  0.99267485019E-02 -0.59439511429E-02 -0.70421380718E-02  0.13544836641E-01  0.00000000000E+00 0. -1.
     999901    1    3    3    0    0  0.38362233401E-01 -0.86810855910E-01 -0.77794786894E-01  0.88851551170E+00  0.88000000000E+00 0. -1.
        -11    1    4    4    0    0 -0.16391808022E-01  0.71539053834E-01  0.42669148089E-01  0.84896671981E-01  0.51100000000E-03 0.  1.
         11    1    4    4    0    0 -0.31897173881E-01  0.21215753219E-01  0.42167776877E-01  0.56972979683E-01  0.51100000000E-03 0. -1.
</event>
<event>
 8    1  0.2107254E+004  0.1043930E+01  0.7957747E-01            NaN
         13   -1    0    0    0    0  0.00000000000E+00  0.00000000000E+00  0.74505805969E-08  0.10566000000E+00  0.10566000000E+00 0.  1.
     999900   -1    0    0    0    0 -0.00000000000E+00 -0.00000000000E+00 -0.74505805969E-08  0.93827000000E+00  0.93827000000E+00 0. -1.
     999902    2    1    2    0    0  0.54722863073E-02  0.12136958248E-01  0.44251654891E-02  0.10299002544E+01  0.10298046903E+01 0.  0.
     999903    2    3    3    0    0 -0.27604607835E-01 -0.26983845857E-01  0.12679225688E+00  0.13995743413E+00  0.44962925314E-01 0.  0.
         14    1    1    2    0    0 -0.54722863073E-02 -0.12136958248E-01 -0.44251654891E-02  0.14029745634E-01  0.00000000000E+00 0. -1.
     999901    1    3    3    0    0  0.33076894142E-01  0.39120804105E-01 -0.12236709139E+00  0.88994282024E+00  0.88000000000E+00 0. -1.
        -11    1    4    4    0    0 -0.11684236099E-01 -0.34820283756E-01  0.10813925551E+00  0.11420741323E+00  0.51100000000E-03 0. -1.
         11    1    4    4    0    0 -0.15920371735E-01  0.78364378995E-02  0.18653001371E-01  0.25750020899E-01  0.51100000000E-03 0.  1.
</event>
<event>
 8    1  0.2107254E+004  0.1043930E+01  0.7957747E-01            NaN
         13   -1    0    0    0    0  0.00000000000E+00  0.00000000000E+00  0.74505805969E-08  0.10566000000E+00  0.10566000000E+00 0.  1.
     999900   -1    0    0    0    0 -0.00000000000E+00 -0.00000000000E+00 -0.74505805969E-08  0.93827000000E+00  0.93827000000E+00 0.  1.
     999902    2    1    2    0    0 -0.10122441632E-01 -0.80793162374E-02 -0.22372771710E-02  0.10307867666E+01  0.10307029706E+01 0.  0.
     999903    2    3    3    0    0  0.57538406707E-01  0.92521558091E-02  0.11896932151E+00  0.13973715524E+00  0.44457872864E-01 0.  0.
         14    1    1    2    0    0  0.10122441632E-01  0.80793162374E-02  0.22372771710E-02  0.13143233415E-01  0.00000000000E+00 0. -1.
     999901    1    3    3    0    0 -0.67660848339E-01 -0.17331472046E-01 -0.12120659868E+00  0.89104961135E+00  0.88000000000E+00 0.  1.
        -11    1    4    4    0    0  0.60449538621E-01  0.92052641577E-02  0.80185077213E-01  0.10084042511E+00  0.51100000000E-03 0. -1.
         11    1    4    4    0    0 -0.29111319145E-02  0.46891651392E-04  0.38784244296E-01  0.38896730126E-01  0.51100000000E-03 0.  1.
</event>
<event>
 8    1  0.2107254E+004  0.1043930E+01  0.7957747E-01            NaN
         13   -1    0    0    0    0  0.00000000000E+00  0.00000000000E+00  0.74505805969E-08  0.10566000000E+00  0.10566000000E+00 0. -1.
     999900   -1    0    0    0    0 -0.00000000000E+00 -0.00000000000E+00 -0.74505805969E-08  0.93827000000E+00  0.93827000000E+00 0.  1.
     999902    2    1    2    0    0  0.88411506867E-02  0.86058850039E-02 -0.64617646228E-02  0.10300022721E+01  0.10299081022E+01 0.  0.
     999903    2    3    3    0    0 -0.10285702575E-01  0.83811704238E-01 -0.10418904458E+00  0.14119837191E+00  0.44174945102E-01 0.  0.
         14    1    1    2    0    0 -0.88411506867E-02 -0.86058850039E-02  0.64617646228E-02  0.13927727891E-01  0.00000000000E+00 0. -1.
     999901    1    3    3    0    0  0.19126853262E-01 -0.75205819234E-01  0.97727279956E-01  0.88880390020E+00  0.88000000000E+00 0. -1.
        -11    1    4    4    0    0 -0.52250259620E-03  0.60280471939E-01 -0.97867055695E-01  0.11494446493E+00  0.51100000000E-03 0. -1.
         11    1    4    4    0    0 -0.97631999792E-02  0.23531232298E-01 -0.63219888839E-02  0.26253906981E-01  0.51100000000E-03 0.  1.
</event>
<event>
 8    1  0.2107254E+004  0.1043930E+01  0.7957747E-01            NaN
         13   -1    0    0    0    0  0.00000000000E+00  0.00000000000E+00  0.74505805969E-08  0.10566000000E+00  0.10566000000E+00 0. -1.
     999900   -1    0    0    0    0 -0.00000000000E+00 -0.00000000000E+00 -0.74505805969E-08  0.93827000000E+00  0.93827000000E+00 0.  1.
     999902    2    1    2    0    0 -0.26673199283E-02 -0.13108581266E-01 -0.35616870810E-03  0.10305480586E+01  0.10304611709E+01 0.  0.
     999903    2    3    3    0    0 -0.59332368362E-01 -0.81536602074E-01 -0.88770750292E-01  0.14166648049E+00  0.44951064199E-01 0.  0.
         14    1    1    2    0    0  0.26673199283E-02  0.13108581266E-01  0.35616870810E-03  0.13381941360E-01  0.00000000000E+00 0. -1.
     999901    1    3    3    0    0  0.56665048434E-01  0.68428020808E-01  0.88414581584E-01  0.88888157815E+00  0.88000000000E+00 0. -1.
        -11    1    4    4    0    0 -0.43354506214E-02 -0.40638247049E-01 -0.24184454007E-01  0.47491180149E-01  0.51100000000E-03 0.  1.
         11    1    4    4    0    0 -0.54996917741E-01 -0.40898355024E-01 -0.64586296285E-01  0.94175300337E-01  0.51100000000E-03 0. -1.
</event>
<event>
 8    1  0.2107254E+004  0.1043930E+01  0.7957747E-01            NaN
         13   -1    0    0    0    0  0.00000000000E+00  0.00000000000E+00  0.74505805969E-08  0.10566000000E+00  0.10566000000E+00 0.  1.
     999900   -1    0    0    0    0 -0.00000000000E+00 -0.00000000000E+00 -0.74505805969E-08  0.93827000000E+00  0.93827000000E+00 0. -1.
     999902    2    1    2    0    0  0.64879642119E-03  0.13135940659E-03 -0.13398766041E-01  0.10305148920E+01  0.10304275702E+01 0.  0.
     999903    2    3    3    0    0 -0.11467798947E-01  0.61535197368E-01 -0.11929317072E+00  0.14195939672E+00  0.44760683740E-01 0.  0.
         14    1    1    2    0    0 -0.64879642119E-03 -0.13135940659E-03  0.13398766041E-01  0.13415108032E-01  0.00000000000E+00 0.  1.
     999901    1    3    3    0    0  0.12116595368E-01 -0.61403837961E-01  0.10589440467E+00  0.88855549525E+00  0.88000000000E+00 0.  1.
        -11    1    4    4    0    0 -0.66021871203E-02 -0.55464410560E-02 -0.72450109729E-02  0.11274004974E-01  0.51100000000E-03 0. -1.
         11    1    4    4    0    0 -0.48656118269E-02  0.67081638424E-01 -0.11204815974E+00  0.13068539174E+00  0.51100000000E-03 0.  1.
</event>
<event>
 8    1  0.2107254E+004  0.1043930E+01  0.7957747E-01            NaN
         13   -1    0    0    0    0  0.00000000000E+00  0.00000000000E+00  0.74505805969E-08  0.10566000000E+00  0.10566000000E+00 0. -1.
     999900   -1    0    0    0    0 -0.00000000000E+00 -0.00000000000E+00 -0.74505805969E-08  0.93827000000E+00  0.93827000000E+00 0.  1.
     999902    2    1    2    0    0  0.86965254792E-02  0.93047240965E-02  0.48700740282E-02  0.10302945658E+01  0.10302043327E+01 0.  0.
     999903    2    3    3    0    0 -0.25061322236E-01  0.84417422973E-01 -0.99560318596E-01  0.14030174741E+00  0.44921621882E-01 0.  0.
         14    1    1    2    0    0 -0.86965254792E-02 -0.93047240965E-02 -0.48700740282E-02  0.13635434242E-01  0.00000000000E+00 0.  1.
     999901    1    3    3    0    0  0.33757847716E-01 -0.75112698877E-01  0.10443039262E+00  0.88999281835E+00  0.88000000000E+00 0. -1.
        -11    1    4    4    0    0  0.76948654384E-02  0.30302629341E-02 -0.99334432316E-03  0.83451363985E-02  0.51100000000E-03 0. -1.
         11    1    4    4    0    0 -0.32756187675E-01  0.81387160039E-01 -0.98566974273E-01  0.13195661101E+00  0.51100000000E-03 0.  1.
</event>
<event>
 8    1  0.2107254E+004  0.1043930E+01  0.7957747E-01            NaN
         13   -1    0    0    0    0  0.00000000000E+00  0.00000000000E+00  0.74505805969E-08  0.10566000000E+00  0.10566000000E+00 0. -1.
     999900   -1    0    0    0    0 -0.00000000000E+00 -0.00000000000E+00 -0.74505805969E-08  0.93827000000E+00  0.93827000000E+00 0. -1.
     999902    2    1    2    0    0 -0.36176853716E-02 -0.83772969049E-04 -0.13103101256E-01  0.10303364012E+01  0.10302467247E+01 0.  0.
     999903    2    3    3    0    0 -0.64147162888E-01  0.50906492854E-01 -0.10678121511E+00  0.14183236978E+00  0.44809192102E-01 0.  0.
         14    1    1    2    0    0  0.36176853716E-02  0.83772969049E-04  0.13103101256E-01  0.13593598784E-01  0.00000000000E+00 0. -1.
     999901    1    3    3    0    0  0.60529477517E-01 -0.50990265823E-01  0.93678113853E-01  0.88850403143E+00  0.88000000000E+00 0.  1.
        -11    1    4    4    0    0 -0.11747649400E-01  0.35403446249E-01 -0.31608150103E-01  0.48895271210E-01  0.51100000000E-03 0.  1.
         11    1    4    4    0    0 -0.52399513488E-01  0.15503046605E-01 -0.75173065006E-01  0.92937098573E-01  0.51100000000E-03 0. -1.
</event>
<event>
 8    1  0.2107254E+004  0.1043930E+01  0.7957747E-01            NaN
         13   -1    0    0    0    0  0.00000000000E+00  0.00000000000E+00  0.74505805969E-08  0.10566000000E+00  0.10566000000E+00 0. -1.
     999900   -1    0    0    0    0 -0.00000000000E+00 -0.00000000000E+00 -0.74505805969E-08  0.93827000000E+00  0.93827000000E+00 0. -1.
     999902    2    1    2    0    0  0.89072539173E-03  0.13646831401E-02 -0.13803261303E-01  0.10300308715E+01  0.10299370905E+01 0.  0.
     999903    2    3    3    0    0  0.29366017408E-01 -0.63281522117E-01  0.11118426335E+00  0.13839649828E+00  0.43871816688E-01 0.  0.
         14    1    1    2    0    0 -0.89072539173E-03 -0.13646831401E-02  0.13803261303E-01  0.13899128548E-01  0.00000000000E+00 0. -1.
     999901    1    3    3    0    0 -0.28475292016E-01  0.64646205257E-01 -0.12498752465E+00  0.89163437318E+00  0.88000000000E+00 0. -1.
        -11    1    4    4    0    0 -0.10781263022E-02 -0.24761896712E-01  0.70167305536E-01  0.74417912980E-01  0.51100000000E-03 0.  1.
         11    1    4    4    0    0  0.30444143710E-01 -0.38519625404E-01  0.41016957811E-01  0.63978585297E-01  0.51100000000E-03 0. -1.
</event>
<event>
 8    1  0.2107254E+004  0.1043930E+01  0.7957747E-01            NaN
         13   -1    0    0    0    0  0.00000000000E+00  0.00000000000E+00  0.74505805969E-08  0.10566000000E+00  0.10566000000E+00 0. -1.
     999900   -1    0    0    0    0 -0.00000000000E+00 -0.00000000000E+00 -0.74505805969E-08  0.93827000000E+00  0.93827000000E+00 0.  1.
     999902    2    1    2    0    0  0.81033191498E-02 -0.93682236693E-03  0.10380571863E-01  0.10307278150E+01  0.10306432607E+01 0.  0.
     999903    2    3    3    0    0 -0.67924919817E-01 -0.31757302157E-01 -0.10960455361E+00  0.13880482198E+00  0.40389348328E-01 0.  0.
         14    1    1    2    0    0 -0.81033191498E-02  0.93682236693E-03 -0.10380571863E-01  0.13202185031E-01  0.00000000000E+00 0. -1.
     999901    1    3    3    0    0  0.76028238967E-01  0.30820479790E-01  0.11998512548E+00  0.89192299299E+00  0.88000000000E+00 0. -1.
        -11    1    4    4    0    0 -0.68457230048E-01 -0.18175354075E-01 -0.98048833838E-01  0.12095689637E+00  0.51100000000E-03 0. -1.
         11    1    4    4    0    0  0.53231023024E-03 -0.13581948082E-01 -0.11555719776E-01  0.17847925606E-01  0.51100000000E-03 0.  1.
</event>
<event>
 8    1  0.2107254E+004  0.1043930E+01  0.7957747E-01            NaN
         13   -1    0    0    0    0  0.00000000000E+00  0.00000000000E+00  0.74505805969E-08  0.10566000000E+00  0.10566000000E+00 0. -1.
     999900   -1    0    0    0    0 -0.00000000000E+00 -0.00000000000E+00 -0.74505805969E-08  0.93827000000E+00  0.93827000000E+00 0. -1.
     999902    2    1    2    0    0 -0.80429193963E-02  0.87649871872E-02 -0.89123689041E-03  0.10320007144E+01  0.10319317645E+01 0.  0.
     999903    2    3    3    0    0  0.40639054885E-01  0.12250046551E+00  0.40767993324E-01  0.14237091207E+00  0.44153714366E-01 0.  0.
         14    1    1    2    0    0  0.80429193963E-02 -0.87649871872E-02  0.89123689041E-03  0.11929285645E-01  0.00000000000E+00 0. -1.
     999901    1    3    3    0    0 -0.48681974282E-01 -0.11373547832E+00 -0.41659230214E-01  0.88962980228E+00  0.88000000000E+00 0.  1.
        -11    1    4    4    0    0  0.24317148655E-01  0.50163638584E-01  0.39282476499E-01  0.68198888815E-01  0.51100000000E-03 0. -1.
         11    1    4    4    0    0  0.16321906230E-01  0.72336826926E-01  0.14855168243E-02  0.74172023256E-01  0.51100000000E-03 0.  1.
</event>
<event>
 8    1  0.2107254E+004  0.1043930E+01  0.7957747E-01            NaN
         13   -1    0    0    0    0  0.00000000000E+00  0.00000000000E+00  0.74505805969E-08  0.10566000000E+00  0.10566000000E+00 0. -1.
     999900   -1    0    0    0    0 -0.00000000000E+00 -0.00000000000E+00 -0.74505805969E-08  0.93827000000E+00  0.93827000000E+00 0. -1.
     999902    2    1    2    0    0  0.97728266488E-02  0.45645853508E-02 -0.11195361156E-01  0.10283839493E+01  0.10282664380E+01 0.  0.
     999903    2    3    3    0    0  0.12332376037E+00 -0.23545766948E-02 -0.43264763535E-01  0.14048185116E+00  0.51468600527E-01 0.  0.
         14    1    1    2    0    0 -0.97728266488E-02 -0.45645853508E-02  0.11195361156E-01  0.15546050673E-01  0.00000000000E+00 0. -1.
     999901    1    3    3    0    0 -0.11355093372E+00  0.69191620456E-02  0.32069402379E-01  0.88790209816E+00  0.88000000000E+00 0.  1.
        -11    1    4    4    0    0  0.71847616793E-01 -0.21283636054E-01 -0.82003872175E-02  0.75382893776E-01  0.51100000000E-03 0. -1.
         11    1    4    4    0    0  0.51476143575E-01  0.18929059359E-01 -0.35064376317E-01  0.65098957388E-01  0.51100000000E-03 0.  1.
</event>
<event>
 8    1  0.2107254E+004  0.1043930E+01  0.7957747E-01            NaN
         13   -1    0    0    0    0  0.00000000000E+00  0.00000000000E+00  0.74505805969E-08  0.10566000000E+00  0.10566000000E+00 0.  1.
     999900   -1    0    0    0    0 -0.00000000000E+00 -0.00000000000E+00 -0.74505805969E-08  0.93827000000E+00  0.93827000000E+00 0. -1.
     999902    2    1    2    0    0 -0.71031480687E-02  0.11737268400E-01 -0.49339320841E-02  0.10293504984E+01  0.10292472427E+01 0.  0.
     999903    2    3    3    0    0 -0.85233952999E-02 -0.11743089296E+00 -0.57524650702E-01  0.13836665189E+00  0.44425015778E-01 0.  0.
         14    1    1    2    0    0  0.71031480687E-02 -0.11737268400E-01  0.49339320841E-02  0.14579501631E-01  0.00000000000E+00 0.  1.
     999901    1    3    3    0    0  0.14202472312E-02  0.12916816136E+00  0.52590718618E-01  0.89098384648E+00  0.88000000000E+00 0. -1.
        -11    1    4    4    0    0 -0.18521103936E-01 -0.11051341926E+00 -0.58025222059E-01  0.12618809232E+00  0.51100000000E-03 0. -1.
         11    1    4    4    0    0  0.99977086362E-02 -0.69174736962E-02  0.50057135743E-03  0.12178559562E-01  0.51100000000E-03 0.  1.
</event>
<event>
 8    1  0.2107254E+004  0.1043930E+01  0.7957747E-01            NaN
         13   -1    0    0    0    0  0.00000000000E+00  0.00000000000E+00  0.74505805969E-08  0.10566000000E+00  0.10566000000E+00 0.  1.
     999900   -1    0    0    0    0 -0.00000000000E+00 -0.00000000000E+00 -0.74505805969E-08  0.93827000000E+00  0.93827000000E+00 0.  1.
     999902    2    1    2    0    0 -0.22048222598E-01  0.11636668028E-01 -0.11986935174E-01  0.10162673397E+01  0.10158907829E+01 0.  0.
     999903    2    3    3    0    0 -0.28428650292E-01  0.38308838447E-01 -0.11238266338E+00  0.13013449590E+00  0.45048515335E-01 0.  0.
         14    1    1    2    0    0  0.22048222598E-01 -0.11636668028E-01  0.11986935174E-01  0.27662660345E-01  0.00000000000E+00 0. -1.
     999901    1    3    3    0    0  0.63804276942E-02 -0.26672170419E-01  0.10039572821E+00  0.88613284375E+00  0.88000000000E+00 0. -1.
        -11    1    4    4    0    0 -0.22128234044E-01  0.17313537536E-01 -0.18309236420E-01  0.33539627058E-01  0.51100000000E-03 0. -1.
         11    1    4    4    0    0 -0.63004162479E-02  0.20995300911E-01 -0.94073426964E-01  0.96594868845E-01  0.51100000000E-03 0.  1.
</event>
<event>
 8    1  0.2107254E+004  0.1043930E+01  0.7957747E-01            NaN
         13   -1    0    0    0    0  0.00000000000E+00  0.00000000000E+00  0.74505805969E-08  0.10566000000E+00  0.10566000000E+00 0.  1.
     999900   -1    0    0    0    0 -0.00000000000E+00 -0.00000000000E+00 -0.74505805969E-08  0.93827000000E+00  0.93827000000E+00 0. -1.
     999902    2    1    2    0    0  0.30953810277E-02  0.14474217895E-01  0.30101778488E-02  0.10288255127E+01  0.10287146300E+01 0.  0.
     999903    2    3    3    0    0 -0.12831794093E+00  0.12030059792E-01  0.28254790684E-01  0.13870601193E+00  0.42787945085E-01 0.  0.
         14    1    1    2    0    0 -0.30953810277E-02 -0.14474217895E-01 -0.30101778488E-02  0.15104487348E-01  0.00000000000E+00 0. -1.
     999901    1    3    3    0    0  0.13141332196E+00  0.24441581024E-02 -0.25244612836E-01  0.89011950073E+00  0.88000000000E+00 0.  1.
        -11    1    4    4    0    0 -0.26807984834E-01  0.61579499080E-02 -0.11112190973E-01  0.29670360752E-01  0.51100000000E-03 0.  1.
         11    1    4    4    0    0 -0.10150995610E+00  0.58721098842E-02  0.39366981657E-01  0.10903565117E+00  0.51100000000E-03 0. -1.
</event>
<event>
 8    1  0.2107254E+004  0.1043930E+01  0.7957747E-01            NaN
         13   -1    0    0    0    0  0.00000000000E+00  0.00000000000E+00  0.74505805969E-08  0.10566000000E+00  0.10566000000E+00 0. -1.
     999900   -1    0    0    0    0 -0.00000000000E+00 -0.00000000000E+00 -0.74505805969E-08  0.93827000000E+00  0.93827000000E+00 0.  1.
     999902    2    1    2    0    0  0.11301843084E-01 -0.11520558731E-02  0.81983277743E-02  0.10299203081E+01  0.10298250189E+01 0.  0.
     999903    2    3    3    0    0 -0.11124662257E+00  0.41787143552E-01 -0.54742239057E-01  0.13816730626E+00  0.44401749745E-01 0.  0.
         14    1    1    2    0    0 -0.11301843084E-01  0.11520558731E-02 -0.81983277743E-02  0.14009691936E-01  0.00000000000E+00 0.  1.
     999901    1    3    3    0    0  0.12254846566E+00 -0.42939199425E-01  0.62940566831E-01  0.89175300181E+00  0.88000000000E+00 0.  1.
        -11    1    4    4    0    0 -0.96626778245E-01  0.24134657506E-01 -0.57616770240E-01  0.11506158916E+00  0.51100000000E-03 0.  1.
         11    1    4    4    0    0 -0.14619844329E-01  0.17652486045E-01  0.28745311833E-02  0.23105717091E-01  0.51100000000E-03 0. -1.
</event>
<event>
 8    1  0.2107254E+004  0.1043930E+01  0.7957747E-01            NaN
         13   -1    0    0    0    0  0.00000000000E+00  0.00000000000E+00  0.74505805969E-08  0.10566000000E+00  0.10566000000E+00 0.  1.
     999900   -1    0    0    0    0 -0.00000000000E+00 -0.00000000000E+00 -0.74505805969E-08  0.93827000000E+00  0.93827000000E+00 0.  1.
     999902    2    1    2    0    0 -0.12033921704E-01 -0.37307324088E-02 -0.60403431826E-02  0.10299579070E+01  0.10298631321E+01 0.  0.
     999903    2    3    3    0    0  0.61258755026E-01  0.10647221056E+00  0.48623640205E-01  0.13838364980E+00  0.41192347056E-01 0.  0.
         14    1    1    2    0    0  0.12033921704E-01  0.37307324088E-02  0.60403431826E-02  0.13972092959E-01  0.00000000000E+00 0.  1.
     999901    1    3    3    0    0 -0.73292676730E-01 -0.11020294297E+00 -0.54663983388E-01  0.89157425724E+00  0.88000000000E+00 0. -1.
        -11    1    4    4    0    0  0.47173556083E-01  0.64879782626E-01  0.11818330663E-01  0.81084305805E-01  0.51100000000E-03 0.  1.
         11    1    4    4    0    0  0.14085198943E-01  0.41592427931E-01  0.36805309542E-01  0.57299343992E-01  0.51100000000E-03 0. -1.
</event>
<event>
 8    1  0.2107254E+004  0.1043930E+01  0.7957747E-01            NaN
         13   -1    0    0    0    0  0.00000000000E+00  0.00000000000E+00  0.74505805969E-08  0.10566000000E+00  0.10566000000E+00 0.  1.
     999900   -1    0    0    0    0 -0.00000000000E+00 -0.00000000000E+00 -0.74505805969E-08  0.93827000000E+00  0.93827000000E+00 0.  1.
     999902    2    1    2    0    0 -0.12774581881E-01 -0.40803385551E-02 -0.33102433083E-02  0.10301170779E+01  0.10300244645E+01 0.  0.
     999903    2    3    3    0    0 -0.75617099810E-01  0.99493731651E-01  0.45480186052E-01  0.14047823208E+00  0.45262986451E-01 0.  0.
         14    1    1    2    0    0  0.12774581881E-01  0.40803385551E-02  0.33102433083E-02  0.13812922056E-01  0.00000000000E+00 0.  1.
     999901    1    3    3    0    0  0.62842517929E-01 -0.10357407021E+00 -0.48790429361E-01  0.88963884587E+00  0.88000000000E+00 0.  1.
        -11    1    4    4    0    0 -0.61304493113E-01  0.49801157070E-01  0.39817568102E-01  0.88453920048E-01  0.51100000000E-03 0.  1.
         11    1    4    4    0    0 -0.14312606698E-01  0.49692574581E-01  0.56626179498E-02  0.52024312028E-01  0.51100000000E-03 0. -1.
</event>
<event>
 8    1  0.2107254E+004  0.1043930E+01  0.7957747E-01            NaN
         13   -1    0    0    0    0  0.00000000000E+00  0.00000000000E+00  0.74505805969E-08  0.10566000000E+00  0.10566000000E+00 0.  1.
     999900   -1    0    0    0    0 -0.00000000000E+00 -0.00000000000E+00 -0.74505805969E-08  0.93827000000E+00  0.93827000000E+00 0.  1.
     999902    2    1    2    0    0  0.30607623933E-02  0.94959421913E-02  0.10243278623E-01  0.10296308412E+01  0.10295315455E+01 0.  0.
     999903    2    3    3    0    0 -0.96644493208E-01  0.72597722875E-03 -0.87884343012E-01  0.13853764722E+00  0.46133901214E-01 0.  0.
         14    1    1    2    0    0 -0.30607623933E-02 -0.94959421913E-02 -0.10243278623E-01  0.14299158768E-01  0.00000000000E+00 0. -1.
     999901    1    3    3    0    0  0.99705255601E-01  0.87699649625E-02  0.98127621635E-01  0.89109319401E+00  0.88000000000E+00 0. -1.
        -11    1    4    4    0    0 -0.43098959088E-01  0.23272633775E-01 -0.39317325612E-01  0.62811216925E-01  0.51100000000E-03 0.  1.
         11    1    4    4    0    0 -0.53545534120E-01 -0.22546656547E-01 -0.48567017400E-01  0.75726430299E-01  0.51100000000E-03 0. -1.
</event>
<event>
 8    1  0.2107254E+004  0.1043930E+01  0.7957747E-01            NaN
         13   -1    0    0    0    0  0.00000000000E+00  0.00000000000E+00  0.74505805969E-08  0.10566000000E+00  0.10566000000E+00 0.  1.
     999900   -1    0    0    0    0 -0.00000000000E+00 -0.00000000000E+00 -0.74505805969E-08  0.93827000000E+00  0.93827000000E+00 0.  1.
     999902    2    1    2    0    0  0.11568625954E-01  0.21148084446E-02 -0.71599647255E-02  0.10301615354E+01  0.10300695212E+01 0.  0.
     999903    2    3    3    0    0 -0.10055108619E+00 -0.70851440215E-01 -0.46804717701E-01  0.13916961083E+00  0.45244352857E-01 0.  0.
         14    1    1    2    0    0 -0.11568625954E-01 -0.21148084446E-02  0.71599647255E-02  0.13768464551E-01  0.00000000000E+00 0.  1.
     999901    1    3    3    0    0  0.11211971214E+00  0.72966248660E-01  0.39644752975E-01  0.89099192462E+00  0.88000000000E+00 0. -1.
        -11    1    4    4    0    0 -0.37610559322E-01 -0.19852225773E-02 -0.15932357945E-01  0.40897389059E-01  0.51100000000E-03 0. -1.
         11    1    4    4    0    0 -0.62940526868E-01 -0.68866217638E-01 -0.30872359756E-01  0.98272221773E-01  0.51100000000E-03 0.  1.
</event>
<event>
 8    1  0.2107254E+004  0.1043930E+01  0.7957747E-01            NaN
         13   -1    0    0    0    0  0.00000000000E+00  0.00000000000E+00  0.74505805969E-08  0.10566000000E+00  0.10566000000E+00 0. -1.
     999900   -1    0    0    0    0 -0.00000000000E+00 -0.00000000000E+00 -0.74505805969E-08  0.93827000000E+00  0.93827000000E+00 0. -1.
     999902    2    1    2    0    0 -0.15824064618E-01  0.59179861340E-02 -0.61573769788E-02  0.10259484297E+01  0.10257908381E+01 0.  0.
     999903    2    3    3    0    0 -0.26846836856E-01  0.35165859606E-01  0.12074314970E+00  0.13629642843E+00  0.45170984848E-01 0.  0.
         14    1    1    2    0    0  0.15824064618E-01 -0.59179861340E-02  0.61573769788E-02  0.17981570348E-01  0.00000000000E+00 0.  1.
     999901    1    3    3    0    0  0.11022772238E-01 -0.29247873472E-01 -0.12690052668E+00  0.88965200122E+00  0.88000000000E+00 0. -1.
        -11    1    4    4    0    0 -0.29420208636E-02  0.30865206122E-01  0.98826802381E-01  0.10357757685E+00  0.51100000000E-03 0. -1.
         11    1    4    4    0    0 -0.23904815993E-01  0.43006534847E-02  0.21916347317E-01  0.32718851581E-01  0.51100000000E-03 0.  1.
</event>
<event>
 7    1  0.2107254E+004  0.1043930E+01  0.7957747E-01            NaN
         13   -1    0    0    0    0  0.00000000000E+00  0.00000000000E+00  0.74505805969E-08  0.10566000000E+00  0.10566000000E+00 0. -1.
     999900   -1    0    0    0    0 -0.00000000000E+00 -0.00000000000E+00 -0.74505805969E-08  0.93827000000E+00  0.93827000000E+00 0.  1.
     999903    2    1    2    0    0 -0.83624056406E-02 -0.11532326146E+00  0.11523973551E-01  0.12464188261E+00  0.45093375042E-01 0.  0.
         14    1    1    2    0    0 -0.16962033659E-01 -0.99621993180E-02 -0.22629800116E-01  0.29984393514E-01  0.00000000000E+00 0. -1.
     999901    1    1    2    0    0  0.25324439300E-01  0.12528546078E+00  0.11105826565E-01  0.88930372387E+00  0.88000000000E+00 0.  1.
        -11    1    3    3    0    0  0.83165654947E-02 -0.10221359992E+00  0.60725438702E-02  0.10273228402E+00  0.51100000000E-03 0. -1.
         11    1    3    3    0    0 -0.16678971135E-01 -0.13109661541E-01  0.54514296812E-02  0.21909598591E-01  0.51100000000E-03 0.  1.
</event>
<event>
 8    1  0.2107254E+004  0.1043930E+01  0.7957747E-01            NaN
         13   -1    0    0    0    0  0.00000000000E+00  0.00000000000E+00  0.74505805969E-08  0.10566000000E+00  0.10566000000E+00 0.  1.
     999900   -1    0    0    0    0 -0.00000000000E+00 -0.00000000000E+00 -0.74505805969E-08  0.93827000000E+00  0.93827000000E+00 0.  1.
     999902    2    1    2    0    0 -0.73998530172E-02 -0.75189043975E-02  0.87890894987E-02  0.10301990189E+01  0.10301075083E+01 0.  0.
     999903    2    3    3    0    0 -0.11768039777E+00  0.53214463923E-01  0.33468853554E-01  0.14089624068E+00  0.45289416968E-01 0.  0.
         14    1    1    2    0    0  0.73998530172E-02  0.75189043975E-02 -0.87890894987E-02  0.13730981109E-01  0.00000000000E+00 0. -1.
     999901    1    3    3    0    0  0.11028054475E+00 -0.60733368321E-01 -0.24679764055E-01  0.88930277821E+00  0.88000000000E+00 0. -1.
        -11    1    4    4    0    0 -0.62037334084E-01  0.40233806124E-02  0.20770007899E-01  0.65547484779E-01  0.51100000000E-03 0.  1.
         11    1    4    4    0    0 -0.55643063688E-01  0.49191083311E-01  0.12698845655E-01  0.75348755901E-01  0.51100000000E-03 0. -1.
</event>
<event>
 8    1  0.2107254E+004  0.1043930E+01  0.7957747E-01            NaN
         13   -1    0    0    0    0  0.00000000000E+00  0.00000000000E+00  0.74505805969E-08  0.10566000000E+00  0.10566000000E+00 0. -1.
     999900   -1    0    0    0    0 -0.00000000000E+00 -0.00000000000E+00 -0.74505805969E-08  0.93827000000E+00  0.93827000000E+00 0. -1.
     999902    2    1    2    0    0 -0.40842569865E-02 -0.15457589900E-01  0.19973307751E-02  0.10278176578E+01  0.10276913594E+01 0.  0.
     999903    2    3    3    0    0 -0.62097176901E-01 -0.87176720628E-01  0.77791240544E-01  0.13975580785E+00  0.44992985285E-01 0.  0.
         14    1    1    2    0    0  0.40842569865E-02  0.15457589900E-01 -0.19973307751E-02  0.16112342191E-01  0.00000000000E+00 0. -1.
     999901    1    3    3    0    0  0.58012919914E-01  0.71719130728E-01 -0.75793909769E-01  0.88806184996E+00  0.88000000000E+00 0. -1.
        -11    1    4    4    0    0 -0.40591144763E-01 -0.48734684119E-01  0.18844274151E-01  0.66167048133E-01  0.51100000000E-03 0. -1.
         11    1    4    4    0    0 -0.21506032138E-01 -0.38442036509E-01  0.58946966392E-01  0.73588759720E-01  0.51100000000E-03 0.  1.
</event>
<event>
 8    1  0.2107254E+004  0.1043930E+01  0.7957747E-01            NaN
         13   -1    0    0    0    0  0.00000000000E+00  0.00000000000E+00  0.74505805969E-08  0.10566000000E+00  0.10566000000E+00 0. -1.
     999900   -1    0    0    0    0 -0.00000000000E+00 -0.00000000000E+00 -0.74505805969E-08  0.93827000000E+00  0.93827000000E+00 0.  1.
     999902    2    1    2    0    0  0.91897956955E-02 -0.91306433440E-02 -0.65721511362E-02  0.10294036734E+01  0.10293011749E+01 0.  0.
     999903    2    3    3    0    0 -0.36172010677E-01  0.24078999699E-02 -0.12659613179E+00  0.14002378420E+00  0.47601126219E-01 0.  0.
         14    1    1    2    0    0 -0.91897956955E-02  0.91306433440E-02  0.65721511362E-02  0.14526326561E-01  0.00000000000E+00 0.  1.
     999901    1    3    3    0    0  0.45361806373E-01 -0.11538543314E-01  0.12002398065E+00  0.88937988924E+00  0.88000000000E+00 0. -1.
        -11    1    4    4    0    0  0.88727698314E-02 -0.46820645904E-02 -0.49005918814E-01  0.50024883539E-01  0.51100000000E-03 0.  1.
         11    1    4    4    0    0 -0.45044780509E-01  0.70899645603E-02 -0.77590212976E-01  0.89998900656E-01  0.51100000000E-03 0. -1.
</event>
<event>
 8    1  0.2107254E+004  0.1043930E+01  0.7957747E-01            NaN
         13   -1    0    0    0    0  0.00000000000E+00  0.00000000000E+00  0.74505805969E-08  0.10566000000E+00  0.10566000000E+00 0. -1.
     999900   -1    0    0    0    0 -0.00000000000E+00 -0.00000000000E+00 -0.74505805969E-08  0.93827000000E+00  0.93827000000E+00 0. -1.
     999902    2    1    2    0    0  0.78569084821E-02  0.11543453256E-01 -0.36515315644E-02  0.10294968435E+01  0.10293956648E+01 0.  0.
     999903    2    3    3    0    0  0.87963274543E-01  0.56617376273E-01 -0.83338136994E-01  0.14112831439E+00  0.45043213473E-01 0.  0.
         14    1    1    2    0    0 -0.78569084821E-02 -0.11543453256E-01  0.36515315644E-02  0.14433156506E-01  0.00000000000E+00 0.  1.
     999901    1    3    3    0    0 -0.80106366061E-01 -0.45073923017E-01  0.79686605430E-01  0.88836852911E+00  0.88000000000E+00 0.  1.
        -11    1    4    4    0    0  0.37962931445E-01  0.46851411637E-01 -0.29949071097E-01  0.67330876400E-01  0.51100000000E-03 0.  1.
         11    1    4    4    0    0  0.50000343099E-01  0.97659646366E-02 -0.53389065897E-01  0.73797437988E-01  0.51100000000E-03 0. -1.
</event>
<event>
 8    1  0.2107254E+004  0.1043930E+01  0.7957747E-01            NaN
         13   -1    0    0    0    0  0.00000000000E+00  0.00000000000E+00  0.74505805969E-08  0.10566000000E+00  0.10566000000E+00 0. -1.
     999900   -1    0    0    0    0 -0.00000000000E+00 -0.00000000000E+00 -0.74505805969E-08  0.93827000000E+00  0.93827000000E+00 0.  1.
     999902    2    1    2    0    0 -0.75166844551E-02  0.69962111349E-02  0.65119879941E-02  0.10317704974E+01  0.10316988445E+01 0.  0.
     999903    2    3    3    0    0  0.49350412542E-01  0.58565136732E-01  0.11110957554E+00  0.14225721695E+00  0.45015992047E-01 0.  0.
         14    1    1    2    0    0  0.75166844551E-02 -0.69962111349E-02 -0.65119879941E-02  0.12159502584E-01  0.00000000000E+00 0.  1.
     999901    1    3    3    0    0 -0.56867096997E-01 -0.51568925597E-01 -0.10459758754E+00  0.88951328047E+00  0.88000000000E+00 0.  1.
        -11    1    4    4    0    0  0.15199856653E-01  0.98484223955E-02  0.23272648838E-02  0.18267576434E-01  0.51100000000E-03 0.  1.
         11    1    4    4    0    0  0.34150555889E-01  0.48716714336E-01  0.10878231065E+00  0.12398964052E+00  0.51100000000E-03 0. -1.
</event>
<event>
 8    1  0.2107254E+004  0.1043930E+01  0.7957747E-01            NaN
         13   -1    0    0    0    0  0.00000000000E+00  0.00000000000E+00  0.74505805969E-08  0.10566000000E+00  0.10566000000E+00 0.  1.
     999900   -1    0    0    0    0 -0.00000000000E+00 -0.00000000000E+00 -0.74505805969E-08  0.93827000000E+00  0.93827000000E+00 0. -1.
     999902    2    1    2    0    0  0.85419957629E-02  0.11368673638E-01 -0.14340335093E-01  0.10237345143E+01  0.10235352940E+01 0.  0.
     999903    2    3    3    0    0 -0.62991849861E-01 -0.10778004378E+00 -0.83563256704E-02  0.13280841395E+00  0.44539147390E-01 0.  0.
         14    1    1    2    0    0 -0.85419957629E-02 -0.11368673638E-01  0.14340335093E-01  0.20195485696E-01  0.00000000000E+00 0.  1.
     999901    1    3    3    0    0  0.71533845624E-01  0.11914871742E+00 -0.59840094225E-02  0.89092610036E+00  0.88000000000E+00 0.  1.
        -11    1    4    4    0    0 -0.55285623864E-01 -0.73122578432E-01 -0.22818152713E-01  0.94468729730E-01  0.51100000000E-03 0.  1.
         11    1    4    4    0    0 -0.77062259974E-02 -0.34657465347E-01  0.14461827042E-01  0.38339684216E-01  0.51100000000E-03 0. -1.
</event>
<event>
 8    1  0.2107254E+004  0.1043930E+01  0.7957747E-01            NaN
         13   -1    0    0    0    0  0.00000000000E+00  0.00000000000E+00  0.74505805969E-08  0.10566000000E+00  0.10566000000E+00 0. -1.
     999900   -1    0    0    0    0 -0.00000000000E+00 -0.00000000000E+00 -0.74505805969E-08  0.93827000000E+00  0.93827000000E+00 0.  1.
     999902    2    1    2    0    0  0.98983623593E-02  0.78791149132E-02 -0.59404742572E-02  0.10299533315E+01  0.10298584940E+01 0.  0.
     999903    2    3    3    0    0  0.59409572129E-01  0.11543168508E+00 -0.34281452811E-01  0.14157158563E+00  0.44870086596E-01 0.  0.
         14    1    1    2    0    0 -0.98983623593E-02 -0.78791149132E-02  0.59404742572E-02  0.13976668545E-01  0.00000000000E+00 0.  1.
     999901    1    3    3    0    0 -0.49511209770E-01 -0.10755257017E+00  0.28340978554E-01  0.88838174582E+00  0.88000000000E+00 0.  1.
        -11    1    4    4    0    0  0.55197422811E-01  0.60563951341E-01 -0.25660218429E-01  0.85868827975E-01  0.51100000000E-03 0. -1.
         11    1    4    4    0    0  0.42121493182E-02  0.54867733739E-01 -0.86212343822E-02  0.55702757659E-01  0.51100000000E-03 0.  1.
</event>
<event>
 8    1  0.2107254E+004  0.1043930E+01  0.7957747E-01            NaN
         13   -1    0    0    0    0  0.00000000000E+00  0.00000000000E+00  0.74505805969E-08  0.10566000000E+00  0.10566000000E+00 0. -1.
     999900   -1    0    0    0    0 -0.00000000000E+00 -0.00000000000E+00 -0.74505805969E-08  0.93827000000E+00  0.93827000000E+00 0. -1.
     999902    2    1    2    0    0 -0.12652862018E-01  0.54725002464E-02  0.19552293918E-02  0.10300064193E+01  0.10299123059E+01 0.  0.
     999903    2    3    3    0    0 -0.40198704182E-01  0.12136552538E+00 -0.38578174213E-01  0.14105595757E+00  0.45420051407E-01 0.  0.
         14    1    1    2    0    0  0.12652862018E-01 -0.54725002464E-02 -0.19552293918E-02  0.13923580652E-01  0.00000000000E+00 0. -1.
     999901    1    3    3    0    0  0.27545842164E-01 -0.11589302514E+00  0.40533403605E-01  0.88895046178E+00  0.88000000000E+00 0.  1.
        -11    1    4    4    0    0  0.58704031593E-02  0.41414477486E-01 -0.22134189345E-01  0.47326567989E-01  0.51100000000E-03 0. -1.
         11    1    4    4    0    0 -0.46069107341E-01  0.79951047897E-01 -0.16443984868E-01  0.93729389576E-01  0.51100000000E-03 0.  1.
</event>
<event>
 8    1  0.3237484E+004  0.1043930E+01  0.7957747E-01            NaN
         13   -1    0    0    0    0  0.00000000000E+00  0.00000000000E+00  0.74505805969E-08  0.10566000000E+00  0.10566000000E+00 0.  1.
     999900   -1    0    0    0    0 -0.00000000000E+00 -0.00000000000E+00 -0.74505805969E-08  0.93827000000E+00  0.93827000000E+00 0.  1.
     999902    2    1    2    0    0  0.28851413406E-02  0.13521489122E-01 -0.30045947252E-02  0.10297814206E+01  0.10296842195E+01 0.  0.
     999903    2    3    3    0    0  0.52271276217E-02  0.34153789515E-01 -0.12879553243E+00  0.14059384946E+00  0.44548143981E-01 0.  0.
         14    1    1    2    0    0 -0.28851413406E-02 -0.13521489122E-01  0.30045947252E-02  0.14148579367E-01  0.00000000000E+00 0. -1.
     999901    1    3    3    0    0 -0.23419862810E-02 -0.20632300392E-01  0.12579093770E+00  0.88918757117E+00  0.88000000000E+00 0. -1.
        -11    1    4    4    0    0  0.65086805503E-02  0.34352138177E-01 -0.45974700441E-01  0.57761289126E-01  0.51100000000E-03 0.  1.
         11    1    4    4    0    0 -0.12815529286E-02 -0.19834866238E-03 -0.82820831984E-01  0.82832560335E-01  0.51100000000E-03 0. -1.
</event>
<event>
 8    1  0.2107254E+004  0.1043930E+01  0.7957747E-01            NaN
         13   -1    0    0    0    0  0.00000000000E+00  0.00000000000E+00  0.74505805969E-08  0.10566000000E+00  0.10566000000E+00 0.  1.
     999900   -1    0    0    0    0 -0.00000000000E+00 -0.00000000000E+00 -0.74505805969E-08  0.93827000000E+00  0.93827000000E+00 0. -1.
     999902    2    1    2    0    0 -0.10445727417E-01  0.55230336330E-02 -0.83015825235E-02  0.10294893146E+01  0.10293880296E+01 0.  0.
     999903    2    3    3    0    0  0.16615624510E-02  0.75422937911E-02 -0.13106528355E+00  0.14088277055E+00  0.51090111574E-01 0.  0.
         14    1    1    2    0    0  0.10445727417E-01 -0.55230336330E-02  0.83015825235E-02  0.14440685378E-01  0.00000000000E+00 0.  1.
     999901    1    3    3    0    0 -0.12107289868E-01 -0.20192601581E-02  0.12276370102E+00  0.88860654407E+00  0.88000000000E+00 0.  1.
        -11    1    4    4    0    0  0.23024146333E-01 -0.68163497960E-02 -0.44465848920E-01  0.50537577901E-01  0.51100000000E-03 0.  1.
         11    1    4    4    0    0 -0.21362583882E-01  0.14358643587E-01 -0.86599434628E-01  0.90345192648E-01  0.51100000000E-03 0. -1.
</event>
<event>
 8    1  0.2107254E+004  0.1043930E+01  0.7957747E-01            NaN
         13   -1    0    0    0    0  0.00000000000E+00  0.00000000000E+00  0.74505805969E-08  0.10566000000E+00  0.10566000000E+00 0.  1.
     999900   -1    0    0    0    0 -0.00000000000E+00 -0.00000000000E+00 -0.74505805969E-08  0.93827000000E+00  0.93827000000E+00 0. -1.
     999902    2    1    2    0    0  0.82602676440E-02 -0.10320936559E-01 -0.25480511609E-04  0.10307105294E+01  0.10306257522E+01 0.  0.
     999903    2    3    3    0    0  0.10622768743E+00  0.78771715502E-02  0.81479439713E-01  0.14134455386E+00  0.44643167450E-01 0.  0.
         14    1    1    2    0    0 -0.82602676440E-02  0.10320936559E-01  0.25480511609E-04  0.13219470574E-01  0.00000000000E+00 0.  1.
     999901    1    3    3    0    0 -0.97967419789E-01 -0.18198108109E-01 -0.81504920225E-01  0.88936597557E+00  0.88000000000E+00 0.  1.
        -11    1    4    4    0    0  0.90581375847E-01  0.22769408004E-01  0.71045178797E-01  0.11735037342E+00  0.51100000000E-03 0.  1.
         11    1    4    4    0    0  0.15646311587E-01 -0.14892236453E-01  0.10434260916E-01  0.23994180434E-01  0.51100000000E-03 0. -1.
</event>
<event>
 8    1  0.2107254E+004  0.1043930E+01  0.7957747E-01            NaN
         13   -1    0    0    0    0  0.00000000000E+00  0.00000000000E+00  0.74505805969E-08  0.10566000000E+00  0.10566000000E+00 0.  1.
     999900   -1    0    0    0    0 -0.00000000000E+00 -0.00000000000E+00 -0.74505805969E-08  0.93827000000E+00  0.93827000000E+00 0.  1.
     999902    2    1    2    0    0 -0.13133708690E-01  0.77246365520E-03  0.49358470971E-02  0.10298781819E+01  0.10297823149E+01 0.  0.
     999903    2    3    3    0    0  0.95029226566E-01 -0.40480632381E-02  0.90789631610E-01  0.13909575601E+00  0.45364428954E-01 0.  0.
         14    1    1    2    0    0  0.13133708690E-01 -0.77246365520E-03 -0.49358470971E-02  0.14051818053E-01  0.00000000000E+00 0.  1.
     999901    1    3    3    0    0 -0.10816293526E+00  0.48205268933E-02 -0.85853784513E-01  0.89078242594E+00  0.88000000000E+00 0.  1.
        -11    1    4    4    0    0  0.63535999252E-01  0.18432977322E-01  0.63856175856E-01  0.91948192858E-01  0.51100000000E-03 0.  1.
         11    1    4    4    0    0  0.31493227314E-01 -0.22481040560E-01  0.26933455754E-01  0.47147563152E-01  0.51100000000E-03 0. -1.
</event>
<event>
 8    1  0.2107254E+004  0.1043930E+01  0.7957747E-01            NaN
         13   -1    0    0    0    0  0.00000000000E+00  0.00000000000E+00  0.74505805969E-08  0.10566000000E+00  0.10566000000E+00 0. -1.
     999900   -1    0    0    0    0 -0.00000000000E+00 -0.00000000000E+00 -0.74505805969E-08  0.93827000000E+00  0.93827000000E+00 0.  1.
     999902    2    1    2    0    0  0.68355722937E-02  0.95648881264E-02  0.79759441258E-02  0.10297233882E+01  0.10296253826E+01 0.  0.
     999903    2    3    3    0    0  0.42618709437E-01 -0.38248179785E-01  0.12094697581E+00  0.14049395980E+00  0.42791402560E-01 0.  0.
         14    1    1    2    0    0 -0.68355722937E-02 -0.95648881264E-02 -0.79759441258E-02  0.14206611776E-01  0.00000000000E+00 0.  1.
     999901    1    3    3    0    0 -0.35783137143E-01  0.47813067912E-01 -0.11297103168E+00  0.88922942842E+00  0.88000000000E+00 0. -1.
        -11    1    4    4    0    0 -0.21503726199E-02 -0.82347413568E-02  0.53401791531E-01  0.54078161280E-01  0.51100000000E-03 0. -1.
         11    1    4    4    0    0  0.44769082057E-01 -0.30013438429E-01  0.67545184279E-01  0.86415798525E-01  0.51100000000E-03 0.  1.
</event>
<event>
 8    1  0.2107254E+004  0.1043930E+01  0.7957747E-01            NaN
         13   -1    0    0    0    0  0.00000000000E+00  0.00000000000E+00  0.74505805969E-08  0.10566000000E+00  0.10566000000E+00 0.  1.
     999900   -1    0    0    0    0 -0.00000000000E+00 -0.00000000000E+00 -0.74505805969E-08  0.93827000000E+00  0.93827000000E+00 0.  1.
     999902    2    1    2    0    0 -0.90910189569E-03 -0.13096419282E-01 -0.41967833748E-02  0.10301475599E+01  0.10300553575E+01 0.  0.
     999903    2    3    3    0    0  0.13017984881E+00 -0.20858758434E-01 -0.16139708068E-01  0.14032330739E+00  0.45257701906E-01 0.  0.
         14    1    1    2    0    0  0.90910189569E-03  0.13096419282E-01  0.41967833748E-02  0.13782440094E-01  0.00000000000E+00 0.  1.
     999901    1    3    3    0    0 -0.13108895071E+00  0.77623391517E-02  0.11942924693E-01  0.88982425251E+00  0.88000000000E+00 0.  1.
        -11    1    4    4    0    0  0.54736315641E-01 -0.85302743178E-02  0.15594342109E-01  0.57552362738E-01  0.51100000000E-03 0. -1.
         11    1    4    4    0    0  0.75443533170E-01 -0.12328484116E-01 -0.31734050177E-01  0.82770944657E-01  0.51100000000E-03 0.  1.
</event>
<event>
 8    1  0.2107254E+004  0.1043930E+01  0.7957747E-01            NaN
         13   -1    0    0    0    0  0.00000000000E+00  0.00000000000E+00  0.74505805969E-08  0.10566000000E+00  0.10566000000E+00 0. -1.
     999900   -1    0    0    0    0 -0.00000000000E+00 -0.00000000000E+00 -0.74505805969E-08  0.93827000000E+00  0.93827000000E+00 0. -1.
     999902    2    1    2    0    0 -0.12433510069E-01 -0.63942213874E-02  0.44247305287E-02  0.10292651959E+01  0.10291607197E+01 0.  0.
     999903    2    3    3    0    0 -0.54926397718E-01 -0.71418411060E-01 -0.97597018095E-01  0.13997209012E+00  0.44153249803E-01 0.  0.
         14    1    1    2    0    0  0.12433510069E-01  0.63942213874E-02 -0.44247305287E-02  0.14664804125E-01  0.00000000000E+00 0. -1.
     999901    1    3    3    0    0  0.42492887649E-01  0.65024189672E-01  0.10202174862E+00  0.88929310575E+00  0.88000000000E+00 0. -1.
        -11    1    4    4    0    0 -0.30395704203E-01 -0.24048631464E-01 -0.14829530300E-01  0.41501946933E-01  0.51100000000E-03 0. -1.
         11    1    4    4    0    0 -0.24530693515E-01 -0.47369779596E-01 -0.82767487795E-01  0.98470143192E-01  0.51100000000E-03 0.  1.
</event>
<event>
 8    1  0.2107254E+004  0.1043930E+01  0.7957747E-01            NaN
         13   -1    0    0    0    0  0.00000000000E+00  0.00000000000E+00  0.74505805969E-08  0.10566000000E+00  0.10566000000E+00 0. -1.
     999900   -1    0    0    0    0 -0.00000000000E+00 -0.00000000000E+00 -0.74505805969E-08  0.93827000000E+00  0.93827000000E+00 0.  1.
     999902    2    1    2    0    0 -0.10649650301E-01 -0.71918594317E-02  0.48804594379E-02  0.10301838450E+01  0.10300921307E+01 0.  0.
     999903    2    3    3    0    0 -0.90146982356E-01 -0.99202379680E-01 -0.83120135254E-02  0.14172461520E+00  0.45267940325E-01 0.  0.
         14    1    1    2    0    0  0.10649650301E-01  0.71918594317E-02 -0.48804594379E-02  0.13746155024E-01  0.00000000000E+00 0.  1.
     999901    1    3    3    0    0  0.79497332055E-01  0.92010520248E-01  0.13192472963E-01  0.88845922978E+00  0.88000000000E+00 0. -1.
        -11    1    4    4    0    0 -0.58589506229E-01 -0.41600861121E-01  0.12260033741E-01  0.72896717584E-01  0.51100000000E-03 0. -1.
         11    1    4    4    0    0 -0.31557476127E-01 -0.57601518559E-01 -0.20572047267E-01  0.68827897611E-01  0.51100000000E-03 0.  1.
</event>
<event>
 8    1  0.2107254E+004  0.1043930E+01  0.7957747E-01            NaN
         13   -1    0    0    0    0  0.00000000000E+00  0.00000000000E+00  0.74505805969E-08  0.10566000000E+00  0.10566000000E+00 0.  1.
     999900   -1    0    0    0    0 -0.00000000000E+00 -0.00000000000E+00 -0.74505805969E-08  0.93827000000E+00  0.93827000000E+00 0. -1.
     999902    2    1    2    0    0 -0.84938751799E-02  0.31372603028E-02 -0.11004489983E-01  0.10296791363E+01  0.10295805148E+01 0.  0.
     999903    2    3    3    0    0  0.69826932983E-01 -0.10932750761E+00 -0.21343855989E-01  0.13901119841E+00  0.45169111186E-01 0.  0.
         14    1    1    2    0    0  0.84938751799E-02 -0.31372603028E-02  0.11004489983E-01  0.14250863748E-01  0.00000000000E+00 0.  1.
     999901    1    3    3    0    0 -0.78320808163E-01  0.11246476791E+00  0.10339366006E-01  0.89066793784E+00  0.88000000000E+00 0.  1.
        -11    1    4    4    0    0  0.65637451523E-01 -0.64965761532E-01 -0.91157513927E-02  0.92801849433E-01  0.51100000000E-03 0.  1.
         11    1    4    4    0    0  0.41894814602E-02 -0.44361746075E-01 -0.12228104596E-01  0.46209348975E-01  0.51100000000E-03 0. -1.
</event>
<event>
 8    1  0.2107254E+004  0.1043930E+01  0.7957747E-01            NaN
         13   -1    0    0    0    0  0.00000000000E+00  0.00000000000E+00  0.74505805969E-08  0.10566000000E+00  0.10566000000E+00 0. -1.
     999900   -1    0    0    0    0 -0.00000000000E+00 -0.00000000000E+00 -0.74505805969E-08  0.93827000000E+00  0.93827000000E+00 0. -1.
     999902    2    1    2    0    0 -0.38111994150E-02 -0.13325981571E-01 -0.41997054636E-02  0.10294474397E+01  0.10293455623E+01 0.  0.
     999903    2    3    3    0    0 -0.37910464660E-01 -0.85256169740E-01 -0.95838682973E-01  0.14111506159E+00  0.44973210298E-01 0.  0.
         14    1    1    2    0    0  0.38111994150E-02  0.13325981571E-01  0.41997054636E-02  0.14482560264E-01  0.00000000000E+00 0. -1.
     999901    1    3    3    0    0  0.34099265245E-01  0.71930188169E-01  0.91638977510E-01  0.88833237814E+00  0.88000000000E+00 0.  1.
        -11    1    4    4    0    0 -0.46608542675E-01 -0.58008058652E-01 -0.75546088253E-01  0.10604133010E+00  0.51100000000E-03 0. -1.
         11    1    4    4    0    0  0.86980780147E-02 -0.27248111088E-01 -0.20292594720E-01  0.35073731488E-01  0.51100000000E-03 0.  1.
</event>
<event>
 8    1  0.2107254E+004  0.1043930E+01  0.7957747E-01            NaN
         13   -1    0    0    0    0  0.00000000000E+00  0.00000000000E+00  0.74505805969E-08  0.10566000000E+00  0.10566000000E+00 0. -1.
     999900   -1    0    0    0    0 -0.00000000000E+00 -0.00000000000E+00 -0.74505805969E-08  0.93827000000E+00  0.93827000000E+00 0.  1.
     999902    2    1    2    0    0  0.62569512419E-02  0.12351396183E-02 -0.12535846180E-01  0.10298650632E+01  0.10297690158E+01 0.  0.
     999903    2    3    3    0    0  0.13203251183E+00 -0.80776805247E-02  0.13000202752E-01  0.14050669330E+00  0.45555378233E-01 0.  0.
         14    1    1    2    0    0 -0.62569512419E-02 -0.12351396183E-02  0.12535846180E-01  0.14064936835E-01  0.00000000000E+00 0. -1.
     999901    1    3    3    0    0 -0.12577556059E+00  0.93128201430E-02 -0.25536048933E-01  0.88935836987E+00  0.88000000000E+00 0. -1.
        -11    1    4    4    0    0  0.63321315562E-01 -0.20452625820E-01 -0.93498726671E-02  0.67198066544E-01  0.51100000000E-03 0.  1.
         11    1    4    4    0    0  0.68711196271E-01  0.12374945295E-01  0.22350075420E-01  0.73308626752E-01  0.51100000000E-03 0. -1.
</event>
<event>
 8    1  0.2107254E+004  0.1043930E+01  0.7957747E-01            NaN
         13   -1    0    0    0    0  0.00000000000E+00  0.00000000000E+00  0.74505805969E-08  0.10566000000E+00  0.10566000000E+00 0.  1.
     999900   -1    0    0    0    0 -0.00000000000E+00 -0.00000000000E+00 -0.74505805969E-08  0.93827000000E+00  0.93827000000E+00 0.  1.
     999902    2    1    2    0    0 -0.68307858516E-02  0.12346934443E-01  0.33731131063E-03  0.10298154612E+01  0.10297187305E+01 0.  0.
     999903    2    3    3    0    0  0.11514731370E+00 -0.61941573524E-01  0.21422454185E-02  0.13829950683E+00  0.45016685687E-01 0.  0.
         14    1    1    2    0    0  0.68307858516E-02 -0.12346934443E-01 -0.33731131063E-03  0.14114538760E-01  0.00000000000E+00 0.  1.
     999901    1    3    3    0    0 -0.12197809955E+00  0.74288507967E-01 -0.18049341079E-02  0.89151595441E+00  0.88000000000E+00 0. -1.
        -11    1    4    4    0    0  0.62203529588E-01 -0.28511356063E-01 -0.20944753514E-01  0.71562003455E-01  0.51100000000E-03 0. -1.
         11    1    4    4    0    0  0.52943784111E-01 -0.33430217461E-01  0.23086998933E-01  0.66737503371E-01  0.51100000000E-03 0.  1.
</event>
<event>
 8    1  0.2107254E+004  0.1043930E+01  0.7957747E-01            NaN
         13   -1    0    0    0    0  0.00000000000E+00  0.00000000000E+00  0.74505805969E-08  0.10566000000E+00  0.10566000000E+00 0.  1.
     999900   -1    0    0    0    0 -0.00000000000E+00 -0.00000000000E+00 -0.74505805969E-08  0.93827000000E+00  0.93827000000E+00 0. -1.
     999902    2    1    2    0    0  0.42789087933E-03 -0.12721305456E-01 -0.42595875573E-02  0.10305076757E+01  0.10304202594E+01 0.  0.
     999903    2    3    3    0    0  0.10888398819E+00 -0.33642753981E-01  0.68799697548E-01  0.14059864037E+00  0.45244021827E-01 0.  0.
         14    1    1    2    0    0 -0.42789087933E-03  0.12721305456E-01  0.42595875573E-02  0.13422324287E-01  0.00000000000E+00 0. -1.
     999901    1    3    3    0    0 -0.10845609731E+00  0.20921448525E-01 -0.73059285106E-01  0.88990903535E+00  0.88000000000E+00 0.  1.
        -11    1    4    4    0    0  0.45071731284E-01 -0.38128667323E-02  0.49144421389E-02  0.45501777725E-01  0.51100000000E-03 0.  1.
         11    1    4    4    0    0  0.63812256904E-01 -0.29829887249E-01  0.63885255409E-01  0.95096862641E-01  0.51100000000E-03 0. -1.
</event>
<event>
 8    1  0.2107254E+004  0.1043930E+01  0.7957747E-01            NaN
         13   -1    0    0    0    0  0.00000000000E+00  0.00000000000E+00  0.74505805969E-08  0.10566000000E+00  0.10566000000E+00 0. -1.
     999900   -1    0    0    0    0 -0.00000000000E+00 -0.00000000000E+00 -0.74505805969E-08  0.93827000000E+00  0.93827000000E+00 0.  1.
     999902    2    1    2    0    0  0.11998518475E-01  0.62920881534E-02 -0.21733146785E-02  0.10302085527E+01  0.10301171700E+01 0.  0.
     999903    2    3    3    0    0  0.10471385216E+00  0.49136222674E-02  0.83641289118E-01  0.14118539245E+00  0.44139724485E-01 0.  0.
         14    1    1    2    0    0 -0.11998518475E-01 -0.62920881534E-02  0.21733146785E-02  0.13721447286E-01  0.00000000000E+00 0. -1.
     999901    1    3    3    0    0 -0.92715333682E-01  0.13784658860E-02 -0.85814603796E-01  0.88902316027E+00  0.88000000000E+00 0.  1.
        -11    1    4    4    0    0  0.42451579394E-01  0.15370915707E-01  0.14197692053E-01  0.47331144327E-01  0.51100000000E-03 0. -1.
         11    1    4    4    0    0  0.62262272763E-01 -0.10457293439E-01  0.69443597065E-01  0.93854248119E-01  0.51100000000E-03 0.  1.
</event>
<event>
 8    1  0.2107254E+004  0.1043930E+01  0.7957747E-01            NaN
         13   -1    0    0    0    0  0.00000000000E+00  0.00000000000E+00  0.74505805969E-08  0.10566000000E+00  0.10566000000E+00 0. -1.
     999900   -1    0    0    0    0 -0.00000000000E+00 -0.00000000000E+00 -0.74505805969E-08  0.93827000000E+00  0.93827000000E+00 0.  1.
     999902    2    1    2    0    0 -0.19933823029E-02 -0.31261484721E-02  0.13478760871E-01  0.10299506090E+01  0.10298557344E+01 0.  0.
     999903    2    3    3    0    0 -0.12179835602E+00 -0.34595178881E-01  0.46956501951E-01  0.14064509867E+00  0.39299679048E-01 0.  0.
         14    1    1    2    0    0  0.19933823029E-02  0.31261484721E-02 -0.13478760871E-01  0.13979390970E-01  0.00000000000E+00 0.  1.
     999901    1    3    3    0    0  0.11980497372E+00  0.31469030409E-01 -0.33477741080E-01  0.88930551036E+00  0.88000000000E+00 0. -1.
        -11    1    4    4    0    0 -0.78860718333E-01 -0.38474790994E-01  0.41887919355E-01  0.97232614626E-01  0.51100000000E-03 0. -1.
         11    1    4    4    0    0 -0.42937637691E-01  0.38796121130E-02  0.50685825964E-02  0.43412484047E-01  0.51100000000E-03 0.  1.
</event>
<event>
 8    1  0.2107254E+004  0.1043930E+01  0.7957747E-01            NaN
         13   -1    0    0    0    0  0.00000000000E+00  0.00000000000E+00  0.74505805969E-08  0.10566000000E+00  0.10566000000E+00 0.  1.
     999900   -1    0    0    0    0 -0.00000000000E+00 -0.00000000000E+00 -0.74505805969E-08  0.93827000000E+00  0.93827000000E+00 0. -1.
     999902    2    1    2    0    0 -0.12192023621E-01 -0.28708807108E-03 -0.65813586568E-02  0.10300720730E+01  0.10299788509E+01 0.  0.
     999903    2    3    3    0    0  0.53206120451E-01 -0.63532495638E-01 -0.10352398831E+00  0.14008624597E+00  0.45162715826E-01 0.  0.
         14    1    1    2    0    0  0.12192023621E-01  0.28708807108E-03  0.65813586568E-02  0.13857927020E-01  0.00000000000E+00 0. -1.
     999901    1    3    3    0    0 -0.65398144072E-01  0.63245407567E-01  0.96942629650E-01  0.88998582701E+00  0.88000000000E+00 0.  1.
        -11    1    4    4    0    0 -0.11858994615E-02 -0.30933810478E-01 -0.34281670195E-01  0.46193084121E-01  0.51100000000E-03 0.  1.
         11    1    4    4    0    0  0.54392019913E-01 -0.32598685160E-01 -0.69242318112E-01  0.93893161853E-01  0.51100000000E-03 0. -1.
</event>
<event>
 7    1  0.2107254E+004  0.1043930E+01  0.7957747E-01            NaN
         13   -1    0    0    0    0  0.00000000000E+00  0.00000000000E+00  0.74505805969E-08  0.10566000000E+00  0.10566000000E+00 0. -1.
     999900   -1    0    0    0    0 -0.00000000000E+00 -0.00000000000E+00 -0.74505805969E-08  0.93827000000E+00  0.93827000000E+00 0. -1.
     999902    2    1    2    0    0  0.98827498845E-02  0.99527986916E-02  0.11655646593E-02  0.10298557154E+01  0.10297595394E+01 0.  0.
         14    1    1    2    0    0 -0.98827498845E-02 -0.99527986916E-02 -0.11655646593E-02  0.14074284637E-01  0.00000000000E+00 0.  1.
     999901    1    3    3    0    0  0.88384317019E-01  0.14717374360E-01  0.79373736903E-01  0.88810392337E+00  0.88000000000E+00 0. -1.
        -11    1    3    3    0    0 -0.68197327368E-01  0.35082408625E-01 -0.56164431631E-01  0.95059746247E-01  0.51100000000E-03 0. -1.
         11    1    3    3    0    0 -0.10304239766E-01 -0.39846984293E-01 -0.22043740612E-01  0.46692045742E-01  0.51100000000E-03 0.  1.
</event>
<event>
 8    1  0.2107254E+004  0.1043930E+01  0.7957747E-01            NaN
         13   -1    0    0    0    0  0.00000000000E+00  0.00000000000E+00  0.74505805969E-08  0.10566000000E+00  0.10566000000E+00 0. -1.
     999900   -1    0    0    0    0 -0.00000000000E+00 -0.00000000000E+00 -0.74505805969E-08  0.93827000000E+00  0.93827000000E+00 0. -1.
     999902    2    1    2    0    0 -0.82920136279E-02 -0.10996129098E-01 -0.12361532047E-02  0.10301024760E+01  0.10300096653E+01 0.  0.
     999903    2    3    3    0    0 -0.38974797061E-01  0.65653595372E-01 -0.10911008259E+00  0.13967931924E+00  0.42141104738E-01 0.  0.
         14    1    1    2    0    0  0.82920136279E-02  0.10996129098E-01  0.12361532047E-02  0.13827523997E-01  0.00000000000E+00 0.  1.
     999901    1    3    3    0    0  0.30682783433E-01 -0.76649724470E-01  0.10787392939E+00  0.89042315676E+00  0.88000000000E+00 0.  1.
        -11    1    4    4    0    0 -0.44453126426E-01  0.59910532100E-01 -0.79511072468E-01  0.10903038142E+00  0.51100000000E-03 0.  1.
         11    1    4    4    0    0  0.54783293649E-02  0.57430632720E-02 -0.29599010124E-01  0.30648937823E-01  0.51100000000E-03 0. -1.
</event>
<event>
 8    1  0.2107254E+004  0.1043930E+01  0.7957747E-01            NaN
         13   -1    0    0    0    0  0.00000000000E+00  0.00000000000E+00  0.74505805969E-08  0.10566000000E+00  0.10566000000E+00 0.  1.
     999900   -1    0    0    0    0 -0.00000000000E+00 -0.00000000000E+00 -0.74505805969E-08  0.93827000000E+00  0.93827000000E+00 0. -1.
     999902    2    1    2    0    0  0.29160892767E-02 -0.13573913864E-01  0.42846844453E-02  0.10294002638E+01  0.10292977168E+01 0.  0.
     999903    2    3    3    0    0 -0.20285037437E-01 -0.32183996711E-01  0.12744002146E+00  0.14032666473E+00  0.44758478267E-01 0.  0.
         14    1    1    2    0    0 -0.29160892767E-02  0.13573913864E-01 -0.42846844453E-02  0.14529736235E-01  0.00000000000E+00 0. -1.
     999901    1    3    3    0    0  0.23201126714E-01  0.18610082847E-01 -0.12315533701E+00  0.88907359903E+00  0.88000000000E+00 0. -1.
        -11    1    4    4    0    0  0.10307676307E-01 -0.69113751397E-02  0.87915504123E-02  0.15217351176E-01  0.51100000000E-03 0. -1.
         11    1    4    4    0    0 -0.30592713744E-01 -0.25272621572E-01  0.11864847105E+00  0.12510931355E+00  0.51100000000E-03 0.  1.
</event>
<event>
 8    1  0.2107254E+004  0.1043930E+01  0.7957747E-01            NaN
         13   -1    0    0    0    0  0.00000000000E+00  0.00000000000E+00  0.74505805969E-08  0.10566000000E+00  0.10566000000E+00 0.  1.
     999900   -1    0    0    0    0 -0.00000000000E+00 -0.00000000000E+00 -0.74505805969E-08  0.93827000000E+00  0.93827000000E+00 0. -1.
     999902    2    1    2    0    0 -0.12247641765E-01 -0.47508946703E-03  0.28685486435E-02  0.10313419497E+01  0.10312651251E+01 0.  0.
     999903    2    3    3    0    0  0.86553466132E-01 -0.27712165542E-01  0.95366458144E-01  0.14057858018E+00  0.49072489725E-01 0.  0.
         14    1    1    2    0    0  0.12247641765E-01  0.47508946703E-03 -0.28685486435E-02  0.12588050290E-01  0.00000000000E+00 0. -1.
     999901    1    3    3    0    0 -0.98801107897E-01  0.27237076075E-01 -0.92497909500E-01  0.89076336953E+00  0.88000000000E+00 0. -1.
        -11    1    4    4    0    0  0.79969370435E-01 -0.38046611252E-01  0.71790452700E-01  0.11400339932E+00  0.51100000000E-03 0.  1.
         11    1    4    4    0    0  0.65840956974E-02  0.10334445710E-01  0.23576005444E-01  0.26575180864E-01  0.51100000000E-03 0. -1.
</event>
<event>
 8    1  0.2107254E+004  0.1043930E+01  0.7957747E-01            NaN
         13   -1    0    0    0    0  0.00000000000E+00  0.00000000000E+00  0.74505805969E-08  0.10566000000E+00  0.10566000000E+00 0. -1.
     999900   -1    0    0    0    0 -0.00000000000E+00 -0.00000000000E+00 -0.74505805969E-08  0.93827000000E+00  0.93827000000E+00 0. -1.
     999902    2    1    2    0    0 -0.20986069102E-02 -0.84751178876E-03  0.13691571547E-01  0.10300526242E+01  0.10299591386E+01 0.  0.
     999903    2    3    3    0    0  0.95569992594E-01  0.82335224375E-01  0.41350617877E-01  0.14032033540E+00  0.45466584103E-01 0.  0.
         14    1    1    2    0    0  0.20986069102E-02  0.84751178876E-03 -0.13691571547E-01  0.13877375783E-01  0.00000000000E+00 0.  1.
     999901    1    3    3    0    0 -0.97668599504E-01 -0.83182736164E-01 -0.27659046330E-01  0.88973228882E+00  0.88000000000E+00 0. -1.
        -11    1    4    4    0    0  0.42914164648E-01  0.26187735289E-01  0.38441548635E-01  0.63288520203E-01  0.51100000000E-03 0.  1.
         11    1    4    4    0    0  0.52655827945E-01  0.56147489085E-01  0.29090692415E-02  0.77031815194E-01  0.51100000000E-03 0. -1.
</event>
<event>
 8    1  0.2107254E+004  0.1043930E+01  0.7957747E-01            NaN
         13   -1    0    0    0    0  0.00000000000E+00  0.00000000000E+00  0.74505805969E-08  0.10566000000E+00  0.10566000000E+00 0.  1.
     999900   -1    0    0    0    0 -0.00000000000E+00 -0.00000000000E+00 -0.74505805969E-08  0.93827000000E+00  0.93827000000E+00 0. -1.
     999902    2    1    2    0    0 -0.27750794090E-02 -0.15193029991E-03  0.12020724114E-01  0.10315921737E+01  0.10315183910E+01 0.  0.
     999903    2    3    3    0    0 -0.19629206929E-01 -0.12037260035E+00 -0.54373944272E-01  0.14078056453E+00  0.44584446330E-01 0.  0.
         14    1    1    2    0    0  0.27750794090E-02  0.15193029991E-03 -0.12020724114E-01  0.12337826257E-01  0.00000000000E+00 0. -1.
     999901    1    3    3    0    0  0.16854127520E-01  0.12022067005E+00  0.66394668386E-01  0.89081160921E+00  0.88000000000E+00 0.  1.
        -11    1    4    4    0    0  0.10361030179E-01 -0.19298604488E-01 -0.20597304164E-01  0.30071533738E-01  0.51100000000E-03 0.  1.
         11    1    4    4    0    0 -0.29990237108E-01 -0.10107399586E+00 -0.33776640108E-01  0.11070903079E+00  0.51100000000E-03 0. -1.
</event>
<event>
 8    1  0.2107254E+004  0.1043930E+01  0.7957747E-01            NaN
         13   -1    0    0    0    0  0.00000000000E+00  0.00000000000E+00  0.74505805969E-08  0.10566000000E+00  0.10566000000E+00 0.  1.
     999900   -1    0    0    0    0 -0.00000000000E+00 -0.00000000000E+00 -0.74505805969E-08  0.93827000000E+00  0.93827000000E+00 0. -1.
     999902    2    1    2    0    0  0.39258819551E-02 -0.59180099465E-03 -0.12591060435E-01  0.10307278191E+01  0.10306432649E+01 0.  0.
     999903    2    3    3    0    0  0.72818487944E-01  0.60560335009E-02  0.10930056378E+00  0.13963413552E+00  0.47030530849E-01 0.  0.
         14    1    1    2    0    0 -0.39258819551E-02  0.59180099465E-03  0.12591060435E-01  0.13202180897E-01  0.00000000000E+00 0.  1.
     999901    1    3    3    0    0 -0.68892605988E-01 -0.66478344955E-02 -0.12189162422E+00  0.89109368358E+00  0.88000000000E+00 0. -1.
        -11    1    4    4    0    0  0.70110211892E-01  0.18742770351E-01  0.82659760897E-01  0.10999832019E+00  0.51100000000E-03 0.  1.
         11    1    4    4    0    0  0.27082760514E-02 -0.12686736851E-01  0.26640802885E-01  0.29635815332E-01  0.51100000000E-03 0. -1.
</event>
<event>
 8    1  0.2163244E+004  0.1043930E+01  0.7957747E-01            NaN
         13   -1    0    0    0    0  0.00000000000E+00  0.00000000000E+00  0.74505805969E-08  0.10566000000E+00  0.10566000000E+00 0. -1.
     999900   -1    0    0    0    0 -0.00000000000E+00 -0.00000000000E+00 -0.74505805969E-08  0.93827000000E+00  0.93827000000E+00 0. -1.
     999902    2    1    2    0    0 -0.11902500328E-01  0.90472844400E-03 -0.77723635346E-02  0.10296857842E+01  0.10295872555E+01 0.  0.
     999903    2    3    3    0    0  0.12089905656E+00 -0.30569753860E-01  0.34140921021E-01  0.13817940739E+00  0.48752993873E-01 0.  0.
         14    1    1    2    0    0  0.11902500328E-01 -0.90472844400E-03  0.77723635346E-02  0.14244215757E-01  0.00000000000E+00 0. -1.
     999901    1    3    3    0    0 -0.13280155688E+00  0.31474482304E-01 -0.41913284555E-01  0.89150637685E+00  0.88000000000E+00 0. -1.
        -11    1    4    4    0    0  0.54178961229E-01 -0.66592633734E-02  0.39071990330E-01  0.67131119296E-01  0.51100000000E-03 0.  1.
         11    1    4    4    0    0  0.66720095326E-01 -0.23910490486E-01 -0.49310693095E-02  0.71048288095E-01  0.51100000000E-03 0. -1.
</event>
<event>
 8    1  0.2107254E+004  0.1043930E+01  0.7957747E-01            NaN
         13   -1    0    0    0    0  0.00000000000E+00  0.00000000000E+00  0.74505805969E-08  0.10566000000E+00  0.10566000000E+00 0. -1.
     999900   -1    0    0    0    0 -0.00000000000E+00 -0.00000000000E+00 -0.74505805969E-08  0.93827000000E+00  0.93827000000E+00 0. -1.
     999902    2    1    2    0    0 -0.26284184721E-02 -0.12435174042E-01 -0.23085088519E-01  0.10175773256E+01  0.10172360346E+01 0.  0.
     999903    2    3    3    0    0 -0.11127727916E+00  0.46197943980E-01 -0.10910369007E-02  0.12868691852E+00  0.45191257460E-01 0.  0.
         14    1    1    2    0    0  0.26284184721E-02  0.12435174042E-01  0.23085088519E-01  0.26352674419E-01  0.00000000000E+00 0. -1.
     999901    1    3    3    0    0  0.10864886069E+00 -0.58633118022E-01 -0.21994051618E-01  0.88889040706E+00  0.88000000000E+00 0. -1.
        -11    1    4    4    0    0 -0.58615164649E-01  0.17146751607E-01 -0.22141750498E-01  0.64963580979E-01  0.51100000000E-03 0.  1.
         11    1    4    4    0    0 -0.52662114513E-01  0.29051192373E-01  0.21050713598E-01  0.63723337540E-01  0.51100000000E-03 0. -1.
</event>
<event>
 8    1  0.2107254E+004  0.1043930E+01  0.7957747E-01            NaN
         13   -1    0    0    0    0  0.00000000000E+00  0.00000000000E+00  0.74505805969E-08  0.10566000000E+00  0.10566000000E+00 0. -1.
     999900   -1    0    0    0    0 -0.00000000000E+00 -0.00000000000E+00 -0.74505805969E-08  0.93827000000E+00  0.93827000000E+00 0. -1.
     999902    2    1    2    0    0 -0.60136290408E-02  0.86441549368E-02  0.92044060876E-02  0.10299440699E+01  0.10298491059E+01 0.  0.
     999903    2    3    3    0    0  0.67822655220E-01  0.60048986697E-01  0.98207766289E-01  0.14089072409E+00  0.44717305494E-01 0.  0.
         14    1    1    2    0    0  0.60136290408E-02 -0.86441549368E-02 -0.92044060876E-02  0.13985930081E-01  0.00000000000E+00 0.  1.
     999901    1    3    3    0    0 -0.73836284261E-01 -0.51404831761E-01 -0.89003360202E-01  0.88905334583E+00  0.88000000000E+00 0. -1.
        -11    1    4    4    0    0  0.60488482199E-01  0.44634452019E-01  0.51407617926E-01  0.91071922608E-01  0.51100000000E-03 0.  1.
         11    1    4    4    0    0  0.73341730212E-02  0.15414534678E-01  0.46800148363E-01  0.49818801482E-01  0.51100000000E-03 0. -1.
</event>
<event>
 8    1  0.2107254E+004  0.1043930E+01  0.7957747E-01            NaN
         13   -1    0    0    0    0  0.00000000000E+00  0.00000000000E+00  0.74505805969E-08  0.10566000000E+00  0.10566000000E+00 0.  1.
     999900   -1    0    0    0    0 -0.00000000000E+00 -0.00000000000E+00 -0.74505805969E-08  0.93827000000E+00  0.93827000000E+00 0.  1.
     999902    2    1    2    0    0 -0.12136135225E-01 -0.10467665316E-01  0.58496675422E-02  0.10268690385E+01  0.10267272987E+01 0.  0.
     999903    2    3    3    0    0  0.95396285036E-01 -0.84153745583E-01  0.60196843851E-02  0.13726638076E+00  0.51220294738E-01 0.  0.
         14    1    1    2    0    0  0.12136135225E-01  0.10467665316E-01 -0.58496675422E-02  0.17060961453E-01  0.00000000000E+00 0. -1.
     999901    1    3    3    0    0 -0.10753242026E+00  0.73686080267E-01 -0.17001684286E-03  0.88960265778E+00  0.88000000000E+00 0. -1.
        -11    1    4    4    0    0  0.17083778980E-01 -0.25456942984E-01 -0.19228526844E-01  0.36192662460E-01  0.51100000000E-03 0. -1.
         11    1    4    4    0    0  0.78312506056E-01 -0.58696802599E-01  0.25248211229E-01  0.10107371830E+00  0.51100000000E-03 0.  1.
</event>
<event>
 8    1  0.2107254E+004  0.1043930E+01  0.7957747E-01            NaN
         13   -1    0    0    0    0  0.00000000000E+00  0.00000000000E+00  0.74505805969E-08  0.10566000000E+00  0.10566000000E+00 0. -1.
     999900   -1    0    0    0    0 -0.00000000000E+00 -0.00000000000E+00 -0.74505805969E-08  0.93827000000E+00  0.93827000000E+00 0. -1.
     999902    2    1    2    0    0  0.47410992487E-02  0.42814103773E-02 -0.12826594087E-01  0.10296006590E+01  0.10295009408E+01 0.  0.
     999903    2    3    3    0    0 -0.88638669736E-01 -0.69467002953E-01  0.65842894863E-01  0.13811454123E+00  0.45363657525E-01 0.  0.
         14    1    1    2    0    0 -0.47410992487E-02 -0.42814103773E-02  0.12826594087E-01  0.14329340975E-01  0.00000000000E+00 0. -1.
     999901    1    3    3    0    0  0.93379768985E-01  0.73748413330E-01 -0.78669488951E-01  0.89148611779E+00  0.88000000000E+00 0. -1.
        -11    1    4    4    0    0 -0.24810841283E-01 -0.16214792568E-01  0.42418912645E-01  0.51750580810E-01  0.51100000000E-03 0. -1.
         11    1    4    4    0    0 -0.63827828453E-01 -0.53252210385E-01  0.23423982219E-01  0.86363960423E-01  0.51100000000E-03 0.  1.
</event>
<event>
 8    1  0.2107254E+004  0.1043930E+01  0.7957747E-01            NaN
         13   -1    0    0    0    0  0.00000000000E+00  0.00000000000E+00  0.74505805969E-08  0.10566000000E+00  0.10566000000E+00 0.  1.
     999900   -1    0    0    0    0 -0.00000000000E+00 -0.00000000000E+00 -0.74505805969E-08  0.93827000000E+00  0.93827000000E+00 0.  1.
     999902    2    1    2    0    0 -0.10167431808E-01 -0.92569349002E-02  0.13560907279E-02  0.10301131083E+01  0.10300204413E+01 0.  0.
     999903    2    3    3    0    0  0.24754286100E-01  0.11205768484E+00 -0.64031892651E-01  0.13870279219E+00  0.44369830663E-01 0.  0.
         14    1    1    2    0    0  0.10167431808E-01  0.92569349002E-02 -0.13560907279E-02  0.13816891668E-01  0.00000000000E+00 0.  1.
     999901    1    3    3    0    0 -0.34921717907E-01 -0.12131461974E+00  0.65387983379E-01  0.89141031614E+00  0.88000000000E+00 0. -1.
        -11    1    4    4    0    0  0.35635886977E-03  0.57828002155E-01 -0.10677753266E-01  0.58808845939E-01  0.51100000000E-03 0.  1.
         11    1    4    4    0    0  0.24397927230E-01  0.54229682689E-01 -0.53354139385E-01  0.79893946255E-01  0.51100000000E-03 0. -1.
</event>
<event>
 8    1  0.2107254E+004  0.1043930E+01  0.7957747E-01            NaN
         13   -1    0    0    0    0  0.00000000000E+00  0.00000000000E+00  0.74505805969E-08  0.10566000000E+00  0.10566000000E+00 0.  1.
     999900   -1    0    0    0    0 -0.00000000000E+00 -0.00000000000E+00 -0.74505805969E-08  0.93827000000E+00  0.93827000000E+00 0.  1.
     999902    2    1    2    0    0 -0.68150694600E-02 -0.65110850523E-02  0.10769863987E-01  0.10296181388E+01  0.10295186654E+01 0.  0.
     999903    2    3    3    0    0  0.60053191339E-01 -0.66682616096E-01  0.98915609874E-01  0.14065151966E+00  0.44108899633E-01 0.  0.
         14    1    1    2    0    0  0.68150694600E-02  0.65110850523E-02 -0.10769863987E-01  0.14311861186E-01  0.00000000000E+00 0. -1.
     999901    1    3    3    0    0 -0.66868260799E-01  0.60171531044E-01 -0.88145745887E-01  0.88896661915E+00  0.88000000000E+00 0.  1.
        -11    1    4    4    0    0  0.63563478170E-01 -0.48944851696E-01  0.89727494366E-01  0.12036277926E+00  0.51100000000E-03 0. -1.
         11    1    4    4    0    0 -0.35102868307E-02 -0.17737764400E-01  0.91881155084E-02  0.20288740403E-01  0.51100000000E-03 0.  1.
</event>
<event>
 8    1  0.2107254E+004  0.1043930E+01  0.7957747E-01            NaN
         13   -1    0    0    0    0  0.00000000000E+00  0.00000000000E+00  0.74505805969E-08  0.10566000000E+00  0.10566000000E+00 0. -1.
     999900   -1    0    0    0    0 -0.00000000000E+00 -0.00000000000E+00 -0.74505805969E-08  0.93827000000E+00  0.93827000000E+00 0.  1.
     999902    2    1    2    0    0  0.68364917604E-02 -0.12195676880E-01  0.23431250445E-02  0.10297538796E+01  0.10296562971E+01 0.  0.
     999903    2    3    3    0    0  0.91245194879E-01 -0.70277854958E-01 -0.68220213541E-01  0.14100332219E+00  0.44308880004E-01 0.  0.
         14    1    1    2    0    0 -0.68364917604E-02  0.12195676880E-01 -0.23431250445E-02  0.14176120384E-01  0.00000000000E+00 0. -1.
     999901    1    3    3    0    0 -0.84408703119E-01  0.58082178077E-01  0.70563338586E-01  0.88875055743E+00  0.88000000000E+00 0. -1.
        -11    1    4    4    0    0  0.71890909570E-01 -0.62556880105E-01 -0.34481925597E-01  0.10134559902E+00  0.51100000000E-03 0. -1.
         11    1    4    4    0    0  0.19354285309E-01 -0.77209748522E-02 -0.33738287944E-01  0.39657723168E-01  0.51100000000E-03 0.  1.
</event>
<event>
 8    1  0.2107254E+004  0.1043930E+01  0.7957747E-01            NaN
         13   -1    0    0    0    0  0.00000000000E+00  0.00000000000E+00  0.74505805969E-08  0.10566000000E+00  0.10566000000E+00 0. -1.
     999900   -1    0    0    0    0 -0.00000000000E+00 -0.00000000000E+00 -0.74505805969E-08  0.93827000000E+00  0.93827000000E+00 0. -1.
     999902    2    1    2    0    0  0.89707521176E-02  0.10434822279E-01  0.28028190718E-02  0.10298866491E+01  0.10297908983E+01 0.  0.
     999903    2    3    3    0    0  0.12366610656E+00  0.50871399832E-01 -0.11771359690E-01  0.14140336405E+00  0.44442560961E-01 0.  0.
         14    1    1    2    0    0 -0.89707521176E-02 -0.10434822279E-01 -0.28028190718E-02  0.14043350893E-01  0.00000000000E+00 0.  1.
     999901    1    3    3    0    0 -0.11469535444E+00 -0.40436577553E-01  0.14574178762E-01  0.88848328505E+00  0.88000000000E+00 0.  1.
        -11    1    4    4    0    0  0.46094652981E-01  0.32647367691E-01 -0.22884837723E-01  0.60947063663E-01  0.51100000000E-03 0. -1.
         11    1    4    4    0    0  0.77571453576E-01  0.18224032141E-01  0.11113478033E-01  0.80456300389E-01  0.51100000000E-03 0.  1.
</event>
<event>
 8    1  0.2317615E+004  0.1043930E+01  0.7957747E-01            NaN
         13   -1    0    0    0    0  0.00000000000E+00  0.00000000000E+00  0.74505805969E-08  0.10566000000E+00  0.10566000000E+00 0. -1.
     999900   -1    0    0    0    0 -0.00000000000E+00 -0.00000000000E+00 -0.74505805969E-08  0.93827000000E+00  0.93827000000E+00 0. -1.
     999902    2    1    2    0    0 -0.67748140570E-02 -0.11206316280E-01  0.44104627237E-02  0.10301121922E+01  0.10300195128E+01 0.  0.
     999903    2    3    3    0    0 -0.34005947096E-01 -0.10877505612E+00  0.71315201919E-01  0.14177811221E+00  0.45019526939E-01 0.  0.
         14    1    1    2    0    0  0.67748140570E-02  0.11206316280E-01 -0.44104627237E-02  0.13817807768E-01  0.00000000000E+00 0. -1.
     999901    1    3    3    0    0  0.27231133039E-01  0.97568739839E-01 -0.66904739195E-01  0.88833408002E+00  0.88000000000E+00 0. -1.
        -11    1    4    4    0    0 -0.41426463216E-01 -0.58421749714E-01  0.42818632072E-01  0.83444287209E-01  0.51100000000E-03 0.  1.
         11    1    4    4    0    0  0.74205161198E-02 -0.50353306404E-01  0.28496569847E-01  0.58333825002E-01  0.51100000000E-03 0. -1.
</event>
<event>
 8    1  0.2107254E+004  0.1043930E+01  0.7957747E-01            NaN
         13   -1    0    0    0    0  0.00000000000E+00  0.00000000000E+00  0.74505805969E-08  0.10566000000E+00  0.10566000000E+00 0. -1.
     999900   -1    0    0    0    0 -0.00000000000E+00 -0.00000000000E+00 -0.74505805969E-08  0.93827000000E+00  0.93827000000E+00 0. -1.
     999902    2    1    2    0    0 -0.42371852792E-02  0.11645974664E-01 -0.58290289065E-02  0.10302347438E+01  0.10301437119E+01 0.  0.
     999903    2    3    3    0    0 -0.80241225721E-01  0.89970261962E-01 -0.60026097114E-01  0.14183808105E+00  0.44515239625E-01 0.  0.
         14    1    1    2    0    0  0.42371852792E-02 -0.11645974664E-01  0.58290289065E-02  0.13695256221E-01  0.00000000000E+00 0. -1.
     999901    1    3    3    0    0  0.76004040442E-01 -0.78324287298E-01  0.54197068208E-01  0.88839666273E+00  0.88000000000E+00 0. -1.
        -11    1    4    4    0    0 -0.41784545678E-01  0.25574929723E-01 -0.42391335406E-01  0.64786663182E-01  0.51100000000E-03 0. -1.
         11    1    4    4    0    0 -0.38456680043E-01  0.64395332239E-01 -0.17634761708E-01  0.77051417869E-01  0.51100000000E-03 0.  1.
</event>
<event>
 8    1  0.2107254E+004  0.1043930E+01  0.7957747E-01            NaN
         13   -1    0    0    0    0  0.00000000000E+00  0.00000000000E+00  0.74505805969E-08  0.10566000000E+00  0.10566000000E+00 0. -1.
     999900   -1    0    0    0    0 -0.00000000000E+00 -0.00000000000E+00 -0.74505805969E-08  0.93827000000E+00  0.93827000000E+00 0. -1.
     999902    2    1    2    0    0 -0.20360165853E-02  0.12774087592E-01 -0.41757653518E-02  0.10303373662E+01  0.10302477025E+01 0.  0.
     999903    2    3    3    0    0  0.96357654035E-01  0.91514367809E-01  0.17418901111E-01  0.14109742346E+00  0.44106550355E-01 0.  0.
         14    1    1    2    0    0  0.20360165853E-02 -0.12774087592E-01  0.41757653518E-02  0.13592633800E-01  0.00000000000E+00 0.  1.
     999901    1    3    3    0    0 -0.98393670620E-01 -0.78740280217E-01 -0.21594666462E-01  0.88923994274E+00  0.88000000000E+00 0. -1.
        -11    1    4    4    0    0  0.77176193089E-01  0.44443099154E-01  0.82013623379E-02  0.89436442837E-01  0.51100000000E-03 0. -1.
         11    1    4    4    0    0  0.19181460946E-01  0.47071268655E-01  0.92175387728E-02  0.51660980622E-01  0.51100000000E-03 0.  1.
</event>
<event>
 7    1  0.2469213E+004  0.1043930E+01  0.7957747E-01            NaN
         13   -1    0    0    0    0  0.00000000000E+00  0.00000000000E+00  0.74505805969E-08  0.10566000000E+00  0.10566000000E+00 0.  1.
     999900   -1    0    0    0    0 -0.00000000000E+00 -0.00000000000E+00 -0.74505805969E-08  0.93827000000E+00  0.93827000000E+00 0.  1.
     999903    2    1    2    0    0  0.84431860820E-01 -0.21595389071E-02 -0.10171161006E-01  0.97058395635E-01  0.46727688977E-01 0.  0.
         14    1    1    2    0    0 -0.34072631665E-01  0.53991789889E-01 -0.43471534209E-03  0.63845489907E-01  0.00000000000E+00 0.  1.
     999901    1    1    2    0    0 -0.50359229155E-01 -0.51832250982E-01  0.10605876348E-01  0.88302611446E+00  0.88000000000E+00 0. -1.
        -11    1    3    3    0    0  0.52379983947E-01  0.18461526772E-01  0.55720026536E-02  0.55819342738E-01  0.51100000000E-03 0.  1.
         11    1    3    3    0    0  0.32051876873E-01 -0.20621065680E-01 -0.15743163660E-01  0.41239052897E-01  0.51100000000E-03 0. -1.
</event>
<event>
 8    1  0.2355894E+004  0.1043930E+01  0.7957747E-01            NaN
         13   -1    0    0    0    0  0.00000000000E+00  0.00000000000E+00  0.74505805969E-08  0.10566000000E+00  0.10566000000E+00 0. -1.
     999900   -1    0    0    0    0 -0.00000000000E+00 -0.00000000000E+00 -0.74505805969E-08  0.93827000000E+00  0.93827000000E+00 0. -1.
     999902    2    1    2    0    0 -0.70141851907E-02  0.77734154009E-02  0.10551023103E-01  0.10290656511E+01  0.10289582913E+01 0.  0.
     999903    2    3    3    0    0  0.48766367997E-02 -0.11900489645E+00 -0.52852990008E-01  0.13764307962E+00  0.44342212946E-01 0.  0.
         14    1    1    2    0    0  0.70141851907E-02 -0.77734154009E-02 -0.10551023103E-01  0.14864348940E-01  0.00000000000E+00 0.  1.
     999901    1    3    3    0    0 -0.11890821990E-01  0.12677831185E+00  0.63404013110E-01  0.89142257144E+00  0.88000000000E+00 0.  1.
        -11    1    4    4    0    0 -0.17670696217E-01 -0.48775407499E-01 -0.11720167789E-01  0.53187567490E-01  0.51100000000E-03 0. -1.
         11    1    4    4    0    0  0.22547333017E-01 -0.70229488947E-01 -0.41132822218E-01  0.84455512126E-01  0.51100000000E-03 0.  1.
</event>
<event>
 7    1  0.2107254E+004  0.1043930E+01  0.7957747E-01            NaN
         13   -1    0    0    0    0  0.00000000000E+00  0.00000000000E+00  0.74505805969E-08  0.10566000000E+00  0.10566000000E+00 0.  1.
     999900   -1    0    0    0    0 -0.00000000000E+00 -0.00000000000E+00 -0.74505805969E-08  0.93827000000E+00  0.93827000000E+00 0. -1.
     999903    2    1    2    0    0  0.51444535324E-01  0.24073934406E-01  0.43547838186E-01  0.84292899866E-01  0.44528465330E-01 0.  0.
         14    1    1    2    0    0 -0.49622337997E-01  0.52435301879E-01 -0.24072938341E-01  0.76100878259E-01  0.00000000000E+00 0. -1.
     999901    1    1    2    0    0 -0.18221973278E-02 -0.76509236285E-01 -0.19474899845E-01  0.88353622187E+00  0.88000000000E+00 0. -1.
        -11    1    3    3    0    0  0.27181123692E-01  0.25481517580E-01  0.34746031262E-02  0.37422656389E-01  0.51100000000E-03 0. -1.
         11    1    3    3    0    0  0.24263411632E-01 -0.14075831737E-02  0.40073235060E-01  0.46870243477E-01  0.51100000000E-03 0.  1.
</event>
<event>
 8    1  0.2107254E+004  0.1043930E+01  0.7957747E-01            NaN
         13   -1    0    0    0    0  0.00000000000E+00  0.00000000000E+00  0.74505805969E-08  0.10566000000E+00  0.10566000000E+00 0. -1.
     999900   -1    0    0    0    0 -0.00000000000E+00 -0.00000000000E+00 -0.74505805969E-08  0.93827000000E+00  0.93827000000E+00 0. -1.
     999902    2    1    2    0    0  0.11027117207E-01  0.38416168729E-02 -0.92079699370E-02  0.10290591545E+01  0.10289517003E+01 0.  0.
     999903    2    3    3    0    0  0.10697010260E+00 -0.34420180006E-01  0.69510285043E-01  0.13952805042E+00  0.44822377059E-01 0.  0.
         14    1    1    2    0    0 -0.11027117207E-01 -0.38416168729E-02  0.92079699370E-02  0.14870845452E-01  0.00000000000E+00 0. -1.
     999901    1    3    3    0    0 -0.95942985392E-01  0.38261796879E-01 -0.78718254980E-01  0.88953110413E+00  0.88000000000E+00 0. -1.
        -11    1    4    4    0    0  0.25130609262E-01  0.10898892971E-01  0.14390794107E-01  0.30946558224E-01  0.51100000000E-03 0. -1.
         11    1    4    4    0    0  0.81839493337E-01 -0.45319072978E-01  0.55119490936E-01  0.10858149219E+00  0.51100000000E-03 0.  1.
</event>
<event>
 8    1  0.2107254E+004  0.1043930E+01  0.7957747E-01            NaN
         13   -1    0    0    0    0  0.00000000000E+00  0.00000000000E+00  0.74505805969E-08  0.10566000000E+00  0.10566000000E+00 0.  1.
     999900   -1    0    0    0    0 -0.00000000000E+00 -0.00000000000E+00 -0.74505805969E-08  0.93827000000E+00  0.93827000000E+00 0.  1.
     999902    2    1    2    0    0 -0.12926702311E-01 -0.29912246436E-02 -0.60720201541E-02  0.10293383419E+01  0.10292349127E+01 0.  0.
     999903    2    3    3    0    0  0.37434218949E-01  0.60471712660E-01 -0.11107244149E+00  0.13940078494E+00  0.45136933917E-01 0.  0.
         14    1    1    2    0    0  0.12926702311E-01  0.29912246436E-02  0.60720201541E-02  0.14591658105E-01  0.00000000000E+00 0.  1.
     999901    1    3    3    0    0 -0.50360921259E-01 -0.63462937303E-01  0.10500042133E+00  0.88993755696E+00  0.88000000000E+00 0. -1.
        -11    1    4    4    0    0  0.38832860300E-01  0.25524060765E-01 -0.80464083324E-01  0.92920388199E-01  0.51100000000E-03 0.  1.
         11    1    4    4    0    0 -0.13986413511E-02  0.34947651895E-01 -0.30608358163E-01  0.46480396739E-01  0.51100000000E-03 0. -1.
</event>
<event>
 8    1  0.2107254E+004  0.1043930E+01  0.7957747E-01            NaN
         13   -1    0    0    0    0  0.00000000000E+00  0.00000000000E+00  0.74505805969E-08  0.10566000000E+00  0.10566000000E+00 0. -1.
     999900   -1    0    0    0    0 -0.00000000000E+00 -0.00000000000E+00 -0.74505805969E-08  0.93827000000E+00  0.93827000000E+00 0.  1.
     999902    2    1    2    0    0 -0.83300245711E-02  0.10814743697E-01 -0.34034672468E-02  0.10298611841E+01  0.10297650834E+01 0.  0.
     999903    2    3    3    0    0  0.11533978484E+00  0.52631194068E-02 -0.63158535804E-01  0.13918968997E+00  0.45318900651E-01 0.  0.
         14    1    1    2    0    0  0.83300245711E-02 -0.10814743697E-01  0.34034672468E-02  0.14068815867E-01  0.00000000000E+00 0. -1.
     999901    1    3    3    0    0 -0.12366980941E+00  0.55516242904E-02  0.59755068557E-01  0.89067149416E+00  0.88000000000E+00 0. -1.
        -11    1    4    4    0    0  0.70853670634E-01  0.24050980668E-01 -0.30038857836E-01  0.80630555093E-01  0.51100000000E-03 0. -1.
         11    1    4    4    0    0  0.44486114208E-01 -0.18787861262E-01 -0.33119677968E-01  0.58559134879E-01  0.51100000000E-03 0.  1.
</event>
<event>
 8    1  0.2107254E+004  0.1043930E+01  0.7957747E-01            NaN
         13   -1    0    0    0    0  0.00000000000E+00  0.00000000000E+00  0.74505805969E-08  0.10566000000E+00  0.10566000000E+00 0.  1.
     999900   -1    0    0    0    0 -0.00000000000E+00 -0.00000000000E+00 -0.74505805969E-08  0.93827000000E+00  0.93827000000E+00 0. -1.
     999902    2    1    2    0    0  0.11550990045E-01  0.92460266483E-03 -0.83195855178E-02  0.10296648058E+01  0.10295659846E+01 0.  0.
     999903    2    3    3    0    0 -0.62094503156E-01 -0.10260252881E-01 -0.11658622829E+00  0.13990617251E+00  0.44948730422E-01 0.  0.
         14    1    1    2    0    0 -0.11550990045E-01 -0.92460266483E-03  0.83195855178E-02  0.14265194155E-01  0.00000000000E+00 0. -1.
     999901    1    3    3    0    0  0.73645493201E-01  0.11184855546E-01  0.10826664277E+00  0.88975863334E+00  0.88000000000E+00 0. -1.
        -11    1    4    4    0    0 -0.29980210315E-01 -0.22940580474E-01 -0.35710268339E-01  0.51966985951E-01  0.51100000000E-03 0.  1.
         11    1    4    4    0    0 -0.32114292842E-01  0.12680327593E-01 -0.80875959953E-01  0.87939186555E-01  0.51100000000E-03 0. -1.
</event>
<event>
 8    1  0.2107254E+004  0.1043930E+01  0.7957747E-01            NaN
         13   -1    0    0    0    0  0.00000000000E+00  0.00000000000E+00  0.74505805969E-08  0.10566000000E+00  0.10566000000E+00 0.  1.
     999900   -1    0    0    0    0 -0.00000000000E+00 -0.00000000000E+00 -0.74505805969E-08  0.93827000000E+00  0.93827000000E+00 0. -1.
     999902    2    1    2    0    0  0.66432007007E-03 -0.33762791328E-02  0.14075487490E-01  0.10294400059E+01  0.10293380231E+01 0.  0.
     999903    2    3    3    0    0  0.14322765946E-01  0.26526130594E-01  0.13055384658E+00  0.14115631504E+00  0.44407445206E-01 0.  0.
         14    1    1    2    0    0 -0.66432007007E-03  0.33762791328E-02 -0.14075487490E-01  0.14489994134E-01  0.00000000000E+00 0. -1.
     999901    1    3    3    0    0 -0.13658445876E-01 -0.29902409727E-01 -0.11647835909E+00  0.88828369083E+00  0.88000000000E+00 0. -1.
        -11    1    4    4    0    0 -0.14614678391E-01  0.38643567542E-03  0.33077797460E-01  0.36168217578E-01  0.51100000000E-03 0.  1.
         11    1    4    4    0    0  0.28937444337E-01  0.26139694919E-01  0.97476049122E-01  0.10498809746E+00  0.51100000000E-03 0. -1.
</event>
<event>
 8    1  0.2107254E+004  0.1043930E+01  0.7957747E-01            NaN
         13   -1    0    0    0    0  0.00000000000E+00  0.00000000000E+00  0.74505805969E-08  0.10566000000E+00  0.10566000000E+00 0.  1.
     999900   -1    0    0    0    0 -0.00000000000E+00 -0.00000000000E+00 -0.74505805969E-08  0.93827000000E+00  0.93827000000E+00 0. -1.
     999902    2    1    2    0    0 -0.31776473739E-02 -0.52120428607E-02  0.12082769712E-01  0.10303927862E+01  0.10303038570E+01 0.  0.
     999903    2    3    3    0    0 -0.64580797778E-01 -0.92284576351E-01 -0.71156112581E-01  0.14006661872E+00  0.43224331672E-01 0.  0.
         14    1    1    2    0    0  0.31776473739E-02  0.52120428607E-02 -0.12082769712E-01  0.13537213802E-01  0.00000000000E+00 0. -1.
     999901    1    3    3    0    0  0.61403150404E-01  0.87072533490E-01  0.83238882293E-01  0.89032616748E+00  0.88000000000E+00 0.  1.
        -11    1    4    4    0    0 -0.56161899730E-01 -0.59773540643E-01 -0.30920912441E-01  0.87655000368E-01  0.51100000000E-03 0.  1.
         11    1    4    4    0    0 -0.84188980476E-02 -0.32511035708E-01 -0.40235200140E-01  0.52411618354E-01  0.51100000000E-03 0. -1.
</event>
<event>
 8    1  0.2107254E+004  0.1043930E+01  0.7957747E-01            NaN
         13   -1    0    0    0    0  0.00000000000E+00  0.00000000000E+00  0.74505805969E-08  0.10566000000E+00  0.10566000000E+00 0. -1.
     999900   -1    0    0    0    0 -0.00000000000E+00 -0.00000000000E+00 -0.74505805969E-08  0.93827000000E+00  0.93827000000E+00 0. -1.
     999902    2    1    2    0    0  0.68812263675E-02 -0.70681398173E-02 -0.83913927714E-02  0.10309791178E+01  0.10308977719E+01 0.  0.
     999903    2    3    3    0    0  0.99866833668E-01  0.48411935156E-01  0.73463692964E-01  0.14057212270E+00  0.45238341746E-01 0.  0.
         14    1    1    2    0    0 -0.68812263675E-02  0.70681398173E-02  0.83913927714E-02  0.12950882188E-01  0.00000000000E+00 0. -1.
     999901    1    3    3    0    0 -0.92985607301E-01 -0.55480074973E-01 -0.81855085736E-01  0.89040699511E+00  0.88000000000E+00 0. -1.
        -11    1    4    4    0    0  0.21296943326E-01  0.24820423309E-01  0.40749041895E-01  0.52252834800E-01  0.51100000000E-03 0. -1.
         11    1    4    4    0    0  0.78569890342E-01  0.23591511847E-01  0.32714651070E-01  0.88319287900E-01  0.51100000000E-03 0.  1.
</event>
<event>
 8    1  0.2107254E+004  0.1043930E+01  0.7957747E-01            NaN
         13   -1    0    0    0    0  0.00000000000E+00  0.00000000000E+00  0.74505805969E-08  0.10566000000E+00  0.10566000000E+00 0.  1.
     999900   -1    0    0    0    0 -0.00000000000E+00 -0.00000000000E+00 -0.74505805969E-08  0.93827000000E+00  0.93827000000E+00 0. -1.
     999902    2    1    2    0    0  0.95964743941E-02 -0.91050704071E-02 -0.55435231099E-02  0.10295868735E+01  0.10294869620E+01 0.  0.
     999903    2    3    3    0    0 -0.64741007664E-01  0.11131739050E+00 -0.20966084992E-01  0.13814675456E+00  0.45409135371E-01 0.  0.
         14    1    1    2    0    0 -0.95964743941E-02  0.91050704071E-02  0.55435231099E-02  0.14343126451E-01  0.00000000000E+00 0.  1.
     999901    1    3    3    0    0  0.74337482058E-01 -0.12042246090E+00  0.15422561882E-01  0.89144011899E+00  0.88000000000E+00 0. -1.
        -11    1    4    4    0    0 -0.48116098481E-01  0.93215214341E-01  0.13998311437E-02  0.10491165696E+00  0.51100000000E-03 0. -1.
         11    1    4    4    0    0 -0.16624909184E-01  0.18102176155E-01 -0.22365916136E-01  0.33235097600E-01  0.51100000000E-03 0.  1.
</event>
<event>
 8    1  0.2107254E+004  0.1043930E+01  0.7957747E-01            NaN
         13   -1    0    0    0    0  0.00000000000E+00  0.00000000000E+00  0.74505805969E-08  0.10566000000E+00  0.10566000000E+00 0. -1.
     999900   -1    0    0    0    0 -0.00000000000E+00 -0.00000000000E+00 -0.74505805969E-08  0.93827000000E+00  0.93827000000E+00 0. -1.
     999902    2    1    2    0    0 -0.37511207153E-02 -0.12143578198E-01 -0.41536954548E-02  0.10305587404E+01  0.10304719922E+01 0.  0.
     999903    2    3    3    0    0  0.98665109747E-01 -0.37807701781E-01 -0.80705482376E-01  0.14094764131E+00  0.46782865551E-01 0.  0.
         14    1    1    2    0    0  0.37511207153E-02  0.12143578198E-01  0.41536954548E-02  0.13371259627E-01  0.00000000000E+00 0. -1.
     999901    1    3    3    0    0 -0.10241623046E+00  0.25664123583E-01  0.76551786921E-01  0.88961109907E+00  0.88000000000E+00 0.  1.
        -11    1    4    4    0    0  0.84201323545E-02 -0.21212199262E-01 -0.23784603926E-01  0.32967021875E-01  0.51100000000E-03 0.  1.
         11    1    4    4    0    0  0.90244977392E-01 -0.16595502520E-01 -0.56920878450E-01  0.10798061943E+00  0.51100000000E-03 0. -1.
</event>
<event>
 8    1  0.2107254E+004  0.1043930E+01  0.7957747E-01            NaN
         13   -1    0    0    0    0  0.00000000000E+00  0.00000000000E+00  0.74505805969E-08  0.10566000000E+00  0.10566000000E+00 0.  1.
     999900   -1    0    0    0    0 -0.00000000000E+00 -0.00000000000E+00 -0.74505805969E-08  0.93827000000E+00  0.93827000000E+00 0.  1.
     999902    2    1    2    0    0  0.79735367758E-02  0.11687249840E-01 -0.10574142267E-02  0.10297424272E+01  0.10296446859E+01 0.  0.
     999903    2    3    3    0    0  0.12497659035E+00 -0.16381641492E-01  0.41968906649E-01  0.14051307460E+00  0.45771483444E-01 0.  0.
         14    1    1    2    0    0 -0.79735367758E-02 -0.11687249840E-01  0.10574142267E-02  0.14187572815E-01  0.00000000000E+00 0.  1.
     999901    1    3    3    0    0 -0.11700305357E+00  0.28068891331E-01 -0.43026320875E-01  0.88922935258E+00  0.88000000000E+00 0.  1.
        -11    1    4    4    0    0  0.64614864284E-01 -0.12727694036E-01 -0.17647508235E-02  0.65882094293E-01  0.51100000000E-03 0.  1.
         11    1    4    4    0    0  0.60361726062E-01 -0.36539474559E-02  0.43733657472E-01  0.74630980310E-01  0.51100000000E-03 0. -1.
</event>
<event>
 8    1  0.2107254E+004  0.1043930E+01  0.7957747E-01            NaN
         13   -1    0    0    0    0  0.00000000000E+00  0.00000000000E+00  0.74505805969E-08  0.10566000000E+00  0.10566000000E+00 0. -1.
     999900   -1    0    0    0    0 -0.00000000000E+00 -0.00000000000E+00 -0.74505805969E-08  0.93827000000E+00  0.93827000000E+00 0. -1.
     999902    2    1    2    0    0  0.73891680429E-02  0.77162855828E-02 -0.58017458585E-02  0.10317726515E+01  0.10317010242E+01 0.  0.
     999903    2    3    3    0    0 -0.13083087555E+00  0.20937948885E-01 -0.21066055175E-01  0.14075492330E+00  0.42579972407E-01 0.  0.
         14    1    1    2    0    0 -0.73891680429E-02 -0.77162855828E-02  0.58017458585E-02  0.12157348501E-01  0.00000000000E+00 0.  1.
     999901    1    3    3    0    0  0.13822004360E+00 -0.13221663303E-01  0.15264309317E-01  0.89101772820E+00  0.88000000000E+00 0. -1.
        -11    1    4    4    0    0 -0.36477270107E-01 -0.39318910045E-03 -0.24519859356E-01  0.43957143401E-01  0.51100000000E-03 0.  1.
         11    1    4    4    0    0 -0.94353605446E-01  0.21331137986E-01  0.34538041809E-02  0.96797779896E-01  0.51100000000E-03 0. -1.
</event>
<event>
 8    1  0.2107254E+004  0.1043930E+01  0.7957747E-01            NaN
         13   -1    0    0    0    0  0.00000000000E+00  0.00000000000E+00  0.74505805969E-08  0.10566000000E+00  0.10566000000E+00 0. -1.
     999900   -1    0    0    0    0 -0.00000000000E+00 -0.00000000000E+00 -0.74505805969E-08  0.93827000000E+00  0.93827000000E+00 0.  1.
     999902    2    1    2    0    0 -0.14096053494E-01 -0.38106130267E-02  0.21315187616E-02  0.10291732094E+01  0.10290674089E+01 0.  0.
     999903    2    3    3    0    0  0.94391616967E-01  0.23919604119E-01 -0.86670741511E-01  0.13764397210E+00  0.44182811206E-01 0.  0.
         14    1    1    2    0    0  0.14096053494E-01  0.38106130267E-02 -0.21315187616E-02  0.14756790572E-01  0.00000000000E+00 0.  1.
     999901    1    3    3    0    0 -0.10848767046E+00 -0.27730217146E-01  0.88802260273E-01  0.89152923733E+00  0.88000000000E+00 0. -1.
        -11    1    4    4    0    0  0.76991505335E-01  0.19416206631E-01 -0.89272482628E-01  0.11947601537E+00  0.51100000000E-03 0. -1.
         11    1    4    4    0    0  0.17400111632E-01  0.45033974883E-02  0.26017411172E-02  0.18167956726E-01  0.51100000000E-03 0.  1.
</event>
<event>
 8    1  0.2107254E+004  0.1043930E+01  0.7957747E-01            NaN
         13   -1    0    0    0    0  0.00000000000E+00  0.00000000000E+00  0.74505805969E-08  0.10566000000E+00  0.10566000000E+00 0. -1.
     999900   -1    0    0    0    0 -0.00000000000E+00 -0.00000000000E+00 -0.74505805969E-08  0.93827000000E+00  0.93827000000E+00 0.  1.
     999902    2    1    2    0    0  0.10160155151E-01 -0.84536221623E-02  0.16699779999E-02  0.10306077890E+01  0.10305216802E+01 0.  0.
     999903    2    3    3    0    0  0.10853399782E+00  0.78206318284E-01  0.81427104280E-02  0.14087229205E+00  0.43391727695E-01 0.  0.
         14    1    1    2    0    0 -0.10160155151E-01  0.84536221623E-02 -0.16699779999E-02  0.13322211035E-01  0.00000000000E+00 0. -1.
     999901    1    3    3    0    0 -0.98373842671E-01 -0.86659940446E-01 -0.64727324281E-02  0.88973549691E+00  0.88000000000E+00 0.  1.
        -11    1    4    4    0    0  0.42780126797E-01  0.24781689434E-01  0.23542064692E-01  0.54760946951E-01  0.51100000000E-03 0. -1.
         11    1    4    4    0    0  0.65753871025E-01  0.53424628850E-01 -0.15399354264E-01  0.86111345102E-01  0.51100000000E-03 0.  1.
</event>
<event>
 8    1  0.2107254E+004  0.1043930E+01  0.7957747E-01            NaN
         13   -1    0    0    0    0  0.00000000000E+00  0.00000000000E+00  0.74505805969E-08  0.10566000000E+00  0.10566000000E+00 0. -1.
     999900   -1    0    0    0    0 -0.00000000000E+00 -0.00000000000E+00 -0.74505805969E-08  0.93827000000E+00  0.93827000000E+00 0. -1.
     999902    2    1    2    0    0  0.46503209775E-02 -0.14304081072E-01  0.17029731700E-02  0.10287928821E+01  0.10286815163E+01 0.  0.
     999903    2    3    3    0    0  0.62670796130E-01 -0.27582378008E-01 -0.11322227164E+00  0.13932646869E+00  0.43636748462E-01 0.  0.
         14    1    1    2    0    0 -0.46503209775E-02  0.14304081072E-01 -0.17029731700E-02  0.15137117893E-01  0.00000000000E+00 0.  1.
     999901    1    3    3    0    0 -0.58020475153E-01  0.13278296937E-01  0.11492524481E+00  0.88946641342E+00  0.88000000000E+00 0.  1.
        -11    1    4    4    0    0  0.54004178044E-01 -0.25594602401E-01 -0.57626201748E-01  0.83021534358E-01  0.51100000000E-03 0.  1.
         11    1    4    4    0    0  0.86666180866E-02 -0.19877756070E-02 -0.55596069896E-01  0.56304934329E-01  0.51100000000E-03 0. -1.
</event>
<event>
 8    1  0.2107254E+004  0.1043930E+01  0.7957747E-01            NaN
         13   -1    0    0    0    0  0.00000000000E+00  0.00000000000E+00  0.74505805969E-08  0.10566000000E+00  0.10566000000E+00 0. -1.
     999900   -1    0    0    0    0 -0.00000000000E+00 -0.00000000000E+00 -0.74505805969E-08  0.93827000000E+00  0.93827000000E+00 0.  1.
     999902    2    1    2    0    0  0.11191077012E-02  0.90885787530E-02 -0.98559966081E-02  0.10304765493E+01  0.10303887244E+01 0.  0.
     999903    2    3    3    0    0 -0.10979700926E-01  0.13266334969E+00  0.16884973629E-01  0.14135778073E+00  0.44461237665E-01 0.  0.
         14    1    1    2    0    0 -0.11191077012E-02 -0.90885787530E-02  0.98559966081E-02  0.13453450670E-01  0.00000000000E+00 0. -1.
     999901    1    3    3    0    0  0.12098808628E-01 -0.12357477094E+00 -0.26740970237E-01  0.88911876860E+00  0.88000000000E+00 0. -1.
        -11    1    4    4    0    0 -0.24268519353E-01  0.64433809937E-01 -0.34202674887E-02  0.68939366441E-01  0.51100000000E-03 0.  1.
         11    1    4    4    0    0  0.13288818427E-01  0.68229539757E-01  0.20305241117E-01  0.72418414291E-01  0.51100000000E-03 0. -1.
</event>
<event>
 8    1  0.2107254E+004  0.1043930E+01  0.7957747E-01            NaN
         13   -1    0    0    0    0  0.00000000000E+00  0.00000000000E+00  0.74505805969E-08  0.10566000000E+00  0.10566000000E+00 0.  1.
     999900   -1    0    0    0    0 -0.00000000000E+00 -0.00000000000E+00 -0.74505805969E-08  0.93827000000E+00  0.93827000000E+00 0. -1.
     999902    2    1    2    0    0 -0.12065391828E-01 -0.60658382548E-02  0.21310862659E-02  0.10302585113E+01  0.10301677973E+01 0.  0.
     999903    2    3    3    0    0  0.30916798865E-01  0.12327244193E+00 -0.34366858060E-01  0.13901894793E+00  0.44645756322E-01 0.  0.
         14    1    1    2    0    0  0.12065391828E-01  0.60658382548E-02 -0.21310862659E-02  0.13671488667E-01  0.00000000000E+00 0. -1.
     999901    1    3    3    0    0 -0.42982190693E-01 -0.12933828019E+00  0.36497944326E-01  0.89123956341E+00  0.88000000000E+00 0.  1.
        -11    1    4    4    0    0 -0.11550477033E-01  0.30170962111E-01 -0.64430145911E-02  0.32946532934E-01  0.51100000000E-03 0.  1.
         11    1    4    4    0    0  0.42467275898E-01  0.93101479823E-01 -0.27923843469E-01  0.10607241499E+00  0.51100000000E-03 0. -1.
</event>
<event>
 8    1  0.2107254E+004  0.1043930E+01  0.7957747E-01            NaN
         13   -1    0    0    0    0  0.00000000000E+00  0.00000000000E+00  0.74505805969E-08  0.10566000000E+00  0.10566000000E+00 0.  1.
     999900   -1    0    0    0    0 -0.00000000000E+00 -0.00000000000E+00 -0.74505805969E-08  0.93827000000E+00  0.93827000000E+00 0. -1.
     999902    2    1    2    0    0  0.13593849312E-02 -0.12696223089E-01 -0.71606608166E-02  0.10292904279E+01  0.10291863135E+01 0.  0.
     999903    2    3    3    0    0  0.11032162751E+00 -0.27113820827E-01  0.67021167651E-01  0.13935583417E+00  0.44968776142E-01 0.  0.
         14    1    1    2    0    0 -0.13593849312E-02  0.12696223089E-01  0.71606608166E-02  0.14639572106E-01  0.00000000000E+00 0.  1.
     999901    1    3    3    0    0 -0.10896224258E+00  0.14417597738E-01 -0.74181828468E-01  0.88993459372E+00  0.88000000000E+00 0. -1.
        -11    1    4    4    0    0  0.38096695250E-01  0.31627925927E-02  0.32663926254E-02  0.38370455923E-01  0.51100000000E-03 0. -1.
         11    1    4    4    0    0  0.72224932259E-01 -0.30276613420E-01  0.63754775026E-01  0.10098537825E+00  0.51100000000E-03 0.  1.
</event>
<event>
 8    1  0.2107254E+004  0.1043930E+01  0.7957747E-01            NaN
         13   -1    0    0    0    0  0.00000000000E+00  0.00000000000E+00  0.74505805969E-08  0.10566000000E+00  0.10566000000E+00 0.  1.
     999900   -1    0    0    0    0 -0.00000000000E+00 -0.00000000000E+00 -0.74505805969E-08  0.93827000000E+00  0.93827000000E+00 0. -1.
     999902    2    1    2    0    0  0.70358532689E-02  0.11637335537E-01  0.49445940499E-02  0.10294600373E+01  0.10293583383E+01 0.  0.
     999903    2    3    3    0    0  0.59583260964E-02  0.10822620553E+00  0.78490603688E-01  0.14112474791E+00  0.44799624923E-01 0.  0.
         14    1    1    2    0    0 -0.70358532689E-02 -0.11637335537E-01 -0.49445940499E-02  0.14469962679E-01  0.00000000000E+00 0. -1.
     999901    1    3    3    0    0  0.10775271725E-02 -0.96588869994E-01 -0.73546009638E-01  0.88833528941E+00  0.88000000000E+00 0.  1.
        -11    1    4    4    0    0  0.11865795044E-01  0.61897466062E-01  0.69020766507E-01  0.93467752338E-01  0.51100000000E-03 0.  1.
         11    1    4    4    0    0 -0.59074689479E-02  0.46328739469E-01  0.94698371807E-02  0.47656995576E-01  0.51100000000E-03 0. -1.
</event>
<event>
 8    1  0.2107254E+004  0.1043930E+01  0.7957747E-01            NaN
         13   -1    0    0    0    0  0.00000000000E+00  0.00000000000E+00  0.74505805969E-08  0.10566000000E+00  0.10566000000E+00 0. -1.
     999900   -1    0    0    0    0 -0.00000000000E+00 -0.00000000000E+00 -0.74505805969E-08  0.93827000000E+00  0.93827000000E+00 0. -1.
     999902    2    1    2    0    0 -0.43830757353E-02 -0.44802041575E-02  0.12183082552E-01  0.10302292306E+01  0.10301381249E+01 0.  0.
     999903    2    3    3    0    0 -0.11548376675E+00 -0.22515443328E-01 -0.60659473402E-01  0.14007493421E+00  0.45803601490E-01 0.  0.
         14    1    1    2    0    0  0.43830757353E-02  0.44802041575E-02 -0.12183082552E-01  0.13700769419E-01  0.00000000000E+00 0.  1.
     999901    1    3    3    0    0  0.11110069101E+00  0.18035239171E-01  0.72842555954E-01  0.89015429637E+00  0.88000000000E+00 0.  1.
        -11    1    4    4    0    0 -0.32892337047E-01 -0.56411953611E-02 -0.42155687068E-01  0.53768875706E-01  0.51100000000E-03 0.  1.
         11    1    4    4    0    0 -0.82591429699E-01 -0.16874247967E-01 -0.18503786334E-01  0.86306058501E-01  0.51100000000E-03 0. -1.
</event>
<event>
 8    1  0.2107254E+004  0.1043930E+01  0.7957747E-01            NaN
         13   -1    0    0    0    0  0.00000000000E+00  0.00000000000E+00  0.74505805969E-08  0.10566000000E+00  0.10566000000E+00 0.  1.
     999900   -1    0    0    0    0 -0.00000000000E+00 -0.00000000000E+00 -0.74505805969E-08  0.93827000000E+00  0.93827000000E+00 0. -1.
     999902    2    1    2    0    0  0.78357066422E-02  0.54376751804E-02  0.89533205015E-02  0.10308483886E+01  0.10307653815E+01 0.  0.
     999903    2    3    3    0    0 -0.87757291597E-01 -0.62383830713E-01  0.77952490083E-01  0.14039981431E+00  0.45193280313E-01 0.  0.
         14    1    1    2    0    0 -0.78357066422E-02 -0.54376751804E-02 -0.89533205015E-02  0.13081611443E-01  0.00000000000E+00 0. -1.
     999901    1    3    3    0    0  0.95592998239E-01  0.67821505894E-01 -0.68999169582E-01  0.89044857425E+00  0.88000000000E+00 0.  1.
        -11    1    4    4    0    0 -0.60457984271E-01 -0.52024692286E-01  0.77471382981E-01  0.11119268309E+00  0.51100000000E-03 0.  1.
         11    1    4    4    0    0 -0.27299307325E-01 -0.10359138427E-01  0.48110710192E-03  0.29207131226E-01  0.51100000000E-03 0. -1.
</event>
<event>
 8    1  0.2107254E+004  0.1043930E+01  0.7957747E-01            NaN
         13   -1    0    0    0    0  0.00000000000E+00  0.00000000000E+00  0.74505805969E-08  0.10566000000E+00  0.10566000000E+00 0.  1.
     999900   -1    0    0    0    0 -0.00000000000E+00 -0.00000000000E+00 -0.74505805969E-08  0.93827000000E+00  0.93827000000E+00 0. -1.
     999902    2    1    2    0    0  0.36671435531E-02  0.12555936629E-01  0.57928342760E-02  0.10296241825E+01  0.10295247936E+01 0.  0.
     999903    2    3    3    0    0  0.94992126935E-01  0.89290174215E-01 -0.28057657250E-01  0.14093174321E+00  0.45588208156E-01 0.  0.
         14    1    1    2    0    0 -0.36671435531E-02 -0.12555936629E-01 -0.57928342760E-02  0.14305817538E-01  0.00000000000E+00 0. -1.
     999901    1    3    3    0    0 -0.91324983382E-01 -0.76734237586E-01  0.33850491526E-01  0.88869243925E+00  0.88000000000E+00 0.  1.
        -11    1    4    4    0    0  0.61923572350E-02 -0.25424442320E-02  0.56937966268E-02  0.88028263544E-02  0.51100000000E-03 0. -1.
         11    1    4    4    0    0  0.88799769700E-01  0.91832618447E-01 -0.33751453877E-01  0.13212891686E+00  0.51100000000E-03 0.  1.
</event>
<event>
 8    1  0.2107254E+004  0.1043930E+01  0.7957747E-01            NaN
         13   -1    0    0    0    0  0.00000000000E+00  0.00000000000E+00  0.74505805969E-08  0.10566000000E+00  0.10566000000E+00 0.  1.
     999900   -1    0    0    0    0 -0.00000000000E+00 -0.00000000000E+00 -0.74505805969E-08  0.93827000000E+00  0.93827000000E+00 0.  1.
     999902    2    1    2    0    0  0.59378015462E-02  0.13567436880E-02  0.12013698374E-01  0.10304605089E+01  0.10303724731E+01 0.  0.
     999903    2    3    3    0    0  0.98756699502E-01  0.48139231909E-02  0.91951403505E-01  0.14196890144E+00  0.43863980854E-01 0.  0.
         14    1    1    2    0    0 -0.59378015462E-02 -0.13567436880E-02 -0.12013698374E-01  0.13469491054E-01  0.00000000000E+00 0. -1.
     999901    1    3    3    0    0 -0.92818897956E-01 -0.34571795029E-02 -0.79937705131E-01  0.88849160751E+00  0.88000000000E+00 0. -1.
        -11    1    4    4    0    0  0.39491803324E-01 -0.18839310057E-01  0.44811476559E-01  0.62632672668E-01  0.51100000000E-03 0. -1.
         11    1    4    4    0    0  0.59264896179E-01  0.23653233248E-01  0.47139926946E-01  0.79336228771E-01  0.51100000000E-03 0.  1.
</event>
<event>
 8    1  0.2107254E+004  0.1043930E+01  0.7957747E-01            NaN
         13   -1    0    0    0    0  0.00000000000E+00  0.00000000000E+00  0.74505805969E-08  0.10566000000E+00  0.10566000000E+00 0.  1.
     999900   -1    0    0    0    0 -0.00000000000E+00 -0.00000000000E+00 -0.74505805969E-08  0.93827000000E+00  0.93827000000E+00 0. -1.
     999902    2    1    2    0    0 -0.25843851042E-02  0.14286535816E-01 -0.33166594706E-02  0.10290375730E+01  0.10289298043E+01 0.  0.
     999903    2    3    3    0    0  0.91329656162E-01  0.74142530519E-01  0.60583747799E-01  0.13971994172E+00  0.44867033453E-01 0.  0.
         14    1    1    2    0    0  0.25843851042E-02 -0.14286535816E-01  0.33166594706E-02  0.14892427003E-01  0.00000000000E+00 0. -1.
     999901    1    3    3    0    0 -0.93914041266E-01 -0.59855994703E-01 -0.63900407269E-01  0.88931763128E+00  0.88000000000E+00 0. -1.
        -11    1    4    4    0    0  0.73100424455E-01  0.32086249494E-01  0.42502091187E-01  0.90442735133E-01  0.51100000000E-03 0.  1.
         11    1    4    4    0    0  0.18229231706E-01  0.42056281025E-01  0.18081656612E-01  0.49277206588E-01  0.51100000000E-03 0. -1.
</event>
<event>
 8    1  0.2107254E+004  0.1043930E+01  0.7957747E-01            NaN
         13   -1    0    0    0    0  0.00000000000E+00  0.00000000000E+00  0.74505805969E-08  0.10566000000E+00  0.10566000000E+00 0. -1.
     999900   -1    0    0    0    0 -0.00000000000E+00 -0.00000000000E+00 -0.74505805969E-08  0.93827000000E+00  0.93827000000E+00 0.  1.
     999902    2    1    2    0    0 -0.90658098221E-02 -0.74175729416E-02  0.47243253221E-02  0.10312995390E+01  0.10312221926E+01 0.  0.
     999903    2    3    3    0    0 -0.35875493960E-01 -0.83623384740E-01 -0.98309648779E-01  0.14161302972E+00  0.45929746378E-01 0.  0.
         14    1    1    2    0    0  0.90658098221E-02  0.74175729416E-02 -0.47243253221E-02  0.12630461030E-01  0.00000000000E+00 0.  1.
     999901    1    3    3    0    0  0.26809684137E-01  0.76205811798E-01  0.10303397410E+00  0.88968650925E+00  0.88000000000E+00 0. -1.
        -11    1    4    4    0    0  0.71308180986E-02 -0.31828819347E-01 -0.19676383198E-01  0.38096502261E-01  0.51100000000E-03 0. -1.
         11    1    4    4    0    0 -0.43006312058E-01 -0.51794565393E-01 -0.78633265581E-01  0.10351652746E+00  0.51100000000E-03 0.  1.
</event>
<event>
 8    1  0.2107254E+004  0.1043930E+01  0.7957747E-01            NaN
         13   -1    0    0    0    0  0.00000000000E+00  0.00000000000E+00  0.74505805969E-08  0.10566000000E+00  0.10566000000E+00 0.  1.
     999900   -1    0    0    0    0 -0.00000000000E+00 -0.00000000000E+00 -0.74505805969E-08  0.93827000000E+00  0.93827000000E+00 0. -1.
     999902    2    1    2    0    0 -0.28382935126E-02 -0.90719788457E-02 -0.79141369969E-02  0.10315610763E+01  0.10314869189E+01 0.  0.
     999903    2    3    3    0    0 -0.54104279615E-01  0.60520166563E-01  0.10494536747E+00  0.14015290051E+00  0.45159071464E-01 0.  0.
         14    1    1    2    0    0  0.28382935126E-02  0.90719788457E-02  0.79141369969E-02  0.12368923746E-01  0.00000000000E+00 0.  1.
     999901    1    3    3    0    0  0.51265986103E-01 -0.69592145409E-01 -0.11285950446E+00  0.89140817574E+00  0.88000000000E+00 0. -1.
        -11    1    4    4    0    0 -0.21343307237E-02  0.34731238872E-01  0.42085429906E-01  0.54610061825E-01  0.51100000000E-03 0. -1.
         11    1    4    4    0    0 -0.51969948891E-01  0.25788927691E-01  0.62859937560E-01  0.85542838685E-01  0.51100000000E-03 0.  1.
</event>
<event>
 7    1  0.2107254E+004  0.1043930E+01  0.7957747E-01            NaN
         13   -1    0    0    0    0  0.00000000000E+00  0.00000000000E+00  0.74505805969E-08  0.10566000000E+00  0.10566000000E+00 0.  1.
     999900   -1    0    0    0    0 -0.00000000000E+00 -0.00000000000E+00 -0.74505805969E-08  0.93827000000E+00  0.93827000000E+00 0. -1.
     999903    2    1    2    0    0 -0.35738878914E-01 -0.10747461477E-01 -0.65963597955E-01  0.88153580551E-01  0.45023128663E-01 0.  0.
         14    1    1    2    0    0  0.44829283128E-01 -0.53185329258E-01 -0.94328098124E-02  0.70194884251E-01  0.00000000000E+00 0. -1.
     999901    1    1    2    0    0 -0.90904042142E-02  0.63932790735E-01  0.75396407767E-01  0.88558153520E+00  0.88000000000E+00 0.  1.
        -11    1    3    3    0    0  0.83901362255E-02  0.58277828383E-02 -0.59310581798E-02  0.11823536308E-01  0.51100000000E-03 0. -1.
         11    1    3    3    0    0 -0.44129015139E-01 -0.16575244316E-01 -0.60032539775E-01  0.76330044243E-01  0.51100000000E-03 0.  1.
</event>
<event>
 8    1  0.2107254E+004  0.1043930E+01  0.7957747E-01            NaN
         13   -1    0    0    0    0  0.00000000000E+00  0.00000000000E+00  0.74505805969E-08  0.10566000000E+00  0.10566000000E+00 0. -1.
     999900   -1    0    0    0    0 -0.00000000000E+00 -0.00000000000E+00 -0.74505805969E-08  0.93827000000E+00  0.93827000000E+00 0. -1.
     999902    2    1    2    0    0 -0.55460629568E-02 -0.16067567559E-02  0.11979639611E-01  0.10306314194E+01  0.10305456178E+01 0.  0.
     999903    2    3    3    0    0 -0.11785453199E+00  0.97547371420E-03 -0.61110570349E-01  0.14048421866E+00  0.45942046368E-01 0.  0.
         14    1    1    2    0    0  0.55460629568E-02  0.16067567559E-02 -0.11979639611E-01  0.13298580631E-01  0.00000000000E+00 0.  1.
     999901    1    3    3    0    0  0.11230846904E+00 -0.25822304701E-02  0.73090209961E-01  0.89014720071E+00  0.88000000000E+00 0.  1.
        -11    1    4    4    0    0 -0.73067253703E-01 -0.11763923702E-01 -0.16143389372E-01  0.75750139313E-01  0.51100000000E-03 0.  1.
         11    1    4    4    0    0 -0.44787278291E-01  0.12739397416E-01 -0.44967180977E-01  0.64734079350E-01  0.51100000000E-03 0. -1.
</event>
<event>
 8    1  0.2107254E+004  0.1043930E+01  0.7957747E-01            NaN
         13   -1    0    0    0    0  0.00000000000E+00  0.00000000000E+00  0.74505805969E-08  0.10566000000E+00  0.10566000000E+00 0.  1.
     999900   -1    0    0    0    0 -0.00000000000E+00 -0.00000000000E+00 -0.74505805969E-08  0.93827000000E+00  0.93827000000E+00 0.  1.
     999902    2    1    2    0    0  0.35011529224E-02 -0.94042979050E-02 -0.68189029616E-02  0.10317975506E+01  0.10317262181E+01 0.  0.
     999903    2    3    3    0    0  0.17704477369E-01  0.33382500226E-02  0.13209223418E+00  0.14069687673E+00  0.44973996463E-01 0.  0.
         14    1    1    2    0    0 -0.35011529224E-02  0.94042979050E-02  0.68189029616E-02  0.12132449401E-01  0.00000000000E+00 0.  1.
     999901    1    3    3    0    0 -0.14203324447E-01 -0.12742547928E-01 -0.13891113714E+00  0.89110067387E+00  0.88000000000E+00 0.  1.
        -11    1    4    4    0    0  0.18443058702E-01  0.21248166914E-01  0.10054907381E+00  0.10441268302E+00  0.51100000000E-03 0. -1.
         11    1    4    4    0    0 -0.73858133272E-03 -0.17909916892E-01  0.31543160373E-01  0.36284193704E-01  0.51100000000E-03 0.  1.
</event>
<event>
 8    1  0.2107254E+004  0.1043930E+01  0.7957747E-01            NaN
         13   -1    0    0    0    0  0.00000000000E+00  0.00000000000E+00  0.74505805969E-08  0.10566000000E+00  0.10566000000E+00 0. -1.
     999900   -1    0    0    0    0 -0.00000000000E+00 -0.00000000000E+00 -0.74505805969E-08  0.93827000000E+00  0.93827000000E+00 0.  1.
     999902    2    1    2    0    0  0.98216266974E-02 -0.16886066400E-02 -0.10659641955E-01  0.10293374091E+01  0.10292339666E+01 0.  0.
     999903    2    3    3    0    0 -0.26102214008E-01  0.86753555045E-01  0.94264855642E-01  0.13797794820E+00  0.44097009996E-01 0.  0.
         14    1    1    2    0    0 -0.98216266974E-02  0.16886066400E-02  0.10659641955E-01  0.14592590927E-01  0.00000000000E+00 0.  1.
     999901    1    3    3    0    0  0.35923840706E-01 -0.88442161685E-01 -0.10492449760E+00  0.89135946087E+00  0.88000000000E+00 0.  1.
        -11    1    4    4    0    0 -0.29073113699E-01  0.44492202989E-01  0.30087249220E-01  0.61076229039E-01  0.51100000000E-03 0. -1.
         11    1    4    4    0    0  0.29708996905E-02  0.42261352056E-01  0.64177606422E-01  0.76901719159E-01  0.51100000000E-03 0.  1.
</event>
<event>
 8    1  0.2107254E+004  0.1043930E+01  0.7957747E-01            NaN
         13   -1    0    0    0    0  0.00000000000E+00  0.00000000000E+00  0.74505805969E-08  0.10566000000E+00  0.10566000000E+00 0. -1.
     999900   -1    0    0    0    0 -0.00000000000E+00 -0.00000000000E+00 -0.74505805969E-08  0.93827000000E+00  0.93827000000E+00 0. -1.
     999902    2    1    2    0    0 -0.48524018878E-02  0.13463728312E-01 -0.55803673758E-02  0.10285690663E+01  0.10284543577E+01 0.  0.
     999903    2    3    3    0    0 -0.12677216902E+00 -0.51296866636E-02 -0.35710657166E-01  0.13945828633E+00  0.45561673234E-01 0.  0.
         14    1    1    2    0    0  0.48524018878E-02 -0.13463728312E-01  0.55803673758E-02  0.15360933702E-01  0.00000000000E+00 0. -1.
     999901    1    3    3    0    0  0.12191976713E+00  0.18593414976E-01  0.30130289790E-01  0.88911077997E+00  0.88000000000E+00 0.  1.
        -11    1    4    4    0    0 -0.21268894415E-01 -0.16797068113E-01  0.10458041357E-02  0.27126780018E-01  0.51100000000E-03 0. -1.
         11    1    4    4    0    0 -0.10550327460E+00  0.11667381450E-01 -0.36756461302E-01  0.11233150631E+00  0.51100000000E-03 0.  1.
</event>
<event>
 8    1  0.2107254E+004  0.1043930E+01  0.7957747E-01            NaN
         13   -1    0    0    0    0  0.00000000000E+00  0.00000000000E+00  0.74505805969E-08  0.10566000000E+00  0.10566000000E+00 0.  1.
     999900   -1    0    0    0    0 -0.00000000000E+00 -0.00000000000E+00 -0.74505805969E-08  0.93827000000E+00  0.93827000000E+00 0. -1.
     999902    2    1    2    0    0  0.11649043847E-01 -0.19853116079E-02  0.78107236896E-02  0.10297649342E+01  0.10296675049E+01 0.  0.
     999903    2    3    3    0    0  0.31426174235E-01  0.12811592711E+00  0.11902522372E-01  0.13997045791E+00  0.45263272567E-01 0.  0.
         14    1    1    2    0    0 -0.11649043847E-01  0.19853116079E-02 -0.78107236896E-02  0.14165065806E-01  0.00000000000E+00 0. -1.
     999901    1    3    3    0    0 -0.19777130388E-01 -0.13010123872E+00 -0.40917986821E-02  0.88979447628E+00  0.88000000000E+00 0.  1.
        -11    1    4    4    0    0  0.24113404590E-01  0.72036831449E-01  0.28328367546E-01  0.81077240301E-01  0.51100000000E-03 0.  1.
         11    1    4    4    0    0  0.73127696451E-02  0.56079095661E-01 -0.16425845174E-01  0.58893217613E-01  0.51100000000E-03 0. -1.
</event>
<event>
 8    1  0.2107254E+004  0.1043930E+01  0.7957747E-01            NaN
         13   -1    0    0    0    0  0.00000000000E+00  0.00000000000E+00  0.74505805969E-08  0.10566000000E+00  0.10566000000E+00 0.  1.
     999900   -1    0    0    0    0 -0.00000000000E+00 -0.00000000000E+00 -0.74505805969E-08  0.93827000000E+00  0.93827000000E+00 0.  1.
     999902    2    1    2    0    0 -0.19461199718E-03 -0.10095642022E-01 -0.96701085149E-02  0.10299489106E+01  0.10298540128E+01 0.  0.
     999903    2    3    3    0    0 -0.82565686094E-01  0.62594487094E-01  0.80256188475E-01  0.13857043454E+00  0.45006079655E-01 0.  0.
         14    1    1    2    0    0  0.19461199718E-03  0.10095642022E-01  0.96701085149E-02  0.13981089384E-01  0.00000000000E+00 0.  1.
     999901    1    3    3    0    0  0.82371074097E-01 -0.72690129115E-01 -0.89926296990E-01  0.89137847607E+00  0.88000000000E+00 0.  1.
        -11    1    4    4    0    0 -0.29368315946E-01 -0.10679230483E-02  0.14887023447E-01  0.32947276507E-01  0.51100000000E-03 0.  1.
         11    1    4    4    0    0 -0.53197370148E-01  0.63662410142E-01  0.65369165028E-01  0.10562315803E+00  0.51100000000E-03 0. -1.
</event>
<event>
 8    1  0.2107254E+004  0.1043930E+01  0.7957747E-01            NaN
         13   -1    0    0    0    0  0.00000000000E+00  0.00000000000E+00  0.74505805969E-08  0.10566000000E+00  0.10566000000E+00 0. -1.
     999900   -1    0    0    0    0 -0.00000000000E+00 -0.00000000000E+00 -0.74505805969E-08  0.93827000000E+00  0.93827000000E+00 0. -1.
     999902    2    1    2    0    0 -0.16189524844E-01 -0.18321559510E-02 -0.74848093573E-03  0.10276199499E+01  0.10274905079E+01 0.  0.
     999903    2    3    3    0    0  0.53085815506E-01 -0.77570739972E-01 -0.88624248122E-01  0.13730677111E+00  0.46514175584E-01 0.  0.
         14    1    1    2    0    0  0.16189524844E-01  0.18321559510E-02  0.74848093573E-03  0.16310050086E-01  0.00000000000E+00 0. -1.
     999901    1    3    3    0    0 -0.69275340350E-01  0.75738584021E-01  0.87875767187E-01  0.89031317880E+00  0.88000000000E+00 0.  1.
        -11    1    4    4    0    0  0.44687258434E-01 -0.35055631894E-01 -0.29510602791E-01  0.64007696349E-01  0.51100000000E-03 0. -1.
         11    1    4    4    0    0  0.83985570722E-02 -0.42515108078E-01 -0.59113645331E-01  0.73299074763E-01  0.51100000000E-03 0.  1.
</event>
<event>
 8    1  0.2107254E+004  0.1043930E+01  0.7957747E-01            NaN
         13   -1    0    0    0    0  0.00000000000E+00  0.00000000000E+00  0.74505805969E-08  0.10566000000E+00  0.10566000000E+00 0. -1.
     999900   -1    0    0    0    0 -0.00000000000E+00 -0.00000000000E+00 -0.74505805969E-08  0.93827000000E+00  0.93827000000E+00 0. -1.
     999902    2    1    2    0    0  0.11466153728E-01  0.29535633349E-02  0.84208258720E-02  0.10294004946E+01  0.10292979510E+01 0.  0.
     999903    2    3    3    0    0  0.10729670200E+00 -0.11749505822E-02 -0.78299893638E-01  0.13995065243E+00  0.44060742191E-01 0.  0.
         14    1    1    2    0    0 -0.11466153728E-01 -0.29535633349E-02 -0.84208258720E-02  0.14529505361E-01  0.00000000000E+00 0. -1.
     999901    1    3    3    0    0 -0.95830548277E-01  0.41285139171E-02  0.86720719510E-01  0.88944984221E+00  0.88000000000E+00 0. -1.
        -11    1    4    4    0    0  0.56449214528E-01  0.61349581350E-02 -0.66114668944E-01  0.87152522068E-01  0.51100000000E-03 0.  1.
         11    1    4    4    0    0  0.50847487476E-01 -0.73099087173E-02 -0.12185224694E-01  0.52798130364E-01  0.51100000000E-03 0. -1.
</event>
<event>
 8    1  0.2107254E+004  0.1043930E+01  0.7957747E-01            NaN
         13   -1    0    0    0    0  0.00000000000E+00  0.00000000000E+00  0.74505805969E-08  0.10566000000E+00  0.10566000000E+00 0. -1.
     999900   -1    0    0    0    0 -0.00000000000E+00 -0.00000000000E+00 -0.74505805969E-08  0.93827000000E+00  0.93827000000E+00 0. -1.
     999902    2    1    2    0    0  0.10029027161E-01  0.82241381275E-02  0.30276389603E-02  0.10306114253E+01  0.10305253639E+01 0.  0.
     999903    2    3    3    0    0  0.11099167786E+00 -0.46928052536E-01  0.58709049325E-01  0.14137824981E+00  0.44940653971E-01 0.  0.
         14    1    1    2    0    0 -0.10029027161E-01 -0.82241381275E-02 -0.30276389603E-02  0.13318574676E-01  0.00000000000E+00 0.  1.
     999901    1    3    3    0    0 -0.10096265069E+00  0.55152190664E-01 -0.55681410364E-01  0.88923317551E+00  0.88000000000E+00 0. -1.
        -11    1    4    4    0    0  0.77374211156E-01 -0.95676842190E-02  0.41000205235E-01  0.88088518455E-01  0.51100000000E-03 0.  1.
         11    1    4    4    0    0  0.33617466699E-01 -0.37360368317E-01  0.17708844090E-01  0.53289731357E-01  0.51100000000E-03 0. -1.
</event>
<event>
 8    1  0.2107254E+004  0.1043930E+01  0.7957747E-01            NaN
         13   -1    0    0    0    0  0.00000000000E+00  0.00000000000E+00  0.74505805969E-08  0.10566000000E+00  0.10566000000E+00 0.  1.
     999900   -1    0    0    0    0 -0.00000000000E+00 -0.00000000000E+00 -0.74505805969E-08  0.93827000000E+00  0.93827000000E+00 0. -1.
     999902    2    1    2    0    0  0.74316843684E-02 -0.85892267356E-02 -0.80242740801E-02  0.10300233928E+01  0.10299295102E+01 0.  0.
     999903    2    3    3    0    0  0.10124412084E+00  0.82586859660E-01  0.20746347237E-01  0.13988767249E+00  0.45466345794E-01 0.  0.
         14    1    1    2    0    0 -0.74316843684E-02  0.85892267356E-02  0.80242740801E-02  0.13906607170E-01  0.00000000000E+00 0.  1.
     999901    1    3    3    0    0 -0.93812436467E-01 -0.91176086396E-01 -0.28770621317E-01  0.89013572034E+00  0.88000000000E+00 0. -1.
        -11    1    4    4    0    0  0.10501511820E+00  0.72694844753E-01  0.18526194706E-01  0.12905888778E+00  0.51100000000E-03 0. -1.
         11    1    4    4    0    0 -0.37709973660E-02  0.98920149072E-02  0.22201525308E-02  0.10828784711E-01  0.51100000000E-03 0.  1.
</event>
<event>
 8    1  0.2107254E+004  0.1043930E+01  0.7957747E-01            NaN
         13   -1    0    0    0    0  0.00000000000E+00  0.00000000000E+00  0.74505805969E-08  0.10566000000E+00  0.10566000000E+00 0.  1.
     999900   -1    0    0    0    0 -0.00000000000E+00 -0.00000000000E+00 -0.74505805969E-08  0.93827000000E+00  0.93827000000E+00 0. -1.
     999902    2    1    2    0    0  0.10850986222E-01 -0.87549736763E-02 -0.11853539578E-02  0.10299371972E+01  0.10298421392E+01 0.  0.
     999903    2    3    3    0    0  0.80317081472E-01 -0.66753833724E-01  0.83689762232E-01  0.14123410196E+00  0.45124132789E-01 0.  0.
         14    1    1    2    0    0 -0.10850986222E-01  0.87549736763E-02  0.11853539578E-02  0.13992802795E-01  0.00000000000E+00 0.  1.
     999901    1    3    3    0    0 -0.69466095250E-01  0.57998860048E-01 -0.84875116190E-01  0.88870309525E+00  0.88000000000E+00 0.  1.
        -11    1    4    4    0    0  0.50631050102E-01 -0.12867997150E-01  0.38217078249E-01  0.64729396536E-01  0.51100000000E-03 0.  1.
         11    1    4    4    0    0  0.29686031370E-01 -0.53885836574E-01  0.45472683984E-01  0.76504705420E-01  0.51100000000E-03 0. -1.
</event>
<event>
 8    1  0.2107254E+004  0.1043930E+01  0.7957747E-01            NaN
         13   -1    0    0    0    0  0.00000000000E+00  0.00000000000E+00  0.74505805969E-08  0.10566000000E+00  0.10566000000E+00 0. -1.
     999900   -1    0    0    0    0 -0.00000000000E+00 -0.00000000000E+00 -0.74505805969E-08  0.93827000000E+00  0.93827000000E+00 0. -1.
     999902    2    1    2    0    0 -0.98000879102E-02  0.56860338751E-02  0.79997303133E-02  0.10300603068E+01  0.10299669253E+01 0.  0.
     999903    2    3    3    0    0 -0.10227749150E+00 -0.83708179809E-01  0.17721972385E-01  0.14065718245E+00  0.44750754592E-01 0.  0.
         14    1    1    2    0    0  0.98000879102E-02 -0.56860338751E-02 -0.79997303133E-02  0.13869693196E-01  0.00000000000E+00 0.  1.
     999901    1    3    3    0    0  0.92477403586E-01  0.89394213684E-01 -0.97222420717E-02  0.88940312435E+00  0.88000000000E+00 0. -1.
        -11    1    4    4    0    0 -0.37605432392E-01 -0.76791888372E-02  0.13714077776E-01  0.40761201366E-01  0.51100000000E-03 0. -1.
         11    1    4    4    0    0 -0.64672059105E-01 -0.76028990972E-01  0.40078946087E-02  0.99895981086E-01  0.51100000000E-03 0.  1.
</event>
<event>
 8    1  0.2107254E+004  0.1043930E+01  0.7957747E-01            NaN
         13   -1    0    0    0    0  0.00000000000E+00  0.00000000000E+00  0.74505805969E-08  0.10566000000E+00  0.10566000000E+00 0. -1.
     999900   -1    0    0    0    0 -0.00000000000E+00 -0.00000000000E+00 -0.74505805969E-08  0.93827000000E+00  0.93827000000E+00 0. -1.
     999902    2    1    2    0    0  0.36783331348E-02  0.11425521967E-01  0.71633751970E-02  0.10299519232E+01  0.10298570665E+01 0.  0.
     999903    2    3    3    0    0  0.13903336251E-02 -0.59881894516E-01  0.11835289733E+00  0.14009064613E+00  0.45057812963E-01 0.  0.
         14    1    1    2    0    0 -0.36783331348E-02 -0.11425521967E-01 -0.71633751970E-02  0.13978076802E-01  0.00000000000E+00 0.  1.
     999901    1    3    3    0    0  0.22879995096E-02  0.71307416483E-01 -0.11118952213E+00  0.88986127706E+00  0.88000000000E+00 0. -1.
        -11    1    4    4    0    0 -0.17824705838E-01 -0.28668255455E-01  0.33054015497E-01  0.47248471621E-01  0.51100000000E-03 0. -1.
         11    1    4    4    0    0  0.19215039463E-01 -0.31213639061E-01  0.85298881833E-01  0.92842174511E-01  0.51100000000E-03 0.  1.
</event>
<event>
 8    1  0.2107254E+004  0.1043930E+01  0.7957747E-01            NaN
         13   -1    0    0    0    0  0.00000000000E+00  0.00000000000E+00  0.74505805969E-08  0.10566000000E+00  0.10566000000E+00 0.  1.
     999900   -1    0    0    0    0 -0.00000000000E+00 -0.00000000000E+00 -0.74505805969E-08  0.93827000000E+00  0.93827000000E+00 0. -1.
     999902    2    1    2    0    0  0.16005172844E-03  0.13138074935E-01  0.61610114739E-02  0.10294181878E+01  0.10293158955E+01 0.  0.
     999903    2    3    3    0    0  0.28969283948E-01 -0.40122168560E-02 -0.12799718725E+00  0.13861937406E+00  0.44460472592E-01 0.  0.
         14    1    1    2    0    0 -0.16005172844E-03 -0.13138074935E-01 -0.61610114739E-02  0.14511812152E-01  0.00000000000E+00 0. -1.
     999901    1    3    3    0    0 -0.28809232220E-01  0.17150291791E-01  0.13415819872E+00  0.89079881379E+00  0.88000000000E+00 0.  1.
        -11    1    4    4    0    0  0.24295406494E-01 -0.15902952579E-01 -0.38562368658E-01  0.48275128948E-01  0.51100000000E-03 0. -1.
         11    1    4    4    0    0  0.46738774544E-02  0.11890735723E-01 -0.89434818592E-01  0.90344245108E-01  0.51100000000E-03 0.  1.
</event>
<event>
 8    1  0.2107254E+004  0.1043930E+01  0.7957747E-01            NaN
         13   -1    0    0    0    0  0.00000000000E+00  0.00000000000E+00  0.74505805969E-08  0.10566000000E+00  0.10566000000E+00 0. -1.
     999900   -1    0    0    0    0 -0.00000000000E+00 -0.00000000000E+00 -0.74505805969E-08  0.93827000000E+00  0.93827000000E+00 0. -1.
     999902    2    1    2    0    0 -0.34184581584E-02  0.10954020473E-01  0.69805651590E-02  0.10304985179E+01  0.10304109815E+01 0.  0.
     999903    2    3    3    0    0 -0.27547875796E-01 -0.12068747866E+00 -0.43707558996E-01  0.13893752786E+00  0.45485524817E-01 0.  0.
         14    1    1    2    0    0  0.34184581584E-02 -0.10954020473E-01 -0.69805651590E-02  0.13431482072E-01  0.00000000000E+00 0.  1.
     999901    1    3    3    0    0  0.24129417637E-01  0.13164149913E+00  0.50688124155E-01  0.89156099007E+00  0.88000000000E+00 0.  1.
        -11    1    4    4    0    0 -0.31361833861E-02 -0.84063849050E-01 -0.12656699358E-01  0.85070673695E-01  0.51100000000E-03 0. -1.
         11    1    4    4    0    0 -0.24411692410E-01 -0.36623629607E-01 -0.31050859638E-01  0.53866854161E-01  0.51100000000E-03 0.  1.
</event>
<event>
 8    1  0.2107254E+004  0.1043930E+01  0.7957747E-01            NaN
         13   -1    0    0    0    0  0.00000000000E+00  0.00000000000E+00  0.74505805969E-08  0.10566000000E+00  0.10566000000E+00 0. -1.
     999900   -1    0    0    0    0 -0.00000000000E+00 -0.00000000000E+00 -0.74505805969E-08  0.93827000000E+00  0.93827000000E+00 0.  1.
     999902    2    1    2    0    0  0.14170883263E-02 -0.76997603304E-02 -0.10738691119E-01  0.10306403824E+01  0.10305546972E+01 0.  0.
     999903    2    3    3    0    0 -0.39789963888E-01 -0.12981164940E-01  0.12515073798E+00  0.13924156521E+00  0.44426955721E-01 0.  0.
         14    1    1    2    0    0 -0.14170883263E-02  0.76997603304E-02  0.10738691119E-01  0.13289617580E-01  0.00000000000E+00 0. -1.
     999901    1    3    3    0    0  0.41207052214E-01  0.52814046093E-02 -0.13588942910E+00  0.89139881721E+00  0.88000000000E+00 0.  1.
        -11    1    4    4    0    0 -0.36070791687E-01 -0.10035397294E-01  0.43270717023E-01  0.57222611654E-01  0.51100000000E-03 0. -1.
         11    1    4    4    0    0 -0.37191722014E-02 -0.29457676457E-02  0.81880020958E-01  0.82018953554E-01  0.51100000000E-03 0.  1.
</event>
<event>
 8    1  0.2107254E+004  0.1043930E+01  0.7957747E-01            NaN
         13   -1    0    0    0    0  0.00000000000E+00  0.00000000000E+00  0.74505805969E-08  0.10566000000E+00  0.10566000000E+00 0. -1.
     999900   -1    0    0    0    0 -0.00000000000E+00 -0.00000000000E+00 -0.74505805969E-08  0.93827000000E+00  0.93827000000E+00 0.  1.
     999902    2    1    2    0    0 -0.77903106671E-02 -0.99299505152E-02 -0.45367873195E-02  0.10305182404E+01  0.10304309625E+01 0.  0.
     999903    2    3    3    0    0 -0.26425081058E-01  0.12696148384E+00 -0.25175209361E-01  0.13950058401E+00  0.44823191365E-01 0.  0.
         14    1    1    2    0    0  0.77903106671E-02  0.99299505152E-02  0.45367873195E-02  0.13411759642E-01  0.00000000000E+00 0.  1.
     999901    1    3    3    0    0  0.18634770390E-01 -0.13689143435E+00  0.20638422041E-01  0.89101765635E+00  0.88000000000E+00 0. -1.
        -11    1    4    4    0    0 -0.37106252392E-01  0.76560807816E-01 -0.22007418887E-01  0.87880708163E-01  0.51100000000E-03 0.  1.
         11    1    4    4    0    0  0.10681171334E-01  0.50400676022E-01 -0.31677904732E-02  0.51619875843E-01  0.51100000000E-03 0. -1.
</event>
<event>
 8    1  0.2107254E+004  0.1043930E+01  0.7957747E-01            NaN
         13   -1    0    0    0    0  0.00000000000E+00  0.00000000000E+00  0.74505805969E-08  0.10566000000E+00  0.10566000000E+00 0. -1.
     999900   -1    0    0    0    0 -0.00000000000E+00 -0.00000000000E+00 -0.74505805969E-08  0.93827000000E+00  0.93827000000E+00 0.  1.
     999902    2    1    2    0    0  0.72575834591E-02  0.12321214834E-01  0.89489928785E-03  0.10296022054E+01  0.10295025088E+01 0.  0.
     999903    2    3    3    0    0 -0.69790971636E-01 -0.26101533778E-01  0.10833471207E+00  0.13889681035E+00  0.44764319464E-01 0.  0.
         14    1    1    2    0    0 -0.72575834591E-02 -0.12321214834E-01 -0.89489928785E-03  0.14327794575E-01  0.00000000000E+00 0. -1.
     999901    1    3    3    0    0  0.77048555096E-01  0.38422748612E-01 -0.10743981278E+00  0.89070539508E+00  0.88000000000E+00 0.  1.
        -11    1    4    4    0    0 -0.49875757167E-01 -0.32686819365E-02  0.91421491681E-01  0.10419417305E+00  0.51100000000E-03 0. -1.
         11    1    4    4    0    0 -0.19915214469E-01 -0.22832851841E-01  0.16913220390E-01  0.34702637299E-01  0.51100000000E-03 0.  1.
</event>
<event>
 8    1  0.2107254E+004  0.1043930E+01  0.7957747E-01            NaN
         13   -1    0    0    0    0  0.00000000000E+00  0.00000000000E+00  0.74505805969E-08  0.10566000000E+00  0.10566000000E+00 0.  1.
     999900   -1    0    0    0    0 -0.00000000000E+00 -0.00000000000E+00 -0.74505805969E-08  0.93827000000E+00  0.93827000000E+00 0.  1.
     999902    2    1    2    0    0 -0.25179405213E-02  0.94771777504E-02 -0.10937874298E-01  0.10292400709E+01  0.10291352338E+01 0.  0.
     999903    2    3    3    0    0 -0.48236366427E-02 -0.98170335365E-01 -0.87977354617E-01  0.13933648914E+00  0.44877166402E-01 0.  0.
         14    1    1    2    0    0  0.25179405213E-02 -0.94771777504E-02  0.10937874298E-01  0.14689929092E-01  0.00000000000E+00 0.  1.
     999901    1    3    3    0    0  0.23056961214E-02  0.10764751312E+00  0.77039480319E-01  0.88990358177E+00  0.88000000000E+00 0. -1.
        -11    1    4    4    0    0  0.10409577334E-01 -0.59098455145E-02 -0.21469520312E-01  0.24586317286E-01  0.51100000000E-03 0. -1.
         11    1    4    4    0    0 -0.15233213976E-01 -0.92260489851E-01 -0.66507834305E-01  0.11475017185E+00  0.51100000000E-03 0.  1.
</event>
<event>
 8    1  0.2107254E+004  0.1043930E+01  0.7957747E-01            NaN
         13   -1    0    0    0    0  0.00000000000E+00  0.00000000000E+00  0.74505805969E-08  0.10566000000E+00  0.10566000000E+00 0. -1.
     999900   -1    0    0    0    0 -0.00000000000E+00 -0.00000000000E+00 -0.74505805969E-08  0.93827000000E+00  0.93827000000E+00 0.  1.
     999902    2    1    2    0    0 -0.77654845023E-02 -0.92853372503E-02  0.68663289438E-02  0.10300135813E+01  0.10299195652E+01 0.  0.
     999903    2    3    3    0    0 -0.58438750226E-01  0.19418927998E-01  0.11792268544E+00  0.14112369549E+00  0.47095173795E-01 0.  0.
         14    1    1    2    0    0  0.77654845023E-02  0.92853372503E-02 -0.68663289438E-02  0.13916418741E-01  0.00000000000E+00 0. -1.
     999901    1    3    3    0    0  0.50673265724E-01 -0.28704265248E-01 -0.11105635650E+00  0.88888988577E+00  0.88000000000E+00 0.  1.
        -11    1    4    4    0    0 -0.62355538411E-01  0.24609714494E-01  0.88709857889E-01  0.11119150699E+00  0.51100000000E-03 0.  1.
         11    1    4    4    0    0  0.39167881846E-02 -0.51907864963E-02  0.29212827552E-01  0.29932188505E-01  0.51100000000E-03 0. -1.
</event>
<event>
 8    1  0.2107254E+004  0.1043930E+01  0.7957747E-01            NaN
         13   -1    0    0    0    0  0.00000000000E+00  0.00000000000E+00  0.74505805969E-08  0.10566000000E+00  0.10566000000E+00 0. -1.
     999900   -1    0    0    0    0 -0.00000000000E+00 -0.00000000000E+00 -0.74505805969E-08  0.93827000000E+00  0.93827000000E+00 0. -1.
     999902    2    1    2    0    0  0.14730154722E-02  0.11499623340E-01  0.62009167494E-02  0.10307822823E+01  0.10306984288E+01 0.  0.
     999903    2    3    3    0    0  0.93654802589E-01  0.78798730473E-01  0.52673787285E-01  0.14219555083E+00  0.49644585164E-01 0.  0.
         14    1    1    2    0    0 -0.14730154722E-02 -0.11499623340E-01 -0.62009167494E-02  0.13147717676E-01  0.00000000000E+00 0.  1.
     999901    1    3    3    0    0 -0.92181787116E-01 -0.67299107133E-01 -0.46472870535E-01  0.88858673150E+00  0.88000000000E+00 0.  1.
        -11    1    4    4    0    0  0.51626930179E-01  0.73233392303E-01  0.38035757298E-01  0.97341921196E-01  0.51100000000E-03 0.  1.
         11    1    4    4    0    0  0.42027872410E-01  0.55653381704E-02  0.14638029987E-01  0.44853629631E-01  0.51100000000E-03 0. -1.
</event>
<event>
 8    1  0.2107254E+004  0.1043930E+01  0.7957747E-01            NaN
         13   -1    0    0    0    0  0.00000000000E+00  0.00000000000E+00  0.74505805969E-08  0.10566000000E+00  0.10566000000E+00 0.  1.
     999900   -1    0    0    0    0 -0.00000000000E+00 -0.00000000000E+00 -0.74505805969E-08  0.93827000000E+00  0.93827000000E+00 0.  1.
     999902    2    1    2    0    0 -0.84134244285E-02  0.81186408742E-02  0.78020248033E-02  0.10298740535E+01  0.10297781297E+01 0.  0.
     999903    2    3    3    0    0 -0.12658104898E+00 -0.16709606622E-01  0.39527157503E-01  0.14106219863E+00  0.45101826849E-01 0.  0.
         14    1    1    2    0    0  0.84134244285E-02 -0.81186408742E-02 -0.78020248033E-02  0.14055946474E-01  0.00000000000E+00 0. -1.
     999901    1    3    3    0    0  0.11816762456E+00  0.24828247497E-01 -0.31725132700E-01  0.88881185490E+00  0.88000000000E+00 0. -1.
        -11    1    4    4    0    0 -0.72110887743E-01  0.84867139371E-02  0.35728203793E-01  0.80924471650E-01  0.51100000000E-03 0. -1.
         11    1    4    4    0    0 -0.54470161242E-01 -0.25196320559E-01  0.37989537096E-02  0.60137726975E-01  0.51100000000E-03 0.  1.
</event>
<event>
 8    1  0.2107254E+004  0.1043930E+01  0.7957747E-01            NaN
         13   -1    0    0    0    0  0.00000000000E+00  0.00000000000E+00  0.74505805969E-08  0.10566000000E+00  0.10566000000E+00 0. -1.
     999900   -1    0    0    0    0 -0.00000000000E+00 -0.00000000000E+00 -0.74505805969E-08  0.93827000000E+00  0.93827000000E+00 0. -1.
     999902    2    1    2    0    0  0.76644752562E-02  0.12000648114E-01  0.29302494789E-02  0.10293922526E+01  0.10292895918E+01 0.  0.
     999903    2    3    3    0    0  0.80538625497E-01  0.45636257543E-01  0.95942731219E-01  0.14085788766E+00  0.45462057187E-01 0.  0.
         14    1    1    2    0    0 -0.76644752562E-02 -0.12000648114E-01 -0.29302494789E-02  0.14537747354E-01  0.00000000000E+00 0. -1.
     999901    1    3    3    0    0 -0.72874150241E-01 -0.33635609429E-01 -0.93012481741E-01  0.88853436498E+00  0.88000000000E+00 0. -1.
        -11    1    4    4    0    0  0.26418538910E-01  0.11951969561E-01  0.62430089633E-01  0.68837242733E-01  0.51100000000E-03 0.  1.
         11    1    4    4    0    0  0.54120086587E-01  0.33684287983E-01  0.33512641587E-01  0.72020644931E-01  0.51100000000E-03 0. -1.
</event>
<event>
 8    1  0.2107254E+004  0.1043930E+01  0.7957747E-01            NaN
         13   -1    0    0    0    0  0.00000000000E+00  0.00000000000E+00  0.74505805969E-08  0.10566000000E+00  0.10566000000E+00 0. -1.
     999900   -1    0    0    0    0 -0.00000000000E+00 -0.00000000000E+00 -0.74505805969E-08  0.93827000000E+00  0.93827000000E+00 0. -1.
     999902    2    1    2    0    0 -0.85904892027E-02 -0.21666660940E-02  0.10500758311E-01  0.10301911182E+01  0.10300995016E+01 0.  0.
     999903    2    3    3    0    0  0.29010286150E-01  0.12666479447E+00 -0.22358258161E-01  0.13940995629E+00  0.45273362422E-01 0.  0.
         14    1    1    2    0    0  0.85904892027E-02  0.21666660940E-02 -0.10500758311E-01  0.13738881753E-01  0.00000000000E+00 0.  1.
     999901    1    3    3    0    0 -0.37600775353E-01 -0.12883146056E+00  0.32859016472E-01  0.89078116196E+00  0.88000000000E+00 0.  1.
        -11    1    4    4    0    0  0.17904101515E-01  0.11782281596E+00 -0.30526124201E-01  0.12302389277E+00  0.51100000000E-03 0.  1.
         11    1    4    4    0    0  0.11106184635E-01  0.88419785018E-02  0.81678660400E-02  0.16386063518E-01  0.51100000000E-03 0. -1.
</event>
<event>
 8    1  0.2107254E+004  0.1043930E+01  0.7957747E-01            NaN
         13   -1    0    0    0    0  0.00000000000E+00  0.00000000000E+00  0.74505805969E-08  0.10566000000E+00  0.10566000000E+00 0. -1.
     999900   -1    0    0    0    0 -0.00000000000E+00 -0.00000000000E+00 -0.74505805969E-08  0.93827000000E+00  0.93827000000E+00 0.  1.
     999902    2    1    2    0    0 -0.13901622535E-01 -0.15233017860E-01  0.97873798262E-02  0.10211025440E+01  0.10208473503E+01 0.  0.
     999903    2    3    3    0    0  0.29566436966E-01 -0.79921343580E-01 -0.90215796419E-01  0.13201611013E+00  0.45030745679E-01 0.  0.
         14    1    1    2    0    0  0.13901622535E-01  0.15233017860E-01 -0.97873798262E-02  0.22827455970E-01  0.00000000000E+00 0.  1.
     999901    1    3    3    0    0 -0.43468059501E-01  0.64688325720E-01  0.10000317625E+00  0.88908643390E+00  0.88000000000E+00 0. -1.
        -11    1    4    4    0    0 -0.54171082114E-02 -0.38936169828E-01 -0.21892409843E-01  0.44998990121E-01  0.51100000000E-03 0. -1.
         11    1    4    4    0    0  0.34983545178E-01 -0.40985173752E-01 -0.68323386576E-01  0.87017120011E-01  0.51100000000E-03 0.  1.
</event>
<event>
 8    1  0.2107254E+004  0.1043930E+01  0.7957747E-01            NaN
         13   -1    0    0    0    0  0.00000000000E+00  0.00000000000E+00  0.74505805969E-08  0.10566000000E+00  0.10566000000E+00 0.  1.
     999900   -1    0    0    0    0 -0.00000000000E+00 -0.00000000000E+00 -0.74505805969E-08  0.93827000000E+00  0.93827000000E+00 0. -1.
     999902    2    1    2    0    0 -0.95334587275E-02 -0.86976571472E-02 -0.50435421393E-02  0.10300745537E+01  0.10299813653E+01 0.  0.
     999903    2    3    3    0    0 -0.63004477154E-02  0.80301809301E-01  0.10381891934E+00  0.13890543792E+00  0.45036390311E-01 0.  0.
         14    1    1    2    0    0  0.95334587275E-02  0.86976571472E-02  0.50435421393E-02  0.13855446311E-01  0.00000000000E+00 0.  1.
     999901    1    3    3    0    0 -0.32330110122E-02 -0.88999466448E-01 -0.10886246148E+00  0.89116911577E+00  0.88000000000E+00 0. -1.
        -11    1    4    4    0    0 -0.13599054916E-01  0.31203245115E-01  0.72811455969E-01  0.80376277854E-01  0.51100000000E-03 0.  1.
         11    1    4    4    0    0  0.72986072006E-02  0.49098564186E-01  0.31007463368E-01  0.58529160063E-01  0.51100000000E-03 0. -1.
</event>
<event>
 8    1  0.2107254E+004  0.1043930E+01  0.7957747E-01            NaN
         13   -1    0    0    0    0  0.00000000000E+00  0.00000000000E+00  0.74505805969E-08  0.10566000000E+00  0.10566000000E+00 0.  1.
     999900   -1    0    0    0    0 -0.00000000000E+00 -0.00000000000E+00 -0.74505805969E-08  0.93827000000E+00  0.93827000000E+00 0. -1.
     999902    2    1    2    0    0 -0.94653155379E-02  0.38254052375E-02 -0.12879128288E-01  0.10274953455E+01  0.10273639020E+01 0.  0.
     999903    2    3    3    0    0 -0.37858454041E-01 -0.32722450331E-01 -0.12280629495E+00  0.13944923293E+00  0.43135613891E-01 0.  0.
         14    1    1    2    0    0  0.94653155379E-02 -0.38254052375E-02  0.12879128288E-01  0.16434654512E-01  0.00000000000E+00 0.  1.
     999901    1    3    3    0    0  0.28393138504E-01  0.36547855569E-01  0.10992716667E+00  0.88804611256E+00  0.88000000000E+00 0.  1.
        -11    1    4    4    0    0 -0.36703260033E-01 -0.41446727219E-01 -0.91693436709E-01  0.10711166113E+00  0.51100000000E-03 0. -1.
         11    1    4    4    0    0 -0.11551940082E-02  0.87242768873E-02 -0.31112858245E-01  0.32337571795E-01  0.51100000000E-03 0.  1.
</event>
<event>
 8    1  0.2107254E+004  0.1043930E+01  0.7957747E-01            NaN
         13   -1    0    0    0    0  0.00000000000E+00  0.00000000000E+00  0.74505805969E-08  0.10566000000E+00  0.10566000000E+00 0. -1.
     999900   -1    0    0    0    0 -0.00000000000E+00 -0.00000000000E+00 -0.74505805969E-08  0.93827000000E+00  0.93827000000E+00 0. -1.
     999902    2    1    2    0    0  0.26212065611E-02 -0.39461763868E-02 -0.12749227394E-01  0.10303290504E+01  0.10302392762E+01 0.  0.
     999903    2    3    3    0    0 -0.10207776779E+00 -0.46641689779E-01  0.68348401309E-01  0.13939605205E+00  0.46523515174E-01 0.  0.
         14    1    1    2    0    0 -0.26212065611E-02  0.39461763868E-02  0.12749227394E-01  0.13600949638E-01  0.00000000000E+00 0. -1.
     999901    1    3    3    0    0  0.10469897435E+00  0.42695513393E-01 -0.81097628703E-01  0.89093299831E+00  0.88000000000E+00 0. -1.
        -11    1    4    4    0    0 -0.36320778241E-01 -0.25685798282E-01  0.52065719451E-01  0.68484008559E-01  0.51100000000E-03 0.  1.
         11    1    4    4    0    0 -0.65756989549E-01 -0.20955891498E-01  0.16282681858E-01  0.70912043494E-01  0.51100000000E-03 0. -1.
</event>
<event>
 8    1  0.2107254E+004  0.1043930E+01  0.7957747E-01            NaN
         13   -1    0    0    0    0  0.00000000000E+00  0.00000000000E+00  0.74505805969E-08  0.10566000000E+00  0.10566000000E+00 0.  1.
     999900   -1    0    0    0    0 -0.00000000000E+00 -0.00000000000E+00 -0.74505805969E-08  0.93827000000E+00  0.93827000000E+00 0. -1.
     999902    2    1    2    0    0 -0.51876067941E-02 -0.90124205847E-02  0.91404197115E-02  0.10300850637E+01  0.10299920175E+01 0.  0.
     999903    2    3    3    0    0  0.22661700274E-01 -0.10965582164E+00 -0.70921390589E-01  0.14030162287E+00  0.46008149899E-01 0.  0.
         14    1    1    2    0    0  0.51876067941E-02  0.90124205847E-02 -0.91404197115E-02  0.13844936314E-01  0.00000000000E+00 0. -1.
     999901    1    3    3    0    0 -0.27849307068E-01  0.10064340106E+00  0.80061810301E-01  0.88978344082E+00  0.88000000000E+00 0.  1.
        -11    1    4    4    0    0 -0.48976749353E-02 -0.67858903201E-01 -0.25370131988E-01  0.72613515832E-01  0.51100000000E-03 0. -1.
         11    1    4    4    0    0  0.27559375209E-01 -0.41796918443E-01 -0.45551258601E-01  0.67688107038E-01  0.51100000000E-03 0.  1.
</event>
<event>
 8    1  0.2107254E+004  0.1043930E+01  0.7957747E-01            NaN
         13   -1    0    0    0    0  0.00000000000E+00  0.00000000000E+00  0.74505805969E-08  0.10566000000E+00  0.10566000000E+00 0. -1.
     999900   -1    0    0    0    0 -0.00000000000E+00 -0.00000000000E+00 -0.74505805969E-08  0.93827000000E+00  0.93827000000E+00 0. -1.
     999902    2    1    2    0    0  0.62382069855E-02 -0.61441646955E-02 -0.10024457859E-01  0.10306200135E+01  0.10305340637E+01 0.  0.
     999903    2    3    3    0    0  0.11320296286E+00 -0.16546021558E-01 -0.70922253929E-01  0.14199287051E+00  0.45203180676E-01 0.  0.
         14    1    1    2    0    0 -0.62382069855E-02  0.61441646955E-02  0.10024457859E-01  0.13309986535E-01  0.00000000000E+00 0. -1.
     999901    1    3    3    0    0 -0.10696475588E+00  0.10401856863E-01  0.60897796070E-01  0.88862714295E+00  0.88000000000E+00 0. -1.
        -11    1    4    4    0    0  0.31242617173E-01 -0.18041901156E-02 -0.44923744569E-01  0.54751805239E-01  0.51100000000E-03 0. -1.
         11    1    4    4    0    0  0.81960345691E-01 -0.14741831443E-01 -0.25998509360E-01  0.87241065273E-01  0.51100000000E-03 0.  1.
</event>
<event>
 8    1  0.2107254E+004  0.1043930E+01  0.7957747E-01            NaN
         13   -1    0    0    0    0  0.00000000000E+00  0.00000000000E+00  0.74505805969E-08  0.10566000000E+00  0.10566000000E+00 0. -1.
     999900   -1    0    0    0    0 -0.00000000000E+00 -0.00000000000E+00 -0.74505805969E-08  0.93827000000E+00  0.93827000000E+00 0. -1.
     999902    2    1    2    0    0 -0.12032400601E-01  0.18999386536E-02  0.83422700099E-02  0.10291657899E+01  0.10290598822E+01 0.  0.
     999903    2    3    3    0    0  0.10456371185E+00  0.56068599706E-01 -0.54149381661E-01  0.13763109971E+00  0.43964830990E-01 0.  0.
         14    1    1    2    0    0  0.12032400601E-01 -0.18999386536E-02 -0.83422700099E-02  0.14764210105E-01  0.00000000000E+00 0.  1.
     999901    1    3    3    0    0 -0.11659611245E+00 -0.54168661052E-01  0.62491651671E-01  0.89153469019E+00  0.88000000000E+00 0. -1.
        -11    1    4    4    0    0  0.41922313837E-01  0.65923316473E-03 -0.26241406027E-01  0.49465012859E-01  0.51100000000E-03 0.  1.
         11    1    4    4    0    0  0.62641398012E-01  0.55409366541E-01 -0.27907975633E-01  0.88166086849E-01  0.51100000000E-03 0. -1.
</event>
<event>
 8    1  0.2107254E+004  0.1043930E+01  0.7957747E-01            NaN
         13   -1    0    0    0    0  0.00000000000E+00  0.00000000000E+00  0.74505805969E-08  0.10566000000E+00  0.10566000000E+00 0. -1.
     999900   -1    0    0    0    0 -0.00000000000E+00 -0.00000000000E+00 -0.74505805969E-08  0.93827000000E+00  0.93827000000E+00 0. -1.
     999902    2    1    2    0    0  0.10329444129E-01 -0.16851666010E-02  0.10515344618E-01  0.10290939063E+01  0.10289869574E+01 0.  0.
     999903    2    3    3    0    0 -0.97935960815E-01 -0.40832745138E-01  0.77667470619E-01  0.13905832344E+00  0.45235117212E-01 0.  0.
         14    1    1    2    0    0 -0.10329444129E-01  0.16851666010E-02 -0.10515344618E-01  0.14836093655E-01  0.00000000000E+00 0.  1.
     999901    1    3    3    0    0  0.10826540494E+00  0.39147578537E-01 -0.67152126001E-01  0.89003558291E+00  0.88000000000E+00 0.  1.
        -11    1    4    4    0    0 -0.77266551009E-01 -0.47364595962E-01  0.48734217843E-01  0.10290194345E+00  0.51100000000E-03 0. -1.
         11    1    4    4    0    0 -0.20669409805E-01  0.65318508240E-02  0.28933252776E-01  0.36156379992E-01  0.51100000000E-03 0.  1.
</event>
<event>
 8    1  0.2107254E+004  0.1043930E+01  0.7957747E-01            NaN
         13   -1    0    0    0    0  0.00000000000E+00  0.00000000000E+00  0.74505805969E-08  0.10566000000E+00  0.10566000000E+00 0. -1.
     999900   -1    0    0    0    0 -0.00000000000E+00 -0.00000000000E+00 -0.74505805969E-08  0.93827000000E+00  0.93827000000E+00 0.  1.
     999902    2    1    2    0    0  0.11581224833E-01 -0.40391875234E-02 -0.52037201670E-02  0.10306063928E+01  0.10305202659E+01 0.  0.
     999903    2    3    3    0    0  0.18996563682E-02  0.10808214930E+00  0.74493078626E-01  0.13986708940E+00  0.48251676037E-01 0.  0.
         14    1    1    2    0    0 -0.11581224833E-01  0.40391875234E-02  0.52037201670E-02  0.13323607172E-01  0.00000000000E+00 0. -1.
     999901    1    3    3    0    0  0.96815684651E-02 -0.11212133683E+00 -0.79696798793E-01  0.89073930343E+00  0.88000000000E+00 0.  1.
        -11    1    4    4    0    0  0.93767756228E-02  0.10379868460E+00  0.53464869262E-01  0.11713600732E+00  0.51100000000E-03 0.  1.
         11    1    4    4    0    0 -0.74771192546E-02  0.42834647091E-02  0.21028209365E-01  0.22731082076E-01  0.51100000000E-03 0. -1.
</event>
<event>
 8    1  0.2107254E+004  0.1043930E+01  0.7957747E-01            NaN
         13   -1    0    0    0    0  0.00000000000E+00  0.00000000000E+00  0.74505805969E-08  0.10566000000E+00  0.10566000000E+00 0.  1.
     999900   -1    0    0    0    0 -0.00000000000E+00 -0.00000000000E+00 -0.74505805969E-08  0.93827000000E+00  0.93827000000E+00 0. -1.
     999902    2    1    2    0    0  0.44532095270E-02 -0.67819846236E-02  0.92406522897E-02  0.10316330067E+01  0.10315597144E+01 0.  0.
     999903    2    3    3    0    0  0.58205791137E-01  0.33303344576E-01  0.11723168041E+00  0.14249958821E+00  0.45451500153E-01 0.  0.
         14    1    1    2    0    0 -0.44532095270E-02  0.67819846236E-02 -0.92406522897E-02  0.12296993342E-01  0.00000000000E+00 0. -1.
     999901    1    3    3    0    0 -0.53752581610E-01 -0.40085329200E-01 -0.10799102812E+00  0.88913341845E+00  0.88000000000E+00 0. -1.
        -11    1    4    4    0    0  0.57810126682E-01  0.18115909774E-01  0.11018934195E+00  0.12574636827E+00  0.51100000000E-03 0. -1.
         11    1    4    4    0    0  0.39566445536E-03  0.15187434802E-01  0.70423384619E-02  0.16753219936E-01  0.51100000000E-03 0.  1.
</event>
<event>
 8    1  0.2107254E+004  0.1043930E+01  0.7957747E-01            NaN
         13   -1    0    0    0    0  0.00000000000E+00  0.00000000000E+00  0.74505805969E-08  0.10566000000E+00  0.10566000000E+00 0.  1.
     999900   -1    0    0    0    0 -0.00000000000E+00 -0.00000000000E+00 -0.74505805969E-08  0.93827000000E+00  0.93827000000E+00 0. -1.
     999902    2    1    2    0    0  0.10540155674E-01 -0.92953081266E-03 -0.81934036996E-02  0.10305475199E+01  0.10304606252E+01 0.  0.
     999903    2    3    3    0    0  0.29784285153E-01 -0.35341051262E-01  0.12414810024E+00  0.13977888389E+00  0.44601480266E-01 0.  0.
         14    1    1    2    0    0 -0.10540155674E-01  0.92953081266E-03  0.81934036996E-02  0.13382480090E-01  0.00000000000E+00 0.  1.
     999901    1    3    3    0    0 -0.19244129479E-01  0.34411520449E-01 -0.13234150394E+00  0.89076863602E+00  0.88000000000E+00 0. -1.
        -11    1    4    4    0    0  0.23018757551E-01 -0.20878742804E-01  0.11900463094E+00  0.12299653819E+00  0.51100000000E-03 0.  1.
         11    1    4    4    0    0  0.67655276025E-02 -0.14462308458E-01  0.51434692947E-02  0.16782345696E-01  0.51100000000E-03 0. -1.
</event>
<event>
 8    1  0.2107254E+004  0.1043930E+01  0.7957747E-01            NaN
         13   -1    0    0    0    0  0.00000000000E+00  0.00000000000E+00  0.74505805969E-08  0.10566000000E+00  0.10566000000E+00 0. -1.
     999900   -1    0    0    0    0 -0.00000000000E+00 -0.00000000000E+00 -0.74505805969E-08  0.93827000000E+00  0.93827000000E+00 0.  1.
     999902    2    1    2    0    0 -0.10191492366E-01 -0.91772818041E-02 -0.11068649555E-02  0.10301708515E+01  0.10300789625E+01 0.  0.
     999903    2    3    3    0    0  0.13079592643E+00 -0.12800894099E-01  0.47853700234E-02  0.13892155905E+00  0.44775691417E-01 0.  0.
         14    1    1    2    0    0  0.10191492366E-01  0.91772818041E-02  0.11068649555E-02  0.13759148520E-01  0.00000000000E+00 0.  1.
     999901    1    3    3    0    0 -0.14098741880E+00  0.36236122950E-02 -0.58922349789E-02  0.89124929243E+00  0.88000000000E+00 0.  1.
        -11    1    4    4    0    0  0.36069436415E-01 -0.68610300565E-02  0.21494276801E-01  0.42548126080E-01  0.51100000000E-03 0.  1.
         11    1    4    4    0    0  0.94726490016E-01 -0.59398640426E-02 -0.16708906778E-01  0.96373432970E-01  0.51100000000E-03 0. -1.
</event>
<event>
 8    1  0.2107254E+004  0.1043930E+01  0.7957747E-01            NaN
         13   -1    0    0    0    0  0.00000000000E+00  0.00000000000E+00  0.74505805969E-08  0.10566000000E+00  0.10566000000E+00 0.  1.
     999900   -1    0    0    0    0 -0.00000000000E+00 -0.00000000000E+00 -0.74505805969E-08  0.93827000000E+00  0.93827000000E+00 0. -1.
     999902    2    1    2    0    0  0.21803090363E-02  0.52750716974E-02 -0.11064460207E-01  0.10314800037E+01  0.10314048650E+01 0.  0.
     999903    2    3    3    0    0 -0.32456686354E-01  0.10714531142E-01  0.12806017827E+00  0.13986070476E+00  0.44647170221E-01 0.  0.
         14    1    1    2    0    0 -0.21803090363E-02 -0.52750716974E-02  0.11064460207E-01  0.12449996328E-01  0.00000000000E+00 0.  1.
     999901    1    3    3    0    0  0.34636995391E-01 -0.54394594446E-02 -0.13912463848E+00  0.89161929892E+00  0.88000000000E+00 0. -1.
        -11    1    4    4    0    0 -0.13218592766E-01  0.23249758138E-01  0.35247409607E-01  0.44248428822E-01  0.51100000000E-03 0.  1.
         11    1    4    4    0    0 -0.19238093589E-01 -0.12535226996E-01  0.92812768666E-01  0.95612275933E-01  0.51100000000E-03 0. -1.
</event>
<event>
 8    1  0.2107254E+004  0.1043930E+01  0.7957747E-01            NaN
         13   -1    0    0    0    0  0.00000000000E+00  0.00000000000E+00  0.74505805969E-08  0.10566000000E+00  0.10566000000E+00 0. -1.
     999900   -1    0    0    0    0 -0.00000000000E+00 -0.00000000000E+00 -0.74505805969E-08  0.93827000000E+00  0.93827000000E+00 0.  1.
     999902    2    1    2    0    0  0.88271349072E-02  0.17262501862E-02  0.10540945714E-01  0.10300732404E+01  0.10299800342E+01 0.  0.
     999903    2    3    3    0    0  0.22805940095E-01 -0.68288900543E-02  0.13218312628E+00  0.14155457569E+00  0.44705417834E-01 0.  0.
         14    1    1    2    0    0 -0.88271349072E-02 -0.17262501862E-02 -0.10540945714E-01  0.13856759611E-01  0.00000000000E+00 0.  1.
     999901    1    3    3    0    0 -0.13978805188E-01  0.85551402405E-02 -0.12164218057E+00  0.88851866470E+00  0.88000000000E+00 0.  1.
        -11    1    4    4    0    0  0.21977738983E-01  0.10768719571E-01  0.34548833223E-01  0.42342287728E-01  0.51100000000E-03 0.  1.
         11    1    4    4    0    0  0.82820111197E-03 -0.17597609625E-01  0.97634293057E-01  0.99212287965E-01  0.51100000000E-03 0. -1.
</event>
<event>
 8    1  0.2107254E+004  0.1043930E+01  0.7957747E-01            NaN
         13   -1    0    0    0    0  0.00000000000E+00  0.00000000000E+00  0.74505805969E-08  0.10566000000E+00  0.10566000000E+00 0.  1.
     999900   -1    0    0    0    0 -0.00000000000E+00 -0.00000000000E+00 -0.74505805969E-08  0.93827000000E+00  0.93827000000E+00 0.  1.
     999902    2    1    2    0    0  0.18513771741E-02 -0.24314485302E-01  0.13888002129E-01  0.10158675982E+01  0.10154799253E+01 0.  0.
     999903    2    3    3    0    0 -0.11026015429E+00 -0.22592428261E-01 -0.38533149082E-01  0.12720571756E+00  0.45041886773E-01 0.  0.
         14    1    1    2    0    0 -0.18513771741E-02  0.24314485302E-01 -0.13888002129E-01  0.28062401823E-01  0.00000000000E+00 0. -1.
     999901    1    3    3    0    0  0.11211153146E+00 -0.17220570418E-02  0.52421151211E-01  0.88866188062E+00  0.88000000000E+00 0.  1.
        -11    1    4    4    0    0 -0.81557676521E-01 -0.33804924443E-01 -0.17806407936E-01  0.90065291876E-01  0.51100000000E-03 0. -1.
         11    1    4    4    0    0 -0.28702477765E-01  0.11212496183E-01 -0.20726741146E-01  0.37140425684E-01  0.51100000000E-03 0.  1.
</event>
<event>
 8    1  0.2107254E+004  0.1043930E+01  0.7957747E-01            NaN
         13   -1    0    0    0    0  0.00000000000E+00  0.00000000000E+00  0.74505805969E-08  0.10566000000E+00  0.10566000000E+00 0.  1.
     999900   -1    0    0    0    0 -0.00000000000E+00 -0.00000000000E+00 -0.74505805969E-08  0.93827000000E+00  0.93827000000E+00 0.  1.
     999902    2    1    2    0    0 -0.35297074242E-02  0.77543681613E-02  0.11429736203E-01  0.10296741966E+01  0.10295755063E+01 0.  0.
     999903    2    3    3    0    0 -0.25336896416E-01  0.11603624020E+00  0.63660426525E-01  0.14123254840E+00  0.42280201752E-01 0.  0.
         14    1    1    2    0    0  0.35297074242E-02 -0.77543681613E-02 -0.11429736203E-01  0.14255803371E-01  0.00000000000E+00 0. -1.
     999901    1    3    3    0    0  0.21807188992E-01 -0.10828187204E+00 -0.52230690322E-01  0.88844164823E+00  0.88000000000E+00 0.  1.
        -11    1    4    4    0    0  0.98994422817E-02  0.10929549445E-01  0.37576937589E-02  0.15226141729E-01  0.51100000000E-03 0.  1.
         11    1    4    4    0    0 -0.35236338698E-01  0.10510669076E+00  0.59902732766E-01  0.12600640667E+00  0.51100000000E-03 0. -1.
</event>
<event>
 8    1  0.2107254E+004  0.1043930E+01  0.7957747E-01            NaN
         13   -1    0    0    0    0  0.00000000000E+00  0.00000000000E+00  0.74505805969E-08  0.10566000000E+00  0.10566000000E+00 0.  1.
     999900   -1    0    0    0    0 -0.00000000000E+00 -0.00000000000E+00 -0.74505805969E-08  0.93827000000E+00  0.93827000000E+00 0.  1.
     999902    2    1    2    0    0  0.61523343729E-02  0.93233909604E-02  0.84557904386E-02  0.10299201025E+01  0.10298248104E+01 0.  0.
     999903    2    3    3    0    0 -0.39915075441E-01 -0.79124350658E-01  0.98244893657E-01  0.13974748307E+00  0.44982483045E-01 0.  0.
         14    1    1    2    0    0 -0.61523343729E-02 -0.93233909604E-02 -0.84557904386E-02  0.14009897543E-01  0.00000000000E+00 0. -1.
     999901    1    3    3    0    0  0.46067409814E-01  0.88447741618E-01 -0.89789103219E-01  0.89017261938E+00  0.88000000000E+00 0.  1.
        -11    1    4    4    0    0 -0.90867813535E-02 -0.81765129931E-02  0.42951854637E-01  0.44660361596E-01  0.51100000000E-03 0. -1.
         11    1    4    4    0    0 -0.30828294087E-01 -0.70947837665E-01  0.55293039020E-01  0.95087121477E-01  0.51100000000E-03 0.  1.
</event>
<event>
 8    1  0.2107254E+004  0.1043930E+01  0.7957747E-01            NaN
         13   -1    0    0    0    0  0.00000000000E+00  0.00000000000E+00  0.74505805969E-08  0.10566000000E+00  0.10566000000E+00 0. -1.
     999900   -1    0    0    0    0 -0.00000000000E+00 -0.00000000000E+00 -0.74505805969E-08  0.93827000000E+00  0.93827000000E+00 0.  1.
     999902    2    1    2    0    0  0.12961106648E-01 -0.56144285887E-02  0.28505416686E-02  0.10295203615E+01  0.10294195146E+01 0.  0.
     999903    2    3    3    0    0 -0.11786935545E+00 -0.31341941428E-01 -0.49249691148E-01  0.13795266974E+00  0.41592123820E-01 0.  0.
         14    1    1    2    0    0 -0.12961106648E-01  0.56144285887E-02 -0.28505416686E-02  0.14409638501E-01  0.00000000000E+00 0.  1.
     999901    1    3    3    0    0  0.13083046210E+00  0.25727512840E-01  0.52100232817E-01  0.89156769176E+00  0.88000000000E+00 0. -1.
        -11    1    4    4    0    0 -0.46735376449E-01 -0.14048059548E-01  0.15793894727E-02  0.48829284051E-01  0.51100000000E-03 0. -1.
         11    1    4    4    0    0 -0.71133978999E-01 -0.17293881881E-01 -0.50829080621E-01  0.89123385688E-01  0.51100000000E-03 0.  1.
</event>
<event>
 8    1  0.2107254E+004  0.1043930E+01  0.7957747E-01            NaN
         13   -1    0    0    0    0  0.00000000000E+00  0.00000000000E+00  0.74505805969E-08  0.10566000000E+00  0.10566000000E+00 0.  1.
     999900   -1    0    0    0    0 -0.00000000000E+00 -0.00000000000E+00 -0.74505805969E-08  0.93827000000E+00  0.93827000000E+00 0. -1.
     999902    2    1    2    0    0 -0.88956423685E-02 -0.68011244373E-02 -0.82165623103E-02  0.10300411684E+01  0.10299475273E+01 0.  0.
     999903    2    3    3    0    0  0.42483869004E-01  0.11550670337E+00  0.44651797910E-01  0.13852890128E+00  0.45274670456E-01 0.  0.
         14    1    1    2    0    0  0.88956423685E-02  0.68011244373E-02  0.82165623103E-02  0.13888831591E-01  0.00000000000E+00 0.  1.
     999901    1    3    3    0    0 -0.51379511373E-01 -0.12230782780E+00 -0.52868360221E-01  0.89151226713E+00  0.88000000000E+00 0. -1.
        -11    1    4    4    0    0 -0.63692185853E-02  0.20214936370E-01  0.18872013677E-01  0.28383527249E-01  0.51100000000E-03 0. -1.
         11    1    4    4    0    0  0.48853087589E-01  0.95291766996E-01  0.25779784233E-01  0.11014537403E+00  0.51100000000E-03 0.  1.
</event>
<event>
 8    1  0.2107254E+004  0.1043930E+01  0.7957747E-01            NaN
         13   -1    0    0    0    0  0.00000000000E+00  0.00000000000E+00  0.74505805969E-08  0.10566000000E+00  0.10566000000E+00 0.  1.
     999900   -1    0    0    0    0 -0.00000000000E+00 -0.00000000000E+00 -0.74505805969E-08  0.93827000000E+00  0.93827000000E+00 0. -1.
     999902    2    1    2    0    0 -0.11978721950E-01 -0.28973429338E-02 -0.58659553260E-02  0.10302810510E+01  0.10301906379E+01 0.  0.
     999903    2    3    3    0    0 -0.11025013168E+00 -0.76681835836E-01 -0.39803009412E-02  0.14174012512E+00  0.45157776619E-01 0.  0.
         14    1    1    2    0    0  0.11978721950E-01  0.28973429338E-02  0.58659553260E-02  0.13648948953E-01  0.00000000000E+00 0. -1.
     999901    1    3    3    0    0  0.98271409731E-01  0.73784492902E-01 -0.18856543848E-02  0.88854092593E+00  0.88000000000E+00 0.  1.
        -11    1    4    4    0    0 -0.45615118901E-01 -0.95768411206E-02  0.95794222193E-02  0.47586567530E-01  0.51100000000E-03 0. -1.
         11    1    4    4    0    0 -0.64635012780E-01 -0.67104994715E-01 -0.13559723160E-01  0.94153557586E-01  0.51100000000E-03 0.  1.
</event>
<event>
 8    1  0.2107254E+004  0.1043930E+01  0.7957747E-01            NaN
         13   -1    0    0    0    0  0.00000000000E+00  0.00000000000E+00  0.74505805969E-08  0.10566000000E+00  0.10566000000E+00 0. -1.
     999900   -1    0    0    0    0 -0.00000000000E+00 -0.00000000000E+00 -0.74505805969E-08  0.93827000000E+00  0.93827000000E+00 0.  1.
     999902    2    1    2    0    0  0.93419693919E-02  0.97841743333E-02  0.19315103044E-02  0.10302649646E+01  0.10301743368E+01 0.  0.
     999903    2    3    3    0    0 -0.37269356450E-01  0.87317384799E-01  0.93959156889E-01  0.14085330395E+00  0.44698987152E-01 0.  0.
         14    1    1    2    0    0 -0.93419693919E-02 -0.97841743333E-02 -0.19315103044E-02  0.13665035366E-01  0.00000000000E+00 0.  1.
     999901    1    3    3    0    0  0.46611325842E-01 -0.77533210466E-01 -0.92027646585E-01  0.88941166068E+00  0.88000000000E+00 0.  1.
        -11    1    4    4    0    0 -0.39471896535E-01  0.35603706739E-01  0.48689754524E-01  0.72087501456E-01  0.51100000000E-03 0.  1.
         11    1    4    4    0    0  0.22025400849E-02  0.51713678060E-01  0.45269402365E-01  0.68765802495E-01  0.51100000000E-03 0. -1.
</event>
<event>
 8    1  0.2107254E+004  0.1043930E+01  0.7957747E-01            NaN
         13   -1    0    0    0    0  0.00000000000E+00  0.00000000000E+00  0.74505805969E-08  0.10566000000E+00  0.10566000000E+00 0.  1.
     999900   -1    0    0    0    0 -0.00000000000E+00 -0.00000000000E+00 -0.74505805969E-08  0.93827000000E+00  0.93827000000E+00 0. -1.
     999902    2    1    2    0    0  0.15422092074E-03  0.71052083376E-02  0.12887538775E-01  0.10292127847E+01  0.10291075550E+01 0.  0.
     999903    2    3    3    0    0 -0.98819827705E-01  0.52831704471E-01  0.71927847472E-01  0.14052131251E+00  0.44900742558E-01 0.  0.
         14    1    1    2    0    0 -0.15422092074E-03 -0.71052083376E-02 -0.12887538775E-01  0.14717215269E-01  0.00000000000E+00 0. -1.
     999901    1    3    3    0    0  0.98974048625E-01 -0.45726496134E-01 -0.59040308697E-01  0.88869147222E+00  0.88000000000E+00 0.  1.
        -11    1    4    4    0    0 -0.64164334130E-01  0.10398326137E-01  0.47631299081E-01  0.80586529482E-01  0.51100000000E-03 0. -1.
         11    1    4    4    0    0 -0.34655493574E-01  0.42433378334E-01  0.24296548390E-01  0.59934783026E-01  0.51100000000E-03 0.  1.
</event>
<event>
 8    1  0.2107254E+004  0.1043930E+01  0.7957747E-01            NaN
         13   -1    0    0    0    0  0.00000000000E+00  0.00000000000E+00  0.74505805969E-08  0.10566000000E+00  0.10566000000E+00 0.  1.
     999900   -1    0    0    0    0 -0.00000000000E+00 -0.00000000000E+00 -0.74505805969E-08  0.93827000000E+00  0.93827000000E+00 0. -1.
     999902    2    1    2    0    0  0.76869946948E-02 -0.32644913015E-02  0.10224554162E-01  0.10307281706E+01  0.10306436210E+01 0.  0.
     999903    2    3    3    0    0 -0.54295032339E-01  0.10782422111E+00  0.55481872823E-01  0.14043007528E+00  0.45479167048E-01 0.  0.
         14    1    1    2    0    0 -0.76869946948E-02  0.32644913015E-02 -0.10224554162E-01  0.13201829370E-01  0.00000000000E+00 0. -1.
     999901    1    3    3    0    0  0.61982027033E-01 -0.11108871241E+00 -0.45257318661E-01  0.89029809535E+00  0.88000000000E+00 0.  1.
        -11    1    4    4    0    0 -0.50311103087E-02  0.55479499609E-01  0.34582482223E-01  0.65570543276E-01  0.51100000000E-03 0. -1.
         11    1    4    4    0    0 -0.49263922030E-01  0.52344721500E-01  0.20899390600E-01  0.74859531999E-01  0.51100000000E-03 0.  1.
</event>
<event>
 8    1  0.2107254E+004  0.1043930E+01  0.7957747E-01            NaN
         13   -1    0    0    0    0  0.00000000000E+00  0.00000000000E+00  0.74505805969E-08  0.10566000000E+00  0.10566000000E+00 0.  1.
     999900   -1    0    0    0    0 -0.00000000000E+00 -0.00000000000E+00 -0.74505805969E-08  0.93827000000E+00  0.93827000000E+00 0. -1.
     999902    2    1    2    0    0  0.14799277010E-01  0.25360486077E-02 -0.22105155660E-02  0.10287531584E+01  0.10286412029E+01 0.  0.
     999903    2    3    3    0    0  0.70463171682E-01  0.67349916480E-01 -0.90332321395E-01  0.14023486408E+00  0.44775205210E-01 0.  0.
         14    1    1    2    0    0 -0.14799277010E-01 -0.25360486077E-02  0.22105155660E-02  0.15176841623E-01  0.00000000000E+00 0.  1.
     999901    1    3    3    0    0 -0.55663894672E-01 -0.64813867873E-01  0.88121805829E-01  0.88851829430E+00  0.88000000000E+00 0.  1.
        -11    1    4    4    0    0  0.33486509276E-01  0.57921391531E-01 -0.70619515316E-01  0.97281092535E-01  0.51100000000E-03 0. -1.
         11    1    4    4    0    0  0.36976662406E-01  0.94285249492E-02 -0.19712806079E-01  0.42953771545E-01  0.51100000000E-03 0.  1.
</event>
<event>
 8    1  0.2107254E+004  0.1043930E+01  0.7957747E-01            NaN
         13   -1    0    0    0    0  0.00000000000E+00  0.00000000000E+00  0.74505805969E-08  0.10566000000E+00  0.10566000000E+00 0.  1.
     999900   -1    0    0    0    0 -0.00000000000E+00 -0.00000000000E+00 -0.74505805969E-08  0.93827000000E+00  0.93827000000E+00 0. -1.
     999902    2    1    2    0    0 -0.12780453866E-01 -0.32289508984E-02 -0.54088016940E-02  0.10296814471E+01  0.10295828578E+01 0.  0.
     999903    2    3    3    0    0  0.25959613083E-01 -0.11951631407E+00 -0.51462887989E-01  0.13999356782E+00  0.44628683041E-01 0.  0.
         14    1    1    2    0    0  0.12780453866E-01  0.32289508984E-02  0.54088016940E-02  0.14248552933E-01  0.00000000000E+00 0.  1.
     999901    1    3    3    0    0 -0.38740066949E-01  0.11628736317E+00  0.46054086295E-01  0.88968787925E+00  0.88000000000E+00 0.  1.
        -11    1    4    4    0    0  0.13144250463E-01 -0.66805286730E-01 -0.44928075568E-02  0.68236090862E-01  0.51100000000E-03 0.  1.
         11    1    4    4    0    0  0.12815362619E-01 -0.52711027338E-01 -0.46970080432E-01  0.71757476955E-01  0.51100000000E-03 0. -1.
</event>
<event>
 8    1  0.2107254E+004  0.1043930E+01  0.7957747E-01            NaN
         13   -1    0    0    0    0  0.00000000000E+00  0.00000000000E+00  0.74505805969E-08  0.10566000000E+00  0.10566000000E+00 0.  1.
     999900   -1    0    0    0    0 -0.00000000000E+00 -0.00000000000E+00 -0.74505805969E-08  0.93827000000E+00  0.93827000000E+00 0.  1.
     999902    2    1    2    0    0 -0.10802995224E-01 -0.63534769804E-02 -0.51928438571E-02  0.10303639762E+01  0.10302746655E+01 0.  0.
     999903    2    3    3    0    0 -0.51434735141E-01 -0.50363830533E-01  0.11187486906E+00  0.14059282641E+00  0.45478666508E-01 0.  0.
         14    1    1    2    0    0  0.10802995224E-01  0.63534769804E-02  0.51928438571E-02  0.13566023842E-01  0.00000000000E+00 0.  1.
     999901    1    3    3    0    0  0.40631739918E-01  0.44010353553E-01 -0.11706771292E+00  0.88977114974E+00  0.88000000000E+00 0.  1.
        -11    1    4    4    0    0 -0.58012051809E-01 -0.49441544720E-01  0.10970633458E+00  0.13358744502E+00  0.51100000000E-03 0. -1.
         11    1    4    4    0    0  0.65773166672E-02 -0.92228581337E-03  0.21685344757E-02  0.70053813911E-02  0.51100000000E-03 0.  1.
</event>
<event>
 8    1  0.2107254E+004  0.1043930E+01  0.7957747E-01            NaN
         13   -1    0    0    0    0  0.00000000000E+00  0.00000000000E+00  0.74505805969E-08  0.10566000000E+00  0.10566000000E+00 0.  1.
     999900   -1    0    0    0    0 -0.00000000000E+00 -0.00000000000E+00 -0.74505805969E-08  0.93827000000E+00  0.93827000000E+00 0. -1.
     999902    2    1    2    0    0 -0.12631676195E-01 -0.55779223154E-02 -0.36582775460E-03  0.10301167350E+01  0.10300241169E+01 0.  0.
     999903    2    3    3    0    0  0.33073526805E-01 -0.87859783381E-01 -0.93793713317E-01  0.14017963604E+00  0.45164919935E-01 0.  0.
         14    1    1    2    0    0  0.12631676195E-01  0.55779223154E-02  0.36582775460E-03  0.13813265031E-01  0.00000000000E+00 0. -1.
     999901    1    3    3    0    0 -0.45705203000E-01  0.82281861066E-01  0.93427885562E-01  0.88993709892E+00  0.88000000000E+00 0.  1.
        -11    1    4    4    0    0  0.20117275677E-01 -0.85780993965E-01 -0.91169484680E-01  0.12678808999E+00  0.51100000000E-03 0. -1.
         11    1    4    4    0    0  0.12956251128E-01 -0.20787894168E-02 -0.26242286370E-02  0.13391546052E-01  0.51100000000E-03 0.  1.
</event>
<event>
 8    1  0.2107254E+004  0.1043930E+01  0.7957747E-01            NaN
         13   -1    0    0    0    0  0.00000000000E+00  0.00000000000E+00  0.74505805969E-08  0.10566000000E+00  0.10566000000E+00 0. -1.
     999900   -1    0    0    0    0 -0.00000000000E+00 -0.00000000000E+00 -0.74505805969E-08  0.93827000000E+00  0.93827000000E+00 0. -1.
     999902    2    1    2    0    0 -0.14341011565E-01 -0.60523082312E-03  0.14695464964E-02  0.10295011926E+01  0.10294000753E+01 0.  0.
     999903    2    3    3    0    0  0.79363666197E-01 -0.10526339055E+00 -0.14896138920E-01  0.13820902235E+00  0.38741011879E-01 0.  0.
         14    1    1    2    0    0  0.14341011565E-01  0.60523082312E-03 -0.14695464964E-02  0.14428807434E-01  0.00000000000E+00 0. -1.
     999901    1    3    3    0    0 -0.93704677762E-01  0.10465815973E+00  0.16365685416E-01  0.89129217022E+00  0.88000000000E+00 0. -1.
        -11    1    4    4    0    0  0.34341257828E-01 -0.40742074222E-01  0.12792092904E-01  0.54800888341E-01  0.51100000000E-03 0. -1.
         11    1    4    4    0    0  0.45022408369E-01 -0.64521316329E-01 -0.27688231823E-01  0.83408134008E-01  0.51100000000E-03 0.  1.
</event>
<event>
 8    1  0.2107254E+004  0.1043930E+01  0.7957747E-01            NaN
         13   -1    0    0    0    0  0.00000000000E+00  0.00000000000E+00  0.74505805969E-08  0.10566000000E+00  0.10566000000E+00 0.  1.
     999900   -1    0    0    0    0 -0.00000000000E+00 -0.00000000000E+00 -0.74505805969E-08  0.93827000000E+00  0.93827000000E+00 0.  1.
     999902    2    1    2    0    0 -0.97332443702E-03 -0.68887202441E-02 -0.12559566853E-01  0.10295722653E+01  0.10294721487E+01 0.  0.
     999903    2    3    3    0    0  0.19880142030E-01  0.10736472509E+00 -0.74332554512E-01  0.13979441724E+00  0.45768397287E-01 0.  0.
         14    1    1    2    0    0  0.97332443702E-03  0.68887202441E-02  0.12559566853E-01  0.14357734731E-01  0.00000000000E+00 0.  1.
     999901    1    3    3    0    0 -0.20853466467E-01 -0.11425344534E+00  0.61772987659E-01  0.88977784803E+00  0.88000000000E+00 0. -1.
        -11    1    4    4    0    0  0.36032208566E-02  0.48406667459E-01 -0.59622003791E-01  0.76884544038E-01  0.51100000000E-03 0. -1.
         11    1    4    4    0    0  0.16276921174E-01  0.58958057635E-01 -0.14710550722E-01  0.62909873204E-01  0.51100000000E-03 0.  1.
</event>
<event>
 8    1  0.2185052E+004  0.1043930E+01  0.7957747E-01            NaN
         13   -1    0    0    0    0  0.00000000000E+00  0.00000000000E+00  0.74505805969E-08  0.10566000000E+00  0.10566000000E+00 0. -1.
     999900   -1    0    0    0    0 -0.00000000000E+00 -0.00000000000E+00 -0.74505805969E-08  0.93827000000E+00  0.93827000000E+00 0. -1.
     999902    2    1    2    0    0 -0.58875834200E-02 -0.71691314514E-02 -0.88943130390E-02  0.10310781951E+01  0.10309980968E+01 0.  0.
     999903    2    3    3    0    0 -0.56122143394E-01 -0.41745500331E-01  0.11322434834E+00  0.14055475143E+00  0.45205124895E-01 0.  0.
         14    1    1    2    0    0  0.58875834200E-02  0.71691314514E-02  0.88943130390E-02  0.12851804882E-01  0.00000000000E+00 0. -1.
     999901    1    3    3    0    0  0.50234559974E-01  0.34576368879E-01 -0.12211866137E+00  0.89052344369E+00  0.88000000000E+00 0.  1.
        -11    1    4    4    0    0 -0.50103554536E-01 -0.42774356978E-01  0.67137224640E-01  0.94062106320E-01  0.51100000000E-03 0.  1.
         11    1    4    4    0    0 -0.60185888580E-02  0.10288566473E-02  0.46087123696E-01  0.46492645111E-01  0.51100000000E-03 0. -1.
</event>
<event>
 8    1  0.2107254E+004  0.1043930E+01  0.7957747E-01            NaN
         13   -1    0    0    0    0  0.00000000000E+00  0.00000000000E+00  0.74505805969E-08  0.10566000000E+00  0.10566000000E+00 0. -1.
     999900   -1    0    0    0    0 -0.00000000000E+00 -0.00000000000E+00 -0.74505805969E-08  0.93827000000E+00  0.93827000000E+00 0.  1.
     999902    2    1    2    0    0  0.38484629346E-02 -0.46037554179E-02 -0.12519658142E-01  0.10300466621E+01  0.10299530956E+01 0.  0.
     999903    2    3    3    0    0 -0.11070513291E+00 -0.63884218333E-01  0.32327625139E-01  0.13951424921E+00  0.45632560548E-01 0.  0.
         14    1    1    2    0    0 -0.38484629346E-02  0.46037554179E-02  0.12519658142E-01  0.13883337888E-01  0.00000000000E+00 0. -1.
     999901    1    3    3    0    0  0.11455359584E+00  0.59280462915E-01 -0.44847283281E-01  0.89053241290E+00  0.88000000000E+00 0.  1.
        -11    1    4    4    0    0 -0.79827444799E-01 -0.56494652353E-01  0.55120958438E-02  0.97952595725E-01  0.51100000000E-03 0. -1.
         11    1    4    4    0    0 -0.30877688110E-01 -0.73895659804E-02  0.26815529295E-01  0.41561653489E-01  0.51100000000E-03 0.  1.
</event>
<event>
 8    1  0.2107254E+004  0.1043930E+01  0.7957747E-01            NaN
         13   -1    0    0    0    0  0.00000000000E+00  0.00000000000E+00  0.74505805969E-08  0.10566000000E+00  0.10566000000E+00 0.  1.
     999900   -1    0    0    0    0 -0.00000000000E+00 -0.00000000000E+00 -0.74505805969E-08  0.93827000000E+00  0.93827000000E+00 0.  1.
     999902    2    1    2    0    0 -0.10127498250E-01 -0.68185454565E-02  0.83611460463E-02  0.10291324480E+01  0.10290260579E+01 0.  0.
     999903    2    3    3    0    0 -0.81935003038E-01  0.49723764104E-01  0.92289210790E-01  0.14042705777E+00  0.44907267631E-01 0.  0.
         14    1    1    2    0    0  0.10127498250E-01  0.68185454565E-02 -0.83611460463E-02  0.14797552032E-01  0.00000000000E+00 0.  1.
     999901    1    3    3    0    0  0.71807504788E-01 -0.56542309561E-01 -0.83928064744E-01  0.88870539020E+00  0.88000000000E+00 0.  1.
        -11    1    4    4    0    0 -0.56854747006E-01  0.41040769795E-01  0.89553893774E-01  0.11374079327E+00  0.51100000000E-03 0. -1.
         11    1    4    4    0    0 -0.25080256032E-01  0.86829943097E-02  0.27353170160E-02  0.26686264500E-01  0.51100000000E-03 0.  1.
</event>
<event>
 8    1  0.2107254E+004  0.1043930E+01  0.7957747E-01            NaN
         13   -1    0    0    0    0  0.00000000000E+00  0.00000000000E+00  0.74505805969E-08  0.10566000000E+00  0.10566000000E+00 0.  1.
     999900   -1    0    0    0    0 -0.00000000000E+00 -0.00000000000E+00 -0.74505805969E-08  0.93827000000E+00  0.93827000000E+00 0.  1.
     999902    2    1    2    0    0  0.92961865071E-02 -0.13010944785E-02  0.12542169017E-01  0.10282641794E+01  0.10281448365E+01 0.  0.
     999903    2    3    3    0    0  0.13944515659E-01 -0.12315252815E+00  0.44824131654E-01  0.13926952030E+00  0.45008908013E-01 0.  0.
         14    1    1    2    0    0 -0.92961865071E-02  0.13010944785E-02 -0.12542169017E-01  0.15665820568E-01  0.00000000000E+00 0. -1.
     999901    1    3    3    0    0 -0.46483291518E-02  0.12185143367E+00 -0.32281962637E-01  0.88899465913E+00  0.88000000000E+00 0.  1.
        -11    1    4    4    0    0 -0.46414965113E-03 -0.52951285809E-01  0.41927904475E-01  0.67544536407E-01  0.51100000000E-03 0.  1.
         11    1    4    4    0    0  0.14408665310E-01 -0.70201242338E-01  0.28962271787E-02  0.71724983895E-01  0.51100000000E-03 0. -1.
</event>
<event>
 8    1  0.2107254E+004  0.1043930E+01  0.7957747E-01            NaN
         13   -1    0    0    0    0  0.00000000000E+00  0.00000000000E+00  0.74505805969E-08  0.10566000000E+00  0.10566000000E+00 0. -1.
     999900   -1    0    0    0    0 -0.00000000000E+00 -0.00000000000E+00 -0.74505805969E-08  0.93827000000E+00  0.93827000000E+00 0. -1.
     999902    2    1    2    0    0 -0.67473016755E-02 -0.13131469067E-01 -0.47839402753E-03  0.10291587299E+01  0.10290527202E+01 0.  0.
     999903    2    3    3    0    0 -0.48688203734E-01  0.12176144178E+00  0.84199708826E-02  0.13784828030E+00  0.41651681644E-01 0.  0.
         14    1    1    2    0    0  0.67473016755E-02  0.13131469067E-01  0.47839402753E-03  0.14771270108E-01  0.00000000000E+00 0.  1.
     999901    1    3    3    0    0  0.41940902058E-01 -0.13489291085E+00 -0.88983649101E-02  0.89131044960E+00  0.88000000000E+00 0. -1.
        -11    1    4    4    0    0 -0.29309692271E-01  0.10009886663E+00 -0.77381759468E-02  0.10458958672E+00  0.51100000000E-03 0.  1.
         11    1    4    4    0    0 -0.19378511463E-01  0.21662575150E-01  0.16158146829E-01  0.33258693579E-01  0.51100000000E-03 0. -1.
</event>
<event>
 8    1  0.2107254E+004  0.1043930E+01  0.7957747E-01            NaN
         13   -1    0    0    0    0  0.00000000000E+00  0.00000000000E+00  0.74505805969E-08  0.10566000000E+00  0.10566000000E+00 0.  1.
     999900   -1    0    0    0    0 -0.00000000000E+00 -0.00000000000E+00 -0.74505805969E-08  0.93827000000E+00  0.93827000000E+00 0. -1.
     999902    2    1    2    0    0  0.10349570113E-01  0.64213176452E-02  0.60080023324E-02  0.10303490201E+01  0.10302595111E+01 0.  0.
     999903    2    3    3    0    0 -0.57497523548E-01 -0.60638533085E-01  0.10268502586E+00  0.13992962538E+00  0.45311020884E-01 0.  0.
         14    1    1    2    0    0 -0.10349570113E-01 -0.64213176452E-02 -0.60080023324E-02  0.13580979856E-01  0.00000000000E+00 0.  1.
     999901    1    3    3    0    0  0.67847093661E-01  0.67059850730E-01 -0.96677023528E-01  0.89041939477E+00  0.88000000000E+00 0. -1.
        -11    1    4    4    0    0 -0.48666888231E-01 -0.34849827084E-01  0.41191804672E-01  0.72663624676E-01  0.51100000000E-03 0.  1.
         11    1    4    4    0    0 -0.88306353167E-02 -0.25788706001E-01  0.61493221189E-01  0.67266000702E-01  0.51100000000E-03 0. -1.
</event>
<event>
 8    1  0.2107254E+004  0.1043930E+01  0.7957747E-01            NaN
         13   -1    0    0    0    0  0.00000000000E+00  0.00000000000E+00  0.74505805969E-08  0.10566000000E+00  0.10566000000E+00 0.  1.
     999900   -1    0    0    0    0 -0.00000000000E+00 -0.00000000000E+00 -0.74505805969E-08  0.93827000000E+00  0.93827000000E+00 0.  1.
     999902    2    1    2    0    0  0.14437294395E-01  0.13125492576E-02 -0.48554877036E-02  0.10286416379E+01  0.10285280187E+01 0.  0.
     999903    2    3    3    0    0 -0.83603200072E-01  0.91264343192E-01 -0.39505373377E-01  0.13796555852E+00  0.46423543732E-01 0.  0.
         14    1    1    2    0    0 -0.14437294395E-01 -0.13125492576E-02  0.48554877036E-02  0.15288362105E-01  0.00000000000E+00 0. -1.
     999901    1    3    3    0    0  0.98040494467E-01 -0.89951793934E-01  0.34649885674E-01  0.89067607937E+00  0.88000000000E+00 0.  1.
        -11    1    4    4    0    0 -0.21304852579E-01  0.30727791431E-01  0.90145589366E-02  0.38465793940E-01  0.51100000000E-03 0. -1.
         11    1    4    4    0    0 -0.62298347494E-01  0.60536551761E-01 -0.48519932314E-01  0.99499764584E-01  0.51100000000E-03 0.  1.
</event>
<event>
 8    1  0.2107254E+004  0.1043930E+01  0.7957747E-01            NaN
         13   -1    0    0    0    0  0.00000000000E+00  0.00000000000E+00  0.74505805969E-08  0.10566000000E+00  0.10566000000E+00 0.  1.
     999900   -1    0    0    0    0 -0.00000000000E+00 -0.00000000000E+00 -0.74505805969E-08  0.93827000000E+00  0.93827000000E+00 0. -1.
     999902    2    1    2    0    0 -0.29895759354E-02  0.48700743611E-02 -0.13210457532E-01  0.10295365509E+01  0.10294359321E+01 0.  0.
     999903    2    3    3    0    0 -0.93918790103E-01  0.64392804667E-01 -0.69395999112E-01  0.14107276859E+00  0.46027697279E-01 0.  0.
         14    1    1    2    0    0  0.29895759354E-02 -0.48700743611E-02  0.13210457532E-01  0.14393449092E-01  0.00000000000E+00 0.  1.
     999901    1    3    3    0    0  0.90929214168E-01 -0.59522730306E-01  0.56185541580E-01  0.88846378232E+00  0.88000000000E+00 0.  1.
        -11    1    4    4    0    0 -0.41305865969E-01  0.22566470996E-02 -0.24930554550E-01  0.48301766953E-01  0.51100000000E-03 0. -1.
         11    1    4    4    0    0 -0.52612924134E-01  0.62136157568E-01 -0.44465444562E-01  0.92771001635E-01  0.51100000000E-03 0.  1.
</event>
<event>
 8    1  0.2207336E+004  0.1043930E+01  0.7957747E-01            NaN
         13   -1    0    0    0    0  0.00000000000E+00  0.00000000000E+00  0.74505805969E-08  0.10566000000E+00  0.10566000000E+00 0.  1.
     999900   -1    0    0    0    0 -0.00000000000E+00 -0.00000000000E+00 -0.74505805969E-08  0.93827000000E+00  0.93827000000E+00 0.  1.
     999902    2    1    2    0    0 -0.68701689758E-02 -0.11298512251E-01 -0.37527493107E-02  0.10301845015E+01  0.10300927960E+01 0.  0.
     999903    2    3    3    0    0  0.24516656644E-01 -0.67824704665E-01  0.11194699083E+00  0.14025935124E+00  0.44037482186E-01 0.  0.
         14    1    1    2    0    0  0.68701689758E-02  0.11298512251E-01  0.37527493107E-02  0.13745498472E-01  0.00000000000E+00 0.  1.
     999901    1    3    3    0    0 -0.31386825620E-01  0.56526192414E-01 -0.11569974014E+00  0.88992515029E+00  0.88000000000E+00 0.  1.
        -11    1    4    4    0    0 -0.69351484939E-02 -0.42769501350E-01  0.47503680592E-01  0.64297646312E-01  0.51100000000E-03 0. -1.
         11    1    4    4    0    0  0.31451805138E-01 -0.25055203314E-01  0.64443310239E-01  0.75961704926E-01  0.51100000000E-03 0.  1.
</event>
<event>
 8    1  0.2107254E+004  0.1043930E+01  0.7957747E-01            NaN
         13   -1    0    0    0    0  0.00000000000E+00  0.00000000000E+00  0.74505805969E-08  0.10566000000E+00  0.10566000000E+00 0.  1.
     999900   -1    0    0    0    0 -0.00000000000E+00 -0.00000000000E+00 -0.74505805969E-08  0.93827000000E+00  0.93827000000E+00 0.  1.
     999902    2    1    2    0    0  0.14019716262E-01 -0.26228128511E-02  0.32905450877E-02  0.10292924019E+01  0.10291883158E+01 0.  0.
     999903    2    3    3    0    0  0.69513836755E-01 -0.65165116647E-01  0.93119188328E-01  0.14077660444E+00  0.45477502085E-01 0.  0.
         14    1    1    2    0    0 -0.14019716262E-01  0.26228128511E-02 -0.32905450877E-02  0.14637598105E-01  0.00000000000E+00 0. -1.
     999901    1    3    3    0    0 -0.55494120493E-01  0.62542303796E-01 -0.89828643240E-01  0.88851579745E+00  0.88000000000E+00 0.  1.
        -11    1    4    4    0    0  0.25301607374E-01 -0.24135262334E-01  0.65892013699E-01  0.74596922281E-01  0.51100000000E-03 0. -1.
         11    1    4    4    0    0  0.44212229381E-01 -0.41029854313E-01  0.27227174629E-01  0.66179682162E-01  0.51100000000E-03 0.  1.
</event>
<event>
 8    1  0.2107254E+004  0.1043930E+01  0.7957747E-01            NaN
         13   -1    0    0    0    0  0.00000000000E+00  0.00000000000E+00  0.74505805969E-08  0.10566000000E+00  0.10566000000E+00 0.  1.
     999900   -1    0    0    0    0 -0.00000000000E+00 -0.00000000000E+00 -0.74505805969E-08  0.93827000000E+00  0.93827000000E+00 0. -1.
     999902    2    1    2    0    0  0.75551949360E-02  0.47965885304E-02 -0.11029760965E-01  0.10297263435E+01  0.10296283789E+01 0.  0.
     999903    2    3    3    0    0 -0.72860558344E-01 -0.17497556131E-01  0.10724572470E+00  0.13790079283E+00  0.43590799068E-01 0.  0.
         14    1    1    2    0    0 -0.75551949360E-02 -0.47965885304E-02  0.11029760965E-01  0.14203656536E-01  0.00000000000E+00 0.  1.
     999901    1    3    3    0    0  0.80415753280E-01  0.22294144661E-01 -0.11827548566E+00  0.89182555064E+00  0.88000000000E+00 0. -1.
        -11    1    4    4    0    0 -0.57952393378E-01  0.58350676818E-02  0.80817370551E-01  0.99620461838E-01  0.51100000000E-03 0.  1.
         11    1    4    4    0    0 -0.14908164966E-01 -0.23332623813E-01  0.26428354147E-01  0.38280330988E-01  0.51100000000E-03 0. -1.
</event>
<event>
 8    1  0.2107254E+004  0.1043930E+01  0.7957747E-01            NaN
         13   -1    0    0    0    0  0.00000000000E+00  0.00000000000E+00  0.74505805969E-08  0.10566000000E+00  0.10566000000E+00 0.  1.
     999900   -1    0    0    0    0 -0.00000000000E+00 -0.00000000000E+00 -0.74505805969E-08  0.93827000000E+00  0.93827000000E+00 0. -1.
     999902    2    1    2    0    0  0.11025610574E-01 -0.43464945069E-02  0.72087771725E-02  0.10300583537E+01  0.10299649457E+01 0.  0.
     999903    2    3    3    0    0  0.12366723474E+00 -0.42166877411E-01 -0.29529188132E-01  0.14131306118E+00  0.45008641523E-01 0.  0.
         14    1    1    2    0    0 -0.11025610574E-01  0.43464945069E-02 -0.72087771725E-02  0.13871646310E-01  0.00000000000E+00 0.  1.
     999901    1    3    3    0    0 -0.11264162416E+00  0.37820382904E-01  0.36737965305E-01  0.88874529251E+00  0.88000000000E+00 0.  1.
        -11    1    4    4    0    0  0.25006941538E-01  0.83440181009E-02 -0.12473062082E-01  0.29168616043E-01  0.51100000000E-03 0.  1.
         11    1    4    4    0    0  0.98660293197E-01 -0.50510895512E-01 -0.17056126050E-01  0.11214444514E+00  0.51100000000E-03 0. -1.
</event>
<event>
 8    1  0.2212655E+004  0.1043930E+01  0.7957747E-01            NaN
         13   -1    0    0    0    0  0.00000000000E+00  0.00000000000E+00  0.74505805969E-08  0.10566000000E+00  0.10566000000E+00 0.  1.
     999900   -1    0    0    0    0 -0.00000000000E+00 -0.00000000000E+00 -0.74505805969E-08  0.93827000000E+00  0.93827000000E+00 0. -1.
     999902    2    1    2    0    0  0.93753776308E-02 -0.79091583011E-03  0.10269990937E-01  0.10300017565E+01  0.10299075795E+01 0.  0.
     999903    2    3    3    0    0 -0.13625401267E-01 -0.14500028786E-01 -0.12937609946E+00  0.13858826872E+00  0.45526154260E-01 0.  0.
         14    1    1    2    0    0 -0.93753776308E-02  0.79091583011E-03 -0.10269990937E-01  0.13928243515E-01  0.00000000000E+00 0. -1.
     999901    1    3    3    0    0  0.23000778897E-01  0.13709112956E-01  0.13964609039E+00  0.89141348777E+00  0.88000000000E+00 0.  1.
        -11    1    4    4    0    0  0.66157174780E-03  0.14027044533E-01 -0.67742644815E-01  0.69184699920E-01  0.51100000000E-03 0. -1.
         11    1    4    4    0    0 -0.14286973014E-01 -0.28527073319E-01 -0.61633454641E-01  0.69403568799E-01  0.51100000000E-03 0.  1.
</event>
<event>
 8    1  0.2107254E+004  0.1043930E+01  0.7957747E-01            NaN
         13   -1    0    0    0    0  0.00000000000E+00  0.00000000000E+00  0.74505805969E-08  0.10566000000E+00  0.10566000000E+00 0.  1.
     999900   -1    0    0    0    0 -0.00000000000E+00 -0.00000000000E+00 -0.74505805969E-08  0.93827000000E+00  0.93827000000E+00 0.  1.
     999902    2    1    2    0    0 -0.15255245066E-02 -0.13689816168E-01  0.45283246025E-02  0.10294302064E+01  0.10293280846E+01 0.  0.
     999903    2    3    3    0    0 -0.22326071667E-01  0.12731780791E+00 -0.12830167237E-01  0.13779287536E+00  0.45978099352E-01 0.  0.
         14    1    1    2    0    0  0.15255245066E-02  0.13689816168E-01 -0.45283246025E-02  0.14499793634E-01  0.00000000000E+00 0. -1.
     999901    1    3    3    0    0  0.20800547160E-01 -0.14100762408E+00  0.17358491840E-01  0.89163733101E+00  0.88000000000E+00 0. -1.
        -11    1    4    4    0    0 -0.22015110425E-01  0.11219174447E+00 -0.26536720598E-01  0.11737168004E+00  0.51100000000E-03 0. -1.
         11    1    4    4    0    0 -0.31096124186E-03  0.15126063442E-01  0.13706553360E-01  0.20421195317E-01  0.51100000000E-03 0.  1.
</event>
<event>
 8    1  0.2107254E+004  0.1043930E+01  0.7957747E-01            NaN
         13   -1    0    0    0    0  0.00000000000E+00  0.00000000000E+00  0.74505805969E-08  0.10566000000E+00  0.10566000000E+00 0. -1.
     999900   -1    0    0    0    0 -0.00000000000E+00 -0.00000000000E+00 -0.74505805969E-08  0.93827000000E+00  0.93827000000E+00 0.  1.
     999902    2    1    2    0    0  0.43469866143E-02  0.12196376049E-01 -0.56658071161E-02  0.10297967325E+01  0.10296997431E+01 0.  0.
     999903    2    3    3    0    0  0.32895094865E-02 -0.31062746717E-01 -0.12899576439E+00  0.14014357064E+00  0.44995533711E-01 0.  0.
         14    1    1    2    0    0 -0.43469866143E-02 -0.12196376049E-01  0.56658071161E-02  0.14133267549E-01  0.00000000000E+00 0. -1.
     999901    1    3    3    0    0  0.10574771278E-02  0.43259122766E-01  0.12332995728E+00  0.88965316181E+00  0.88000000000E+00 0. -1.
        -11    1    4    4    0    0  0.13000216346E-01 -0.19102604070E-01 -0.21558287628E-01  0.31605948708E-01  0.51100000000E-03 0. -1.
         11    1    4    4    0    0 -0.97107068597E-02 -0.11960142647E-01 -0.10743747676E+00  0.10853762193E+00  0.51100000000E-03 0.  1.
</event>
<event>
 8    1  0.2107254E+004  0.1043930E+01  0.7957747E-01            NaN
         13   -1    0    0    0    0  0.00000000000E+00  0.00000000000E+00  0.74505805969E-08  0.10566000000E+00  0.10566000000E+00 0.  1.
     999900   -1    0    0    0    0 -0.00000000000E+00 -0.00000000000E+00 -0.74505805969E-08  0.93827000000E+00  0.93827000000E+00 0.  1.
     999902    2    1    2    0    0  0.57856344850E-03  0.11755753663E-01 -0.10324676634E-01  0.10282733264E+01  0.10281541239E+01 0.  0.
     999903    2    3    3    0    0  0.33857555146E-02 -0.21781288820E-01 -0.13012047149E+00  0.13951934134E+00  0.45259492089E-01 0.  0.
         14    1    1    2    0    0 -0.57856344850E-03 -0.11755753663E-01  0.10324676634E-01  0.15656673576E-01  0.00000000000E+00 0.  1.
     999901    1    3    3    0    0 -0.28071920661E-02  0.33537042483E-01  0.11979579485E+00  0.88875398509E+00  0.88000000000E+00 0. -1.
        -11    1    4    4    0    0  0.24105524180E-01 -0.14906079637E-01 -0.67958389898E-01  0.73633357825E-01  0.51100000000E-03 0. -1.
         11    1    4    4    0    0 -0.20719768665E-01 -0.68752091834E-02 -0.62162081588E-01  0.65885983511E-01  0.51100000000E-03 0.  1.
</event>
<event>
 8    1  0.2107254E+004  0.1043930E+01  0.7957747E-01            NaN
         13   -1    0    0    0    0  0.00000000000E+00  0.00000000000E+00  0.74505805969E-08  0.10566000000E+00  0.10566000000E+00 0. -1.
     999900   -1    0    0    0    0 -0.00000000000E+00 -0.00000000000E+00 -0.74505805969E-08  0.93827000000E+00  0.93827000000E+00 0. -1.
     999902    2    1    2    0    0 -0.56547200086E-02  0.53737281140E-02  0.11310463570E-01  0.10301902985E+01  0.10300986708E+01 0.  0.
     999903    2    3    3    0    0  0.68400745183E-01  0.63694879064E-01  0.96244343272E-01  0.14109000463E+00  0.43677411020E-01 0.  0.
         14    1    1    2    0    0  0.56547200086E-02 -0.53737281140E-02 -0.11310463570E-01  0.13739701539E-01  0.00000000000E+00 0.  1.
     999901    1    3    3    0    0 -0.74055465191E-01 -0.58321150950E-01 -0.84933879702E-01  0.88910029383E+00  0.88000000000E+00 0.  1.
        -11    1    4    4    0    0  0.27732048847E-01  0.47101026469E-01  0.73578054798E-01  0.91660048531E-01  0.51100000000E-03 0.  1.
         11    1    4    4    0    0  0.40668696336E-01  0.16593852594E-01  0.22666288474E-01  0.49429956097E-01  0.51100000000E-03 0. -1.
</event>
<event>
 8    1  0.2107254E+004  0.1043930E+01  0.7957747E-01            NaN
         13   -1    0    0    0    0  0.00000000000E+00  0.00000000000E+00  0.74505805969E-08  0.10566000000E+00  0.10566000000E+00 0.  1.
     999900   -1    0    0    0    0 -0.00000000000E+00 -0.00000000000E+00 -0.74505805969E-08  0.93827000000E+00  0.93827000000E+00 0.  1.
     999902    2    1    2    0    0 -0.78240671196E-02  0.16055370401E-02 -0.12737862767E-01  0.10288951431E+01  0.10287852878E+01 0.  0.
     999903    2    3    3    0    0  0.18455633535E-01  0.43867471149E-01 -0.12402204841E+00  0.14049159527E+00  0.45732421935E-01 0.  0.
         14    1    1    2    0    0  0.78240671196E-02 -0.16055370401E-02  0.12737862767E-01  0.15034856945E-01  0.00000000000E+00 0.  1.
     999901    1    3    3    0    0 -0.26279700655E-01 -0.42261934109E-01  0.11128418564E+00  0.88840354778E+00  0.88000000000E+00 0. -1.
        -11    1    4    4    0    0  0.24260365268E-01  0.11309218759E-01 -0.27153345167E-01  0.38131732542E-01  0.51100000000E-03 0. -1.
         11    1    4    4    0    0 -0.58047317331E-02  0.32558252390E-01 -0.96868703242E-01  0.10235986273E+00  0.51100000000E-03 0.  1.
</event>
<event>
 8    1  0.2107254E+004  0.1043930E+01  0.7957747E-01            NaN
         13   -1    0    0    0    0  0.00000000000E+00  0.00000000000E+00  0.74505805969E-08  0.10566000000E+00  0.10566000000E+00 0.  1.
     999900   -1    0    0    0    0 -0.00000000000E+00 -0.00000000000E+00 -0.74505805969E-08  0.93827000000E+00  0.93827000000E+00 0.  1.
     999902    2    1    2    0    0  0.21943983708E-02 -0.32212452403E-02  0.15742489432E-01  0.10277121771E+01  0.10275842064E+01 0.  0.
     999903    2    3    3    0    0 -0.76677939465E-01 -0.91115788048E-01 -0.51270016184E-01  0.13729824404E+00  0.45173001064E-01 0.  0.
         14    1    1    2    0    0 -0.21943983708E-02  0.32212452403E-02 -0.15742489432E-01  0.16217822869E-01  0.00000000000E+00 0. -1.
     999901    1    3    3    0    0  0.78872337836E-01  0.87894542807E-01  0.67012505616E-01  0.89041393309E+00  0.88000000000E+00 0.  1.
        -11    1    4    4    0    0 -0.31730722850E-01 -0.51738486665E-01 -0.35063543149E-02  0.60796919466E-01  0.51100000000E-03 0. -1.
         11    1    4    4    0    0 -0.44947216615E-01 -0.39377301382E-01 -0.47763661869E-01  0.76501324575E-01  0.51100000000E-03 0.  1.
</event>
<event>
 8    1  0.2107254E+004  0.1043930E+01  0.7957747E-01            NaN
         13   -1    0    0    0    0  0.00000000000E+00  0.00000000000E+00  0.74505805969E-08  0.10566000000E+00  0.10566000000E+00 0.  1.
     999900   -1    0    0    0    0 -0.00000000000E+00 -0.00000000000E+00 -0.74505805969E-08  0.93827000000E+00  0.93827000000E+00 0. -1.
     999902    2    1    2    0    0  0.76985128383E-02  0.78548048822E-02  0.91573139298E-02  0.10296184152E+01  0.10295189457E+01 0.  0.
     999903    2    3    3    0    0 -0.60023712301E-01  0.46624051984E-01  0.10920367369E+00  0.14051851738E+00  0.45203574145E-01 0.  0.
         14    1    1    2    0    0 -0.76985128383E-02 -0.78548048822E-02 -0.91573139298E-02  0.14311584750E-01  0.00000000000E+00 0. -1.
     999901    1    3    3    0    0  0.67722225140E-01 -0.38769247102E-01 -0.10004635976E+00  0.88909989787E+00  0.88000000000E+00 0. -1.
        -11    1    4    4    0    0 -0.97366970549E-02  0.26318892098E-03  0.47206839715E-01  0.48203935262E-01  0.51100000000E-03 0.  1.
         11    1    4    4    0    0 -0.50287015247E-01  0.46360863063E-01  0.61996833978E-01  0.92314582113E-01  0.51100000000E-03 0. -1.
</event>
<event>
 8    1  0.2107254E+004  0.1043930E+01  0.7957747E-01            NaN
         13   -1    0    0    0    0  0.00000000000E+00  0.00000000000E+00  0.74505805969E-08  0.10566000000E+00  0.10566000000E+00 0. -1.
     999900   -1    0    0    0    0 -0.00000000000E+00 -0.00000000000E+00 -0.74505805969E-08  0.93827000000E+00  0.93827000000E+00 0.  1.
     999902    2    1    2    0    0 -0.69629117932E-03  0.11800780067E-01 -0.89093090346E-02  0.10291273307E+01  0.10290208665E+01 0.  0.
     999903    2    3    3    0    0 -0.55307602610E-02 -0.20044328593E-01  0.12864895425E+00  0.13785870740E+00  0.44967825832E-01 0.  0.
         14    1    1    2    0    0  0.69629117932E-03 -0.11800780067E-01  0.89093090346E-02  0.14802669322E-01  0.00000000000E+00 0. -1.
     999901    1    3    3    0    0  0.48344690817E-02  0.31845108660E-01 -0.13755826328E+00  0.89126862327E+00  0.88000000000E+00 0.  1.
        -11    1    4    4    0    0 -0.18513862224E-01 -0.46040058525E-03  0.22533531663E-01  0.29171839732E-01  0.51100000000E-03 0. -1.
         11    1    4    4    0    0  0.12983101963E-01 -0.19583928008E-01  0.10611542258E+00  0.10868686767E+00  0.51100000000E-03 0.  1.
</event>
<event>
 8    1  0.2107254E+004  0.1043930E+01  0.7957747E-01            NaN
         13   -1    0    0    0    0  0.00000000000E+00  0.00000000000E+00  0.74505805969E-08  0.10566000000E+00  0.10566000000E+00 0.  1.
     999900   -1    0    0    0    0 -0.00000000000E+00 -0.00000000000E+00 -0.74505805969E-08  0.93827000000E+00  0.93827000000E+00 0.  1.
     999902    2    1    2    0    0 -0.85683516274E-02 -0.11339561449E-03 -0.10653739018E-01  0.10302577045E+01  0.10301669797E+01 0.  0.
     999903    2    3    3    0    0  0.58349054546E-01 -0.92938938191E-01  0.70011098915E-01  0.13919017809E+00  0.49295976589E-01 0.  0.
         14    1    1    2    0    0  0.85683516274E-02  0.11339561449E-03  0.10653739018E-01  0.13672295463E-01  0.00000000000E+00 0.  1.
     999901    1    3    3    0    0 -0.66917406173E-01  0.92825542576E-01 -0.80664837933E-01  0.89106752644E+00  0.88000000000E+00 0.  1.
        -11    1    4    4    0    0  0.28413760216E-01 -0.84505990262E-01  0.53464863052E-01  0.10395843815E+00  0.51100000000E-03 0. -1.
         11    1    4    4    0    0  0.29935294330E-01 -0.84329479286E-02  0.16546235863E-01  0.35231739946E-01  0.51100000000E-03 0.  1.
</event>
<event>
 8    1  0.2107254E+004  0.1043930E+01  0.7957747E-01            NaN
         13   -1    0    0    0    0  0.00000000000E+00  0.00000000000E+00  0.74505805969E-08  0.10566000000E+00  0.10566000000E+00 0. -1.
     999900   -1    0    0    0    0 -0.00000000000E+00 -0.00000000000E+00 -0.74505805969E-08  0.93827000000E+00  0.93827000000E+00 0. -1.
     999902    2    1    2    0    0 -0.29827854547E-02  0.51857718789E-03 -0.12738074895E-01  0.10308370827E+01  0.10307539312E+01 0.  0.
     999903    2    3    3    0    0  0.11359439104E+00  0.46796112295E-01 -0.52362908591E-01  0.14106071991E+00  0.45416854856E-01 0.  0.
         14    1    1    2    0    0  0.29827854547E-02 -0.51857718789E-03  0.12738074895E-01  0.13092917299E-01  0.00000000000E+00 0. -1.
     999901    1    3    3    0    0 -0.11657717649E+00 -0.46277535107E-01  0.39624833696E-01  0.88977636279E+00  0.88000000000E+00 0. -1.
        -11    1    4    4    0    0  0.67382401955E-01  0.49640782193E-01 -0.41871978115E-01  0.93584822607E-01  0.51100000000E-03 0.  1.
         11    1    4    4    0    0  0.46211989080E-01 -0.28446698989E-02 -0.10490930476E-01  0.47475897304E-01  0.51100000000E-03 0. -1.
</event>
<event>
 8    1  0.2107254E+004  0.1043930E+01  0.7957747E-01            NaN
         13   -1    0    0    0    0  0.00000000000E+00  0.00000000000E+00  0.74505805969E-08  0.10566000000E+00  0.10566000000E+00 0.  1.
     999900   -1    0    0    0    0 -0.00000000000E+00 -0.00000000000E+00 -0.74505805969E-08  0.93827000000E+00  0.93827000000E+00 0.  1.
     999902    2    1    2    0    0 -0.11023974747E-01 -0.26329559247E-02  0.68799734573E-02  0.10306712478E+01  0.10305859627E+01 0.  0.
     999903    2    3    3    0    0 -0.31107430230E-02  0.83184659658E-01 -0.10299568902E+00  0.13966061731E+00  0.44357769850E-01 0.  0.
         14    1    1    2    0    0  0.11023974747E-01  0.26329559247E-02 -0.68799734573E-02  0.13258752238E-01  0.00000000000E+00 0. -1.
     999901    1    3    3    0    0 -0.79132317244E-02 -0.85817615582E-01  0.10987566247E+00  0.89101063046E+00  0.88000000000E+00 0. -1.
        -11    1    4    4    0    0  0.27762600829E-02  0.35570539816E-01 -0.77518082647E-01  0.85336306348E-01  0.51100000000E-03 0.  1.
         11    1    4    4    0    0 -0.58870031059E-02  0.47614119841E-01 -0.25477606369E-01  0.54324310959E-01  0.51100000000E-03 0. -1.
</event>
<event>
 8    1  0.2107254E+004  0.1043930E+01  0.7957747E-01            NaN
         13   -1    0    0    0    0  0.00000000000E+00  0.00000000000E+00  0.74505805969E-08  0.10566000000E+00  0.10566000000E+00 0. -1.
     999900   -1    0    0    0    0 -0.00000000000E+00 -0.00000000000E+00 -0.74505805969E-08  0.93827000000E+00  0.93827000000E+00 0. -1.
     999902    2    1    2    0    0  0.30709318195E-02 -0.40612057617E-02  0.16335170643E-01  0.10268197161E+01  0.10266771487E+01 0.  0.
     999903    2    3    3    0    0  0.11188144270E+00  0.45275180803E-01  0.50227009870E-01  0.13810015232E+00  0.44515169684E-01 0.  0.
         14    1    1    2    0    0 -0.30709318195E-02  0.40612057617E-02 -0.16335170643E-01  0.17110283879E-01  0.00000000000E+00 0.  1.
     999901    1    3    3    0    0 -0.10881051088E+00 -0.49336386565E-01 -0.33891839227E-01  0.88871956380E+00  0.88000000000E+00 0. -1.
        -11    1    4    4    0    0  0.52554797423E-01  0.28006610046E-01  0.47624646017E-01  0.76254475067E-01  0.51100000000E-03 0.  1.
         11    1    4    4    0    0  0.59326645280E-01  0.17268570757E-01  0.26023638527E-02  0.61845677252E-01  0.51100000000E-03 0. -1.
</event>
<event>
 8    1  0.2107254E+004  0.1043930E+01  0.7957747E-01            NaN
         13   -1    0    0    0    0  0.00000000000E+00  0.00000000000E+00  0.74505805969E-08  0.10566000000E+00  0.10566000000E+00 0. -1.
     999900   -1    0    0    0    0 -0.00000000000E+00 -0.00000000000E+00 -0.74505805969E-08  0.93827000000E+00  0.93827000000E+00 0.  1.
     999902    2    1    2    0    0 -0.15565812261E-01 -0.12090846491E-01  0.11477987273E-01  0.10211215088E+01  0.10208667437E+01 0.  0.
     999903    2    3    3    0    0 -0.79264513694E-01  0.64477816115E-02 -0.95449641213E-01  0.13217003483E+00  0.45098193751E-01 0.  0.
         14    1    1    2    0    0  0.15565812261E-01  0.12090846491E-01 -0.11477987273E-01  0.22808491227E-01  0.00000000000E+00 0.  1.
     999901    1    3    3    0    0  0.63698701433E-01 -0.18538628102E-01  0.10692762849E+00  0.88895147395E+00  0.88000000000E+00 0. -1.
        -11    1    4    4    0    0 -0.71522087188E-02 -0.11745106370E-01 -0.30373254194E-01  0.33345124150E-01  0.51100000000E-03 0.  1.
         11    1    4    4    0    0 -0.72112304976E-01  0.18192887982E-01 -0.65076387019E-01  0.98824910677E-01  0.51100000000E-03 0. -1.
</event>
<event>
 8    1  0.2152404E+004  0.1043930E+01  0.7957747E-01            NaN
         13   -1    0    0    0    0  0.00000000000E+00  0.00000000000E+00  0.74505805969E-08  0.10566000000E+00  0.10566000000E+00 0. -1.
     999900   -1    0    0    0    0 -0.00000000000E+00 -0.00000000000E+00 -0.74505805969E-08  0.93827000000E+00  0.93827000000E+00 0.  1.
     999902    2    1    2    0    0  0.18252713099E-02  0.86034892044E-03 -0.15238955125E-01  0.10285580265E+01  0.10284431517E+01 0.  0.
     999903    2    3    3    0    0 -0.56148030170E-01  0.63563663471E-01 -0.10202839460E+00  0.14017465423E+00  0.45234939806E-01 0.  0.
         14    1    1    2    0    0 -0.18252713099E-02 -0.86034892044E-03  0.15238955125E-01  0.15371973488E-01  0.00000000000E+00 0. -1.
     999901    1    3    3    0    0  0.57973301480E-01 -0.62703314551E-01  0.86789439472E-01  0.88838337228E+00  0.88000000000E+00 0. -1.
        -11    1    4    4    0    0 -0.31245133497E-01  0.56107972699E-01 -0.47877767941E-01  0.80105585022E-01  0.51100000000E-03 0. -1.
         11    1    4    4    0    0 -0.24902896673E-01  0.74556907721E-02 -0.54150626656E-01  0.60069069210E-01  0.51100000000E-03 0.  1.
</event>
<event>
 8    1  0.2107254E+004  0.1043930E+01  0.7957747E-01            NaN
         13   -1    0    0    0    0  0.00000000000E+00  0.00000000000E+00  0.74505805969E-08  0.10566000000E+00  0.10566000000E+00 0.  1.
     999900   -1    0    0    0    0 -0.00000000000E+00 -0.00000000000E+00 -0.74505805969E-08  0.93827000000E+00  0.93827000000E+00 0. -1.
     999902    2    1    2    0    0 -0.12182140733E-01  0.33789704671E-02 -0.59840321592E-02  0.10299431978E+01  0.10298482219E+01 0.  0.
     999903    2    3    3    0    0 -0.11577527655E+00  0.52135413632E-01 -0.44330579926E-01  0.14169819431E+00  0.44622437636E-01 0.  0.
         14    1    1    2    0    0  0.12182140733E-01 -0.33789704671E-02  0.59840321592E-02  0.13986802177E-01  0.00000000000E+00 0. -1.
     999901    1    3    3    0    0  0.10359313581E+00 -0.48756443165E-01  0.38346547766E-01  0.88824500351E+00  0.88000000000E+00 0.  1.
        -11    1    4    4    0    0 -0.10430564134E+00  0.51002761626E-01 -0.24362589324E-01  0.11863703211E+00  0.51100000000E-03 0.  1.
         11    1    4    4    0    0 -0.11469635207E-01  0.11326520064E-02 -0.19967990601E-01  0.23061162200E-01  0.51100000000E-03 0. -1.
</event>
<event>
 8    1  0.2107254E+004  0.1043930E+01  0.7957747E-01            NaN
         13   -1    0    0    0    0  0.00000000000E+00  0.00000000000E+00  0.74505805969E-08  0.10566000000E+00  0.10566000000E+00 0.  1.
     999900   -1    0    0    0    0 -0.00000000000E+00 -0.00000000000E+00 -0.74505805969E-08  0.93827000000E+00  0.93827000000E+00 0. -1.
     999902    2    1    2    0    0 -0.28216005900E-02 -0.14507598039E-01  0.84170146218E-03  0.10291266121E+01  0.10290201376E+01 0.  0.
     999903    2    3    3    0    0  0.11542628368E+00  0.10031850375E-01 -0.61075186774E-01  0.13872308131E+00  0.45717063141E-01 0.  0.
         14    1    1    2    0    0  0.28216005900E-02  0.14507598039E-01 -0.84170146218E-03  0.14803387859E-01  0.00000000000E+00 0.  1.
     999901    1    3    3    0    0 -0.11824788427E+00 -0.24539448414E-01  0.61916888236E-01  0.89040353083E+00  0.88000000000E+00 0. -1.
        -11    1    4    4    0    0  0.99687138016E-01 -0.39120058135E-02 -0.36158809013E-01  0.10611573807E+00  0.51100000000E-03 0.  1.
         11    1    4    4    0    0  0.15739145668E-01  0.13943856189E-01 -0.24916377761E-01  0.32607343245E-01  0.51100000000E-03 0. -1.
</event>
<event>
 8    1  0.2107254E+004  0.1043930E+01  0.7957747E-01            NaN
         13   -1    0    0    0    0  0.00000000000E+00  0.00000000000E+00  0.74505805969E-08  0.10566000000E+00  0.10566000000E+00 0.  1.
     999900   -1    0    0    0    0 -0.00000000000E+00 -0.00000000000E+00 -0.74505805969E-08  0.93827000000E+00  0.93827000000E+00 0. -1.
     999902    2    1    2    0    0 -0.10954562184E-01 -0.81328328210E-02  0.63741429192E-02  0.10288709462E+01  0.10287607345E+01 0.  0.
     999903    2    3    3    0    0 -0.43236361503E-01 -0.11014166502E+00  0.61634252636E-01  0.14066961988E+00  0.44593626572E-01 0.  0.
         14    1    1    2    0    0  0.10954562184E-01  0.81328328210E-02 -0.63741429192E-02  0.15059053764E-01  0.00000000000E+00 0. -1.
     999901    1    3    3    0    0  0.32281799320E-01  0.10200883219E+00 -0.55260109716E-01  0.88820132636E+00  0.88000000000E+00 0. -1.
        -11    1    4    4    0    0 -0.14312435633E-01 -0.68043841282E-02 -0.18880976258E-02  0.15967826739E-01  0.51100000000E-03 0. -1.
         11    1    4    4    0    0 -0.28923925870E-01 -0.10333728089E+00  0.63522350261E-01  0.12470179314E+00  0.51100000000E-03 0.  1.
</event>
<event>
 8    1  0.2499174E+004  0.1043930E+01  0.7957747E-01            NaN
         13   -1    0    0    0    0  0.00000000000E+00  0.00000000000E+00  0.74505805969E-08  0.10566000000E+00  0.10566000000E+00 0. -1.
     999900   -1    0    0    0    0 -0.00000000000E+00 -0.00000000000E+00 -0.74505805969E-08  0.93827000000E+00  0.93827000000E+00 0.  1.
     999902    2    1    2    0    0 -0.90840495329E-02  0.80556193610E-02  0.67490735980E-02  0.10300388894E+01  0.10299452173E+01 0.  0.
     999903    2    3    3    0    0  0.11950208503E+00 -0.50110620464E-01  0.21059864201E-01  0.13867897097E+00  0.44682395864E-01 0.  0.
         14    1    1    2    0    0  0.90840495329E-02 -0.80556193610E-02 -0.67490735980E-02  0.13891110598E-01  0.00000000000E+00 0.  1.
     999901    1    3    3    0    0 -0.12858613456E+00  0.58166239825E-01 -0.14310790603E-01  0.89135991843E+00  0.88000000000E+00 0.  1.
        -11    1    4    4    0    0  0.69822513910E-01 -0.19901845012E-01  0.32285331640E-01  0.79459868133E-01  0.51100000000E-03 0. -1.
         11    1    4    4    0    0  0.49679571118E-01 -0.30208775451E-01 -0.11225467439E-01  0.59219102838E-01  0.51100000000E-03 0.  1.
</event>
<event>
 8    1  0.2107254E+004  0.1043930E+01  0.7957747E-01            NaN
         13   -1    0    0    0    0  0.00000000000E+00  0.00000000000E+00  0.74505805969E-08  0.10566000000E+00  0.10566000000E+00 0. -1.
     999900   -1    0    0    0    0 -0.00000000000E+00 -0.00000000000E+00 -0.74505805969E-08  0.93827000000E+00  0.93827000000E+00 0. -1.
     999902    2    1    2    0    0  0.14053009091E-01  0.32914246091E-02 -0.21162108666E-02  0.10293423721E+01  0.10292390004E+01 0.  0.
     999903    2    3    3    0    0 -0.57489158202E-01  0.83334637221E-01 -0.83932004691E-01  0.13905083458E+00  0.45176189690E-01 0.  0.
         14    1    1    2    0    0 -0.14053009091E-01 -0.32914246091E-02  0.21162108666E-02  0.14587627940E-01  0.00000000000E+00 0.  1.
     999901    1    3    3    0    0  0.71542167294E-01 -0.80043212612E-01  0.81815793825E-01  0.89029153748E+00  0.88000000000E+00 0.  1.
        -11    1    4    4    0    0 -0.51059925437E-01  0.87965774677E-01 -0.82540879679E-01  0.13098989060E+00  0.51100000000E-03 0.  1.
         11    1    4    4    0    0 -0.64292327656E-02 -0.46311374556E-02 -0.13911250119E-02  0.80609439823E-02  0.51100000000E-03 0. -1.
</event>
<event>
 8    1  0.2107254E+004  0.1043930E+01  0.7957747E-01            NaN
         13   -1    0    0    0    0  0.00000000000E+00  0.00000000000E+00  0.74505805969E-08  0.10566000000E+00  0.10566000000E+00 0.  1.
     999900   -1    0    0    0    0 -0.00000000000E+00 -0.00000000000E+00 -0.74505805969E-08  0.93827000000E+00  0.93827000000E+00 0.  1.
     999902    2    1    2    0    0  0.10595891545E-01  0.44842316943E-02  0.37979138601E-02  0.10318136721E+01  0.10317425302E+01 0.  0.
     999903    2    3    3    0    0 -0.10037933597E+00  0.74479255562E-01 -0.46065821302E-01  0.14069011359E+00  0.45260110149E-01 0.  0.
         14    1    1    2    0    0 -0.10595891545E-01 -0.44842316943E-02 -0.37979138601E-02  0.12116327876E-01  0.00000000000E+00 0. -1.
     999901    1    3    3    0    0  0.11097522752E+00 -0.69995023867E-01  0.49863735162E-01  0.89112355853E+00  0.88000000000E+00 0. -1.
        -11    1    4    4    0    0 -0.72648230576E-01  0.29596946615E-01 -0.16338086641E-01  0.80130760953E-01  0.51100000000E-03 0. -1.
         11    1    4    4    0    0 -0.27731105396E-01  0.44882308946E-01 -0.29727734661E-01  0.60559352638E-01  0.51100000000E-03 0.  1.
</event>
<event>
 8    1  0.2107254E+004  0.1043930E+01  0.7957747E-01            NaN
         13   -1    0    0    0    0  0.00000000000E+00  0.00000000000E+00  0.74505805969E-08  0.10566000000E+00  0.10566000000E+00 0. -1.
     999900   -1    0    0    0    0 -0.00000000000E+00 -0.00000000000E+00 -0.74505805969E-08  0.93827000000E+00  0.93827000000E+00 0. -1.
     999902    2    1    2    0    0 -0.37183142524E-02  0.18423263402E-01 -0.20202791390E-02  0.10250269838E+01  0.10248526691E+01 0.  0.
     999903    2    3    3    0    0  0.12216358013E+00  0.32325853174E-01 -0.19990594996E-01  0.13577872506E+00  0.45467979921E-01 0.  0.
         14    1    1    2    0    0  0.37183142524E-02 -0.18423263402E-01  0.20202791390E-02  0.18903016243E-01  0.00000000000E+00 0. -1.
     999901    1    3    3    0    0 -0.12588189438E+00 -0.13902589772E-01  0.17970315857E-01  0.88924825869E+00  0.88000000000E+00 0.  1.
        -11    1    4    4    0    0  0.36882621528E-01 -0.90425458374E-02 -0.15088035470E-01  0.40865698836E-01  0.51100000000E-03 0. -1.
         11    1    4    4    0    0  0.85280958603E-01  0.41368399011E-01 -0.49025595258E-02  0.94913026229E-01  0.51100000000E-03 0.  1.
</event>
<event>
 8    1  0.2107254E+004  0.1043930E+01  0.7957747E-01            NaN
         13   -1    0    0    0    0  0.00000000000E+00  0.00000000000E+00  0.74505805969E-08  0.10566000000E+00  0.10566000000E+00 0. -1.
     999900   -1    0    0    0    0 -0.00000000000E+00 -0.00000000000E+00 -0.74505805969E-08  0.93827000000E+00  0.93827000000E+00 0. -1.
     999902    2    1    2    0    0  0.10367021375E-01 -0.66526858934E-02 -0.79426104717E-02  0.10292733147E+01  0.10291689550E+01 0.  0.
     999903    2    3    3    0    0 -0.29628560231E-01  0.26274585076E-01  0.12432061809E+00  0.13788259606E+00  0.44584625278E-01 0.  0.
         14    1    1    2    0    0 -0.10367021375E-01  0.66526858934E-02  0.79426104717E-02  0.14656685263E-01  0.00000000000E+00 0.  1.
     999901    1    3    3    0    0  0.39995581606E-01 -0.32927270969E-01 -0.13226322856E+00  0.89139071868E+00  0.88000000000E+00 0. -1.
        -11    1    4    4    0    0 -0.17037778621E-01 -0.95241720776E-02  0.61112666266E-01  0.64156175488E-01  0.51100000000E-03 0.  1.
         11    1    4    4    0    0 -0.12590781610E-01  0.35798757153E-01  0.63207951822E-01  0.73726420568E-01  0.51100000000E-03 0. -1.
</event>
<event>
 8    1  0.2240224E+004  0.1043930E+01  0.7957747E-01            NaN
         13   -1    0    0    0    0  0.00000000000E+00  0.00000000000E+00  0.74505805969E-08  0.10566000000E+00  0.10566000000E+00 0. -1.
     999900   -1    0    0    0    0 -0.00000000000E+00 -0.00000000000E+00 -0.74505805969E-08  0.93827000000E+00  0.93827000000E+00 0. -1.
     999902    2    1    2    0    0 -0.10798022980E-01  0.11194328857E-01  0.55094109562E-02  0.10274295786E+01  0.10272970724E+01 0.  0.
     999903    2    3    3    0    0 -0.73044012319E-01 -0.80778966656E-01  0.72619970667E-01  0.13791427374E+00  0.43428303805E-01 0.  0.
         14    1    1    2    0    0  0.10798022980E-01 -0.11194328857E-01 -0.55094109562E-02  0.16500421446E-01  0.00000000000E+00 0.  1.
     999901    1    3    3    0    0  0.62245989340E-01  0.91973295512E-01 -0.67110559711E-01  0.88951530482E+00  0.88000000000E+00 0.  1.
        -11    1    4    4    0    0 -0.60312575573E-01 -0.35764761880E-01  0.38356890129E-01  0.79926448101E-01  0.51100000000E-03 0. -1.
         11    1    4    4    0    0 -0.12731436746E-01 -0.45014204776E-01  0.34263080538E-01  0.57987825637E-01  0.51100000000E-03 0.  1.
</event>
<event>
 8    1  0.2107254E+004  0.1043930E+01  0.7957747E-01            NaN
         13   -1    0    0    0    0  0.00000000000E+00  0.00000000000E+00  0.74505805969E-08  0.10566000000E+00  0.10566000000E+00 0.  1.
     999900   -1    0    0    0    0 -0.00000000000E+00 -0.00000000000E+00 -0.74505805969E-08  0.93827000000E+00  0.93827000000E+00 0. -1.
     999902    2    1    2    0    0 -0.93134412869E-02 -0.14598951934E-01  0.37431800042E-03  0.10266092119E+01  0.10264630847E+01 0.  0.
     999903    2    3    3    0    0  0.82072518327E-01 -0.80591138748E-01  0.59994658784E-01  0.13741803597E+00  0.45315864964E-01 0.  0.
         14    1    1    2    0    0  0.93134412869E-02  0.14598951934E-01 -0.37431800042E-03  0.17320788092E-01  0.00000000000E+00 0.  1.
     999901    1    3    3    0    0 -0.91385959614E-01  0.65992186814E-01 -0.59620340783E-01  0.88919117594E+00  0.88000000000E+00 0. -1.
        -11    1    4    4    0    0  0.63323191871E-01 -0.83250469649E-01  0.48895209662E-01  0.11546198498E+00  0.51100000000E-03 0.  1.
         11    1    4    4    0    0  0.18749326456E-01  0.26593309007E-02  0.11099449121E-01  0.21956050992E-01  0.51100000000E-03 0. -1.
</event>
<event>
 8    1  0.2107254E+004  0.1043930E+01  0.7957747E-01            NaN
         13   -1    0    0    0    0  0.00000000000E+00  0.00000000000E+00  0.74505805969E-08  0.10566000000E+00  0.10566000000E+00 0.  1.
     999900   -1    0    0    0    0 -0.00000000000E+00 -0.00000000000E+00 -0.74505805969E-08  0.93827000000E+00  0.93827000000E+00 0. -1.
     999902    2    1    2    0    0  0.43213563859E-02 -0.14468584939E-01 -0.50700896311E-02  0.10280014131E+01  0.10278780013E+01 0.  0.
     999903    2    3    3    0    0  0.22237606824E-03 -0.24036420020E-01 -0.12945463227E+00  0.13919330135E+00  0.45149467160E-01 0.  0.
         14    1    1    2    0    0 -0.43213563859E-02  0.14468584939E-01  0.50700896311E-02  0.15928586881E-01  0.00000000000E+00 0. -1.
     999901    1    3    3    0    0  0.40989803176E-02  0.95678350803E-02  0.12438454264E+00  0.88880811177E+00  0.88000000000E+00 0.  1.
        -11    1    4    4    0    0 -0.15019628061E-01 -0.23676386609E-01 -0.11430210538E+00  0.11769194078E+00  0.51100000000E-03 0.  1.
         11    1    4    4    0    0  0.15242004129E-01 -0.36003341102E-03 -0.15152526892E-01  0.21501360565E-01  0.51100000000E-03 0. -1.
</event>
<event>
 8    1  0.2107254E+004  0.1043930E+01  0.7957747E-01            NaN
         13   -1    0    0    0    0  0.00000000000E+00  0.00000000000E+00  0.74505805969E-08  0.10566000000E+00  0.10566000000E+00 0.  1.
     999900   -1    0    0    0    0 -0.00000000000E+00 -0.00000000000E+00 -0.74505805969E-08  0.93827000000E+00  0.93827000000E+00 0. -1.
     999902    2    1    2    0    0 -0.78927527814E-03 -0.38890791521E-02  0.14356646328E-01  0.10290349946E+01  0.10289271883E+01 0.  0.
     999903    2    3    3    0    0 -0.81819034787E-02 -0.10969308953E+00 -0.69351221097E-01  0.13872260749E+00  0.48320311749E-01 0.  0.
         14    1    1    2    0    0  0.78927527814E-03  0.38890791521E-02 -0.14356646328E-01  0.14895005402E-01  0.00000000000E+00 0. -1.
     999901    1    3    3    0    0  0.73926282005E-02  0.10580401038E+00  0.83707867426E-01  0.89031238710E+00  0.88000000000E+00 0.  1.
        -11    1    4    4    0    0  0.24787863542E-02 -0.68824084228E-01 -0.16054200318E-01  0.70717023555E-01  0.51100000000E-03 0.  1.
         11    1    4    4    0    0 -0.10660689833E-01 -0.40869005299E-01 -0.53297020779E-01  0.68005583938E-01  0.51100000000E-03 0. -1.
</event>
<event>
 7    1  0.2107254E+004  0.1043930E+01  0.7957747E-01            NaN
         13   -1    0    0    0    0  0.00000000000E+00  0.00000000000E+00  0.74505805969E-08  0.10566000000E+00  0.10566000000E+00 0.  1.
     999900   -1    0    0    0    0 -0.00000000000E+00 -0.00000000000E+00 -0.74505805969E-08  0.93827000000E+00  0.93827000000E+00 0.  1.
     999903    2    1    2    0    0  0.48561241901E-01 -0.42754870806E-01  0.68358954789E-01  0.10138986176E+00  0.37693290854E-01 0.  0.
         14    1    1    2    0    0 -0.26103032158E-01 -0.44382564883E-01 -0.24084604024E-01  0.56844071849E-01  0.00000000000E+00 0. -1.
     999901    1    1    2    0    0 -0.22458209743E-01  0.87137435689E-01 -0.44274350765E-01  0.88569606639E+00  0.88000000000E+00 0.  1.
        -11    1    3    3    0    0  0.51777856003E-01 -0.33967378176E-01  0.45988862188E-01  0.77136020890E-01  0.51100000000E-03 0. -1.
         11    1    3    3    0    0 -0.32166141015E-02 -0.87874926295E-02  0.22370092601E-01  0.24253840871E-01  0.51100000000E-03 0.  1.
</event>
<event>
 8    1  0.2107254E+004  0.1043930E+01  0.7957747E-01            NaN
         13   -1    0    0    0    0  0.00000000000E+00  0.00000000000E+00  0.74505805969E-08  0.10566000000E+00  0.10566000000E+00 0.  1.
     999900   -1    0    0    0    0 -0.00000000000E+00 -0.00000000000E+00 -0.74505805969E-08  0.93827000000E+00  0.93827000000E+00 0.  1.
     999902    2    1    2    0    0  0.18320420017E-02 -0.13275037829E-01 -0.25761696118E-02  0.10302837677E+01  0.10301933907E+01 0.  0.
     999903    2    3    3    0    0  0.69163855247E-01  0.10506024182E+00 -0.39210586445E-01  0.13906051169E+00  0.44486655733E-01 0.  0.
         14    1    1    2    0    0 -0.18320420017E-02  0.13275037829E-01  0.25761696118E-02  0.13646232341E-01  0.00000000000E+00 0.  1.
     999901    1    3    3    0    0 -0.67331813245E-01 -0.11833527965E+00  0.36634416833E-01  0.89122325597E+00  0.88000000000E+00 0.  1.
        -11    1    4    4    0    0  0.13447443630E-01  0.16936590291E-01 -0.26222612432E-01  0.33993651681E-01  0.51100000000E-03 0.  1.
         11    1    4    4    0    0  0.55716411617E-01  0.88123651528E-01 -0.12987974014E-01  0.10506686001E+00  0.51100000000E-03 0. -1.
</event>
<event>
 8    1  0.2107254E+004  0.1043930E+01  0.7957747E-01            NaN
         13   -1    0    0    0    0  0.00000000000E+00  0.00000000000E+00  0.74505805969E-08  0.10566000000E+00  0.10566000000E+00 0. -1.
     999900   -1    0    0    0    0 -0.00000000000E+00 -0.00000000000E+00 -0.74505805969E-08  0.93827000000E+00  0.93827000000E+00 0. -1.
     999902    2    1    2    0    0  0.33550938010E-02 -0.58495033322E-03  0.13519567750E-01  0.10299880656E+01  0.10298937022E+01 0.  0.
     999903    2    3    3    0    0 -0.41231699710E-01  0.12491822041E+00  0.19069064483E-01  0.13994883902E+00  0.43788508430E-01 0.  0.
         14    1    1    2    0    0 -0.33550938010E-02  0.58495033322E-03 -0.13519567750E-01  0.13941934351E-01  0.00000000000E+00 0.  1.
     999901    1    3    3    0    0  0.44586793511E-01 -0.12550317075E+00 -0.55494967334E-02  0.89003922663E+00  0.88000000000E+00 0.  1.
        -11    1    4    4    0    0 -0.21172160386E-01  0.10175700229E+00  0.15562709302E-03  0.10393764107E+00  0.51100000000E-03 0. -1.
         11    1    4    4    0    0 -0.20059539323E-01  0.23161218122E-01  0.18913437390E-01  0.36011197948E-01  0.51100000000E-03 0.  1.
</event>
<event>
 8    1  0.2107254E+004  0.1043930E+01  0.7957747E-01            NaN
         13   -1    0    0    0    0  0.00000000000E+00  0.00000000000E+00  0.74505805969E-08  0.10566000000E+00  0.10566000000E+00 0.  1.
     999900   -1    0    0    0    0 -0.00000000000E+00 -0.00000000000E+00 -0.74505805969E-08  0.93827000000E+00  0.93827000000E+00 0. -1.
     999902    2    1    2    0    0 -0.91799388206E-02  0.47499817463E-02  0.87465079149E-02  0.10303898743E+01  0.10303009066E+01 0.  0.
     999903    2    3    3    0    0 -0.12381686237E+00  0.38977244500E-02  0.50924294211E-01  0.14195230404E+00  0.47025155167E-01 0.  0.
         14    1    1    2    0    0  0.91799388206E-02 -0.47499817463E-02 -0.87465079149E-02  0.13540125703E-01  0.00000000000E+00 0. -1.
     999901    1    3    3    0    0  0.11463692355E+00  0.85225729635E-03 -0.42177786296E-01  0.88843757026E+00  0.88000000000E+00 0.  1.
        -11    1    4    4    0    0 -0.32422475913E-01 -0.25419681773E-02  0.37023112344E-01  0.49281340436E-01  0.51100000000E-03 0.  1.
         11    1    4    4    0    0 -0.91394386459E-01  0.64396926273E-02  0.13901181867E-01  0.92670963606E-01  0.51100000000E-03 0. -1.
</event>
<event>
 8    1  0.2107254E+004  0.1043930E+01  0.7957747E-01            NaN
         13   -1    0    0    0    0  0.00000000000E+00  0.00000000000E+00  0.74505805969E-08  0.10566000000E+00  0.10566000000E+00 0. -1.
     999900   -1    0    0    0    0 -0.00000000000E+00 -0.00000000000E+00 -0.74505805969E-08  0.93827000000E+00  0.93827000000E+00 0. -1.
     999902    2    1    2    0    0  0.66931600953E-02  0.12257461149E-01 -0.34177103351E-03  0.10299600124E+01  0.10298652662E+01 0.  0.
     999903    2    3    3    0    0  0.12261457726E+00  0.15144951104E-01 -0.50045064612E-01  0.14096252650E+00  0.45849986747E-01 0.  0.
         14    1    1    2    0    0 -0.66931600953E-02 -0.12257461149E-01  0.34177103351E-03  0.13969987592E-01  0.00000000000E+00 0.  1.
     999901    1    3    3    0    0 -0.11592141717E+00 -0.28874899550E-02  0.49703293579E-01  0.88899748591E+00  0.88000000000E+00 0. -1.
        -11    1    4    4    0    0  0.10822835894E+00  0.24070218843E-01 -0.30282861141E-01  0.11493505085E+00  0.51100000000E-03 0.  1.
         11    1    4    4    0    0  0.14386218323E-01 -0.89252677387E-02 -0.19762203471E-01  0.26027475653E-01  0.51100000000E-03 0. -1.
</event>
<event>
 8    1  0.2107254E+004  0.1043930E+01  0.7957747E-01            NaN
         13   -1    0    0    0    0  0.00000000000E+00  0.00000000000E+00  0.74505805969E-08  0.10566000000E+00  0.10566000000E+00 0. -1.
     999900   -1    0    0    0    0 -0.00000000000E+00 -0.00000000000E+00 -0.74505805969E-08  0.93827000000E+00  0.93827000000E+00 0.  1.
     999902    2    1    2    0    0 -0.11431706867E-01 -0.46253036809E-03 -0.82351093294E-02  0.10298333734E+01  0.10297368897E+01 0.  0.
     999903    2    3    3    0    0 -0.89522861788E-01  0.97252603140E-01  0.16296937287E-01  0.14064931083E+00  0.45213127204E-01 0.  0.
         14    1    1    2    0    0  0.11431706867E-01  0.46253036809E-03  0.82351093294E-02  0.14096626614E-01  0.00000000000E+00 0. -1.
     999901    1    3    3    0    0  0.78091154922E-01 -0.97715133508E-01 -0.24532046617E-01  0.88918406256E+00  0.88000000000E+00 0. -1.
        -11    1    4    4    0    0 -0.84250258706E-01  0.63419000214E-01  0.12708995044E-01  0.10621607861E+00  0.51100000000E-03 0.  1.
         11    1    4    4    0    0 -0.52726030821E-02  0.33833602926E-01  0.35879422430E-02  0.34433232215E-01  0.51100000000E-03 0. -1.
</event>
<event>
 8    1  0.2107254E+004  0.1043930E+01  0.7957747E-01            NaN
         13   -1    0    0    0    0  0.00000000000E+00  0.00000000000E+00  0.74505805969E-08  0.10566000000E+00  0.10566000000E+00 0. -1.
     999900   -1    0    0    0    0 -0.00000000000E+00 -0.00000000000E+00 -0.74505805969E-08  0.93827000000E+00  0.93827000000E+00 0. -1.
     999902    2    1    2    0    0  0.62168831705E-02 -0.15918391772E-01  0.29469869982E-02  0.10265884440E+01  0.10264419632E+01 0.  0.
     999903    2    3    3    0    0  0.17708107257E-01 -0.22813501245E-01  0.12665583509E+00  0.13783455799E+00  0.46072029612E-01 0.  0.
         14    1    1    2    0    0 -0.62168831705E-02  0.15918391772E-01 -0.29469869982E-02  0.17341556024E-01  0.00000000000E+00 0.  1.
     999901    1    3    3    0    0 -0.11491224086E-01  0.68951094735E-02 -0.12370884809E+00  0.88875388599E+00  0.88000000000E+00 0. -1.
        -11    1    4    4    0    0  0.26184983211E-01 -0.32287257058E-01  0.93741184814E-01  0.10254653171E+00  0.51100000000E-03 0.  1.
         11    1    4    4    0    0 -0.84768759543E-02  0.94737558125E-02  0.32914650272E-01  0.35288026279E-01  0.51100000000E-03 0. -1.
</event>
<event>
 8    1  0.2107254E+004  0.1043930E+01  0.7957747E-01            NaN
         13   -1    0    0    0    0  0.00000000000E+00  0.00000000000E+00  0.74505805969E-08  0.10566000000E+00  0.10566000000E+00 0.  1.
     999900   -1    0    0    0    0 -0.00000000000E+00 -0.00000000000E+00 -0.74505805969E-08  0.93827000000E+00  0.93827000000E+00 0. -1.
     999902    2    1    2    0    0 -0.10167381284E-01  0.72998712921E-02 -0.39492505736E-02  0.10308052012E+01  0.10307216416E+01 0.  0.
     999903    2    3    3    0    0  0.15547829902E-01 -0.12638587318E+00  0.34749675944E-01  0.13949674884E+00  0.45129580149E-01 0.  0.
         14    1    1    2    0    0  0.10167381284E-01 -0.72998712921E-02  0.39492505736E-02  0.13124798785E-01  0.00000000000E+00 0.  1.
     999901    1    3    3    0    0 -0.25715211186E-01  0.13368574447E+00 -0.38698926517E-01  0.89130845237E+00  0.88000000000E+00 0.  1.
        -11    1    4    4    0    0  0.14255084531E-01 -0.50613129680E-01 -0.68754653822E-02  0.53032343681E-01  0.51100000000E-03 0. -1.
         11    1    4    4    0    0  0.12927453710E-02 -0.75772743500E-01  0.41625141326E-01  0.86464405159E-01  0.51100000000E-03 0.  1.
</event>
<event>
 8    1  0.2107254E+004  0.1043930E+01  0.7957747E-01            NaN
         13   -1    0    0    0    0  0.00000000000E+00  0.00000000000E+00  0.74505805969E-08  0.10566000000E+00  0.10566000000E+00 0.  1.
     999900   -1    0    0    0    0 -0.00000000000E+00 -0.00000000000E+00 -0.74505805969E-08  0.93827000000E+00  0.93827000000E+00 0.  1.
     999902    2    1    2    0    0  0.20002425690E-01  0.27213749011E-02 -0.32098702008E-03  0.10237407467E+01  0.10235416506E+01 0.  0.
     999903    2    3    3    0    0  0.72780674499E-01  0.32412144727E-01  0.95596587674E-01  0.13645991943E+00  0.55991323704E-01 0.  0.
         14    1    1    2    0    0 -0.20002425690E-01 -0.27213749011E-02  0.32098702008E-03  0.20189253267E-01  0.00000000000E+00 0. -1.
     999901    1    3    3    0    0 -0.52778248810E-01 -0.29690769826E-01 -0.95917574694E-01  0.88728082730E+00  0.88000000000E+00 0.  1.
        -11    1    4    4    0    0  0.40012413008E-01 -0.11804319035E-01  0.48923078665E-01  0.64296686460E-01  0.51100000000E-03 0. -1.
         11    1    4    4    0    0  0.32768261491E-01  0.44216463763E-01  0.46673509008E-01  0.72163232972E-01  0.51100000000E-03 0.  1.
</event>
<event>
 8    1  0.2107254E+004  0.1043930E+01  0.7957747E-01            NaN
         13   -1    0    0    0    0  0.00000000000E+00  0.00000000000E+00  0.74505805969E-08  0.10566000000E+00  0.10566000000E+00 0.  1.
     999900   -1    0    0    0    0 -0.00000000000E+00 -0.00000000000E+00 -0.74505805969E-08  0.93827000000E+00  0.93827000000E+00 0.  1.
     999902    2    1    2    0    0 -0.71111686353E-02 -0.11624317736E-01 -0.23070383894E-02  0.10301091495E+01  0.10300164290E+01 0.  0.
     999903    2    3    3    0    0 -0.13476754001E+00 -0.32399344743E-04  0.11768773571E-01  0.14071123507E+00  0.38715071389E-01 0.  0.
         14    1    1    2    0    0  0.71111686353E-02  0.11624317736E-01  0.23070383894E-02  0.13820850492E-01  0.00000000000E+00 0. -1.
     999901    1    3    3    0    0  0.12765637138E+00 -0.11591918392E-01 -0.14075811961E-01  0.88939791444E+00  0.88000000000E+00 0.  1.
        -11    1    4    4    0    0 -0.96619450683E-01  0.17564052279E-01  0.82436449190E-02  0.98549647312E-01  0.51100000000E-03 0.  1.
         11    1    4    4    0    0 -0.38148089329E-01 -0.17596451623E-01  0.35251286524E-02  0.42161587757E-01  0.51100000000E-03 0. -1.
</event>
<event>
 8    1  0.2107254E+004  0.1043930E+01  0.7957747E-01            NaN
         13   -1    0    0    0    0  0.00000000000E+00  0.00000000000E+00  0.74505805969E-08  0.10566000000E+00  0.10566000000E+00 0. -1.
     999900   -1    0    0    0    0 -0.00000000000E+00 -0.00000000000E+00 -0.74505805969E-08  0.93827000000E+00  0.93827000000E+00 0.  1.
     999902    2    1    2    0    0  0.94855169919E-02 -0.10094760593E-01  0.21977916800E-02  0.10299046832E+01  0.10298091798E+01 0.  0.
     999903    2    3    3    0    0  0.64402846087E-01  0.46649684026E-01  0.10658428598E+00  0.14022362502E+00  0.44480730563E-01 0.  0.
         14    1    1    2    0    0 -0.94855169919E-02  0.10094760593E-01 -0.21977916800E-02  0.14025316834E-01  0.00000000000E+00 0.  1.
     999901    1    3    3    0    0 -0.54917329096E-01 -0.56744444619E-01 -0.10438649430E+00  0.88968105815E+00  0.88000000000E+00 0. -1.
        -11    1    4    4    0    0  0.13903414277E-01  0.21387918659E-01  0.65782229117E-01  0.70557145504E-01  0.51100000000E-03 0.  1.
         11    1    4    4    0    0  0.50499431810E-01  0.25261765368E-01  0.40802056866E-01  0.69666479516E-01  0.51100000000E-03 0. -1.
</event>
<event>
 8    1  0.2107254E+004  0.1043930E+01  0.7957747E-01            NaN
         13   -1    0    0    0    0  0.00000000000E+00  0.00000000000E+00  0.74505805969E-08  0.10566000000E+00  0.10566000000E+00 0.  1.
     999900   -1    0    0    0    0 -0.00000000000E+00 -0.00000000000E+00 -0.74505805969E-08  0.93827000000E+00  0.93827000000E+00 0.  1.
     999902    2    1    2    0    0 -0.16084637805E-02  0.62770496778E-03 -0.15423505559E-01  0.10284101516E+01  0.10282930391E+01 0.  0.
     999903    2    3    3    0    0  0.29243754420E-01  0.10866180463E+00 -0.68138508100E-01  0.13970204571E+00  0.47023614609E-01 0.  0.
         14    1    1    2    0    0  0.16084637805E-02 -0.62770496778E-03  0.15423505559E-01  0.15519848356E-01  0.00000000000E+00 0.  1.
     999901    1    3    3    0    0 -0.30852218201E-01 -0.10803409967E+00  0.52715002541E-01  0.88870810593E+00  0.88000000000E+00 0. -1.
        -11    1    4    4    0    0  0.13008303161E-01  0.40889721079E-01 -0.53336357886E-01  0.68455923298E-01  0.51100000000E-03 0.  1.
         11    1    4    4    0    0  0.16235451259E-01  0.67772083554E-01 -0.14802150214E-01  0.71246122413E-01  0.51100000000E-03 0. -1.
</event>
<event>
 8    1  0.2107254E+004  0.1043930E+01  0.7957747E-01            NaN
         13   -1    0    0    0    0  0.00000000000E+00  0.00000000000E+00  0.74505805969E-08  0.10566000000E+00  0.10566000000E+00 0.  1.
     999900   -1    0    0    0    0 -0.00000000000E+00 -0.00000000000E+00 -0.74505805969E-08  0.93827000000E+00  0.93827000000E+00 0.  1.
     999902    2    1    2    0    0  0.62960654731E-03  0.24729782215E-02 -0.13919335141E-01  0.10297786779E+01  0.10296814389E+01 0.  0.
     999903    2    3    3    0    0  0.22245192937E-01  0.11402396168E+00  0.62422212113E-01  0.13919522461E+00  0.44524886787E-01 0.  0.
         14    1    1    2    0    0 -0.62960654731E-03 -0.24729782215E-02  0.13919335141E-01  0.14151322074E-01  0.00000000000E+00 0.  1.
     999901    1    3    3    0    0 -0.21615586390E-01 -0.11155098346E+00 -0.76341547254E-01  0.89058345332E+00  0.88000000000E+00 0.  1.
        -11    1    4    4    0    0  0.13233534173E-01  0.70759821292E-01  0.13459126594E-01  0.73235837850E-01  0.51100000000E-03 0. -1.
         11    1    4    4    0    0  0.90116587641E-02  0.43264140385E-01  0.48963085520E-01  0.65959386759E-01  0.51100000000E-03 0.  1.
</event>
<event>
 8    1  0.2107254E+004  0.1043930E+01  0.7957747E-01            NaN
         13   -1    0    0    0    0  0.00000000000E+00  0.00000000000E+00  0.74505805969E-08  0.10566000000E+00  0.10566000000E+00 0.  1.
     999900   -1    0    0    0    0 -0.00000000000E+00 -0.00000000000E+00 -0.74505805969E-08  0.93827000000E+00  0.93827000000E+00 0. -1.
     999902    2    1    2    0    0 -0.48305924837E-02 -0.11094843229E-01  0.72663277272E-03  0.10318073697E+01  0.10317361533E+01 0.  0.
     999903    2    3    3    0    0  0.11418732742E+00 -0.33561202129E-01  0.61563502133E-01  0.14143041178E+00  0.45248166245E-01 0.  0.
         14    1    1    2    0    0  0.48305924837E-02  0.11094843229E-01 -0.72663277272E-03  0.12122630292E-01  0.00000000000E+00 0. -1.
     999901    1    3    3    0    0 -0.11901791990E+00  0.22466358900E-01 -0.60836869361E-01  0.89037695793E+00  0.88000000000E+00 0. -1.
        -11    1    4    4    0    0  0.47845054478E-01  0.18530563369E-02  0.42072308955E-01  0.63741064923E-01  0.51100000000E-03 0.  1.
         11    1    4    4    0    0  0.66342272943E-01 -0.35414258466E-01  0.19491193178E-01  0.77689346853E-01  0.51100000000E-03 0. -1.
</event>
<event>
 8    1  0.2107254E+004  0.1043930E+01  0.7957747E-01            NaN
         13   -1    0    0    0    0  0.00000000000E+00  0.00000000000E+00  0.74505805969E-08  0.10566000000E+00  0.10566000000E+00 0. -1.
     999900   -1    0    0    0    0 -0.00000000000E+00 -0.00000000000E+00 -0.74505805969E-08  0.93827000000E+00  0.93827000000E+00 0. -1.
     999902    2    1    2    0    0 -0.47463674780E-02  0.10364993145E-01 -0.73881240086E-02  0.10303452489E+01  0.10302556898E+01 0.  0.
     999903    2    3    3    0    0  0.57370655175E-01  0.35285272530E-01  0.11379730598E+00  0.13952234095E+00  0.44499598227E-01 0.  0.
         14    1    1    2    0    0  0.47463674780E-02 -0.10364993145E-01  0.73881240086E-02  0.13584751138E-01  0.00000000000E+00 0. -1.
     999901    1    3    3    0    0 -0.62117022653E-01 -0.24920279385E-01 -0.12118542999E+00  0.89082290792E+00  0.88000000000E+00 0.  1.
        -11    1    4    4    0    0  0.31462605569E-01 -0.52014035234E-02  0.54978378334E-01  0.63559683393E-01  0.51100000000E-03 0. -1.
         11    1    4    4    0    0  0.25908049606E-01  0.40486676053E-01  0.58818927643E-01  0.75962657552E-01  0.51100000000E-03 0.  1.
</event>
<event>
 8    1  0.2107254E+004  0.1043930E+01  0.7957747E-01            NaN
         13   -1    0    0    0    0  0.00000000000E+00  0.00000000000E+00  0.74505805969E-08  0.10566000000E+00  0.10566000000E+00 0. -1.
     999900   -1    0    0    0    0 -0.00000000000E+00 -0.00000000000E+00 -0.74505805969E-08  0.93827000000E+00  0.93827000000E+00 0.  1.
     999902    2    1    2    0    0 -0.16267167907E-02 -0.10274573566E-01  0.91017738490E-02  0.10301077224E+01  0.10300149827E+01 0.  0.
     999903    2    3    3    0    0  0.91437352764E-01 -0.92210291544E-01  0.33132335517E-01  0.14109037120E+00  0.44104578476E-01 0.  0.
         14    1    1    2    0    0  0.16267167907E-02  0.10274573566E-01 -0.91017738490E-02  0.13822277550E-01  0.00000000000E+00 0.  1.
     999901    1    3    3    0    0 -0.93064069554E-01  0.81935717979E-01 -0.24030561668E-01  0.88901735125E+00  0.88000000000E+00 0. -1.
        -11    1    4    4    0    0  0.27136916662E-01 -0.35515542344E-01 -0.89579163931E-02  0.45588061825E-01  0.51100000000E-03 0.  1.
         11    1    4    4    0    0  0.64300436102E-01 -0.56694749201E-01  0.42090251910E-01  0.95502309379E-01  0.51100000000E-03 0. -1.
</event>
<event>
 8    1  0.2107254E+004  0.1043930E+01  0.7957747E-01            NaN
         13   -1    0    0    0    0  0.00000000000E+00  0.00000000000E+00  0.74505805969E-08  0.10566000000E+00  0.10566000000E+00 0.  1.
     999900   -1    0    0    0    0 -0.00000000000E+00 -0.00000000000E+00 -0.74505805969E-08  0.93827000000E+00  0.93827000000E+00 0.  1.
     999902    2    1    2    0    0  0.64380588982E-03 -0.10005439269E-01 -0.26905896814E-02  0.10335491246E+01  0.10334969910E+01 0.  0.
     999903    2    3    3    0    0  0.40305329863E-02  0.13411503626E+00 -0.76482702823E-02  0.14180546190E+00  0.45246047795E-01 0.  0.
         14    1    1    2    0    0 -0.64380588982E-03  0.10005439269E-01  0.26905896814E-02  0.10380875388E-01  0.00000000000E+00 0.  1.
     999901    1    3    3    0    0 -0.33867270964E-02 -0.14412047552E+00  0.49576806009E-02  0.89174366271E+00  0.88000000000E+00 0. -1.
        -11    1    4    4    0    0  0.24304362970E-01  0.85498195431E-01 -0.63221061676E-02  0.89111579656E-01  0.51100000000E-03 0.  1.
         11    1    4    4    0    0 -0.20273829984E-01  0.48616840824E-01 -0.13261641147E-02  0.52693882246E-01  0.51100000000E-03 0. -1.
</event>
<event>
 8    1  0.2107254E+004  0.1043930E+01  0.7957747E-01            NaN
         13   -1    0    0    0    0  0.00000000000E+00  0.00000000000E+00  0.74505805969E-08  0.10566000000E+00  0.10566000000E+00 0.  1.
     999900   -1    0    0    0    0 -0.00000000000E+00 -0.00000000000E+00 -0.74505805969E-08  0.93827000000E+00  0.93827000000E+00 0.  1.
     999902    2    1    2    0    0  0.11282130315E-01 -0.69751255858E-02 -0.73352929009E-02  0.10287726466E+01  0.10286609806E+01 0.  0.
     999903    2    3    3    0    0 -0.90357841796E-01  0.60852312638E-01  0.69812026314E-01  0.13698626285E+00  0.44988594826E-01 0.  0.
         14    1    1    2    0    0 -0.11282130315E-01  0.69751255858E-02  0.73352929009E-02  0.15157353441E-01  0.00000000000E+00 0.  1.
     999901    1    3    3    0    0  0.10163997211E+00 -0.67827438224E-01 -0.77147319215E-01  0.89178638371E+00  0.88000000000E+00 0. -1.
        -11    1    4    4    0    0 -0.67180831905E-01  0.43385360373E-01  0.72356754373E-01  0.10784857298E+00  0.51100000000E-03 0. -1.
         11    1    4    4    0    0 -0.23177009891E-01  0.17466952265E-01 -0.25447280594E-02  0.29137689867E-01  0.51100000000E-03 0.  1.
</event>
<event>
 8    1  0.2107254E+004  0.1043930E+01  0.7957747E-01            NaN
         13   -1    0    0    0    0  0.00000000000E+00  0.00000000000E+00  0.74505805969E-08  0.10566000000E+00  0.10566000000E+00 0. -1.
     999900   -1    0    0    0    0 -0.00000000000E+00 -0.00000000000E+00 -0.74505805969E-08  0.93827000000E+00  0.93827000000E+00 0.  1.
     999902    2    1    2    0    0 -0.88833120729E-02 -0.35721047635E-02  0.10196159817E-01  0.10299430475E+01  0.10298480695E+01 0.  0.
     999903    2    3    3    0    0  0.28803158898E-01 -0.58621003408E-01  0.11283356499E+00  0.14146958796E+00  0.54919822689E-01 0.  0.
         14    1    1    2    0    0  0.88833120729E-02  0.35721047635E-02 -0.10196159817E-01  0.13986952521E-01  0.00000000000E+00 0.  1.
     999901    1    3    3    0    0 -0.37686470971E-01  0.55048898644E-01 -0.10263740518E+00  0.88847345952E+00  0.88000000000E+00 0.  1.
        -11    1    4    4    0    0 -0.98222268409E-02 -0.14407375756E-01  0.60005125947E-01  0.62489398119E-01  0.51100000000E-03 0. -1.
         11    1    4    4    0    0  0.38625385739E-01 -0.44213627652E-01  0.52828439046E-01  0.78980189836E-01  0.51100000000E-03 0.  1.
</event>
<event>
 8    1  0.2107254E+004  0.1043930E+01  0.7957747E-01            NaN
         13   -1    0    0    0    0  0.00000000000E+00  0.00000000000E+00  0.74505805969E-08  0.10566000000E+00  0.10566000000E+00 0.  1.
     999900   -1    0    0    0    0 -0.00000000000E+00 -0.00000000000E+00 -0.74505805969E-08  0.93827000000E+00  0.93827000000E+00 0.  1.
     999902    2    1    2    0    0  0.25122566577E-02 -0.17345566892E-01  0.86356013933E-03  0.10263821836E+01  0.10262321672E+01 0.  0.
     999903    2    3    3    0    0  0.12074357868E+00  0.38792741633E-01 -0.20308161770E-01  0.13645050251E+00  0.46069834020E-01 0.  0.
         14    1    1    2    0    0 -0.25122566577E-02  0.17345566892E-01 -0.86356013933E-03  0.17547816401E-01  0.00000000000E+00 0. -1.
     999901    1    3    3    0    0 -0.11823132202E+00 -0.56138308525E-01  0.21171721910E-01  0.88993168109E+00  0.88000000000E+00 0.  1.
        -11    1    4    4    0    0  0.17491952145E-01  0.20919517754E-01  0.70090785771E-02  0.28159952351E-01  0.51100000000E-03 0. -1.
         11    1    4    4    0    0  0.10325162653E+00  0.17873223879E-01 -0.27317240347E-01  0.10829055016E+00  0.51100000000E-03 0.  1.
</event>
<event>
 8    1  0.2107254E+004  0.1043930E+01  0.7957747E-01            NaN
         13   -1    0    0    0    0  0.00000000000E+00  0.00000000000E+00  0.74505805969E-08  0.10566000000E+00  0.10566000000E+00 0.  1.
     999900   -1    0    0    0    0 -0.00000000000E+00 -0.00000000000E+00 -0.74505805969E-08  0.93827000000E+00  0.93827000000E+00 0. -1.
     999902    2    1    2    0    0 -0.12034985117E-01  0.35467574970E-02  0.26331547245E-02  0.10311099431E+01  0.10310302425E+01 0.  0.
     999903    2    3    3    0    0  0.71660255512E-01  0.88092444930E-01 -0.68167044393E-01  0.14028698943E+00  0.46240916811E-01 0.  0.
         14    1    1    2    0    0  0.12034985117E-01 -0.35467574970E-02 -0.26331547245E-02  0.12820056916E-01  0.00000000000E+00 0.  1.
     999901    1    3    3    0    0 -0.83695240629E-01 -0.84545687433E-01  0.70800199117E-01  0.89082295366E+00  0.88000000000E+00 0.  1.
        -11    1    4    4    0    0  0.10168880829E-01  0.34042657659E-01 -0.40476510537E-01  0.53860168066E-01  0.51100000000E-03 0.  1.
         11    1    4    4    0    0  0.61491374683E-01  0.54049787271E-01 -0.27690533855E-01  0.86426821362E-01  0.51100000000E-03 0. -1.
</event>
<event>
 8    1  0.2107254E+004  0.1043930E+01  0.7957747E-01            NaN
         13   -1    0    0    0    0  0.00000000000E+00  0.00000000000E+00  0.74505805969E-08  0.10566000000E+00  0.10566000000E+00 0.  1.
     999900   -1    0    0    0    0 -0.00000000000E+00 -0.00000000000E+00 -0.74505805969E-08  0.93827000000E+00  0.93827000000E+00 0.  1.
     999902    2    1    2    0    0  0.17542359170E-03  0.99451163266E-02 -0.96715603028E-02  0.10300564572E+01  0.10299630235E+01 0.  0.
     999903    2    3    3    0    0  0.11678255772E+00  0.62587691058E-01 -0.77798643259E-02  0.14080281342E+00  0.47005543484E-01 0.  0.
         14    1    1    2    0    0 -0.17542359170E-03 -0.99451163266E-02  0.96715603028E-02  0.13873542838E-01  0.00000000000E+00 0. -1.
     999901    1    3    3    0    0 -0.11660713412E+00 -0.52642574731E-01 -0.18916959769E-02  0.88925364375E+00  0.88000000000E+00 0.  1.
        -11    1    4    4    0    0  0.10809165893E-01  0.24886850275E-02  0.13125672893E-01  0.17192324752E-01  0.51100000000E-03 0.  1.
         11    1    4    4    0    0  0.10597339182E+00  0.60099006030E-01 -0.20905537219E-01  0.12361048866E+00  0.51100000000E-03 0. -1.
</event>
<event>
 8    1  0.2107254E+004  0.1043930E+01  0.7957747E-01            NaN
         13   -1    0    0    0    0  0.00000000000E+00  0.00000000000E+00  0.74505805969E-08  0.10566000000E+00  0.10566000000E+00 0.  1.
     999900   -1    0    0    0    0 -0.00000000000E+00 -0.00000000000E+00 -0.74505805969E-08  0.93827000000E+00  0.93827000000E+00 0. -1.
     999902    2    1    2    0    0  0.12763779126E-01 -0.40572636787E-04  0.67490500248E-02  0.10294916698E+01  0.10293904180E+01 0.  0.
     999903    2    3    3    0    0  0.12371706712E-01  0.41625759310E-01 -0.12291291605E+00  0.13901513308E+00  0.48289329337E-01 0.  0.
         14    1    1    2    0    0 -0.12763779126E-01  0.40572636787E-04 -0.67490500248E-02  0.14438330234E-01  0.00000000000E+00 0. -1.
     999901    1    3    3    0    0  0.39207241354E-03 -0.41666331947E-01  0.12966196608E+00  0.89047653668E+00  0.88000000000E+00 0.  1.
        -11    1    4    4    0    0  0.76628616268E-02  0.97529596835E-02 -0.96653769194E-01  0.97447687973E-01  0.51100000000E-03 0.  1.
         11    1    4    4    0    0  0.47088450853E-02  0.31872799626E-01 -0.26259146859E-01  0.41567445108E-01  0.51100000000E-03 0. -1.
</event>
<event>
 8    1  0.2107254E+004  0.1043930E+01  0.7957747E-01            NaN
         13   -1    0    0    0    0  0.00000000000E+00  0.00000000000E+00  0.74505805969E-08  0.10566000000E+00  0.10566000000E+00 0.  1.
     999900   -1    0    0    0    0 -0.00000000000E+00 -0.00000000000E+00 -0.74505805969E-08  0.93827000000E+00  0.93827000000E+00 0. -1.
     999902    2    1    2    0    0 -0.67873777339E-02  0.12084846003E-01 -0.32138603205E-03  0.10300658272E+01  0.10299725205E+01 0.  0.
     999903    2    3    3    0    0  0.98696700651E-01  0.31333419828E-01  0.82165943318E-01  0.13972793743E+00  0.45275074166E-01 0.  0.
         14    1    1    2    0    0  0.67873777339E-02 -0.12084846003E-01  0.32138603205E-03  0.13864172835E-01  0.00000000000E+00 0.  1.
     999901    1    3    3    0    0 -0.10548407839E+00 -0.19248573825E-01 -0.82487329350E-01  0.89033788973E+00  0.88000000000E+00 0. -1.
        -11    1    4    4    0    0  0.46723984676E-01 -0.27504446493E-02  0.17331060491E-01  0.49913149255E-01  0.51100000000E-03 0. -1.
         11    1    4    4    0    0  0.51972715975E-01  0.34083864477E-01  0.64834882827E-01  0.89814788179E-01  0.51100000000E-03 0.  1.
</event>
<event>
 8    1  0.2107254E+004  0.1043930E+01  0.7957747E-01            NaN
         13   -1    0    0    0    0  0.00000000000E+00  0.00000000000E+00  0.74505805969E-08  0.10566000000E+00  0.10566000000E+00 0.  1.
     999900   -1    0    0    0    0 -0.00000000000E+00 -0.00000000000E+00 -0.74505805969E-08  0.93827000000E+00  0.93827000000E+00 0. -1.
     999902    2    1    2    0    0 -0.11529507888E-01  0.75651533094E-02 -0.28253064904E-02  0.10298536562E+01  0.10297574519E+01 0.  0.
     999903    2    3    3    0    0  0.87458986366E-01  0.98806403720E-01 -0.89335089611E-02  0.13959470633E+00  0.44666483408E-01 0.  0.
         14    1    1    2    0    0  0.11529507888E-01 -0.75651533094E-02  0.28253064904E-02  0.14076343755E-01  0.00000000000E+00 0.  1.
     999901    1    3    3    0    0 -0.98988494254E-01 -0.91241250410E-01  0.61082024707E-02  0.89025894992E+00  0.88000000000E+00 0. -1.
        -11    1    4    4    0    0  0.21771142059E-01  0.19992103740E-01  0.16546218262E-01  0.33877799490E-01  0.51100000000E-03 0.  1.
         11    1    4    4    0    0  0.65687844307E-01  0.78814299980E-01 -0.25479727223E-01  0.10571690684E+00  0.51100000000E-03 0. -1.
</event>
<event>
 8    1  0.2107254E+004  0.1043930E+01  0.7957747E-01            NaN
         13   -1    0    0    0    0  0.00000000000E+00  0.00000000000E+00  0.74505805969E-08  0.10566000000E+00  0.10566000000E+00 0.  1.
     999900   -1    0    0    0    0 -0.00000000000E+00 -0.00000000000E+00 -0.74505805969E-08  0.93827000000E+00  0.93827000000E+00 0.  1.
     999902    2    1    2    0    0  0.13724407974E-01 -0.48684352440E-02  0.81711258443E-02  0.10272318464E+01  0.10270961191E+01 0.  0.
     999903    2    3    3    0    0  0.17856068794E-01 -0.71532843153E-03  0.13009181126E+00  0.13880685101E+00  0.44990128279E-01 0.  0.
         14    1    1    2    0    0 -0.13724407974E-01  0.48684352440E-02 -0.81711258443E-02  0.16698153597E-01  0.00000000000E+00 0.  1.
     999901    1    3    3    0    0 -0.41316608198E-02 -0.41531068124E-02 -0.12192068541E+00  0.88842499540E+00  0.88000000000E+00 0.  1.
        -11    1    4    4    0    0 -0.14537250004E-01 -0.57128331145E-02  0.42406752323E-01  0.45194710569E-01  0.51100000000E-03 0. -1.
         11    1    4    4    0    0  0.32393318798E-01  0.49975046829E-02  0.87685058934E-01  0.93612140436E-01  0.51100000000E-03 0.  1.
</event>
<event>
 8    1  0.2340926E+004  0.1043930E+01  0.7957747E-01            NaN
         13   -1    0    0    0    0  0.00000000000E+00  0.00000000000E+00  0.74505805969E-08  0.10566000000E+00  0.10566000000E+00 0. -1.
     999900   -1    0    0    0    0 -0.00000000000E+00 -0.00000000000E+00 -0.74505805969E-08  0.93827000000E+00  0.93827000000E+00 0.  1.
     999902    2    1    2    0    0 -0.13165802657E-01 -0.19256972858E-03  0.60543607764E-03  0.10307488773E+01  0.10306645944E+01 0.  0.
     999903    2    3    3    0    0  0.10817615627E+00 -0.42085907189E-01 -0.62198454913E-01  0.13922027348E+00  0.45170038567E-01 0.  0.
         14    1    1    2    0    0  0.13165802657E-01  0.19256972858E-03 -0.60543607764E-03  0.13181122696E-01  0.00000000000E+00 0.  1.
     999901    1    3    3    0    0 -0.12134195893E+00  0.41893337461E-01  0.62803890991E-01  0.89152860383E+00  0.88000000000E+00 0. -1.
        -11    1    4    4    0    0  0.55751231963E-01  0.22176400728E-02 -0.24905905914E-01  0.61103871098E-01  0.51100000000E-03 0. -1.
         11    1    4    4    0    0  0.52424924306E-01 -0.44303547262E-01 -0.37292549000E-01  0.78116402377E-01  0.51100000000E-03 0.  1.
</event>
<event>
 8    1  0.2107254E+004  0.1043930E+01  0.7957747E-01            NaN
         13   -1    0    0    0    0  0.00000000000E+00  0.00000000000E+00  0.74505805969E-08  0.10566000000E+00  0.10566000000E+00 0.  1.
     999900   -1    0    0    0    0 -0.00000000000E+00 -0.00000000000E+00 -0.74505805969E-08  0.93827000000E+00  0.93827000000E+00 0.  1.
     999902    2    1    2    0    0 -0.71211979470E-02 -0.94968445007E-02  0.63467982102E-02  0.10304695630E+01  0.10303816463E+01 0.  0.
     999903    2    3    3    0    0 -0.88122218655E-01  0.42606585280E-01  0.91285336679E-01  0.14114932372E+00  0.44824907843E-01 0.  0.
         14    1    1    2    0    0  0.71211979470E-02  0.94968445007E-02 -0.63467982102E-02  0.13460436961E-01  0.00000000000E+00 0. -1.
     999901    1    3    3    0    0  0.81001020708E-01 -0.52103429780E-01 -0.84938538469E-01  0.88932023932E+00  0.88000000000E+00 0.  1.
        -11    1    4    4    0    0 -0.66566718066E-01  0.20153872180E-01  0.84222264016E-01  0.10922892197E+00  0.51100000000E-03 0. -1.
         11    1    4    4    0    0 -0.21555500589E-01  0.22452713099E-01  0.70630726633E-02  0.31920401746E-01  0.51100000000E-03 0.  1.
</event>
<event>
 8    1  0.2107254E+004  0.1043930E+01  0.7957747E-01            NaN
         13   -1    0    0    0    0  0.00000000000E+00  0.00000000000E+00  0.74505805969E-08  0.10566000000E+00  0.10566000000E+00 0. -1.
     999900   -1    0    0    0    0 -0.00000000000E+00 -0.00000000000E+00 -0.74505805969E-08  0.93827000000E+00  0.93827000000E+00 0. -1.
     999902    2    1    2    0    0 -0.54108235890E-02  0.78244259949E-02 -0.96662034580E-02  0.10303677678E+01  0.10302785073E+01 0.  0.
     999903    2    3    3    0    0  0.42076822440E-01  0.12237505813E+00  0.29590136033E-01  0.14080721106E+00  0.46957221978E-01 0.  0.
         14    1    1    2    0    0  0.54108235890E-02 -0.78244259949E-02  0.96662034580E-02  0.13562232241E-01  0.00000000000E+00 0. -1.
     999901    1    3    3    0    0 -0.47487646029E-01 -0.11455063214E+00 -0.39256339491E-01  0.88956055670E+00  0.88000000000E+00 0. -1.
        -11    1    4    4    0    0  0.44820035586E-01  0.83668700613E-01  0.53868684597E-02  0.95071375950E-01  0.51100000000E-03 0. -1.
         11    1    4    4    0    0 -0.27432131465E-02  0.38706357520E-01  0.24203267574E-01  0.45735835108E-01  0.51100000000E-03 0.  1.
</event>
<event>
 8    1  0.2107254E+004  0.1043930E+01  0.7957747E-01            NaN
         13   -1    0    0    0    0  0.00000000000E+00  0.00000000000E+00  0.74505805969E-08  0.10566000000E+00  0.10566000000E+00 0.  1.
     999900   -1    0    0    0    0 -0.00000000000E+00 -0.00000000000E+00 -0.74505805969E-08  0.93827000000E+00  0.93827000000E+00 0.  1.
     999902    2    1    2    0    0 -0.12384759801E-01 -0.41316893910E-02  0.54883951010E-02  0.10297675280E+01  0.10296701346E+01 0.  0.
     999903    2    3    3    0    0 -0.73737033578E-01 -0.20583858408E-01  0.10946220211E+00  0.14137272392E+00  0.46297170859E-01 0.  0.
         14    1    1    2    0    0  0.12384759801E-01  0.41316893910E-02 -0.54883951010E-02  0.14162472006E-01  0.00000000000E+00 0. -1.
     999901    1    3    3    0    0  0.61352273777E-01  0.16452169017E-01 -0.10397380701E+00  0.88839480407E+00  0.88000000000E+00 0.  1.
        -11    1    4    4    0    0 -0.45362799844E-03 -0.12350150684E-01  0.32534353866E-01  0.34806282519E-01  0.51100000000E-03 0. -1.
         11    1    4    4    0    0 -0.73283405580E-01 -0.82337077242E-02  0.76927848244E-01  0.10656644140E+00  0.51100000000E-03 0.  1.
</event>
<event>
 8    1  0.2107254E+004  0.1043930E+01  0.7957747E-01            NaN
         13   -1    0    0    0    0  0.00000000000E+00  0.00000000000E+00  0.74505805969E-08  0.10566000000E+00  0.10566000000E+00 0.  1.
     999900   -1    0    0    0    0 -0.00000000000E+00 -0.00000000000E+00 -0.74505805969E-08  0.93827000000E+00  0.93827000000E+00 0.  1.
     999902    2    1    2    0    0 -0.12462622047E-01 -0.63913890096E-02 -0.60074218792E-02  0.10286900551E+01  0.10285771598E+01 0.  0.
     999903    2    3    3    0    0  0.39277148391E-01  0.57577166203E-01  0.10945731757E+00  0.13734215114E+00  0.44990417401E-01 0.  0.
         14    1    1    2    0    0  0.12462622047E-01  0.63913890096E-02  0.60074218792E-02  0.15239944862E-01  0.00000000000E+00 0.  1.
     999901    1    3    3    0    0 -0.51739770438E-01 -0.63968555212E-01 -0.11546473945E+00  0.89134790400E+00  0.88000000000E+00 0.  1.
        -11    1    4    4    0    0  0.39131711474E-02  0.12197335896E-01  0.60360415557E-01  0.61706797021E-01  0.51100000000E-03 0. -1.
         11    1    4    4    0    0  0.35363977244E-01  0.45379830307E-01  0.49096902010E-01  0.75635354122E-01  0.51100000000E-03 0.  1.
</event>
<event>
 8    1  0.2107254E+004  0.1043930E+01  0.7957747E-01            NaN
         13   -1    0    0    0    0  0.00000000000E+00  0.00000000000E+00  0.74505805969E-08  0.10566000000E+00  0.10566000000E+00 0. -1.
     999900   -1    0    0    0    0 -0.00000000000E+00 -0.00000000000E+00 -0.74505805969E-08  0.93827000000E+00  0.93827000000E+00 0.  1.
     999902    2    1    2    0    0  0.60906569274E-02 -0.13432868015E-01  0.60810933508E-02  0.10279763878E+01  0.10278525849E+01 0.  0.
     999903    2    3    3    0    0 -0.62779449635E-01 -0.10479840361E+00 -0.48548059367E-01  0.13888972333E+00  0.44827184638E-01 0.  0.
         14    1    1    2    0    0 -0.60906569274E-02  0.13432868015E-01 -0.60810933508E-02  0.15953612170E-01  0.00000000000E+00 0.  1.
     999901    1    3    3    0    0  0.68870106562E-01  0.91365535591E-01  0.54629152718E-01  0.88908666450E+00  0.88000000000E+00 0. -1.
        -11    1    4    4    0    0 -0.58263882659E-01 -0.57019821602E-01 -0.24009360303E-01  0.84986178765E-01  0.51100000000E-03 0.  1.
         11    1    4    4    0    0 -0.45155669756E-02 -0.47778582005E-01 -0.24538699065E-01  0.53903544561E-01  0.51100000000E-03 0. -1.
</event>
<event>
 8    1  0.2107254E+004  0.1043930E+01  0.7957747E-01            NaN
         13   -1    0    0    0    0  0.00000000000E+00  0.00000000000E+00  0.74505805969E-08  0.10566000000E+00  0.10566000000E+00 0. -1.
     999900   -1    0    0    0    0 -0.00000000000E+00 -0.00000000000E+00 -0.74505805969E-08  0.93827000000E+00  0.93827000000E+00 0.  1.
     999902    2    1    2    0    0  0.81154889622E-02  0.44324031507E-02 -0.10134640322E-01  0.10302107328E+01  0.10301193793E+01 0.  0.
     999903    2    3    3    0    0  0.69605012990E-01  0.76746995783E-02  0.11219780787E+00  0.13961727786E+00  0.44731167437E-01 0.  0.
         14    1    1    2    0    0 -0.81154889622E-02 -0.44324031507E-02  0.10134640322E-01  0.13719267227E-01  0.00000000000E+00 0.  1.
     999901    1    3    3    0    0 -0.61489524028E-01 -0.32422964277E-02 -0.12233244819E+00  0.89059345491E+00  0.88000000000E+00 0.  1.
        -11    1    4    4    0    0  0.30484301123E-01  0.23232270971E-01  0.36133137787E-01  0.52677279702E-01  0.51100000000E-03 0.  1.
         11    1    4    4    0    0  0.39120711867E-01 -0.15557571393E-01  0.76064670080E-01  0.86939998160E-01  0.51100000000E-03 0. -1.
</event>
<event>
 8    1  0.2107254E+004  0.1043930E+01  0.7957747E-01            NaN
         13   -1    0    0    0    0  0.00000000000E+00  0.00000000000E+00  0.74505805969E-08  0.10566000000E+00  0.10566000000E+00 0. -1.
     999900   -1    0    0    0    0 -0.00000000000E+00 -0.00000000000E+00 -0.74505805969E-08  0.93827000000E+00  0.93827000000E+00 0. -1.
     999902    2    1    2    0    0  0.10394132556E-01 -0.16376026214E-02  0.86621835610E-02  0.10303008710E+01  0.10302107219E+01 0.  0.
     999903    2    3    3    0    0  0.10812712167E+00 -0.39934594199E-01  0.69462643846E-01  0.14197936797E+00  0.45241969301E-01 0.  0.
         14    1    1    2    0    0 -0.10394132556E-01  0.16376026214E-02 -0.86621835610E-02  0.13629129025E-01  0.00000000000E+00 0.  1.
     999901    1    3    3    0    0 -0.97732989111E-01  0.38296991578E-01 -0.60800460285E-01  0.88832150300E+00  0.88000000000E+00 0.  1.
        -11    1    4    4    0    0  0.66805231001E-02 -0.72060645991E-02  0.24288201113E-01  0.26205621348E-01  0.51100000000E-03 0. -1.
         11    1    4    4    0    0  0.10144659857E+00 -0.32728529600E-01  0.45174442733E-01  0.11577374663E+00  0.51100000000E-03 0.  1.
</event>
<event>
 7    1  0.2107254E+004  0.1043930E+01  0.7957747E-01            NaN
         13   -1    0    0    0    0  0.00000000000E+00  0.00000000000E+00  0.74505805969E-08  0.10566000000E+00  0.10566000000E+00 0. -1.
     999900   -1    0    0    0    0 -0.00000000000E+00 -0.00000000000E+00 -0.74505805969E-08  0.93827000000E+00  0.93827000000E+00 0.  1.
     999903    2    1    2    0    0  0.42091597534E-01  0.20048603222E-03  0.11140262819E+00  0.12769871978E+00  0.46094193649E-01 0.  0.
         14    1    1    2    0    0  0.48286742915E-02 -0.26283378823E-01 -0.10992994584E-01  0.28895986359E-01  0.00000000000E+00 0.  1.
     999901    1    1    2    0    0 -0.46920271826E-01  0.26082892790E-01 -0.10040963361E+00  0.88733529386E+00  0.88000000000E+00 0.  1.
        -11    1    3    3    0    0  0.35434722293E-01  0.12766270737E-01  0.40206841991E-01  0.55094904269E-01  0.51100000000E-03 0.  1.
         11    1    3    3    0    0  0.66568752413E-02 -0.12565784705E-01  0.71195786202E-01  0.72603815514E-01  0.51100000000E-03 0. -1.
</event>
<event>
 8    1  0.2107254E+004  0.1043930E+01  0.7957747E-01            NaN
         13   -1    0    0    0    0  0.00000000000E+00  0.00000000000E+00  0.74505805969E-08  0.10566000000E+00  0.10566000000E+00 0. -1.
     999900   -1    0    0    0    0 -0.00000000000E+00 -0.00000000000E+00 -0.74505805969E-08  0.93827000000E+00  0.93827000000E+00 0. -1.
     999902    2    1    2    0    0 -0.33341916792E-02  0.95612224308E-02 -0.88749905767E-02  0.10304652584E+01  0.10303772850E+01 0.  0.
     999903    2    3    3    0    0 -0.92672305529E-01  0.59019560264E-01  0.78990865866E-01  0.14021370154E+00  0.36726836289E-01 0.  0.
         14    1    1    2    0    0  0.33341916792E-02 -0.95612224308E-02  0.88749905767E-02  0.13464741597E-01  0.00000000000E+00 0.  1.
     999901    1    3    3    0    0  0.89338113850E-01 -0.49458337833E-01 -0.87865856443E-01  0.89025155686E+00  0.88000000000E+00 0. -1.
        -11    1    4    4    0    0 -0.32861084524E-01  0.25183330967E-02  0.29241093371E-01  0.44062405066E-01  0.51100000000E-03 0.  1.
         11    1    4    4    0    0 -0.59811221005E-01  0.56501227167E-01  0.49749772495E-01  0.96151296475E-01  0.51100000000E-03 0. -1.
</event>
<event>
 8    1  0.2107254E+004  0.1043930E+01  0.7957747E-01            NaN
         13   -1    0    0    0    0  0.00000000000E+00  0.00000000000E+00  0.74505805969E-08  0.10566000000E+00  0.10566000000E+00 0.  1.
     999900   -1    0    0    0    0 -0.00000000000E+00 -0.00000000000E+00 -0.74505805969E-08  0.93827000000E+00  0.93827000000E+00 0.  1.
     999902    2    1    2    0    0  0.46502043698E-02  0.59115544200E-02  0.11960214248E-01  0.10298013907E+01  0.10297044657E+01 0.  0.
     999903    2    3    3    0    0  0.86628697884E-01  0.69446597665E-01 -0.70508540847E-01  0.13988101746E+00  0.47622300322E-01 0.  0.
         14    1    1    2    0    0 -0.46502043698E-02 -0.59115544200E-02 -0.11960214248E-01  0.14128609315E-01  0.00000000000E+00 0. -1.
     999901    1    3    3    0    0 -0.81978493514E-01 -0.63535043245E-01  0.82468755095E-01  0.88992037323E+00  0.88000000000E+00 0. -1.
        -11    1    4    4    0    0  0.28345300042E-01  0.53019912703E-01 -0.31870061678E-01  0.68047991373E-01  0.51100000000E-03 0.  1.
         11    1    4    4    0    0  0.58283397842E-01  0.16426684962E-01 -0.38638479169E-01  0.71833026084E-01  0.51100000000E-03 0. -1.
</event>
<event>
 8    1  0.2107254E+004  0.1043930E+01  0.7957747E-01            NaN
         13   -1    0    0    0    0  0.00000000000E+00  0.00000000000E+00  0.74505805969E-08  0.10566000000E+00  0.10566000000E+00 0.  1.
     999900   -1    0    0    0    0 -0.00000000000E+00 -0.00000000000E+00 -0.74505805969E-08  0.93827000000E+00  0.93827000000E+00 0.  1.
     999902    2    1    2    0    0  0.21997901432E-02 -0.75513703966E-02  0.93650848826E-02  0.10317002377E+01  0.10316277494E+01 0.  0.
     999903    2    3    3    0    0  0.41446168203E-01 -0.11699467520E+00  0.54570873009E-01  0.14290235377E+00  0.45139380262E-01 0.  0.
         14    1    1    2    0    0 -0.21997901432E-02  0.75513703966E-02 -0.93650848826E-02  0.12229762320E-01  0.00000000000E+00 0. -1.
     999901    1    3    3    0    0 -0.39246378060E-01  0.10944330480E+00 -0.45205788126E-01  0.88879788391E+00  0.88000000000E+00 0. -1.
        -11    1    4    4    0    0  0.12579795693E-01 -0.33021562966E-01  0.39209917898E-01  0.52785922962E-01  0.51100000000E-03 0.  1.
         11    1    4    4    0    0  0.28866372510E-01 -0.83973112230E-01  0.15360955111E-01  0.90116430812E-01  0.51100000000E-03 0. -1.
</event>
<event>
 8    1  0.2107254E+004  0.1043930E+01  0.7957747E-01            NaN
         13   -1    0    0    0    0  0.00000000000E+00  0.00000000000E+00  0.74505805969E-08  0.10566000000E+00  0.10566000000E+00 0.  1.
     999900   -1    0    0    0    0 -0.00000000000E+00 -0.00000000000E+00 -0.74505805969E-08  0.93827000000E+00  0.93827000000E+00 0.  1.
     999902    2    1    2    0    0 -0.28914578087E-02 -0.10679630331E-01  0.82117117850E-02  0.10301514935E+01  0.10300593440E+01 0.  0.
     999903    2    3    3    0    0  0.11180203461E+00 -0.10064141178E-01 -0.68901516328E-01  0.13936452342E+00  0.45541953803E-01 0.  0.
         14    1    1    2    0    0  0.28914578087E-02  0.10679630331E-01 -0.82117117850E-02  0.13778506548E-01  0.00000000000E+00 0. -1.
     999901    1    3    3    0    0 -0.11469349241E+00 -0.61548915246E-03  0.77113228113E-01  0.89078697003E+00  0.88000000000E+00 0. -1.
        -11    1    4    4    0    0  0.80910934718E-01  0.13824692524E-01 -0.47038766986E-01  0.94607654029E-01  0.51100000000E-03 0. -1.
         11    1    4    4    0    0  0.30891099887E-01 -0.23888833702E-01 -0.21862749342E-01  0.44756869391E-01  0.51100000000E-03 0.  1.
</event>
<event>
 8    1  0.2107254E+004  0.1043930E+01  0.7957747E-01            NaN
         13   -1    0    0    0    0  0.00000000000E+00  0.00000000000E+00  0.74505805969E-08  0.10566000000E+00  0.10566000000E+00 0.  1.
     999900   -1    0    0    0    0 -0.00000000000E+00 -0.00000000000E+00 -0.74505805969E-08  0.93827000000E+00  0.93827000000E+00 0.  1.
     999902    2    1    2    0    0 -0.21229351249E-01  0.31510587915E-02 -0.66574965361E-03  0.10224577447E+01  0.10222322544E+01 0.  0.
     999903    2    3    3    0    0 -0.20130412002E-02 -0.71895255653E-01 -0.10289568545E+00  0.13315904590E+00  0.44394023235E-01 0.  0.
         14    1    1    2    0    0  0.21229351249E-01 -0.31510587915E-02  0.66574965361E-03  0.21472255321E-01  0.00000000000E+00 0.  1.
     999901    1    3    3    0    0 -0.19216310049E-01  0.75046314444E-01  0.10222993580E+00  0.88929869878E+00  0.88000000000E+00 0. -1.
        -11    1    4    4    0    0 -0.21386023103E-02 -0.59625732782E-01 -0.10493301593E+00  0.12071039964E+00  0.51100000000E-03 0.  1.
         11    1    4    4    0    0  0.12556111009E-03 -0.12269522871E-01  0.20373304739E-02  0.12448646253E-01  0.51100000000E-03 0. -1.
</event>
<event>
 8    1  0.2107254E+004  0.1043930E+01  0.7957747E-01            NaN
         13   -1    0    0    0    0  0.00000000000E+00  0.00000000000E+00  0.74505805969E-08  0.10566000000E+00  0.10566000000E+00 0. -1.
     999900   -1    0    0    0    0 -0.00000000000E+00 -0.00000000000E+00 -0.74505805969E-08  0.93827000000E+00  0.93827000000E+00 0.  1.
     999902    2    1    2    0    0  0.43989526759E-02 -0.15752196966E-01 -0.18465146285E-02  0.10274711996E+01  0.10273393665E+01 0.  0.
     999903    2    3    3    0    0  0.11787667180E+00  0.52847875512E-01 -0.12883120391E-01  0.13746840785E+00  0.45208192440E-01 0.  0.
         14    1    1    2    0    0 -0.43989526759E-02  0.15752196966E-01  0.18465146285E-02  0.16458800387E-01  0.00000000000E+00 0.  1.
     999901    1    3    3    0    0 -0.11347771913E+00 -0.68600072478E-01  0.11036605763E-01  0.89000279176E+00  0.88000000000E+00 0.  1.
        -11    1    4    4    0    0  0.74266946626E-01  0.49902896977E-01 -0.23446760259E-01  0.92498054982E-01  0.51100000000E-03 0. -1.
         11    1    4    4    0    0  0.43609725178E-01  0.29449785347E-02  0.10563639867E-01  0.44970352866E-01  0.51100000000E-03 0.  1.
</event>
<event>
 8    1  0.2107254E+004  0.1043930E+01  0.7957747E-01            NaN
         13   -1    0    0    0    0  0.00000000000E+00  0.00000000000E+00  0.74505805969E-08  0.10566000000E+00  0.10566000000E+00 0.  1.
     999900   -1    0    0    0    0 -0.00000000000E+00 -0.00000000000E+00 -0.74505805969E-08  0.93827000000E+00  0.93827000000E+00 0.  1.
     999902    2    1    2    0    0 -0.26665741986E-02  0.94405340934E-02  0.94065997911E-02  0.10303388845E+01  0.10302492409E+01 0.  0.
     999903    2    3    3    0    0  0.56847517280E-01  0.12128830549E+00  0.15927501444E-02  0.14123095665E+00  0.44734248551E-01 0.  0.
         14    1    1    2    0    0  0.26665741986E-02 -0.94405340934E-02 -0.94065997911E-02  0.13591115538E-01  0.00000000000E+00 0.  1.
     999901    1    3    3    0    0 -0.59514091478E-01 -0.11184777140E+00  0.78138496467E-02  0.88910792781E+00  0.88000000000E+00 0.  1.
        -11    1    4    4    0    0 -0.17714808042E-02  0.44662024921E-01  0.21397398067E-02  0.44751248270E-01  0.51100000000E-03 0.  1.
         11    1    4    4    0    0  0.58618998084E-01  0.76626280571E-01 -0.54698966230E-03  0.96479708381E-01  0.51100000000E-03 0. -1.
</event>
<event>
 8    1  0.2107254E+004  0.1043930E+01  0.7957747E-01            NaN
         13   -1    0    0    0    0  0.00000000000E+00  0.00000000000E+00  0.74505805969E-08  0.10566000000E+00  0.10566000000E+00 0. -1.
     999900   -1    0    0    0    0 -0.00000000000E+00 -0.00000000000E+00 -0.74505805969E-08  0.93827000000E+00  0.93827000000E+00 0.  1.
     999902    2    1    2    0    0 -0.32552045030E-02  0.37754897469E-02  0.13217792575E-01  0.10298034038E+01  0.10297065066E+01 0.  0.
     999903    2    3    3    0    0  0.72196672628E-01  0.11165393761E-01 -0.10865561970E+00  0.13817527221E+00  0.44151292203E-01 0.  0.
         14    1    1    2    0    0  0.32552045030E-02 -0.37754897469E-02 -0.13217792575E-01  0.14126596184E-01  0.00000000000E+00 0.  1.
     999901    1    3    3    0    0 -0.75451877131E-01 -0.73899040136E-02  0.12187341227E+00  0.89162813160E+00  0.88000000000E+00 0. -1.
        -11    1    4    4    0    0  0.10210639275E-01  0.11900253865E-02 -0.53879753610E-01  0.54854008832E-01  0.51100000000E-03 0. -1.
         11    1    4    4    0    0  0.61986033353E-01  0.99753683741E-02 -0.54775866088E-01  0.83321263383E-01  0.51100000000E-03 0.  1.
</event>
<event>
 7    1  0.2107254E+004  0.1043930E+01  0.7957747E-01            NaN
         13   -1    0    0    0    0  0.00000000000E+00  0.00000000000E+00  0.74505805969E-08  0.10566000000E+00  0.10566000000E+00 0. -1.
     999900   -1    0    0    0    0 -0.00000000000E+00 -0.00000000000E+00 -0.74505805969E-08  0.93827000000E+00  0.93827000000E+00 0. -1.
     999902    2    1    2    0    0 -0.13154731537E-01 -0.10448505151E-01 -0.92554155288E-02  0.10247497774E+01  0.10245702638E+01 0.  0.
         14    1    1    2    0    0  0.13154731537E-01  0.10448505151E-01  0.92554155288E-02  0.19180222583E-01  0.00000000000E+00 0. -1.
     999901    1    3    3    0    0  0.24178370360E-01  0.10363840791E+00 -0.72437384287E-02  0.88644119091E+00  0.88000000000E+00 0. -1.
        -11    1    3    3    0    0 -0.56883395797E-01 -0.94875527494E-01 -0.49755131034E-02  0.11073438168E+00  0.51100000000E-03 0.  1.
         11    1    3    3    0    0  0.19550293900E-01 -0.19211385573E-01  0.29638360033E-02  0.27574204831E-01  0.51100000000E-03 0. -1.
</event>
<event>
 8    1  0.2107254E+004  0.1043930E+01  0.7957747E-01            NaN
         13   -1    0    0    0    0  0.00000000000E+00  0.00000000000E+00  0.74505805969E-08  0.10566000000E+00  0.10566000000E+00 0.  1.
     999900   -1    0    0    0    0 -0.00000000000E+00 -0.00000000000E+00 -0.74505805969E-08  0.93827000000E+00  0.93827000000E+00 0. -1.
     999902    2    1    2    0    0  0.19030211155E-01  0.16724315394E-01 -0.42178633172E-02  0.10182465027E+01  0.10179225404E+01 0.  0.
     999903    2    3    3    0    0  0.11814635486E+00  0.37796669224E-01 -0.10909504687E-01  0.13240631842E+00  0.45002960947E-01 0.  0.
         14    1    1    2    0    0 -0.19030211155E-01 -0.16724315394E-01  0.42178633172E-02  0.25683497289E-01  0.00000000000E+00 0. -1.
     999901    1    3    3    0    0 -0.99116143706E-01 -0.21072353830E-01  0.66916413699E-02  0.88584018429E+00  0.88000000000E+00 0. -1.
        -11    1    4    4    0    0  0.10088068647E+00  0.46743970574E-01 -0.15917815864E-01  0.11231896398E+00  0.51100000000E-03 0.  1.
         11    1    4    4    0    0  0.17265668394E-01 -0.89473013496E-02  0.50083111768E-02  0.20087354439E-01  0.51100000000E-03 0. -1.
</event>
<event>
 8    1  0.2107254E+004  0.1043930E+01  0.7957747E-01            NaN
         13   -1    0    0    0    0  0.00000000000E+00  0.00000000000E+00  0.74505805969E-08  0.10566000000E+00  0.10566000000E+00 0.  1.
     999900   -1    0    0    0    0 -0.00000000000E+00 -0.00000000000E+00 -0.74505805969E-08  0.93827000000E+00  0.93827000000E+00 0. -1.
     999902    2    1    2    0    0  0.31965314856E-02 -0.11523106690E-01  0.72038809947E-02  0.10299694949E+01  0.10298748782E+01 0.  0.
     999903    2    3    3    0    0  0.80682859428E-01 -0.10683995241E+00  0.15437019508E-01  0.14139917316E+00  0.42789313656E-01 0.  0.
         14    1    1    2    0    0 -0.31965314856E-02  0.11523106690E-01 -0.72038809947E-02  0.13960505102E-01  0.00000000000E+00 0. -1.
     999901    1    3    3    0    0 -0.77486327943E-01  0.95316845722E-01 -0.82331385134E-02  0.88857032173E+00  0.88000000000E+00 0.  1.
        -11    1    4    4    0    0  0.45479542112E-01 -0.51888778382E-01  0.28822116033E-01  0.74778403074E-01  0.51100000000E-03 0.  1.
         11    1    4    4    0    0  0.35203317316E-01 -0.54951174030E-01 -0.13385096525E-01  0.66620770090E-01  0.51100000000E-03 0. -1.
</event>
<event>
 8    1  0.2107254E+004  0.1043930E+01  0.7957747E-01            NaN
         13   -1    0    0    0    0  0.00000000000E+00  0.00000000000E+00  0.74505805969E-08  0.10566000000E+00  0.10566000000E+00 0.  1.
     999900   -1    0    0    0    0 -0.00000000000E+00 -0.00000000000E+00 -0.74505805969E-08  0.93827000000E+00  0.93827000000E+00 0.  1.
     999902    2    1    2    0    0 -0.37709677306E-02 -0.15126850508E-01 -0.62228879341E-03  0.10283277871E+01  0.10282094187E+01 0.  0.
     999903    2    3    3    0    0  0.59727909492E-03 -0.12634011173E+00 -0.40826546562E-01  0.14040670199E+00  0.45662396830E-01 0.  0.
         14    1    1    2    0    0  0.37709677306E-02  0.15126850508E-01  0.62228879341E-03  0.15602212897E-01  0.00000000000E+00 0. -1.
     999901    1    3    3    0    0 -0.43682468255E-02  0.11121326122E+00  0.40204257769E-01  0.88792108512E+00  0.88000000000E+00 0. -1.
        -11    1    4    4    0    0  0.97904357058E-02 -0.81427807843E-01 -0.46385910060E-01  0.94224488825E-01  0.51100000000E-03 0.  1.
         11    1    4    4    0    0 -0.91931566109E-02 -0.44912303888E-01  0.55593634976E-02  0.46182213161E-01  0.51100000000E-03 0. -1.
</event>
<event>
 8    1  0.2107254E+004  0.1043930E+01  0.7957747E-01            NaN
         13   -1    0    0    0    0  0.00000000000E+00  0.00000000000E+00  0.74505805969E-08  0.10566000000E+00  0.10566000000E+00 0.  1.
     999900   -1    0    0    0    0 -0.00000000000E+00 -0.00000000000E+00 -0.74505805969E-08  0.93827000000E+00  0.93827000000E+00 0.  1.
     999902    2    1    2    0    0  0.15041727597E-01 -0.64031320799E-02  0.23982785163E-02  0.10274071247E+01  0.10272742547E+01 0.  0.
     999903    2    3    3    0    0 -0.84281716461E-01  0.38714223767E-01  0.88847693051E-01  0.13646704609E+00  0.46120963305E-01 0.  0.
         14    1    1    2    0    0 -0.15041727597E-01  0.64031320799E-02 -0.23982785163E-02  0.16522875336E-01  0.00000000000E+00 0.  1.
     999901    1    3    3    0    0  0.99323444058E-01 -0.45117355847E-01 -0.86449414535E-01  0.89094007858E+00  0.88000000000E+00 0.  1.
        -11    1    4    4    0    0 -0.35169153336E-01  0.30810937734E-01  0.18453660473E-01  0.50269095241E-01  0.51100000000E-03 0.  1.
         11    1    4    4    0    0 -0.49112563124E-01  0.79032860325E-02  0.70394032578E-01  0.86197950848E-01  0.51100000000E-03 0. -1.
</event>
<event>
 8    1  0.2107254E+004  0.1043930E+01  0.7957747E-01            NaN
         13   -1    0    0    0    0  0.00000000000E+00  0.00000000000E+00  0.74505805969E-08  0.10566000000E+00  0.10566000000E+00 0.  1.
     999900   -1    0    0    0    0 -0.00000000000E+00 -0.00000000000E+00 -0.74505805969E-08  0.93827000000E+00  0.93827000000E+00 0. -1.
     999902    2    1    2    0    0  0.92294759643E-02 -0.61964217463E-03  0.10536676497E-01  0.10299089895E+01  0.10298135452E+01 0.  0.
     999903    2    3    3    0    0 -0.71401705102E-01 -0.89338825151E-01 -0.64354989236E-01  0.13862831411E+00  0.44683505473E-01 0.  0.
         14    1    1    2    0    0 -0.92294759643E-02  0.61964217463E-03 -0.10536676497E-01  0.14021010470E-01  0.00000000000E+00 0. -1.
     999901    1    3    3    0    0  0.80631181066E-01  0.88719182977E-01  0.74891665733E-01  0.89128067542E+00  0.88000000000E+00 0.  1.
        -11    1    4    4    0    0 -0.34471424289E-01 -0.67148286025E-01 -0.23004505977E-01  0.78909060474E-01  0.51100000000E-03 0. -1.
         11    1    4    4    0    0 -0.36930280813E-01 -0.22190539127E-01 -0.41350483259E-01  0.59719253632E-01  0.51100000000E-03 0.  1.
</event>
<event>
 8    1  0.2107254E+004  0.1043930E+01  0.7957747E-01            NaN
         13   -1    0    0    0    0  0.00000000000E+00  0.00000000000E+00  0.74505805969E-08  0.10566000000E+00  0.10566000000E+00 0.  1.
     999900   -1    0    0    0    0 -0.00000000000E+00 -0.00000000000E+00 -0.74505805969E-08  0.93827000000E+00  0.93827000000E+00 0.  1.
     999902    2    1    2    0    0 -0.10780635799E-01 -0.55273761333E-02 -0.17514507606E-02  0.10316890207E+01  0.10316163986E+01 0.  0.
     999903    2    3    3    0    0 -0.13514861244E+00  0.79582757375E-03 -0.10634710239E-01  0.14287729212E+00  0.45111448140E-01 0.  0.
         14    1    1    2    0    0  0.10780635799E-01  0.55273761333E-02  0.17514507606E-02  0.12240979328E-01  0.00000000000E+00 0.  1.
     999901    1    3    3    0    0  0.12436797665E+00 -0.63232037070E-02  0.88832594783E-02  0.88881172856E+00  0.88000000000E+00 0.  1.
        -11    1    4    4    0    0 -0.43542412641E-01 -0.19800743658E-01  0.33224031089E-02  0.47951127530E-01  0.51100000000E-03 0.  1.
         11    1    4    4    0    0 -0.91606199803E-01  0.20596571231E-01 -0.13957113348E-01  0.94926164586E-01  0.51100000000E-03 0. -1.
</event>
<event>
 8    1  0.2107254E+004  0.1043930E+01  0.7957747E-01            NaN
         13   -1    0    0    0    0  0.00000000000E+00  0.00000000000E+00  0.74505805969E-08  0.10566000000E+00  0.10566000000E+00 0. -1.
     999900   -1    0    0    0    0 -0.00000000000E+00 -0.00000000000E+00 -0.74505805969E-08  0.93827000000E+00  0.93827000000E+00 0. -1.
     999902    2    1    2    0    0 -0.42208146042E-03 -0.63110150718E-02  0.11932020915E-01  0.10304251791E+01  0.10303366778E+01 0.  0.
     999903    2    3    3    0    0 -0.12840437227E-01  0.45008548509E-01 -0.12236599372E+00  0.13867192294E+00  0.45451287405E-01 0.  0.
         14    1    1    2    0    0  0.42208146042E-03  0.63110150718E-02 -0.11932020915E-01  0.13504820884E-01  0.00000000000E+00 0.  1.
     999901    1    3    3    0    0  0.12418355767E-01 -0.51319563581E-01  0.13429801463E+00  0.89175325618E+00  0.88000000000E+00 0.  1.
        -11    1    4    4    0    0 -0.23144256543E-01  0.15752085143E-01 -0.88131178345E-01  0.92472431106E-01  0.51100000000E-03 0. -1.
         11    1    4    4    0    0  0.10303819316E-01  0.29256463366E-01 -0.34234815371E-01  0.46199491834E-01  0.51100000000E-03 0.  1.
</event>
<event>
 8    1  0.2107254E+004  0.1043930E+01  0.7957747E-01            NaN
         13   -1    0    0    0    0  0.00000000000E+00  0.00000000000E+00  0.74505805969E-08  0.10566000000E+00  0.10566000000E+00 0. -1.
     999900   -1    0    0    0    0 -0.00000000000E+00 -0.00000000000E+00 -0.74505805969E-08  0.93827000000E+00  0.93827000000E+00 0. -1.
     999902    2    1    2    0    0 -0.13001115335E-01  0.23081401099E-02 -0.37800376720E-02  0.10301951831E+01  0.10301036210E+01 0.  0.
     999903    2    3    3    0    0  0.27805125963E-01 -0.12883526362E+00 -0.90297819153E-02  0.13952616405E+00  0.44881658961E-01 0.  0.
         14    1    1    2    0    0  0.13001115335E-01 -0.23081401099E-02  0.37800376720E-02  0.13734816909E-01  0.00000000000E+00 0.  1.
     999901    1    3    3    0    0 -0.40806241297E-01  0.13114340373E+00  0.52497442433E-02  0.89066901904E+00  0.88000000000E+00 0. -1.
        -11    1    4    4    0    0  0.80334772008E-02 -0.74225610751E-01  0.15876646078E-01  0.76330249960E-01  0.51100000000E-03 0. -1.
         11    1    4    4    0    0  0.19771648762E-01 -0.54609652867E-01 -0.24906427993E-01  0.63195914088E-01  0.51100000000E-03 0.  1.
</event>
<event>
 8    1  0.2107254E+004  0.1043930E+01  0.7957747E-01            NaN
         13   -1    0    0    0    0  0.00000000000E+00  0.00000000000E+00  0.74505805969E-08  0.10566000000E+00  0.10566000000E+00 0.  1.
     999900   -1    0    0    0    0 -0.00000000000E+00 -0.00000000000E+00 -0.74505805969E-08  0.93827000000E+00  0.93827000000E+00 0. -1.
     999902    2    1    2    0    0 -0.45790512664E-02 -0.11051950637E-01 -0.57685252564E-02  0.10306488401E+01  0.10305632647E+01 0.  0.
     999903    2    3    3    0    0  0.25643360471E-01  0.12900434272E+00 -0.46449525636E-02  0.13906013346E+00  0.44904818844E-01 0.  0.
         14    1    1    2    0    0  0.45790512664E-02  0.11051950637E-01  0.57685252564E-02  0.13281159852E-01  0.00000000000E+00 0.  1.
     999901    1    3    3    0    0 -0.30222411737E-01 -0.14005629336E+00 -0.11235726927E-02  0.89158870669E+00  0.88000000000E+00 0. -1.
        -11    1    4    4    0    0  0.71563598879E-02  0.11242840963E+00 -0.11644531991E-01  0.11325730451E+00  0.51100000000E-03 0. -1.
         11    1    4    4    0    0  0.18487000583E-01  0.16575933089E-01  0.69995794274E-02  0.25802828943E-01  0.51100000000E-03 0.  1.
</event>
<event>
 8    1  0.2107254E+004  0.1043930E+01  0.7957747E-01            NaN
         13   -1    0    0    0    0  0.00000000000E+00  0.00000000000E+00  0.74505805969E-08  0.10566000000E+00  0.10566000000E+00 0. -1.
     999900   -1    0    0    0    0 -0.00000000000E+00 -0.00000000000E+00 -0.74505805969E-08  0.93827000000E+00  0.93827000000E+00 0. -1.
     999902    2    1    2    0    0  0.10053724058E-01 -0.93320435075E-02 -0.42840364238E-02  0.10295592877E+01  0.10294589888E+01 0.  0.
     999903    2    3    3    0    0  0.17553461563E-01 -0.12595400350E+00 -0.41205724935E-01  0.14106610333E+00  0.45046628402E-01 0.  0.
         14    1    1    2    0    0 -0.10053724058E-01  0.93320435075E-02  0.42840364238E-02  0.14370712283E-01  0.00000000000E+00 0. -1.
     999901    1    3    3    0    0 -0.74997375058E-02  0.11662196000E+00  0.36921688511E-01  0.88849318438E+00  0.88000000000E+00 0.  1.
        -11    1    4    4    0    0 -0.13667399948E-01 -0.38958575443E-01 -0.21529417697E-01  0.46565495480E-01  0.51100000000E-03 0.  1.
         11    1    4    4    0    0  0.31220861511E-01 -0.86995428060E-01 -0.19676307237E-01  0.94500607852E-01  0.51100000000E-03 0. -1.
</event>
<event>
 8    1  0.2107254E+004  0.1043930E+01  0.7957747E-01            NaN
         13   -1    0    0    0    0  0.00000000000E+00  0.00000000000E+00  0.74505805969E-08  0.10566000000E+00  0.10566000000E+00 0.  1.
     999900   -1    0    0    0    0 -0.00000000000E+00 -0.00000000000E+00 -0.74505805969E-08  0.93827000000E+00  0.93827000000E+00 0. -1.
     999902    2    1    2    0    0 -0.46808256119E-02 -0.74770837173E-02  0.13286325638E-03  0.10351076102E+01  0.10350700122E+01 0.  0.
     999903    2    3    3    0    0 -0.91657938021E-01 -0.89839631504E-01  0.58906077353E-01  0.14504980417E+00  0.33123749027E-01 0.  0.
         14    1    1    2    0    0  0.46808256119E-02  0.74770837173E-02 -0.13286325638E-03  0.88223898106E-02  0.00000000000E+00 0. -1.
     999901    1    3    3    0    0  0.86977112409E-01  0.82362547787E-01 -0.58773214097E-01  0.89005780602E+00  0.88000000000E+00 0.  1.
        -11    1    4    4    0    0 -0.33016143163E-01 -0.53942372998E-01  0.21668085087E-01  0.66855159459E-01  0.51100000000E-03 0. -1.
         11    1    4    4    0    0 -0.58641794858E-01 -0.35897258506E-01  0.37237992266E-01  0.78194644711E-01  0.51100000000E-03 0.  1.
</event>
<event>
 8    1  0.2107254E+004  0.1043930E+01  0.7957747E-01            NaN
         13   -1    0    0    0    0  0.00000000000E+00  0.00000000000E+00  0.74505805969E-08  0.10566000000E+00  0.10566000000E+00 0.  1.
     999900   -1    0    0    0    0 -0.00000000000E+00 -0.00000000000E+00 -0.74505805969E-08  0.93827000000E+00  0.93827000000E+00 0.  1.
     999902    2    1    2    0    0  0.11914126060E-01 -0.38606323255E-02  0.14508460858E-02  0.10313222311E+01  0.10312451641E+01 0.  0.
     999903    2    3    3    0    0 -0.28713301788E-01  0.31132407390E-01 -0.12595111358E+00  0.14053249159E+00  0.45738579902E-01 0.  0.
         14    1    1    2    0    0 -0.11914126060E-01  0.38606323255E-02 -0.14508460858E-02  0.12607768878E-01  0.00000000000E+00 0. -1.
     999901    1    3    3    0    0  0.40627427847E-01 -0.34993039716E-01  0.12740195967E+00  0.89078973953E+00  0.88000000000E+00 0. -1.
        -11    1    4    4    0    0 -0.98753501555E-02 -0.11794892571E-01 -0.33900732654E-01  0.37231207702E-01  0.51100000000E-03 0. -1.
         11    1    4    4    0    0 -0.18837951632E-01  0.42927299961E-01 -0.92050380928E-01  0.10330128389E+00  0.51100000000E-03 0.  1.
</event>
<event>
 8    1  0.2107254E+004  0.1043930E+01  0.7957747E-01            NaN
         13   -1    0    0    0    0  0.00000000000E+00  0.00000000000E+00  0.74505805969E-08  0.10566000000E+00  0.10566000000E+00 0.  1.
     999900   -1    0    0    0    0 -0.00000000000E+00 -0.00000000000E+00 -0.74505805969E-08  0.93827000000E+00  0.93827000000E+00 0. -1.
     999902    2    1    2    0    0  0.75762965885E-03  0.97549165585E-02 -0.98000348079E-02  0.10300817842E+01  0.10299886936E+01 0.  0.
     999903    2    3    3    0    0 -0.65655588646E-01 -0.61204983256E-01 -0.97977583104E-01  0.14035075572E+00  0.45188732485E-01 0.  0.
         14    1    1    2    0    0 -0.75762965885E-03 -0.97549165585E-02  0.98000348079E-02  0.13848215842E-01  0.00000000000E+00 0.  1.
     999901    1    3    3    0    0  0.66413218305E-01  0.70959899814E-01  0.88177548297E-01  0.88973102844E+00  0.88000000000E+00 0.  1.
        -11    1    4    4    0    0 -0.60676725392E-01 -0.52659260113E-01 -0.10184387086E+00  0.12971930401E+00  0.51100000000E-03 0.  1.
         11    1    4    4    0    0 -0.49788632541E-02 -0.85457231432E-02  0.38662877584E-02  0.10631451706E-01  0.51100000000E-03 0. -1.
</event>
<event>
 8    1  0.2107254E+004  0.1043930E+01  0.7957747E-01            NaN
         13   -1    0    0    0    0  0.00000000000E+00  0.00000000000E+00  0.74505805969E-08  0.10566000000E+00  0.10566000000E+00 0. -1.
     999900   -1    0    0    0    0 -0.00000000000E+00 -0.00000000000E+00 -0.74505805969E-08  0.93827000000E+00  0.93827000000E+00 0.  1.
     999902    2    1    2    0    0  0.12255910032E-02 -0.84748288428E-02 -0.10221668845E-01  0.10305955592E+01  0.10305092912E+01 0.  0.
     999903    2    3    3    0    0  0.82774572821E-01 -0.16691022510E-01 -0.10449258042E+00  0.14177344706E+00  0.45285657664E-01 0.  0.
         14    1    1    2    0    0 -0.12255910032E-02  0.84748288428E-02  0.10221668845E-01  0.13334440791E-01  0.00000000000E+00 0. -1.
     999901    1    3    3    0    0 -0.81548981817E-01  0.82161936669E-02  0.94270911578E-01  0.88882211215E+00  0.88000000000E+00 0. -1.
        -11    1    4    4    0    0  0.61070393469E-01 -0.91653397442E-02 -0.10120861892E+00  0.11856239740E+00  0.51100000000E-03 0.  1.
         11    1    4    4    0    0  0.21704179352E-01 -0.75256827654E-02 -0.32839615006E-02  0.23211049665E-01  0.51100000000E-03 0. -1.
</event>
<event>
 8    1  0.2107254E+004  0.1043930E+01  0.7957747E-01            NaN
         13   -1    0    0    0    0  0.00000000000E+00  0.00000000000E+00  0.74505805969E-08  0.10566000000E+00  0.10566000000E+00 0. -1.
     999900   -1    0    0    0    0 -0.00000000000E+00 -0.00000000000E+00 -0.74505805969E-08  0.93827000000E+00  0.93827000000E+00 0.  1.
     999902    2    1    2    0    0  0.68462988149E-02  0.53925066053E-02  0.17753324599E-01  0.10241529560E+01  0.10239619846E+01 0.  0.
     999903    2    3    3    0    0  0.39080264050E-01  0.14837411899E-01  0.12294511588E+00  0.13725186360E+00  0.44442735200E-01 0.  0.
         14    1    1    2    0    0 -0.68462988149E-02 -0.53925066053E-02 -0.17753324599E-01  0.19777043997E-01  0.00000000000E+00 0.  1.
     999901    1    3    3    0    0 -0.32233965235E-01 -0.94449052934E-02 -0.10519179128E+00  0.88690109240E+00  0.88000000000E+00 0.  1.
        -11    1    4    4    0    0  0.30296485588E-01  0.27709611000E-02  0.28687346737E-01  0.41818419963E-01  0.51100000000E-03 0.  1.
         11    1    4    4    0    0  0.87837784617E-02  0.12066450799E-01  0.94257769147E-01  0.95433443638E-01  0.51100000000E-03 0. -1.
</event>
<event>
 8    1  0.2107254E+004  0.1043930E+01  0.7957747E-01            NaN
         13   -1    0    0    0    0  0.00000000000E+00  0.00000000000E+00  0.74505805969E-08  0.10566000000E+00  0.10566000000E+00 0. -1.
     999900   -1    0    0    0    0 -0.00000000000E+00 -0.00000000000E+00 -0.74505805969E-08  0.93827000000E+00  0.93827000000E+00 0. -1.
     999902    2    1    2    0    0 -0.12481529939E-01 -0.58846603176E-02 -0.32812723400E-02  0.10297460455E+01  0.10296483544E+01 0.  0.
     999903    2    3    3    0    0  0.12435328968E+00 -0.38383520622E-01  0.88611201622E-02  0.13849558606E+00  0.46534638684E-01 0.  0.
         14    1    1    2    0    0  0.12481529939E-01  0.58846603176E-02  0.32812723400E-02  0.14183954486E-01  0.00000000000E+00 0. -1.
     999901    1    3    3    0    0 -0.13683481962E+00  0.32498860305E-01 -0.12142392502E-01  0.89125045945E+00  0.88000000000E+00 0.  1.
        -11    1    4    4    0    0  0.66817577268E-01  0.28575112463E-02  0.10416761695E-01  0.67686956260E-01  0.51100000000E-03 0. -1.
         11    1    4    4    0    0  0.57535712414E-01 -0.41241031869E-01 -0.15556415331E-02  0.70808629800E-01  0.51100000000E-03 0.  1.
</event>
<event>
 8    1  0.2107254E+004  0.1043930E+01  0.7957747E-01            NaN
         13   -1    0    0    0    0  0.00000000000E+00  0.00000000000E+00  0.74505805969E-08  0.10566000000E+00  0.10566000000E+00 0.  1.
     999900   -1    0    0    0    0 -0.00000000000E+00 -0.00000000000E+00 -0.74505805969E-08  0.93827000000E+00  0.93827000000E+00 0. -1.
     999902    2    1    2    0    0  0.34961153449E-02  0.13555032073E-01  0.95662004059E-03  0.10298987193E+01  0.10298031342E+01 0.  0.
     999903    2    3    3    0    0 -0.87757066505E-01  0.75143296610E-02 -0.99896875793E-01  0.13942970751E+00  0.41273353042E-01 0.  0.
         14    1    1    2    0    0 -0.34961153449E-02 -0.13555032073E-01 -0.95662004059E-03  0.14031280729E-01  0.00000000000E+00 0.  1.
     999901    1    3    3    0    0  0.91253181850E-01  0.60407024120E-02  0.10085349583E+00  0.89046901176E+00  0.88000000000E+00 0.  1.
        -11    1    4    4    0    0 -0.70297994581E-01 -0.83682479941E-02 -0.58779931656E-01  0.92017265245E-01  0.51100000000E-03 0.  1.
         11    1    4    4    0    0 -0.17459071924E-01  0.15882577655E-01 -0.41116944137E-01  0.47412442266E-01  0.51100000000E-03 0. -1.
</event>
<event>
 8    1  0.2107254E+004  0.1043930E+01  0.7957747E-01            NaN
         13   -1    0    0    0    0  0.00000000000E+00  0.00000000000E+00  0.74505805969E-08  0.10566000000E+00  0.10566000000E+00 0. -1.
     999900   -1    0    0    0    0 -0.00000000000E+00 -0.00000000000E+00 -0.74505805969E-08  0.93827000000E+00  0.93827000000E+00 0.  1.
     999902    2    1    2    0    0  0.98559670110E-02 -0.42813244453E-02  0.84355722385E-02  0.10302687884E+01  0.10301782115E+01 0.  0.
     999903    2    3    3    0    0 -0.12121325890E+00 -0.22853553277E-01  0.47903770920E-01  0.13949282978E+00  0.44142261618E-01 0.  0.
         14    1    1    2    0    0 -0.98559670110E-02  0.42813244453E-02 -0.84355722385E-02  0.13661211649E-01  0.00000000000E+00 0.  1.
     999901    1    3    3    0    0  0.13106922591E+00  0.18572228832E-01 -0.39468198681E-01  0.89077595857E+00  0.88000000000E+00 0. -1.
        -11    1    4    4    0    0 -0.65705600549E-01 -0.29749533470E-01  0.41436314830E-01  0.83183471874E-01  0.51100000000E-03 0. -1.
         11    1    4    4    0    0 -0.55507658350E-01  0.68959801930E-02  0.64674560896E-02  0.56309357904E-01  0.51100000000E-03 0.  1.
</event>
<event>
 8    1  0.2107254E+004  0.1043930E+01  0.7957747E-01            NaN
         13   -1    0    0    0    0  0.00000000000E+00  0.00000000000E+00  0.74505805969E-08  0.10566000000E+00  0.10566000000E+00 0.  1.
     999900   -1    0    0    0    0 -0.00000000000E+00 -0.00000000000E+00 -0.74505805969E-08  0.93827000000E+00  0.93827000000E+00 0.  1.
     999902    2    1    2    0    0  0.73773198182E-02  0.73144902192E-02  0.94362788927E-02  0.10298954008E+01  0.10297997702E+01 0.  0.
     999903    2    3    3    0    0 -0.93493098448E-01  0.41155308205E-01  0.84884590078E-01  0.14028172629E+00  0.45153629397E-01 0.  0.
         14    1    1    2    0    0 -0.73773198182E-02 -0.73144902192E-02 -0.94362788927E-02  0.14034599182E-01  0.00000000000E+00 0. -1.
     999901    1    3    3    0    0  0.10087041827E+00 -0.33840817985E-01 -0.75448311186E-01  0.88961367453E+00  0.88000000000E+00 0.  1.
        -11    1    4    4    0    0 -0.71118183725E-02 -0.51045123668E-02 -0.23602142684E-02  0.90810648857E-02  0.51100000000E-03 0.  1.
         11    1    4    4    0    0 -0.86381280076E-01  0.46259820572E-01  0.87244804347E-01  0.13120066141E+00  0.51100000000E-03 0. -1.
</event>
<event>
 8    1  0.2107254E+004  0.1043930E+01  0.7957747E-01            NaN
         13   -1    0    0    0    0  0.00000000000E+00  0.00000000000E+00  0.74505805969E-08  0.10566000000E+00  0.10566000000E+00 0. -1.
     999900   -1    0    0    0    0 -0.00000000000E+00 -0.00000000000E+00 -0.74505805969E-08  0.93827000000E+00  0.93827000000E+00 0.  1.
     999902    2    1    2    0    0 -0.12972974285E-01  0.83324980300E-03 -0.35617307939E-02  0.10304511910E+01  0.10303630325E+01 0.  0.
     999903    2    3    3    0    0  0.72286892648E-01 -0.81951544820E-01  0.73411574168E-01  0.13913337064E+00  0.45026492839E-01 0.  0.
         14    1    1    2    0    0  0.12972974285E-01 -0.83324980300E-03  0.35617307939E-02  0.13478809045E-01  0.00000000000E+00 0.  1.
     999901    1    3    3    0    0 -0.85259866932E-01  0.82784794623E-01 -0.76973304962E-01  0.89131782031E+00  0.88000000000E+00 0. -1.
        -11    1    4    4    0    0  0.54371920332E-01 -0.28831195182E-01  0.45290465702E-01  0.76413552075E-01  0.51100000000E-03 0. -1.
         11    1    4    4    0    0  0.17914972315E-01 -0.53120349638E-01  0.28121108466E-01  0.62719818567E-01  0.51100000000E-03 0.  1.
</event>
<event>
 8    1  0.2107254E+004  0.1043930E+01  0.7957747E-01            NaN
         13   -1    0    0    0    0  0.00000000000E+00  0.00000000000E+00  0.74505805969E-08  0.10566000000E+00  0.10566000000E+00 0. -1.
     999900   -1    0    0    0    0 -0.00000000000E+00 -0.00000000000E+00 -0.74505805969E-08  0.93827000000E+00  0.93827000000E+00 0. -1.
     999902    2    1    2    0    0  0.83080983890E-02 -0.34192031421E-02 -0.10502931661E-01  0.10301087474E+01  0.10300160215E+01 0.  0.
     999903    2    3    3    0    0 -0.99909998357E-01  0.52168265369E-01 -0.71498253788E-01  0.13964732074E+00  0.41058960177E-01 0.  0.
         14    1    1    2    0    0 -0.83080983890E-02  0.34192031421E-02  0.10502931661E-01  0.13821252564E-01  0.00000000000E+00 0. -1.
     999901    1    3    3    0    0  0.10821809675E+00 -0.55587468511E-01  0.60995322128E-01  0.89046142670E+00  0.88000000000E+00 0. -1.
        -11    1    4    4    0    0 -0.34292922947E-01  0.15135066580E-01 -0.47622003827E-01  0.60606857484E-01  0.51100000000E-03 0. -1.
         11    1    4    4    0    0 -0.65617075410E-01  0.37033198788E-01 -0.23876249961E-01  0.79040463252E-01  0.51100000000E-03 0.  1.
</event>
<event>
 8    1  0.2107254E+004  0.1043930E+01  0.7957747E-01            NaN
         13   -1    0    0    0    0  0.00000000000E+00  0.00000000000E+00  0.74505805969E-08  0.10566000000E+00  0.10566000000E+00 0. -1.
     999900   -1    0    0    0    0 -0.00000000000E+00 -0.00000000000E+00 -0.74505805969E-08  0.93827000000E+00  0.93827000000E+00 0. -1.
     999902    2    1    2    0    0  0.51586659996E-03 -0.10640721365E-01 -0.67023618499E-02  0.10313437883E+01  0.10312669863E+01 0.  0.
     999903    2    3    3    0    0  0.61974441942E-01 -0.84697054823E-01 -0.85353675902E-01  0.14261012396E+00  0.45143935535E-01 0.  0.
         14    1    1    2    0    0 -0.51586659996E-03  0.10640721365E-01  0.67023618499E-02  0.12586211657E-01  0.00000000000E+00 0. -1.
     999901    1    3    3    0    0 -0.61458575342E-01  0.74056333459E-01  0.78651314052E-01  0.88873366438E+00  0.88000000000E+00 0.  1.
        -11    1    4    4    0    0  0.32404379867E-01 -0.60504897270E-01 -0.28973093294E-01  0.74502266303E-01  0.51100000000E-03 0. -1.
         11    1    4    4    0    0  0.29570062075E-01 -0.24192157554E-01 -0.56380582608E-01  0.68107857656E-01  0.51100000000E-03 0.  1.
</event>
<event>
 7    1  0.2107254E+004  0.1043930E+01  0.7957747E-01            NaN
         13   -1    0    0    0    0  0.00000000000E+00  0.00000000000E+00  0.74505805969E-08  0.10566000000E+00  0.10566000000E+00 0. -1.
     999900   -1    0    0    0    0 -0.00000000000E+00 -0.00000000000E+00 -0.74505805969E-08  0.93827000000E+00  0.93827000000E+00 0.  1.
     999903    2    1    2    0    0  0.45051593668E-01 -0.53816799130E-01 -0.91304799072E-01  0.12306025437E+00  0.43374715128E-01 0.  0.
         14    1    1    2    0    0 -0.17149948791E-01 -0.22798082864E-01 -0.12263212252E-01  0.31052531307E-01  0.00000000000E+00 0.  1.
     999901    1    1    2    0    0 -0.27901644876E-01  0.76614881994E-01  0.10356801132E+00  0.88981721432E+00  0.88000000000E+00 0. -1.
        -11    1    3    3    0    0  0.12845578744E-01 -0.44621997609E-01 -0.37533327281E-01  0.59708821306E-01  0.51100000000E-03 0. -1.
         11    1    3    3    0    0  0.32206014924E-01 -0.91948015209E-02 -0.53771471790E-01  0.63351433068E-01  0.51100000000E-03 0.  1.
</event>
<event>
 8    1  0.2107254E+004  0.1043930E+01  0.7957747E-01            NaN
         13   -1    0    0    0    0  0.00000000000E+00  0.00000000000E+00  0.74505805969E-08  0.10566000000E+00  0.10566000000E+00 0. -1.
     999900   -1    0    0    0    0 -0.00000000000E+00 -0.00000000000E+00 -0.74505805969E-08  0.93827000000E+00  0.93827000000E+00 0.  1.
     999902    2    1    2    0    0  0.19804997751E-02  0.13920304583E-01 -0.81368175678E-02  0.10276848451E+01  0.10275564392E+01 0.  0.
     999903    2    3    3    0    0 -0.30045876687E-01 -0.97419945048E-01 -0.76394709423E-01  0.13747055637E+00  0.51658511807E-01 0.  0.
         14    1    1    2    0    0 -0.19804997751E-02 -0.13920304583E-01  0.81368175678E-02  0.16245154944E-01  0.00000000000E+00 0. -1.
     999901    1    3    3    0    0  0.32026376462E-01  0.11134024963E+00  0.68257891855E-01  0.89021428868E+00  0.88000000000E+00 0. -1.
        -11    1    4    4    0    0 -0.18398305223E-01 -0.35600683587E-01 -0.60524609813E-01  0.72590604219E-01  0.51100000000E-03 0. -1.
         11    1    4    4    0    0 -0.11647571464E-01 -0.61819261461E-01 -0.15870099611E-01  0.64879952152E-01  0.51100000000E-03 0.  1.
</event>
<event>
 8    1  0.2107254E+004  0.1043930E+01  0.7957747E-01            NaN
         13   -1    0    0    0    0  0.00000000000E+00  0.00000000000E+00  0.74505805969E-08  0.10566000000E+00  0.10566000000E+00 0. -1.
     999900   -1    0    0    0    0 -0.00000000000E+00 -0.00000000000E+00 -0.74505805969E-08  0.93827000000E+00  0.93827000000E+00 0. -1.
     999902    2    1    2    0    0  0.76196015038E-03 -0.22517194977E-02  0.13484180727E-01  0.10302378872E+01  0.10301468974E+01 0.  0.
     999903    2    3    3    0    0  0.54581041528E-01 -0.11457483627E+00  0.43078940679E-01  0.14097480692E+00  0.43722052271E-01 0.  0.
         14    1    1    2    0    0 -0.76196015038E-03  0.22517194977E-02 -0.13484180727E-01  0.13692112833E-01  0.00000000000E+00 0.  1.
     999901    1    3    3    0    0 -0.53819081378E-01  0.11232311677E+00 -0.29594759953E-01  0.88926308025E+00  0.88000000000E+00 0. -1.
        -11    1    4    4    0    0  0.27832157670E-01 -0.31256690345E-01  0.32168659380E-01  0.52789141489E-01  0.51100000000E-03 0.  1.
         11    1    4    4    0    0  0.26748883858E-01 -0.83318145923E-01  0.10910281300E-01  0.88185665427E-01  0.51100000000E-03 0. -1.
</event>
<event>
 8    1  0.2107254E+004  0.1043930E+01  0.7957747E-01            NaN
         13   -1    0    0    0    0  0.00000000000E+00  0.00000000000E+00  0.74505805969E-08  0.10566000000E+00  0.10566000000E+00 0.  1.
     999900   -1    0    0    0    0 -0.00000000000E+00 -0.00000000000E+00 -0.74505805969E-08  0.93827000000E+00  0.93827000000E+00 0. -1.
     999902    2    1    2    0    0  0.11405196295E-01 -0.43125654487E-02 -0.90451829565E-02  0.10287480351E+01  0.10286360035E+01 0.  0.
     999903    2    3    3    0    0  0.11860145846E+00 -0.52999897082E-01  0.27373022622E-01  0.14016051518E+00  0.44948777605E-01 0.  0.
         14    1    1    2    0    0 -0.11405196295E-01  0.43125654487E-02  0.90451829565E-02  0.15181964892E-01  0.00000000000E+00 0.  1.
     999901    1    3    3    0    0 -0.10719626216E+00  0.48687331633E-01 -0.36418205578E-01  0.88858751993E+00  0.88000000000E+00 0.  1.
        -11    1    4    4    0    0  0.76553154249E-01 -0.50279874829E-01  0.33610330211E-01  0.97562116911E-01  0.51100000000E-03 0.  1.
         11    1    4    4    0    0  0.42048304206E-01 -0.27200222535E-02 -0.62373075893E-02  0.42598398264E-01  0.51100000000E-03 0. -1.
</event>
<event>
 8    1  0.2107254E+004  0.1043930E+01  0.7957747E-01            NaN
         13   -1    0    0    0    0  0.00000000000E+00  0.00000000000E+00  0.74505805969E-08  0.10566000000E+00  0.10566000000E+00 0.  1.
     999900   -1    0    0    0    0 -0.00000000000E+00 -0.00000000000E+00 -0.74505805969E-08  0.93827000000E+00  0.93827000000E+00 0.  1.
     999902    2    1    2    0    0  0.52278315406E-02 -0.90550424981E-02  0.12075812849E-01  0.10279566073E+01  0.10278324948E+01 0.  0.
     999903    2    3    3    0    0  0.65698475568E-01  0.38547142254E-01 -0.10494385090E+00  0.13688070233E+00  0.43828563301E-01 0.  0.
         14    1    1    2    0    0 -0.52278315406E-02  0.90550424981E-02 -0.12075812849E-01  0.15973392665E-01  0.00000000000E+00 0. -1.
     999901    1    3    3    0    0 -0.60470644028E-01 -0.47602184752E-01  0.11701966374E+00  0.89107590501E+00  0.88000000000E+00 0. -1.
        -11    1    4    4    0    0  0.45801422813E-01  0.57526846800E-02 -0.75609623537E-01  0.88588599748E-01  0.51100000000E-03 0.  1.
         11    1    4    4    0    0  0.19897052755E-01  0.32794457574E-01 -0.29334227358E-01  0.48292102580E-01  0.51100000000E-03 0. -1.
</event>
<event>
 8    1  0.2107254E+004  0.1043930E+01  0.7957747E-01            NaN
         13   -1    0    0    0    0  0.00000000000E+00  0.00000000000E+00  0.74505805969E-08  0.10566000000E+00  0.10566000000E+00 0. -1.
     999900   -1    0    0    0    0 -0.00000000000E+00 -0.00000000000E+00 -0.74505805969E-08  0.93827000000E+00  0.93827000000E+00 0.  1.
     999902    2    1    2    0    0 -0.90454088737E-02 -0.27651345446E-02  0.14219140336E-01  0.10268522559E+01  0.10267102348E+01 0.  0.
     999903    2    3    3    0    0  0.32496336439E-01  0.36927097640E-01  0.12166875102E+00  0.13845673099E+00  0.44128890288E-01 0.  0.
         14    1    1    2    0    0  0.90454088737E-02  0.27651345446E-02 -0.14219140336E-01  0.17077744073E-01  0.00000000000E+00 0.  1.
     999901    1    3    3    0    0 -0.41541745313E-01 -0.39692232185E-01 -0.10744961069E+00  0.88839552494E+00  0.88000000000E+00 0.  1.
        -11    1    4    4    0    0  0.13592676726E-01  0.43682382573E-01  0.78821128279E-01  0.91136945264E-01  0.51100000000E-03 0. -1.
         11    1    4    4    0    0  0.18903659714E-01 -0.67552849329E-02  0.42847622742E-01  0.47319785722E-01  0.51100000000E-03 0.  1.
</event>
<event>
 8    1  0.2107254E+004  0.1043930E+01  0.7957747E-01            NaN
         13   -1    0    0    0    0  0.00000000000E+00  0.00000000000E+00  0.74505805969E-08  0.10566000000E+00  0.10566000000E+00 0. -1.
     999900   -1    0    0    0    0 -0.00000000000E+00 -0.00000000000E+00 -0.74505805969E-08  0.93827000000E+00  0.93827000000E+00 0.  1.
     999902    2    1    2    0    0 -0.93669428050E-02  0.52652687661E-03 -0.12429377553E-01  0.10283573870E+01  0.10282394707E+01 0.  0.
     999903    2    3    3    0    0  0.45602268955E-01  0.15016735437E-01 -0.12361066195E+00  0.13954196279E+00  0.43443001218E-01 0.  0.
         14    1    1    2    0    0  0.93669428050E-02 -0.52652687661E-03  0.12429377553E-01  0.15572612960E-01  0.00000000000E+00 0. -1.
     999901    1    3    3    0    0 -0.54969211760E-01 -0.14490208560E-01  0.11118128440E+00  0.88881542425E+00  0.88000000000E+00 0. -1.
        -11    1    4    4    0    0  0.30219211492E-01 -0.89160551334E-02 -0.90794361407E-01  0.96107096339E-01  0.51100000000E-03 0. -1.
         11    1    4    4    0    0  0.15383057463E-01  0.23932790570E-01 -0.32816300541E-01  0.43434866450E-01  0.51100000000E-03 0.  1.
</event>
<event>
 8    1  0.2107254E+004  0.1043930E+01  0.7957747E-01            NaN
         13   -1    0    0    0    0  0.00000000000E+00  0.00000000000E+00  0.74505805969E-08  0.10566000000E+00  0.10566000000E+00 0. -1.
     999900   -1    0    0    0    0 -0.00000000000E+00 -0.00000000000E+00 -0.74505805969E-08  0.93827000000E+00  0.93827000000E+00 0.  1.
     999902    2    1    2    0    0  0.16362637669E-01 -0.62085076515E-02 -0.15313966022E-03  0.10264284306E+01  0.10262792107E+01 0.  0.
     999903    2    3    3    0    0  0.10301802345E+00  0.49357779072E-02 -0.80620847648E-01  0.13844847420E+00  0.45068657345E-01 0.  0.
         14    1    1    2    0    0 -0.16362637669E-01  0.62085076515E-02  0.15313966022E-03  0.17501569372E-01  0.00000000000E+00 0.  1.
     999901    1    3    3    0    0 -0.86655385779E-01 -0.11144285559E-01  0.80467707988E-01  0.88797995643E+00  0.88000000000E+00 0. -1.
        -11    1    4    4    0    0  0.80838716986E-01  0.14709204311E-01 -0.79264137726E-01  0.11416796182E+00  0.51100000000E-03 0. -1.
         11    1    4    4    0    0  0.22179306462E-01 -0.97734264043E-02 -0.13567099224E-02  0.24280512384E-01  0.51100000000E-03 0.  1.
</event>
<event>
 8    1  0.2107254E+004  0.1043930E+01  0.7957747E-01            NaN
         13   -1    0    0    0    0  0.00000000000E+00  0.00000000000E+00  0.74505805969E-08  0.10566000000E+00  0.10566000000E+00 0.  1.
     999900   -1    0    0    0    0 -0.00000000000E+00 -0.00000000000E+00 -0.74505805969E-08  0.93827000000E+00  0.93827000000E+00 0. -1.
     999902    2    1    2    0    0  0.12251503852E-01 -0.39202996812E-02 -0.42905472092E-02  0.10303698786E+01  0.10302806462E+01 0.  0.
     999903    2    3    3    0    0 -0.52007182215E-01 -0.15055343527E-01  0.12054155585E+00  0.13917056204E+00  0.43666557939E-01 0.  0.
         14    1    1    2    0    0 -0.12251503852E-01  0.39202996812E-02  0.42905472092E-02  0.13560121371E-01  0.00000000000E+00 0.  1.
     999901    1    3    3    0    0  0.64258686067E-01  0.11135043846E-01 -0.12483210305E+00  0.89119931659E+00  0.88000000000E+00 0. -1.
        -11    1    4    4    0    0  0.19081946916E-03 -0.13483227124E-01  0.47499393954E-01  0.49379017536E-01  0.51100000000E-03 0. -1.
         11    1    4    4    0    0 -0.52198001684E-01 -0.15721164032E-02  0.73042161891E-01  0.89791544504E-01  0.51100000000E-03 0.  1.
</event>
<event>
 8    1  0.2107254E+004  0.1043930E+01  0.7957747E-01            NaN
         13   -1    0    0    0    0  0.00000000000E+00  0.00000000000E+00  0.74505805969E-08  0.10566000000E+00  0.10566000000E+00 0. -1.
     999900   -1    0    0    0    0 -0.00000000000E+00 -0.00000000000E+00 -0.74505805969E-08  0.93827000000E+00  0.93827000000E+00 0. -1.
     999902    2    1    2    0    0 -0.66482623062E-02 -0.34501231241E-02  0.10899818011E-01  0.10307046919E+01  0.10306198393E+01 0.  0.
     999903    2    3    3    0    0  0.94292634789E-01 -0.74052587297E-01 -0.55808194092E-01  0.13962459926E+00  0.44783786452E-01 0.  0.
         14    1    1    2    0    0  0.66482623062E-02  0.34501231241E-02 -0.10899818011E-01  0.13225308085E-01  0.00000000000E+00 0.  1.
     999901    1    3    3    0    0 -0.10094089710E+00  0.70602464173E-01  0.66708012103E-01  0.89108009266E+00  0.88000000000E+00 0. -1.
        -11    1    4    4    0    0  0.27743536856E-01 -0.50827520137E-02 -0.28192169218E-01  0.39882298473E-01  0.51100000000E-03 0.  1.
         11    1    4    4    0    0  0.66549097933E-01 -0.68969835284E-01 -0.27616024874E-01  0.99742300784E-01  0.51100000000E-03 0. -1.
</event>
<event>
 8    1  0.2107254E+004  0.1043930E+01  0.7957747E-01            NaN
         13   -1    0    0    0    0  0.00000000000E+00  0.00000000000E+00  0.74505805969E-08  0.10566000000E+00  0.10566000000E+00 0. -1.
     999900   -1    0    0    0    0 -0.00000000000E+00 -0.00000000000E+00 -0.74505805969E-08  0.93827000000E+00  0.93827000000E+00 0.  1.
     999902    2    1    2    0    0  0.87627695346E-02  0.98908786315E-02 -0.55411106116E-02  0.10296010253E+01  0.10295013122E+01 0.  0.
     999903    2    3    3    0    0 -0.32459168045E-01 -0.12551803149E+00 -0.15472396490E-01  0.13823496606E+00  0.45399746357E-01 0.  0.
         14    1    1    2    0    0 -0.87627695346E-02 -0.98908786315E-02  0.55411106116E-02  0.14328974731E-01  0.00000000000E+00 0. -1.
     999901    1    3    3    0    0  0.41221937579E-01  0.13540891012E+00  0.99312858782E-02  0.89136605921E+00  0.88000000000E+00 0. -1.
        -11    1    4    4    0    0 -0.20307314680E-01 -0.11261904087E+00 -0.26355588835E-01  0.11743216587E+00  0.51100000000E-03 0. -1.
         11    1    4    4    0    0 -0.12151853365E-01 -0.12898990611E-01  0.10883192345E-01  0.20802800187E-01  0.51100000000E-03 0.  1.
</event>
<event>
 8    1  0.2107254E+004  0.1043930E+01  0.7957747E-01            NaN
         13   -1    0    0    0    0  0.00000000000E+00  0.00000000000E+00  0.74505805969E-08  0.10566000000E+00  0.10566000000E+00 0.  1.
     999900   -1    0    0    0    0 -0.00000000000E+00 -0.00000000000E+00 -0.74505805969E-08  0.93827000000E+00  0.93827000000E+00 0. -1.
     999902    2    1    2    0    0  0.50374967641E-02  0.10313239347E-01  0.82033364819E-02  0.10298220587E+01  0.10297254190E+01 0.  0.
     999903    2    3    3    0    0 -0.11748698199E+00 -0.22129576747E-01  0.55862560334E-01  0.13946472262E+00  0.45131741666E-01 0.  0.
         14    1    1    2    0    0 -0.50374967641E-02 -0.10313239347E-01 -0.82033364819E-02  0.14107941342E-01  0.00000000000E+00 0. -1.
     999901    1    3    3    0    0  0.12252447875E+00  0.32442816094E-01 -0.47659223852E-01  0.89035733603E+00  0.88000000000E+00 0.  1.
        -11    1    4    4    0    0 -0.72425363484E-01  0.47578262714E-02  0.46387149832E-01  0.86139996385E-01  0.51100000000E-03 0.  1.
         11    1    4    4    0    0 -0.45061618505E-01 -0.26887403019E-01  0.94754105021E-02  0.53324726240E-01  0.51100000000E-03 0. -1.
</event>
<event>
 8    1  0.2107254E+004  0.1043930E+01  0.7957747E-01            NaN
         13   -1    0    0    0    0  0.00000000000E+00  0.00000000000E+00  0.74505805969E-08  0.10566000000E+00  0.10566000000E+00 0.  1.
     999900   -1    0    0    0    0 -0.00000000000E+00 -0.00000000000E+00 -0.74505805969E-08  0.93827000000E+00  0.93827000000E+00 0. -1.
     999902    2    1    2    0    0  0.97114132620E-02 -0.89005581493E-02  0.34577594177E-02  0.10303106174E+01  0.10302205981E+01 0.  0.
     999903    2    3    3    0    0  0.69891777155E-01  0.94309594795E-01 -0.61151683639E-01  0.13989027169E+00  0.45283545780E-01 0.  0.
         14    1    1    2    0    0 -0.97114132620E-02  0.89005581493E-02 -0.34577594177E-02  0.13619382626E-01  0.00000000000E+00 0. -1.
     999901    1    3    3    0    0 -0.60180363893E-01 -0.10321015294E+00  0.64609443057E-01  0.89042034568E+00  0.88000000000E+00 0.  1.
        -11    1    4    4    0    0  0.22189750817E-01  0.80357181619E-02 -0.26267536891E-01  0.35315753185E-01  0.51100000000E-03 0.  1.
         11    1    4    4    0    0  0.47702026338E-01  0.86273876633E-01 -0.34884146749E-01  0.10457451851E+00  0.51100000000E-03 0. -1.
</event>
<event>
 8    1  0.2107254E+004  0.1043930E+01  0.7957747E-01            NaN
         13   -1    0    0    0    0  0.00000000000E+00  0.00000000000E+00  0.74505805969E-08  0.10566000000E+00  0.10566000000E+00 0. -1.
     999900   -1    0    0    0    0 -0.00000000000E+00 -0.00000000000E+00 -0.74505805969E-08  0.93827000000E+00  0.93827000000E+00 0.  1.
     999902    2    1    2    0    0 -0.12507162521E-01  0.68538805545E-02 -0.44341972355E-02  0.10289945757E+01  0.10288861793E+01 0.  0.
     999903    2    3    3    0    0 -0.12217383315E+00 -0.41239907233E-01 -0.33322414923E-01  0.14041462987E+00  0.44482687530E-01 0.  0.
         14    1    1    2    0    0  0.12507162521E-01 -0.68538805545E-02  0.44341972355E-02  0.14935424269E-01  0.00000000000E+00 0.  1.
     999901    1    3    3    0    0  0.10966667063E+00  0.48093787787E-01  0.28888217688E-01  0.88857994586E+00  0.88000000000E+00 0. -1.
        -11    1    4    4    0    0 -0.56405764556E-01 -0.24482538705E-01 -0.38161563686E-01  0.72371064940E-01  0.51100000000E-03 0. -1.
         11    1    4    4    0    0 -0.65768068592E-01 -0.16757368528E-01  0.48391487626E-02  0.68043564927E-01  0.51100000000E-03 0.  1.
</event>
<event>
 8    1  0.2107254E+004  0.1043930E+01  0.7957747E-01            NaN
         13   -1    0    0    0    0  0.00000000000E+00  0.00000000000E+00  0.74505805969E-08  0.10566000000E+00  0.10566000000E+00 0.  1.
     999900   -1    0    0    0    0 -0.00000000000E+00 -0.00000000000E+00 -0.74505805969E-08  0.93827000000E+00  0.93827000000E+00 0.  1.
     999902    2    1    2    0    0 -0.97420665571E-02 -0.26279052638E-02 -0.89345777715E-02  0.10304525957E+01  0.10303644557E+01 0.  0.
     999903    2    3    3    0    0 -0.90517609703E-01 -0.10149288541E+00 -0.15435362592E-01  0.14121627566E+00  0.34778479522E-01 0.  0.
         14    1    1    2    0    0  0.97420665571E-02  0.26279052638E-02  0.89345777715E-02  0.13477404306E-01  0.00000000000E+00 0.  1.
     999901    1    3    3    0    0  0.80775543146E-01  0.98864980141E-01  0.65007848200E-02  0.88923632004E+00  0.88000000000E+00 0.  1.
        -11    1    4    4    0    0 -0.23819508567E-01 -0.10055043212E-01  0.46299617959E-02  0.26271097228E-01  0.51100000000E-03 0. -1.
         11    1    4    4    0    0 -0.66698101136E-01 -0.91437842194E-01 -0.20065324387E-01  0.11494517843E+00  0.51100000000E-03 0.  1.
</event>
<event>
 8    1  0.2107254E+004  0.1043930E+01  0.7957747E-01            NaN
         13   -1    0    0    0    0  0.00000000000E+00  0.00000000000E+00  0.74505805969E-08  0.10566000000E+00  0.10566000000E+00 0. -1.
     999900   -1    0    0    0    0 -0.00000000000E+00 -0.00000000000E+00 -0.74505805969E-08  0.93827000000E+00  0.93827000000E+00 0. -1.
     999902    2    1    2    0    0 -0.95011504581E-02 -0.97969993797E-02  0.37830978142E-02  0.10297679067E+01  0.10296705186E+01 0.  0.
     999903    2    3    3    0    0  0.92668205905E-01  0.16751262612E-01  0.93560331117E-01  0.13892373448E+00  0.40966660345E-01 0.  0.
         14    1    1    2    0    0  0.95011504581E-02  0.97969993797E-02 -0.37830978142E-02  0.14162093276E-01  0.00000000000E+00 0.  1.
     999901    1    3    3    0    0 -0.10216935636E+00 -0.26548261991E-01 -0.89777233302E-01  0.89084417224E+00  0.88000000000E+00 0. -1.
        -11    1    4    4    0    0  0.20749376767E-01 -0.40142536384E-02  0.44933358560E-01  0.49658017490E-01  0.51100000000E-03 0.  1.
         11    1    4    4    0    0  0.71918829137E-01  0.20765516250E-01  0.48626972557E-01  0.89265716995E-01  0.51100000000E-03 0. -1.
</event>
<event>
 8    1  0.2577044E+004  0.1043930E+01  0.7957747E-01            NaN
         13   -1    0    0    0    0  0.00000000000E+00  0.00000000000E+00  0.74505805969E-08  0.10566000000E+00  0.10566000000E+00 0. -1.
     999900   -1    0    0    0    0 -0.00000000000E+00 -0.00000000000E+00 -0.74505805969E-08  0.93827000000E+00  0.93827000000E+00 0. -1.
     999902    2    1    2    0    0 -0.83785809056E-02 -0.26793562872E-02 -0.92056227455E-02  0.10311972447E+01  0.10311186325E+01 0.  0.
     999903    2    3    3    0    0  0.18466811242E-02  0.26894579205E-01 -0.13207122055E+00  0.14211056230E+00  0.45009732278E-01 0.  0.
         14    1    1    2    0    0  0.83785809056E-02  0.26793562872E-02  0.92056227455E-02  0.12732755328E-01  0.00000000000E+00 0. -1.
     999901    1    3    3    0    0 -0.10225262030E-01 -0.29573935493E-01  0.12286559780E+00  0.88908668237E+00  0.88000000000E+00 0.  1.
        -11    1    4    4    0    0  0.23400617651E-01  0.15570228901E-01 -0.70962301824E-01  0.76327782201E-01  0.51100000000E-03 0.  1.
         11    1    4    4    0    0 -0.21553936527E-01  0.11324350305E-01 -0.61108918721E-01  0.65782780102E-01  0.51100000000E-03 0. -1.
</event>
<event>
 8    1  0.2107254E+004  0.1043930E+01  0.7957747E-01            NaN
         13   -1    0    0    0    0  0.00000000000E+00  0.00000000000E+00  0.74505805969E-08  0.10566000000E+00  0.10566000000E+00 0. -1.
     999900   -1    0    0    0    0 -0.00000000000E+00 -0.00000000000E+00 -0.74505805969E-08  0.93827000000E+00  0.93827000000E+00 0.  1.
     999902    2    1    2    0    0 -0.50585286484E-02 -0.20787233543E-02  0.10700863412E-01  0.10319125843E+01  0.10318426059E+01 0.  0.
     999903    2    3    3    0    0  0.95155807727E-01  0.93836741801E-01  0.78260451925E-02  0.14104168777E+00  0.44402126622E-01 0.  0.
         14    1    1    2    0    0  0.50585286484E-02  0.20787233543E-02 -0.10700863412E-01  0.12017415722E-01  0.00000000000E+00 0.  1.
     999901    1    3    3    0    0 -0.10021433638E+00 -0.95915465155E-01  0.28748182199E-02  0.89087089651E+00  0.88000000000E+00 0.  1.
        -11    1    4    4    0    0  0.19167075404E-01  0.41795882340E-01  0.15732392516E-01  0.48600842127E-01  0.51100000000E-03 0.  1.
         11    1    4    4    0    0  0.75988732324E-01  0.52040859461E-01 -0.79063473237E-02  0.92440845640E-01  0.51100000000E-03 0. -1.
</event>
<event>
 8    1  0.2107254E+004  0.1043930E+01  0.7957747E-01            NaN
         13   -1    0    0    0    0  0.00000000000E+00  0.00000000000E+00  0.74505805969E-08  0.10566000000E+00  0.10566000000E+00 0.  1.
     999900   -1    0    0    0    0 -0.00000000000E+00 -0.00000000000E+00 -0.74505805969E-08  0.93827000000E+00  0.93827000000E+00 0.  1.
     999902    2    1    2    0    0 -0.10731461785E-01 -0.90367673574E-02 -0.50020491320E-03  0.10298915656E+01  0.10297958823E+01 0.  0.
     999903    2    3    3    0    0  0.12751301004E+00 -0.27930093164E-01 -0.12759220621E-01  0.13881425399E+00  0.45463629032E-01 0.  0.
         14    1    1    2    0    0  0.10731461785E-01  0.90367673574E-02  0.50020491320E-03  0.14038434431E-01  0.00000000000E+00 0.  1.
     999901    1    3    3    0    0 -0.13824447183E+00  0.18893325806E-01  0.12259015708E-01  0.89107731158E+00  0.88000000000E+00 0.  1.
        -11    1    4    4    0    0  0.10205683872E+00 -0.11390484067E-01  0.64365658195E-02  0.10289330376E+00  0.51100000000E-03 0. -1.
         11    1    4    4    0    0  0.25456171318E-01 -0.16539609096E-01 -0.19195786441E-01  0.35920950228E-01  0.51100000000E-03 0.  1.
</event>
<event>
 8    1  0.2958086E+004  0.1043930E+01  0.7957747E-01            NaN
         13   -1    0    0    0    0  0.00000000000E+00  0.00000000000E+00  0.74505805969E-08  0.10566000000E+00  0.10566000000E+00 0. -1.
     999900   -1    0    0    0    0 -0.00000000000E+00 -0.00000000000E+00 -0.74505805969E-08  0.93827000000E+00  0.93827000000E+00 0.  1.
     999902    2    1    2    0    0  0.51979330355E-02  0.18900912355E-01 -0.38995601918E-02  0.10239432653E+01  0.10237481824E+01 0.  0.
     999903    2    3    3    0    0  0.11382699650E+00 -0.14815650553E-01 -0.53290347927E-01  0.13524954415E+00  0.47712570413E-01 0.  0.
         14    1    1    2    0    0 -0.51979330355E-02 -0.18900912355E-01  0.38995601918E-02  0.19986734736E-01  0.00000000000E+00 0.  1.
     999901    1    3    3    0    0 -0.10862906347E+00  0.33716562908E-01  0.49390787735E-01  0.88869372112E+00  0.88000000000E+00 0.  1.
        -11    1    4    4    0    0  0.69905879814E-01 -0.42007704310E-02 -0.67145903867E-02  0.70354995202E-01  0.51100000000E-03 0. -1.
         11    1    4    4    0    0  0.43921116687E-01 -0.10614880122E-01 -0.46575757541E-01  0.64894548943E-01  0.51100000000E-03 0.  1.
</event>
<event>
 8    1  0.2107254E+004  0.1043930E+01  0.7957747E-01            NaN
         13   -1    0    0    0    0  0.00000000000E+00  0.00000000000E+00  0.74505805969E-08  0.10566000000E+00  0.10566000000E+00 0.  1.
     999900   -1    0    0    0    0 -0.00000000000E+00 -0.00000000000E+00 -0.74505805969E-08  0.93827000000E+00  0.93827000000E+00 0. -1.
     999902    2    1    2    0    0 -0.51013567036E-02 -0.74315528527E-02  0.11174762110E-01  0.10295728719E+01  0.10294727638E+01 0.  0.
     999903    2    3    3    0    0 -0.54445546925E-01 -0.12017030636E+00 -0.18412700688E-01  0.14051702802E+00  0.44730163261E-01 0.  0.
         14    1    1    2    0    0  0.51013567036E-02  0.74315528527E-02 -0.11174762110E-01  0.14357128063E-01  0.00000000000E+00 0. -1.
     999901    1    3    3    0    0  0.49344190222E-01  0.11273875351E+00  0.29587462798E-01  0.88905584392E+00  0.88000000000E+00 0.  1.
        -11    1    4    4    0    0 -0.50184405767E-01 -0.96877439292E-01  0.21868664551E-02  0.10912724835E+00  0.51100000000E-03 0. -1.
         11    1    4    4    0    0 -0.42611411589E-02 -0.23292867069E-01 -0.20599567143E-01  0.31389779671E-01  0.51100000000E-03 0.  1.
</event>
<event>
 8    1  0.2107254E+004  0.1043930E+01  0.7957747E-01            NaN
         13   -1    0    0    0    0  0.00000000000E+00  0.00000000000E+00  0.74505805969E-08  0.10566000000E+00  0.10566000000E+00 0.  1.
     999900   -1    0    0    0    0 -0.00000000000E+00 -0.00000000000E+00 -0.74505805969E-08  0.93827000000E+00  0.93827000000E+00 0. -1.
     999902    2    1    2    0    0  0.45869412230E-02 -0.10685071207E-01  0.99108648120E-02  0.10286513869E+01  0.10285379136E+01 0.  0.
     999903    2    3    3    0    0  0.32954525380E-02  0.11269508289E+00 -0.58528849800E-01  0.13741161844E+00  0.52395466486E-01 0.  0.
         14    1    1    2    0    0 -0.45869412230E-02  0.10685071207E-01 -0.99108648120E-02  0.15278613085E-01  0.00000000000E+00 0. -1.
     999901    1    3    3    0    0  0.12914886850E-02 -0.12338015410E+00  0.68439714612E-01  0.89123976847E+00  0.88000000000E+00 0.  1.
        -11    1    4    4    0    0  0.11496914354E-01  0.85153657919E-01 -0.65251053132E-01  0.10789478927E+00  0.51100000000E-03 0.  1.
         11    1    4    4    0    0 -0.82014618163E-02  0.27541424975E-01  0.67222033315E-02  0.29516829170E-01  0.51100000000E-03 0. -1.
</event>
<event>
 8    1  0.2107254E+004  0.1043930E+01  0.7957747E-01            NaN
         13   -1    0    0    0    0  0.00000000000E+00  0.00000000000E+00  0.74505805969E-08  0.10566000000E+00  0.10566000000E+00 0. -1.
     999900   -1    0    0    0    0 -0.00000000000E+00 -0.00000000000E+00 -0.74505805969E-08  0.93827000000E+00  0.93827000000E+00 0. -1.
     999902    2    1    2    0    0 -0.60440315749E-02 -0.12705817239E-01  0.13743504142E-02  0.10297929229E+01  0.10296958809E+01 0.  0.
     999903    2    3    3    0    0  0.49117345312E-01  0.58703710827E-01 -0.10760475294E+00  0.13849132235E+00  0.41742355417E-01 0.  0.
         14    1    1    2    0    0  0.60440315749E-02  0.12705817239E-01 -0.13743504142E-02  0.14137077083E-01  0.00000000000E+00 0.  1.
     999901    1    3    3    0    0 -0.55161376887E-01 -0.71409528066E-01  0.10897910336E+00  0.89130160056E+00  0.88000000000E+00 0.  1.
        -11    1    4    4    0    0  0.67348119163E-02  0.20271459258E-03  0.21534412167E-02  0.70920529346E-02  0.51100000000E-03 0. -1.
         11    1    4    4    0    0  0.42382533395E-01  0.58500996234E-01 -0.10975819416E+00  0.13139926942E+00  0.51100000000E-03 0.  1.
</event>
<event>
 8    1  0.2107254E+004  0.1043930E+01  0.7957747E-01            NaN
         13   -1    0    0    0    0  0.00000000000E+00  0.00000000000E+00  0.74505805969E-08  0.10566000000E+00  0.10566000000E+00 0. -1.
     999900   -1    0    0    0    0 -0.00000000000E+00 -0.00000000000E+00 -0.74505805969E-08  0.93827000000E+00  0.93827000000E+00 0.  1.
     999902    2    1    2    0    0  0.86082131555E-02  0.20950500413E-02  0.11507846708E-01  0.10294068769E+01  0.10293044239E+01 0.  0.
     999903    2    3    3    0    0  0.57141184576E-01  0.10773095226E+00 -0.41318831308E-01  0.14019090142E+00  0.55454215103E-01 0.  0.
         14    1    1    2    0    0 -0.86082131555E-02 -0.20950500413E-02 -0.11507846708E-01  0.14523123089E-01  0.00000000000E+00 0.  1.
     999901    1    3    3    0    0 -0.48532971421E-01 -0.10563590221E+00  0.52826678016E-01  0.88921597549E+00  0.88000000000E+00 0.  1.
        -11    1    4    4    0    0  0.41395348778E-01  0.84997923768E-01 -0.51836103091E-02  0.94685547378E-01  0.51100000000E-03 0. -1.
         11    1    4    4    0    0  0.15745835798E-01  0.22733028487E-01 -0.36135220999E-01  0.45505354046E-01  0.51100000000E-03 0.  1.
</event>
<event>
 8    1  0.2107254E+004  0.1043930E+01  0.7957747E-01            NaN
         13   -1    0    0    0    0  0.00000000000E+00  0.00000000000E+00  0.74505805969E-08  0.10566000000E+00  0.10566000000E+00 0.  1.
     999900   -1    0    0    0    0 -0.00000000000E+00 -0.00000000000E+00 -0.74505805969E-08  0.93827000000E+00  0.93827000000E+00 0.  1.
     999902    2    1    2    0    0  0.12964984598E-01  0.19570779838E-02  0.15717781887E-02  0.10307242639E+01  0.10306396638E+01 0.  0.
     999903    2    3    3    0    0 -0.10032342035E+00  0.79196128165E-01  0.32895540201E-01  0.13955575476E+00  0.45352802951E-01 0.  0.
         14    1    1    2    0    0 -0.12964984598E-01 -0.19570779838E-02 -0.15717781887E-02  0.13205736122E-01  0.00000000000E+00 0. -1.
     999901    1    3    3    0    0  0.11328840495E+00 -0.77239050181E-01 -0.31323762012E-01  0.89116850911E+00  0.88000000000E+00 0.  1.
        -11    1    4    4    0    0 -0.78975431367E-01  0.72638445205E-01  0.42273220177E-01  0.11532887213E+00  0.51100000000E-03 0. -1.
         11    1    4    4    0    0 -0.21347988985E-01  0.65576829598E-02 -0.93776799766E-02  0.24226882636E-01  0.51100000000E-03 0.  1.
</event>
<event>
 8    1  0.2107254E+004  0.1043930E+01  0.7957747E-01            NaN
         13   -1    0    0    0    0  0.00000000000E+00  0.00000000000E+00  0.74505805969E-08  0.10566000000E+00  0.10566000000E+00 0. -1.
     999900   -1    0    0    0    0 -0.00000000000E+00 -0.00000000000E+00 -0.74505805969E-08  0.93827000000E+00  0.93827000000E+00 0.  1.
     999902    2    1    2    0    0  0.31872933302E-02 -0.10788008929E-01  0.78156697377E-02  0.10302323846E+01  0.10301413211E+01 0.  0.
     999903    2    3    3    0    0  0.27566710798E-01 -0.46369683878E-02 -0.12873705055E+00  0.13934583919E+00  0.45415962990E-01 0.  0.
         14    1    1    2    0    0 -0.31872933302E-02  0.10788008929E-01 -0.78156697377E-02  0.13697615445E-01  0.00000000000E+00 0. -1.
     999901    1    3    3    0    0 -0.24379417468E-01 -0.61510405415E-02  0.13655272029E+00  0.89088654537E+00  0.88000000000E+00 0. -1.
        -11    1    4    4    0    0 -0.17209635789E-02 -0.20365524033E-02 -0.93110822591E-01  0.93150392731E-01  0.51100000000E-03 0.  1.
         11    1    4    4    0    0  0.29287674377E-01 -0.26004159845E-02 -0.35626227961E-01  0.46195446458E-01  0.51100000000E-03 0. -1.
</event>
<event>
 8    1  0.2107254E+004  0.1043930E+01  0.7957747E-01            NaN
         13   -1    0    0    0    0  0.00000000000E+00  0.00000000000E+00  0.74505805969E-08  0.10566000000E+00  0.10566000000E+00 0. -1.
     999900   -1    0    0    0    0 -0.00000000000E+00 -0.00000000000E+00 -0.74505805969E-08  0.93827000000E+00  0.93827000000E+00 0. -1.
     999902    2    1    2    0    0  0.51766753207E-02 -0.89621068973E-02 -0.99136025544E-02  0.10295983273E+01  0.10294985763E+01 0.  0.
     999903    2    3    3    0    0 -0.17535439610E-01 -0.13214394175E+00 -0.89448149029E-02  0.14072795250E+00  0.44213503802E-01 0.  0.
         14    1    1    2    0    0 -0.51766753207E-02  0.89621068973E-02  0.99136025544E-02  0.14331672722E-01  0.00000000000E+00 0. -1.
     999901    1    3    3    0    0  0.22712114931E-01  0.12318183485E+00 -0.96878765148E-03  0.88887037477E+00  0.88000000000E+00 0.  1.
        -11    1    4    4    0    0 -0.83462057293E-02 -0.12407715185E+00  0.19042670464E-02  0.12437317281E+00  0.51100000000E-03 0. -1.
         11    1    4    4    0    0 -0.91892338806E-02 -0.80667899005E-02 -0.10849081949E-01  0.16354779691E-01  0.51100000000E-03 0.  1.
</event>
<event>
 8    1  0.2107254E+004  0.1043930E+01  0.7957747E-01            NaN
         13   -1    0    0    0    0  0.00000000000E+00  0.00000000000E+00  0.74505805969E-08  0.10566000000E+00  0.10566000000E+00 0. -1.
     999900   -1    0    0    0    0 -0.00000000000E+00 -0.00000000000E+00 -0.74505805969E-08  0.93827000000E+00  0.93827000000E+00 0. -1.
     999902    2    1    2    0    0  0.86756921973E-02  0.11378743289E-01 -0.22855767050E-02  0.10294397517E+01  0.10293377653E+01 0.  0.
     999903    2    3    3    0    0 -0.77179014393E-01 -0.10185009813E+00 -0.27180541787E-01  0.13769339740E+00  0.43481571786E-01 0.  0.
         14    1    1    2    0    0 -0.86756921973E-02 -0.11378743289E-01  0.22855767050E-02  0.14490248266E-01  0.00000000000E+00 0. -1.
     999901    1    3    3    0    0  0.85854706591E-01  0.11322884142E+00  0.24894965082E-01  0.89174635433E+00  0.88000000000E+00 0.  1.
        -11    1    4    4    0    0 -0.22869287076E-01 -0.48238810240E-02 -0.68960806293E-03  0.23388262008E-01  0.51100000000E-03 0.  1.
         11    1    4    4    0    0 -0.54309727317E-01 -0.97026217107E-01 -0.26490933724E-01  0.11430513540E+00  0.51100000000E-03 0. -1.
</event>
<event>
 8    1  0.2107254E+004  0.1043930E+01  0.7957747E-01            NaN
         13   -1    0    0    0    0  0.00000000000E+00  0.00000000000E+00  0.74505805969E-08  0.10566000000E+00  0.10566000000E+00 0. -1.
     999900   -1    0    0    0    0 -0.00000000000E+00 -0.00000000000E+00 -0.74505805969E-08  0.93827000000E+00  0.93827000000E+00 0.  1.
     999902    2    1    2    0    0 -0.47406618007E-02  0.11230311418E-01  0.67823465699E-02  0.10299803049E+01  0.10298858356E+01 0.  0.
     999903    2    3    3    0    0 -0.12520692040E+00  0.15109768995E-01 -0.40765396721E-01  0.14049283586E+00  0.46597653640E-01 0.  0.
         14    1    1    2    0    0  0.47406618007E-02 -0.11230311418E-01 -0.67823465699E-02  0.13949695117E-01  0.00000000000E+00 0.  1.
     999901    1    3    3    0    0  0.12046625860E+00 -0.38794575765E-02  0.47547743291E-01  0.88948746902E+00  0.88000000000E+00 0. -1.
        -11    1    4    4    0    0 -0.23677849680E-02 -0.87533091809E-02 -0.74631490392E-03  0.91128993305E-02  0.51100000000E-03 0.  1.
         11    1    4    4    0    0 -0.12283913543E+00  0.23863078176E-01 -0.40019081817E-01  0.13137993653E+00  0.51100000000E-03 0. -1.
</event>
<event>
 8    1  0.2107254E+004  0.1043930E+01  0.7957747E-01            NaN
         13   -1    0    0    0    0  0.00000000000E+00  0.00000000000E+00  0.74505805969E-08  0.10566000000E+00  0.10566000000E+00 0.  1.
     999900   -1    0    0    0    0 -0.00000000000E+00 -0.00000000000E+00 -0.74505805969E-08  0.93827000000E+00  0.93827000000E+00 0. -1.
     999902    2    1    2    0    0 -0.78322117787E-02 -0.11856167671E-01  0.41676812966E-03  0.10297143062E+01  0.10296161744E+01 0.  0.
     999903    2    3    3    0    0  0.69234818793E-01 -0.10613160545E+00 -0.40547896266E-01  0.14038574542E+00  0.44795622760E-01 0.  0.
         14    1    1    2    0    0  0.78322117787E-02  0.11856167671E-01 -0.41676812966E-03  0.14215693752E-01  0.00000000000E+00 0.  1.
     999901    1    3    3    0    0 -0.77067030571E-01  0.94275437777E-01  0.40964664396E-01  0.88932856082E+00  0.88000000000E+00 0.  1.
        -11    1    4    4    0    0  0.19880756135E-01 -0.61928256619E-01 -0.35088160059E-01  0.73903947998E-01  0.51100000000E-03 0.  1.
         11    1    4    4    0    0  0.49354062658E-01 -0.44203348829E-01 -0.54597362067E-02  0.66481797426E-01  0.51100000000E-03 0. -1.
</event>
<event>
 8    1  0.2107254E+004  0.1043930E+01  0.7957747E-01            NaN
         13   -1    0    0    0    0  0.00000000000E+00  0.00000000000E+00  0.74505805969E-08  0.10566000000E+00  0.10566000000E+00 0.  1.
     999900   -1    0    0    0    0 -0.00000000000E+00 -0.00000000000E+00 -0.74505805969E-08  0.93827000000E+00  0.93827000000E+00 0.  1.
     999902    2    1    2    0    0 -0.32210424140E-02 -0.11686636077E-02  0.11361594802E-01  0.10320629563E+01  0.10319947282E+01 0.  0.
     999903    2    3    3    0    0  0.11525706265E+00 -0.26533044297E-01  0.64837868923E-01  0.14215277824E+00  0.44891760762E-01 0.  0.
         14    1    1    2    0    0  0.32210424140E-02  0.11686636077E-02 -0.11361594802E-01  0.11867043663E-01  0.00000000000E+00 0. -1.
     999901    1    3    3    0    0 -0.11847810506E+00  0.25364380689E-01 -0.53476274121E-01  0.88991017810E+00  0.88000000000E+00 0. -1.
        -11    1    4    4    0    0  0.10041706795E+00 -0.34361329887E-01  0.42774680252E-01  0.11442999134E+00  0.51100000000E-03 0. -1.
         11    1    4    4    0    0  0.14839994702E-01  0.78282855897E-02  0.22063188670E-01  0.27722786897E-01  0.51100000000E-03 0.  1.
</event>
<event>
 8    1  0.2107254E+004  0.1043930E+01  0.7957747E-01            NaN
         13   -1    0    0    0    0  0.00000000000E+00  0.00000000000E+00  0.74505805969E-08  0.10566000000E+00  0.10566000000E+00 0.  1.
     999900   -1    0    0    0    0 -0.00000000000E+00 -0.00000000000E+00 -0.74505805969E-08  0.93827000000E+00  0.93827000000E+00 0.  1.
     999902    2    1    2    0    0 -0.10264601380E-01  0.98316607307E-02  0.46081842884E-03  0.10297090314E+01  0.10296108262E+01 0.  0.
     999903    2    3    3    0    0 -0.93251475608E-01  0.68072121776E-01 -0.68015385324E-01  0.14124532192E+00  0.44659790145E-01 0.  0.
         14    1    1    2    0    0  0.10264601380E-01 -0.98316607307E-02 -0.46081842884E-03  0.14220968597E-01  0.00000000000E+00 0.  1.
     999901    1    3    3    0    0  0.82986874229E-01 -0.58240461045E-01  0.68476203753E-01  0.88846370949E+00  0.88000000000E+00 0. -1.
        -11    1    4    4    0    0 -0.24450725589E-01  0.22881749648E-01  0.14684355925E-02  0.33523571899E-01  0.51100000000E-03 0.  1.
         11    1    4    4    0    0 -0.68800750020E-01  0.45190372128E-01 -0.69483820917E-01  0.10772175002E+00  0.51100000000E-03 0. -1.
</event>
<event>
 8    1  0.2107254E+004  0.1043930E+01  0.7957747E-01            NaN
         13   -1    0    0    0    0  0.00000000000E+00  0.00000000000E+00  0.74505805969E-08  0.10566000000E+00  0.10566000000E+00 0. -1.
     999900   -1    0    0    0    0 -0.00000000000E+00 -0.00000000000E+00 -0.74505805969E-08  0.93827000000E+00  0.93827000000E+00 0.  1.
     999902    2    1    2    0    0  0.11201478214E-01 -0.13985816136E-02  0.77168045781E-02  0.10302560021E+01  0.10301652546E+01 0.  0.
     999903    2    3    3    0    0  0.36751292622E-01  0.27443141057E-01 -0.12394966393E+00  0.13962661967E+00  0.45036543293E-01 0.  0.
         14    1    1    2    0    0 -0.11201478214E-01  0.13985816136E-02 -0.77168045781E-02  0.13673997865E-01  0.00000000000E+00 0.  1.
     999901    1    3    3    0    0 -0.25549814408E-01 -0.28841722670E-01  0.13166646851E+00  0.89062938247E+00  0.88000000000E+00 0. -1.
        -11    1    4    4    0    0  0.19961671165E-01  0.18676642800E-01 -0.11582921474E+00  0.11901240864E+00  0.51100000000E-03 0.  1.
         11    1    4    4    0    0  0.16789621456E-01  0.87664982569E-02 -0.81204491886E-02  0.20614211029E-01  0.51100000000E-03 0. -1.
</event>
<event>
 8    1  0.2233650E+004  0.1043930E+01  0.7957747E-01            NaN
         13   -1    0    0    0    0  0.00000000000E+00  0.00000000000E+00  0.74505805969E-08  0.10566000000E+00  0.10566000000E+00 0.  1.
     999900   -1    0    0    0    0 -0.00000000000E+00 -0.00000000000E+00 -0.74505805969E-08  0.93827000000E+00  0.93827000000E+00 0. -1.
     999902    2    1    2    0    0  0.18647607327E-01 -0.22713455369E-02 -0.43885999579E-02  0.10246387564E+01  0.10244571387E+01 0.  0.
     999903    2    3    3    0    0  0.53854138017E-01 -0.11324037229E+00  0.28285611534E-01  0.13637008715E+00  0.45531030637E-01 0.  0.
         14    1    1    2    0    0 -0.18647607327E-01  0.22713455369E-02  0.43885999579E-02  0.19291243588E-01  0.00000000000E+00 0.  1.
     999901    1    3    3    0    0 -0.35206530690E-01  0.11096902675E+00 -0.32674211492E-01  0.88826866927E+00  0.88000000000E+00 0. -1.
        -11    1    4    4    0    0  0.57466915403E-01 -0.77195893450E-01  0.27664419775E-01  0.10013607529E+00  0.51100000000E-03 0. -1.
         11    1    4    4    0    0 -0.36127773861E-02 -0.36044478839E-01  0.62119175948E-03  0.36234011859E-01  0.51100000000E-03 0.  1.
</event>
<event>
 8    1  0.2107254E+004  0.1043930E+01  0.7957747E-01            NaN
         13   -1    0    0    0    0  0.00000000000E+00  0.00000000000E+00  0.74505805969E-08  0.10566000000E+00  0.10566000000E+00 0.  1.
     999900   -1    0    0    0    0 -0.00000000000E+00 -0.00000000000E+00 -0.74505805969E-08  0.93827000000E+00  0.93827000000E+00 0.  1.
     999902    2    1    2    0    0 -0.13051856001E-01 -0.35027201777E-02 -0.42490404919E-02  0.10297640430E+01  0.10296666013E+01 0.  0.
     999903    2    3    3    0    0  0.42754512527E-01 -0.98996966881E-02 -0.12479701102E+00  0.13977129845E+00  0.45119503285E-01 0.  0.
         14    1    1    2    0    0  0.13051856001E-01  0.35027201777E-02  0.42490404919E-02  0.14165957039E-01  0.00000000000E+00 0. -1.
     999901    1    3    3    0    0 -0.55806368528E-01  0.63969765104E-02  0.12054797053E+00  0.88999274451E+00  0.88000000000E+00 0. -1.
        -11    1    4    4    0    0  0.86339419003E-02 -0.23258463588E-01 -0.65750717087E-01  0.70277443036E-01  0.51100000000E-03 0. -1.
         11    1    4    4    0    0  0.34120570627E-01  0.13358766900E-01 -0.59046293931E-01  0.69493855419E-01  0.51100000000E-03 0.  1.
</event>
<event>
 8    1  0.2107254E+004  0.1043930E+01  0.7957747E-01            NaN
         13   -1    0    0    0    0  0.00000000000E+00  0.00000000000E+00  0.74505805969E-08  0.10566000000E+00  0.10566000000E+00 0.  1.
     999900   -1    0    0    0    0 -0.00000000000E+00 -0.00000000000E+00 -0.74505805969E-08  0.93827000000E+00  0.93827000000E+00 0.  1.
     999902    2    1    2    0    0  0.13549289437E-01  0.19263187408E-02 -0.59519275243E-02  0.10290062140E+01  0.10288979877E+01 0.  0.
     999903    2    3    3    0    0  0.10825140882E-03  0.12251801669E+00  0.48630537717E-01  0.13900494171E+00  0.44122199509E-01 0.  0.
         14    1    1    2    0    0 -0.13549289437E-01 -0.19263187408E-02  0.59519275243E-02  0.14923786027E-01  0.00000000000E+00 0. -1.
     999901    1    3    3    0    0  0.13441038028E-01 -0.12059169795E+00 -0.54582465242E-01  0.89000127226E+00  0.88000000000E+00 0. -1.
        -11    1    4    4    0    0 -0.21003147014E-01  0.52155033424E-01  0.27316601740E-01  0.62511899248E-01  0.51100000000E-03 0.  1.
         11    1    4    4    0    0  0.21111398423E-01  0.70362983264E-01  0.21313935977E-01  0.76493042462E-01  0.51100000000E-03 0. -1.
</event>
<event>
 8    1  0.2107254E+004  0.1043930E+01  0.7957747E-01            NaN
         13   -1    0    0    0    0  0.00000000000E+00  0.00000000000E+00  0.74505805969E-08  0.10566000000E+00  0.10566000000E+00 0. -1.
     999900   -1    0    0    0    0 -0.00000000000E+00 -0.00000000000E+00 -0.74505805969E-08  0.93827000000E+00  0.93827000000E+00 0.  1.
     999902    2    1    2    0    0 -0.13167560142E-01  0.90693041287E-03 -0.45785775745E-02  0.10299596551E+01  0.10298649041E+01 0.  0.
     999903    2    3    3    0    0  0.14640941533E-01 -0.13117262567E+00  0.61139136740E-02  0.13960430402E+00  0.45070687456E-01 0.  0.
         14    1    1    2    0    0  0.13167560142E-01 -0.90693041287E-03  0.45785775745E-02  0.13970344859E-01  0.00000000000E+00 0.  1.
     999901    1    3    3    0    0 -0.27808501675E-01  0.13207955608E+00 -0.10692491248E-01  0.89035535112E+00  0.88000000000E+00 0.  1.
        -11    1    4    4    0    0  0.25361696455E-01 -0.75655359311E-01 -0.10944888523E-01  0.80541919181E-01  0.51100000000E-03 0.  1.
         11    1    4    4    0    0 -0.10720754922E-01 -0.55517266355E-01  0.17058802197E-01  0.59062384840E-01  0.51100000000E-03 0. -1.
</event>
<event>
 8    1  0.2107254E+004  0.1043930E+01  0.7957747E-01            NaN
         13   -1    0    0    0    0  0.00000000000E+00  0.00000000000E+00  0.74505805969E-08  0.10566000000E+00  0.10566000000E+00 0.  1.
     999900   -1    0    0    0    0 -0.00000000000E+00 -0.00000000000E+00 -0.74505805969E-08  0.93827000000E+00  0.93827000000E+00 0.  1.
     999902    2    1    2    0    0 -0.59125211275E-02 -0.14346814371E-01 -0.45127319918E-02  0.10277697482E+01  0.10276426916E+01 0.  0.
     999903    2    3    3    0    0 -0.12103167335E+00  0.18205064414E-02  0.50707465325E-01  0.13840870133E+00  0.43974326240E-01 0.  0.
         14    1    1    2    0    0  0.59125211275E-02  0.14346814371E-01  0.45127319918E-02  0.16160251814E-01  0.00000000000E+00 0.  1.
     999901    1    3    3    0    0  0.11511915222E+00 -0.16167320812E-01 -0.55220197316E-01  0.88936104685E+00  0.88000000000E+00 0.  1.
        -11    1    4    4    0    0 -0.72551893666E-01 -0.26376878286E-02  0.69252542082E-02  0.72931165755E-01  0.51100000000E-03 0. -1.
         11    1    4    4    0    0 -0.48479779679E-01  0.44581942700E-02  0.43782211116E-01  0.65477535576E-01  0.51100000000E-03 0.  1.
</event>
<event>
 8    1  0.2107254E+004  0.1043930E+01  0.7957747E-01            NaN
         13   -1    0    0    0    0  0.00000000000E+00  0.00000000000E+00  0.74505805969E-08  0.10566000000E+00  0.10566000000E+00 0. -1.
     999900   -1    0    0    0    0 -0.00000000000E+00 -0.00000000000E+00 -0.74505805969E-08  0.93827000000E+00  0.93827000000E+00 0. -1.
     999902    2    1    2    0    0  0.12988275144E-02 -0.78115547374E-02 -0.19600820720E-02  0.10357722269E+01  0.10357401010E+01 0.  0.
     999903    2    3    3    0    0 -0.32882028831E-01  0.84456578354E-01 -0.10353552366E+00  0.14448141596E+00  0.44058296048E-01 0.  0.
         14    1    1    2    0    0 -0.12988275144E-02  0.78115547374E-02  0.19600820720E-02  0.81577731064E-02  0.00000000000E+00 0.  1.
     999901    1    3    3    0    0  0.34180856346E-01 -0.92268133091E-01  0.10157544159E+00  0.89129081094E+00  0.88000000000E+00 0.  1.
        -11    1    4    4    0    0 -0.36723642928E-01  0.77453781455E-01 -0.72000665860E-01  0.11194673384E+00  0.51100000000E-03 0. -1.
         11    1    4    4    0    0  0.38416140966E-02  0.70027968981E-02 -0.31534857799E-01  0.32534682120E-01  0.51100000000E-03 0.  1.
</event>
<event>
 8    1  0.2107254E+004  0.1043930E+01  0.7957747E-01            NaN
         13   -1    0    0    0    0  0.00000000000E+00  0.00000000000E+00  0.74505805969E-08  0.10566000000E+00  0.10566000000E+00 0.  1.
     999900   -1    0    0    0    0 -0.00000000000E+00 -0.00000000000E+00 -0.74505805969E-08  0.93827000000E+00  0.93827000000E+00 0. -1.
     999902    2    1    2    0    0  0.32758067912E-02 -0.43178432774E-02  0.13717762302E-01  0.10291803667E+01  0.10290746695E+01 0.  0.
     999903    2    3    3    0    0 -0.75817697813E-01  0.37965305941E-02 -0.10532494014E+00  0.13761276377E+00  0.45620091975E-01 0.  0.
         14    1    1    2    0    0 -0.32758067912E-02  0.43178432774E-02 -0.13717762302E-01  0.14749633327E-01  0.00000000000E+00 0. -1.
     999901    1    3    3    0    0  0.79093504604E-01 -0.81143738715E-02  0.11904270244E+00  0.89156760290E+00  0.88000000000E+00 0.  1.
        -11    1    4    4    0    0 -0.39399175563E-01  0.45808621908E-02 -0.89493681488E-01  0.97891059248E-01  0.51100000000E-03 0. -1.
         11    1    4    4    0    0 -0.36418522250E-01 -0.78433159674E-03 -0.15831258652E-01  0.39721704526E-01  0.51100000000E-03 0.  1.
</event>
<event>
 8    1  0.2107254E+004  0.1043930E+01  0.7957747E-01            NaN
         13   -1    0    0    0    0  0.00000000000E+00  0.00000000000E+00  0.74505805969E-08  0.10566000000E+00  0.10566000000E+00 0.  1.
     999900   -1    0    0    0    0 -0.00000000000E+00 -0.00000000000E+00 -0.74505805969E-08  0.93827000000E+00  0.93827000000E+00 0.  1.
     999902    2    1    2    0    0  0.33421162422E-02  0.24753262531E-02 -0.12864610824E-01  0.10304098228E+01  0.10303211187E+01 0.  0.
     999903    2    3    3    0    0 -0.74248247528E-01  0.55325387030E-01 -0.96473451503E-01  0.14147572412E+00  0.46201222496E-01 0.  0.
         14    1    1    2    0    0 -0.33421162422E-02 -0.24753262531E-02  0.12864610824E-01  0.13520177243E-01  0.00000000000E+00 0.  1.
     999901    1    3    3    0    0  0.77590363771E-01 -0.52850060777E-01  0.83608840679E-01  0.88893409863E+00  0.88000000000E+00 0.  1.
        -11    1    4    4    0    0 -0.85279619442E-02  0.57035159369E-02 -0.40794768094E-01  0.42068164374E-01  0.51100000000E-03 0.  1.
         11    1    4    4    0    0 -0.65720285584E-01  0.49621871094E-01 -0.55678683409E-01  0.99407559749E-01  0.51100000000E-03 0. -1.
</event>
<event>
 8    1  0.2107254E+004  0.1043930E+01  0.7957747E-01            NaN
         13   -1    0    0    0    0  0.00000000000E+00  0.00000000000E+00  0.74505805969E-08  0.10566000000E+00  0.10566000000E+00 0. -1.
     999900   -1    0    0    0    0 -0.00000000000E+00 -0.00000000000E+00 -0.74505805969E-08  0.93827000000E+00  0.93827000000E+00 0.  1.
     999902    2    1    2    0    0 -0.13715937379E-01  0.62442637390E-03 -0.28156460984E-02  0.10299141265E+01  0.10298187526E+01 0.  0.
     999903    2    3    3    0    0 -0.89344447800E-01  0.58353167089E-01 -0.81260468187E-01  0.14131642834E+00  0.44492097807E-01 0.  0.
         14    1    1    2    0    0  0.13715937379E-01 -0.62442637390E-03  0.28156460984E-02  0.14015873481E-01  0.00000000000E+00 0.  1.
     999901    1    3    3    0    0  0.75628510421E-01 -0.57728740715E-01  0.78444822088E-01  0.88859769818E+00  0.88000000000E+00 0. -1.
        -11    1    4    4    0    0 -0.53825819524E-01  0.98833465620E-02 -0.30494504979E-01  0.62650421719E-01  0.51100000000E-03 0. -1.
         11    1    4    4    0    0 -0.35518628277E-01  0.48469820527E-01 -0.50765963207E-01  0.78666006623E-01  0.51100000000E-03 0.  1.
</event>
<event>
 8    1  0.2107254E+004  0.1043930E+01  0.7957747E-01            NaN
         13   -1    0    0    0    0  0.00000000000E+00  0.00000000000E+00  0.74505805969E-08  0.10566000000E+00  0.10566000000E+00 0.  1.
     999900   -1    0    0    0    0 -0.00000000000E+00 -0.00000000000E+00 -0.74505805969E-08  0.93827000000E+00  0.93827000000E+00 0.  1.
     999902    2    1    2    0    0  0.13456268870E-01  0.30857052098E-02 -0.79829119244E-02  0.10279825980E+01  0.10278588921E+01 0.  0.
     999903    2    3    3    0    0 -0.71628115303E-01 -0.10685436201E+00 -0.15364638108E-01  0.13703890689E+00  0.44667083119E-01 0.  0.
         14    1    1    2    0    0 -0.13456268870E-01 -0.30857052098E-02  0.79829119244E-02  0.15947402025E-01  0.00000000000E+00 0. -1.
     999901    1    3    3    0    0  0.85084384173E-01  0.10994006722E+00  0.73817261840E-02  0.89094369109E+00  0.88000000000E+00 0. -1.
        -11    1    4    4    0    0 -0.13215297319E-01  0.12346343998E-05 -0.70205875275E-02  0.14973104387E-01  0.51100000000E-03 0. -1.
         11    1    4    4    0    0 -0.58412817984E-01 -0.10685559664E+00 -0.83440505810E-02  0.12206580250E+00  0.51100000000E-03 0.  1.
</event>
<event>
 8    1  0.2107254E+004  0.1043930E+01  0.7957747E-01            NaN
         13   -1    0    0    0    0  0.00000000000E+00  0.00000000000E+00  0.74505805969E-08  0.10566000000E+00  0.10566000000E+00 0.  1.
     999900   -1    0    0    0    0 -0.00000000000E+00 -0.00000000000E+00 -0.74505805969E-08  0.93827000000E+00  0.93827000000E+00 0. -1.
     999902    2    1    2    0    0  0.52161255299E-02  0.53848434118E-02  0.12271664097E-01  0.10295495187E+01  0.10294490823E+01 0.  0.
     999903    2    3    3    0    0  0.13012662935E+00  0.61614025514E-02  0.30663598512E-01  0.14053798877E+00  0.42892510601E-01 0.  0.
         14    1    1    2    0    0 -0.52161255299E-02 -0.53848434118E-02 -0.12271664097E-01  0.14380481348E-01  0.00000000000E+00 0. -1.
     999901    1    3    3    0    0 -0.12491050382E+00 -0.77655913955E-03 -0.18391934415E-01  0.88901152988E+00  0.88000000000E+00 0.  1.
        -11    1    4    4    0    0  0.96827835762E-01 -0.70332110666E-02  0.37491088712E-01  0.10407179584E+00  0.51100000000E-03 0.  1.
         11    1    4    4    0    0  0.33298793592E-01  0.13194613618E-01 -0.68274901999E-02  0.36466192927E-01  0.51100000000E-03 0. -1.
</event>
<event>
 8    1  0.2107254E+004  0.1043930E+01  0.7957747E-01            NaN
         13   -1    0    0    0    0  0.00000000000E+00  0.00000000000E+00  0.74505805969E-08  0.10566000000E+00  0.10566000000E+00 0. -1.
     999900   -1    0    0    0    0 -0.00000000000E+00 -0.00000000000E+00 -0.74505805969E-08  0.93827000000E+00  0.93827000000E+00 0.  1.
     999902    2    1    2    0    0  0.97624134422E-02 -0.54615461447E-02  0.65478314577E-02  0.10309682370E+01  0.10308867535E+01 0.  0.
     999903    2    3    3    0    0  0.12383629813E+00  0.35496720057E-01 -0.37841017178E-01  0.14155224852E+00  0.44829126800E-01 0.  0.
         14    1    1    2    0    0 -0.97624134422E-02  0.54615461447E-02 -0.65478314577E-02  0.12961762971E-01  0.00000000000E+00 0.  1.
     999901    1    3    3    0    0 -0.11407388469E+00 -0.40958266201E-01  0.44388848635E-01  0.88941598851E+00  0.88000000000E+00 0. -1.
        -11    1    4    4    0    0  0.98275343530E-01  0.44388002653E-01 -0.21575905881E-01  0.10997326385E+00  0.51100000000E-03 0. -1.
         11    1    4    4    0    0  0.25560954601E-01 -0.88912825965E-02 -0.16265111297E-01  0.31578984671E-01  0.51100000000E-03 0.  1.
</event>
<event>
 8    1  0.2107254E+004  0.1043930E+01  0.7957747E-01            NaN
         13   -1    0    0    0    0  0.00000000000E+00  0.00000000000E+00  0.74505805969E-08  0.10566000000E+00  0.10566000000E+00 0. -1.
     999900   -1    0    0    0    0 -0.00000000000E+00 -0.00000000000E+00 -0.74505805969E-08  0.93827000000E+00  0.93827000000E+00 0.  1.
     999902    2    1    2    0    0  0.64648636021E-02 -0.68951569925E-02 -0.10031610647E-01  0.10301470082E+01  0.10300547983E+01 0.  0.
     999903    2    3    3    0    0  0.10074905030E-01 -0.11369383302E-01 -0.13344387627E+00  0.14151680477E+00  0.44597884830E-01 0.  0.
         14    1    1    2    0    0 -0.64648636021E-02  0.68951569925E-02  0.10031610647E-01  0.13782991820E-01  0.00000000000E+00 0. -1.
     999901    1    3    3    0    0 -0.36100414275E-02  0.44742263100E-02  0.12341226562E+00  0.88863020341E+00  0.88000000000E+00 0. -1.
        -11    1    4    4    0    0 -0.11470107030E-01  0.26021900923E-02 -0.92067489827E-01  0.92817124242E-01  0.51100000000E-03 0. -1.
         11    1    4    4    0    0  0.21545012059E-01 -0.13971573395E-01 -0.41376386443E-01  0.48699680531E-01  0.51100000000E-03 0.  1.
</event>
<event>
 8    1  0.2107254E+004  0.1043930E+01  0.7957747E-01            NaN
         13   -1    0    0    0    0  0.00000000000E+00  0.00000000000E+00  0.74505805969E-08  0.10566000000E+00  0.10566000000E+00 0. -1.
     999900   -1    0    0    0    0 -0.00000000000E+00 -0.00000000000E+00 -0.74505805969E-08  0.93827000000E+00  0.93827000000E+00 0. -1.
     999902    2    1    2    0    0 -0.12915321814E-01 -0.11663396987E-02  0.79456340626E-02  0.10287214831E+01  0.10286090563E+01 0.  0.
     999903    2    3    3    0    0  0.91101383881E-01  0.83219522061E-02  0.93695436535E-01  0.13840551032E+00  0.44816664606E-01 0.  0.
         14    1    1    2    0    0  0.12915321814E-01  0.11663396987E-02 -0.79456340626E-02  0.15208516907E-01  0.00000000000E+00 0.  1.
     999901    1    3    3    0    0 -0.10401670570E+00 -0.94882919048E-02 -0.85749802473E-01  0.89031597277E+00  0.88000000000E+00 0. -1.
        -11    1    4    4    0    0  0.67406761165E-01  0.22580362882E-01  0.50835433330E-01  0.87395918907E-01  0.51100000000E-03 0. -1.
         11    1    4    4    0    0  0.23694622716E-01 -0.14258410676E-01  0.42860003205E-01  0.51009591416E-01  0.51100000000E-03 0.  1.
</event>
<event>
 8    1  0.2107254E+004  0.1043930E+01  0.7957747E-01            NaN
         13   -1    0    0    0    0  0.00000000000E+00  0.00000000000E+00  0.74505805969E-08  0.10566000000E+00  0.10566000000E+00 0.  1.
     999900   -1    0    0    0    0 -0.00000000000E+00 -0.00000000000E+00 -0.74505805969E-08  0.93827000000E+00  0.93827000000E+00 0.  1.
     999902    2    1    2    0    0 -0.23322299412E-02 -0.12314456931E-01 -0.38942373766E-02  0.10308055865E+01  0.10307220318E+01 0.  0.
     999903    2    3    3    0    0  0.36123523715E-01  0.12294138037E+00  0.29744342135E-01  0.13900709995E+00  0.44930568375E-01 0.  0.
         14    1    1    2    0    0  0.23322299412E-02  0.12314456931E-01  0.38942373766E-02  0.13124413539E-01  0.00000000000E+00 0.  1.
     999901    1    3    3    0    0 -0.38455753657E-01 -0.13525583730E+00 -0.33638579511E-01  0.89179848651E+00  0.88000000000E+00 0.  1.
        -11    1    4    4    0    0  0.41517333523E-01  0.11329521380E+00  0.36475935849E-01  0.12605653283E+00  0.51100000000E-03 0. -1.
         11    1    4    4    0    0 -0.53938098072E-02  0.96461665739E-02 -0.67315937141E-02  0.12950567120E-01  0.51100000000E-03 0.  1.
</event>
<event>
 8    1  0.2107254E+004  0.1043930E+01  0.7957747E-01            NaN
         13   -1    0    0    0    0  0.00000000000E+00  0.00000000000E+00  0.74505805969E-08  0.10566000000E+00  0.10566000000E+00 0. -1.
     999900   -1    0    0    0    0 -0.00000000000E+00 -0.00000000000E+00 -0.74505805969E-08  0.93827000000E+00  0.93827000000E+00 0. -1.
     999902    2    1    2    0    0  0.15429910499E-02 -0.20608193369E-02 -0.14379517501E-01  0.10293218406E+01  0.10292181757E+01 0.  0.
     999903    2    3    3    0    0 -0.67741831575E-01  0.47933935319E-01 -0.10413328072E+00  0.14063989515E+00  0.45268333913E-01 0.  0.
         14    1    1    2    0    0 -0.15429910499E-02  0.20608193369E-02  0.14379517501E-01  0.14608159408E-01  0.00000000000E+00 0. -1.
     999901    1    3    3    0    0  0.69284822625E-01 -0.49994754656E-01  0.89753763216E-01  0.88868194544E+00  0.88000000000E+00 0.  1.
        -11    1    4    4    0    0 -0.65938915412E-01  0.43388912536E-01 -0.68037449767E-01  0.10421081512E+00  0.51100000000E-03 0.  1.
         11    1    4    4    0    0 -0.18029161625E-02  0.45450227823E-02 -0.36095830950E-01  0.36429080029E-01  0.51100000000E-03 0. -1.
</event>
<event>
 7    1  0.2107254E+004  0.1043930E+01  0.7957747E-01            NaN
         13   -1    0    0    0    0  0.00000000000E+00  0.00000000000E+00  0.74505805969E-08  0.10566000000E+00  0.10566000000E+00 0. -1.
     999900   -1    0    0    0    0 -0.00000000000E+00 -0.00000000000E+00 -0.74505805969E-08  0.93827000000E+00  0.93827000000E+00 0.  1.
     999903    2    1    2    0    0  0.97823970618E-01  0.56202602095E-01 -0.88714945686E-02  0.12201570329E+00  0.45616518112E-01 0.  0.
         14    1    1    2    0    0  0.72752927621E-02  0.35232494608E-03 -0.32097228456E-01  0.32913311778E-01  0.00000000000E+00 0.  1.
     999901    1    1    2    0    0 -0.10509926338E+00 -0.56554927041E-01  0.40968723025E-01  0.88900098493E+00  0.88000000000E+00 0.  1.
        -11    1    3    3    0    0  0.52517474824E-01  0.45759258699E-01 -0.23102629529E-01  0.73389287575E-01  0.51100000000E-03 0. -1.
         11    1    3    3    0    0  0.45306495794E-01  0.10443343397E-01  0.14231134961E-01  0.48626415719E-01  0.51100000000E-03 0.  1.
</event>
<event>
 8    1  0.2380201E+004  0.1043930E+01  0.7957747E-01            NaN
         13   -1    0    0    0    0  0.00000000000E+00  0.00000000000E+00  0.74505805969E-08  0.10566000000E+00  0.10566000000E+00 0.  1.
     999900   -1    0    0    0    0 -0.00000000000E+00 -0.00000000000E+00 -0.74505805969E-08  0.93827000000E+00  0.93827000000E+00 0. -1.
     999902    2    1    2    0    0  0.13813519309E-01 -0.24494840255E-02  0.39763601247E-02  0.10293483428E+01  0.10292450564E+01 0.  0.
     999903    2    3    3    0    0 -0.11147230158E+00 -0.35303703477E-01 -0.57583583339E-01  0.13773992912E+00  0.44542042003E-01 0.  0.
         14    1    1    2    0    0 -0.13813519309E-01  0.24494840255E-02 -0.39763601247E-02  0.14581657229E-01  0.00000000000E+00 0. -1.
     999901    1    3    3    0    0  0.12528582089E+00  0.32854219452E-01  0.61559943464E-01  0.89160841365E+00  0.88000000000E+00 0.  1.
        -11    1    4    4    0    0 -0.28737328290E-01 -0.91610283642E-03  0.39787114049E-02  0.29030407285E-01  0.51100000000E-03 0.  1.
         11    1    4    4    0    0 -0.82734973288E-01 -0.34387600641E-01 -0.61562294744E-01  0.10870952184E+00  0.51100000000E-03 0. -1.
</event>
<event>
 8    1  0.2107254E+004  0.1043930E+01  0.7957747E-01            NaN
         13   -1    0    0    0    0  0.00000000000E+00  0.00000000000E+00  0.74505805969E-08  0.10566000000E+00  0.10566000000E+00 0.  1.
     999900   -1    0    0    0    0 -0.00000000000E+00 -0.00000000000E+00 -0.74505805969E-08  0.93827000000E+00  0.93827000000E+00 0. -1.
     999902    2    1    2    0    0 -0.11793548723E-01  0.74739215818E-02 -0.57694520478E-03  0.10299557322E+01  0.10298609275E+01 0.  0.
     999903    2    3    3    0    0  0.88295314784E-01 -0.86494595879E-01 -0.40607109676E-01  0.13841197165E+00  0.47239377762E-01 0.  0.
         14    1    1    2    0    0  0.11793548723E-01 -0.74739215818E-02  0.57694520478E-03  0.13974267818E-01  0.00000000000E+00 0. -1.
     999901    1    3    3    0    0 -0.10008886351E+00  0.93968517460E-01  0.40030164471E-01  0.89154376053E+00  0.88000000000E+00 0. -1.
        -11    1    4    4    0    0  0.36455136992E-01 -0.66507439771E-02 -0.94729789299E-02  0.38251900075E-01  0.51100000000E-03 0.  1.
         11    1    4    4    0    0  0.51840177792E-01 -0.79843851902E-01 -0.31134130746E-01  0.10016007158E+00  0.51100000000E-03 0. -1.
</event>
<event>
 8    1  0.2107254E+004  0.1043930E+01  0.7957747E-01            NaN
         13   -1    0    0    0    0  0.00000000000E+00  0.00000000000E+00  0.74505805969E-08  0.10566000000E+00  0.10566000000E+00 0.  1.
     999900   -1    0    0    0    0 -0.00000000000E+00 -0.00000000000E+00 -0.74505805969E-08  0.93827000000E+00  0.93827000000E+00 0. -1.
     999902    2    1    2    0    0  0.11805583540E-01  0.14824303557E-03 -0.77922343552E-02  0.10297838806E+01  0.10296867135E+01 0.  0.
     999903    2    3    3    0    0  0.11828412405E+00 -0.31620035954E-01 -0.55103411745E-01  0.14153546338E+00  0.44776564527E-01 0.  0.
         14    1    1    2    0    0 -0.11805583540E-01 -0.14824303557E-03  0.77922343552E-02  0.14146119431E-01  0.00000000000E+00 0.  1.
     999901    1    3    3    0    0 -0.10647854051E+00  0.31768278990E-01  0.47311177389E-01  0.88824841719E+00  0.88000000000E+00 0.  1.
        -11    1    4    4    0    0  0.75138982396E-01 -0.55011979520E-02 -0.14361777759E-01  0.76698446111E-01  0.51100000000E-03 0.  1.
         11    1    4    4    0    0  0.43145141655E-01 -0.26118838002E-01 -0.40741633986E-01  0.64837017265E-01  0.51100000000E-03 0. -1.
</event>
<event>
 8    1  0.2107254E+004  0.1043930E+01  0.7957747E-01            NaN
         13   -1    0    0    0    0  0.00000000000E+00  0.00000000000E+00  0.74505805969E-08  0.10566000000E+00  0.10566000000E+00 0. -1.
     999900   -1    0    0    0    0 -0.00000000000E+00 -0.00000000000E+00 -0.74505805969E-08  0.93827000000E+00  0.93827000000E+00 0. -1.
     999902    2    1    2    0    0  0.97791157437E-02 -0.10672243971E-02  0.16016391753E-02  0.10339632894E+01  0.10339152521E+01 0.  0.
     999903    2    3    3    0    0 -0.17584099270E-01 -0.47166839969E-01  0.12673959965E+00  0.14349519380E+00  0.44654598665E-01 0.  0.
         14    1    1    2    0    0 -0.97791157437E-02  0.10672243971E-02 -0.16016391753E-02  0.99667106254E-02  0.00000000000E+00 0. -1.
     999901    1    3    3    0    0  0.27363215014E-01  0.46099615572E-01 -0.12513796048E+00  0.89046809558E+00  0.88000000000E+00 0. -1.
        -11    1    4    4    0    0  0.93364433824E-02 -0.37523218759E-01  0.71163797616E-01  0.80992026355E-01  0.51100000000E-03 0.  1.
         11    1    4    4    0    0 -0.26920542652E-01 -0.96436212096E-02  0.55575802039E-01  0.62503167440E-01  0.51100000000E-03 0. -1.
</event>
<event>
 7    1  0.2107254E+004  0.1043930E+01  0.7957747E-01            NaN
         13   -1    0    0    0    0  0.00000000000E+00  0.00000000000E+00  0.74505805969E-08  0.10566000000E+00  0.10566000000E+00 0. -1.
     999900   -1    0    0    0    0 -0.00000000000E+00 -0.00000000000E+00 -0.74505805969E-08  0.93827000000E+00  0.93827000000E+00 0. -1.
     999903    2    1    2    0    0  0.69245848550E-01  0.39421867048E-01  0.81378708185E-01  0.12242887153E+00  0.44913954343E-01 0.  0.
         14    1    1    2    0    0 -0.31986110520E-01 -0.17535806417E-01  0.18082342739E-02  0.36522397020E-01  0.00000000000E+00 0.  1.
     999901    1    1    2    0    0 -0.37259738030E-01 -0.21886060631E-01 -0.83186942459E-01  0.88497873145E+00  0.88000000000E+00 0. -1.
        -11    1    3    3    0    0  0.54060244044E-01  0.45583830589E-01  0.48684199839E-01  0.85853410138E-01  0.51100000000E-03 0. -1.
         11    1    3    3    0    0  0.15185604506E-01 -0.61619635416E-02  0.32694508346E-01  0.36575461390E-01  0.51100000000E-03 0.  1.
</event>
<event>
 8    1  0.2107254E+004  0.1043930E+01  0.7957747E-01            NaN
         13   -1    0    0    0    0  0.00000000000E+00  0.00000000000E+00  0.74505805969E-08  0.10566000000E+00  0.10566000000E+00 0. -1.
     999900   -1    0    0    0    0 -0.00000000000E+00 -0.00000000000E+00 -0.74505805969E-08  0.93827000000E+00  0.93827000000E+00 0.  1.
     999902    2    1    2    0    0  0.84402292811E-02 -0.40615009603E-02 -0.10620015272E-01  0.10297695627E+01  0.10296721975E+01 0.  0.
     999903    2    3    3    0    0  0.11156849123E+00 -0.73636600066E-01  0.31202585256E-02  0.14091359689E+00  0.44463790545E-01 0.  0.
         14    1    1    2    0    0 -0.84402292811E-02  0.40615009603E-02  0.10620015272E-01  0.14160437307E-01  0.00000000000E+00 0. -1.
     999901    1    3    3    0    0 -0.10312826195E+00  0.69575099106E-01 -0.13740273797E-01  0.88885596581E+00  0.88000000000E+00 0.  1.
        -11    1    4    4    0    0  0.23176876583E-01  0.34026873116E-02 -0.22391502613E-02  0.23537646526E-01  0.51100000000E-03 0. -1.
         11    1    4    4    0    0  0.88391614645E-01 -0.77039287378E-01  0.53594087869E-02  0.11737595036E+00  0.51100000000E-03 0.  1.
</event>
<event>
 8    1  0.2107254E+004  0.1043930E+01  0.7957747E-01            NaN
         13   -1    0    0    0    0  0.00000000000E+00  0.00000000000E+00  0.74505805969E-08  0.10566000000E+00  0.10566000000E+00 0.  1.
     999900   -1    0    0    0    0 -0.00000000000E+00 -0.00000000000E+00 -0.74505805969E-08  0.93827000000E+00  0.93827000000E+00 0. -1.
     999902    2    1    2    0    0 -0.89078115043E-02 -0.61503452289E-02  0.82355719628E-02  0.10303285112E+01  0.10302387298E+01 0.  0.
     999903    2    3    3    0    0  0.30303552854E-01 -0.45879432264E-01  0.12174980249E+00  0.14128328626E+00  0.45986138665E-01 0.  0.
         14    1    1    2    0    0  0.89078115043E-02  0.61503452289E-02 -0.82355719628E-02  0.13601488808E-01  0.00000000000E+00 0. -1.
     999901    1    3    3    0    0 -0.39211364358E-01  0.39729087035E-01 -0.11351423052E+00  0.88904522494E+00  0.88000000000E+00 0. -1.
        -11    1    4    4    0    0  0.33338319689E-03 -0.31841547629E-02  0.61509203898E-01  0.61594588002E-01  0.51100000000E-03 0.  1.
         11    1    4    4    0    0  0.29970169657E-01 -0.42695277501E-01  0.60240598588E-01  0.79688698254E-01  0.51100000000E-03 0. -1.
</event>
<event>
 8    1  0.2107254E+004  0.1043930E+01  0.7957747E-01            NaN
         13   -1    0    0    0    0  0.00000000000E+00  0.00000000000E+00  0.74505805969E-08  0.10566000000E+00  0.10566000000E+00 0. -1.
     999900   -1    0    0    0    0 -0.00000000000E+00 -0.00000000000E+00 -0.74505805969E-08  0.93827000000E+00  0.93827000000E+00 0.  1.
     999902    2    1    2    0    0 -0.38165062491E-02  0.12222247560E-01  0.22592615707E-02  0.10309279495E+01  0.10308459554E+01 0.  0.
     999903    2    3    3    0    0  0.29554087507E-01  0.71141711590E-01 -0.10952111768E+00  0.14127635869E+00  0.45050494914E-01 0.  0.
         14    1    1    2    0    0  0.38165062491E-02 -0.12222247560E-01 -0.22592615707E-02  0.13002050539E-01  0.00000000000E+00 0.  1.
     999901    1    3    3    0    0 -0.33370593756E-01 -0.58919464030E-01  0.11178037925E+00  0.88965159077E+00  0.88000000000E+00 0. -1.
        -11    1    4    4    0    0  0.36966073822E-01  0.30672184794E-01 -0.56418298615E-01  0.74098306819E-01  0.51100000000E-03 0. -1.
         11    1    4    4    0    0 -0.74119863151E-02  0.40469526796E-01 -0.53102819064E-01  0.67178051876E-01  0.51100000000E-03 0.  1.
</event>
<event>
 8    1  0.2107254E+004  0.1043930E+01  0.7957747E-01            NaN
         13   -1    0    0    0    0  0.00000000000E+00  0.00000000000E+00  0.74505805969E-08  0.10566000000E+00  0.10566000000E+00 0. -1.
     999900   -1    0    0    0    0 -0.00000000000E+00 -0.00000000000E+00 -0.74505805969E-08  0.93827000000E+00  0.93827000000E+00 0. -1.
     999902    2    1    2    0    0 -0.59784674661E-02  0.15608493227E-01 -0.33582927642E-02  0.10268816785E+01  0.10267401504E+01 0.  0.
     999903    2    3    3    0    0 -0.10220375097E+00  0.57917445813E-01  0.57900758255E-01  0.13851124681E+00  0.45086920995E-01 0.  0.
         14    1    1    2    0    0  0.59784674661E-02 -0.15608493227E-01  0.33582927642E-02  0.17048321453E-01  0.00000000000E+00 0. -1.
     999901    1    3    3    0    0  0.96225283501E-01 -0.42308952586E-01 -0.61259051019E-01  0.88837043174E+00  0.88000000000E+00 0. -1.
        -11    1    4    4    0    0 -0.37934372175E-01  0.18076029398E-01  0.45403960818E-01  0.61867117357E-01  0.51100000000E-03 0. -1.
         11    1    4    4    0    0 -0.64269378793E-01  0.39841416416E-01  0.12496797437E-01  0.76644129453E-01  0.51100000000E-03 0.  1.
</event>
<event>
 8    1  0.2107254E+004  0.1043930E+01  0.7957747E-01            NaN
         13   -1    0    0    0    0  0.00000000000E+00  0.00000000000E+00  0.74505805969E-08  0.10566000000E+00  0.10566000000E+00 0. -1.
     999900   -1    0    0    0    0 -0.00000000000E+00 -0.00000000000E+00 -0.74505805969E-08  0.93827000000E+00  0.93827000000E+00 0.  1.
     999902    2    1    2    0    0  0.20403445259E-02  0.12854241084E-01  0.45015529484E-02  0.10301583444E+01  0.10300662872E+01 0.  0.
     999903    2    3    3    0    0 -0.11598407120E+00  0.64138976286E-01  0.20623687834E-01  0.14065297058E+00  0.42329760016E-01 0.  0.
         14    1    1    2    0    0 -0.20403445259E-02 -0.12854241084E-01 -0.45015529484E-02  0.13771655623E-01  0.00000000000E+00 0. -1.
     999901    1    3    3    0    0  0.11802441573E+00 -0.51284735202E-01 -0.16122134886E-01  0.88950537379E+00  0.88000000000E+00 0.  1.
        -11    1    4    4    0    0 -0.75668154613E-01  0.19739745294E-01  0.19813216011E-01  0.80673117062E-01  0.51100000000E-03 0. -1.
         11    1    4    4    0    0 -0.40315916588E-01  0.44399230992E-01  0.81047182288E-03  0.59979853523E-01  0.51100000000E-03 0.  1.
</event>
<event>
 7    1  0.2107254E+004  0.1043930E+01  0.7957747E-01            NaN
         13   -1    0    0    0    0  0.00000000000E+00  0.00000000000E+00  0.74505805969E-08  0.10566000000E+00  0.10566000000E+00 0.  1.
     999900   -1    0    0    0    0 -0.00000000000E+00 -0.00000000000E+00 -0.74505805969E-08  0.93827000000E+00  0.93827000000E+00 0. -1.
     999903    2    1    2    0    0  0.58622876748E-02 -0.61454404600E-01  0.90512274931E-01  0.11893959431E+00  0.46294113243E-01 0.  0.
         14    1    1    2    0    0  0.17209407600E-01 -0.30839235194E-01 -0.62056076435E-02  0.35857101159E-01  0.00000000000E+00 0. -1.
     999901    1    1    2    0    0 -0.23071695275E-01  0.92293639794E-01 -0.84306667287E-01  0.88913330453E+00  0.88000000000E+00 0. -1.
        -11    1    3    3    0    0  0.23135327344E-02 -0.15096430556E-01  0.63186389971E-01  0.65007966034E-01  0.51100000000E-03 0.  1.
         11    1    3    3    0    0  0.35487549404E-02 -0.46357974045E-01  0.27325884959E-01  0.53931628281E-01  0.51100000000E-03 0. -1.
</event>
<event>
 8    1  0.2214216E+004  0.1043930E+01  0.7957747E-01            NaN
         13   -1    0    0    0    0  0.00000000000E+00  0.00000000000E+00  0.74505805969E-08  0.10566000000E+00  0.10566000000E+00 0. -1.
     999900   -1    0    0    0    0 -0.00000000000E+00 -0.00000000000E+00 -0.74505805969E-08  0.93827000000E+00  0.93827000000E+00 0.  1.
     999902    2    1    2    0    0 -0.58275320228E-02 -0.89226806658E-02 -0.92823172671E-02  0.10297972093E+01  0.10297002265E+01 0.  0.
     999903    2    3    3    0    0 -0.10764554691E+00 -0.25309039349E-01  0.78681729175E-01  0.13941914667E+00  0.31918219095E-01 0.  0.
         14    1    1    2    0    0  0.58275320228E-02  0.89226806658E-02  0.92823172671E-02  0.14132790722E-01  0.00000000000E+00 0. -1.
     999901    1    3    3    0    0  0.10181801489E+00  0.16386358683E-01 -0.87964046442E-01  0.89037806261E+00  0.88000000000E+00 0.  1.
        -11    1    4    4    0    0 -0.57802140403E-01 -0.15211998115E-01  0.61438285019E-01  0.85717071281E-01  0.51100000000E-03 0.  1.
         11    1    4    4    0    0 -0.49843406506E-01 -0.10097041234E-01  0.17243444156E-01  0.53702075390E-01  0.51100000000E-03 0. -1.
</event>
<event>
 8    1  0.2107254E+004  0.1043930E+01  0.7957747E-01            NaN
         13   -1    0    0    0    0  0.00000000000E+00  0.00000000000E+00  0.74505805969E-08  0.10566000000E+00  0.10566000000E+00 0.  1.
     999900   -1    0    0    0    0 -0.00000000000E+00 -0.00000000000E+00 -0.74505805969E-08  0.93827000000E+00  0.93827000000E+00 0.  1.
     999902    2    1    2    0    0 -0.96433058370E-02 -0.31155233718E-02 -0.74277976213E-02  0.10313652871E+01  0.10312887488E+01 0.  0.
     999903    2    3    3    0    0 -0.57326889528E-01 -0.33865236268E-01  0.11594817811E+00  0.14094914819E+00  0.44603316919E-01 0.  0.
         14    1    1    2    0    0  0.96433058370E-02  0.31155233718E-02  0.74277976213E-02  0.12564712923E-01  0.00000000000E+00 0.  1.
     999901    1    3    3    0    0  0.47683583691E-01  0.30749712896E-01 -0.12337597573E+00  0.89041613888E+00  0.88000000000E+00 0. -1.
        -11    1    4    4    0    0 -0.23021856686E-01 -0.36747431485E-01  0.47429595196E-01  0.64266688319E-01  0.51100000000E-03 0.  1.
         11    1    4    4    0    0 -0.34305032842E-01  0.28821952172E-02  0.68518582909E-01  0.76682459875E-01  0.51100000000E-03 0. -1.
</event>
<event>
 8    1  0.2107254E+004  0.1043930E+01  0.7957747E-01            NaN
         13   -1    0    0    0    0  0.00000000000E+00  0.00000000000E+00  0.74505805969E-08  0.10566000000E+00  0.10566000000E+00 0.  1.
     999900   -1    0    0    0    0 -0.00000000000E+00 -0.00000000000E+00 -0.74505805969E-08  0.93827000000E+00  0.93827000000E+00 0.  1.
     999902    2    1    2    0    0  0.48853626907E-02  0.71059912154E-05  0.10725123777E-01  0.10321446235E+01  0.10320773366E+01 0.  0.
     999903    2    3    3    0    0 -0.12738391016E+00 -0.40560438153E-01  0.73994637972E-02  0.14132929685E+00  0.45248296905E-01 0.  0.
         14    1    1    2    0    0 -0.48853626907E-02 -0.71059912154E-05 -0.10725123777E-01  0.11785376496E-01  0.00000000000E+00 0. -1.
     999901    1    3    3    0    0  0.13226927286E+00  0.40567544144E-01  0.33256599802E-02  0.89081532665E+00  0.88000000000E+00 0. -1.
        -11    1    4    4    0    0 -0.62462033058E-01  0.13278414417E-02  0.13165712649E-01  0.63850339445E-01  0.51100000000E-03 0. -1.
         11    1    4    4    0    0 -0.64921877106E-01 -0.41888279595E-01 -0.57662488514E-02  0.77478957409E-01  0.51100000000E-03 0.  1.
</event>
<event>
 8    1  0.2107254E+004  0.1043930E+01  0.7957747E-01            NaN
         13   -1    0    0    0    0  0.00000000000E+00  0.00000000000E+00  0.74505805969E-08  0.10566000000E+00  0.10566000000E+00 0.  1.
     999900   -1    0    0    0    0 -0.00000000000E+00 -0.00000000000E+00 -0.74505805969E-08  0.93827000000E+00  0.93827000000E+00 0. -1.
     999902    2    1    2    0    0  0.38508235668E-02  0.44964065676E-02  0.11700381043E-01  0.10308172036E+01  0.10307337977E+01 0.  0.
     999903    2    3    3    0    0  0.84348796559E-01 -0.31688975730E-01  0.10022951872E+00  0.14198273428E+00  0.44656799559E-01 0.  0.
         14    1    1    2    0    0 -0.38508235668E-02 -0.44964065676E-02 -0.11700381043E-01  0.13112796449E-01  0.00000000000E+00 0. -1.
     999901    1    3    3    0    0 -0.80497972993E-01  0.36185382298E-01 -0.88529137676E-01  0.88883446927E+00  0.88000000000E+00 0. -1.
        -11    1    4    4    0    0  0.37785424096E-01 -0.30409739054E-01  0.74120908445E-01  0.88581378930E-01  0.51100000000E-03 0. -1.
         11    1    4    4    0    0  0.46563372464E-01 -0.12792366758E-02  0.26108610274E-01  0.53401355349E-01  0.51100000000E-03 0.  1.
</event>
<event>
 8    1  0.2107254E+004  0.1043930E+01  0.7957747E-01            NaN
         13   -1    0    0    0    0  0.00000000000E+00  0.00000000000E+00  0.74505805969E-08  0.10566000000E+00  0.10566000000E+00 0.  1.
     999900   -1    0    0    0    0 -0.00000000000E+00 -0.00000000000E+00 -0.74505805969E-08  0.93827000000E+00  0.93827000000E+00 0.  1.
     999902    2    1    2    0    0 -0.11828501881E-01 -0.24619355129E-02 -0.74274739970E-02  0.10297475477E+01  0.10296498774E+01 0.  0.
     999903    2    3    3    0    0  0.58502715029E-01 -0.88598474929E-01  0.77184564541E-01  0.13872275536E+00  0.44880824714E-01 0.  0.
         14    1    1    2    0    0  0.11828501881E-01  0.24619355129E-02  0.74274739970E-02  0.14182452299E-01  0.00000000000E+00 0.  1.
     999901    1    3    3    0    0 -0.70331216910E-01  0.86136539416E-01 -0.84612038538E-01  0.89102479234E+00  0.88000000000E+00 0. -1.
        -11    1    4    4    0    0 -0.56896973283E-02 -0.47617589922E-02  0.13500786212E-01  0.15413609367E-01  0.51100000000E-03 0. -1.
         11    1    4    4    0    0  0.64192412357E-01 -0.83836715936E-01  0.63683778329E-01  0.12330914600E+00  0.51100000000E-03 0.  1.
</event>
<event>
 8    1  0.2107254E+004  0.1043930E+01  0.7957747E-01            NaN
         13   -1    0    0    0    0  0.00000000000E+00  0.00000000000E+00  0.74505805969E-08  0.10566000000E+00  0.10566000000E+00 0. -1.
     999900   -1    0    0    0    0 -0.00000000000E+00 -0.00000000000E+00 -0.74505805969E-08  0.93827000000E+00  0.93827000000E+00 0.  1.
     999902    2    1    2    0    0  0.73754176247E-02  0.42267648855E-02 -0.11641239541E-01  0.10295153968E+01  0.10294144799E+01 0.  0.
     999903    2    3    3    0    0  0.11612745962E+00  0.18342719565E-01 -0.67597703397E-01  0.14094497606E+00  0.38392636439E-01 0.  0.
         14    1    1    2    0    0 -0.73754176247E-02 -0.42267648855E-02  0.11641239541E-01  0.14414603171E-01  0.00000000000E+00 0. -1.
     999901    1    3    3    0    0 -0.10875204200E+00 -0.14115954680E-01  0.55956463857E-01  0.88857042077E+00  0.88000000000E+00 0.  1.
        -11    1    4    4    0    0  0.96554353504E-01 -0.34570634285E-03 -0.54499826950E-01  0.11087540283E+00  0.51100000000E-03 0.  1.
         11    1    4    4    0    0  0.19573106120E-01  0.18688425908E-01 -0.13097876447E-01  0.30069573235E-01  0.51100000000E-03 0. -1.
</event>
<event>
 8    1  0.2107254E+004  0.1043930E+01  0.7957747E-01            NaN
         13   -1    0    0    0    0  0.00000000000E+00  0.00000000000E+00  0.74505805969E-08  0.10566000000E+00  0.10566000000E+00 0. -1.
     999900   -1    0    0    0    0 -0.00000000000E+00 -0.00000000000E+00 -0.74505805969E-08  0.93827000000E+00  0.93827000000E+00 0. -1.
     999902    2    1    2    0    0 -0.13609945340E-01  0.10807299855E-02 -0.10028831967E-02  0.10302404286E+01  0.10301494729E+01 0.  0.
     999903    2    3    3    0    0 -0.59669291381E-01 -0.11782025685E+00  0.19060277105E-01  0.14082408157E+00  0.45012115355E-01 0.  0.
         14    1    1    2    0    0  0.13609945340E-01 -0.10807299855E-02  0.10028831967E-02  0.13689571366E-01  0.00000000000E+00 0. -1.
     999901    1    3    3    0    0  0.46059346041E-01  0.11890098683E+00 -0.20063160301E-01  0.88941634707E+00  0.88000000000E+00 0.  1.
        -11    1    4    4    0    0 -0.35002533130E-01 -0.25618604446E-01  0.12543568158E-01  0.45156311213E-01  0.51100000000E-03 0.  1.
         11    1    4    4    0    0 -0.24666758251E-01 -0.92201652401E-01  0.65167089463E-02  0.95667770355E-01  0.51100000000E-03 0. -1.
</event>
<event>
 8    1  0.2107254E+004  0.1043930E+01  0.7957747E-01            NaN
         13   -1    0    0    0    0  0.00000000000E+00  0.00000000000E+00  0.74505805969E-08  0.10566000000E+00  0.10566000000E+00 0.  1.
     999900   -1    0    0    0    0 -0.00000000000E+00 -0.00000000000E+00 -0.74505805969E-08  0.93827000000E+00  0.93827000000E+00 0. -1.
     999902    2    1    2    0    0  0.14871227256E-02 -0.11403467199E-01  0.33877891086E-02  0.10319413507E+01  0.10318717088E+01 0.  0.
     999903    2    3    3    0    0  0.35129237185E-01  0.97931048546E-01  0.83850423995E-01  0.14089698374E+00  0.44682354987E-01 0.  0.
         14    1    1    2    0    0 -0.14871227256E-02  0.11403467199E-01 -0.33877891086E-02  0.11988649349E-01  0.00000000000E+00 0.  1.
     999901    1    3    3    0    0 -0.33642114459E-01 -0.10933451575E+00 -0.80462634886E-01  0.89104436692E+00  0.88000000000E+00 0.  1.
        -11    1    4    4    0    0 -0.72936902684E-02  0.39686289860E-01  0.38383249593E-01  0.55693217638E-01  0.51100000000E-03 0. -1.
         11    1    4    4    0    0  0.42422927453E-01  0.58244758686E-01  0.45467174402E-01  0.85203766097E-01  0.51100000000E-03 0.  1.
</event>
<event>
 8    1  0.2107254E+004  0.1043930E+01  0.7957747E-01            NaN
         13   -1    0    0    0    0  0.00000000000E+00  0.00000000000E+00  0.74505805969E-08  0.10566000000E+00  0.10566000000E+00 0.  1.
     999900   -1    0    0    0    0 -0.00000000000E+00 -0.00000000000E+00 -0.74505805969E-08  0.93827000000E+00  0.93827000000E+00 0.  1.
     999902    2    1    2    0    0 -0.96367052094E-02 -0.71739030439E-02 -0.11237885895E-02  0.10318637714E+01  0.10317932200E+01 0.  0.
     999903    2    3    3    0    0 -0.12839401412E+00  0.37349164666E-01  0.20638262984E-01  0.14250490745E+00  0.44740672601E-01 0.  0.
         14    1    1    2    0    0  0.96367052094E-02  0.71739030439E-02  0.11237885895E-02  0.12066228614E-01  0.00000000000E+00 0.  1.
     999901    1    3    3    0    0  0.11875730891E+00 -0.44523067709E-01 -0.21762051573E-01  0.88935886394E+00  0.88000000000E+00 0. -1.
        -11    1    4    4    0    0 -0.41967579516E-01 -0.38866489355E-02 -0.72418188551E-02  0.42767848107E-01  0.51100000000E-03 0.  1.
         11    1    4    4    0    0 -0.86426434602E-01  0.41235813601E-01  0.27880081839E-01  0.99737059340E-01  0.51100000000E-03 0. -1.
</event>
<event>
 8    1  0.2107254E+004  0.1043930E+01  0.7957747E-01            NaN
         13   -1    0    0    0    0  0.00000000000E+00  0.00000000000E+00  0.74505805969E-08  0.10566000000E+00  0.10566000000E+00 0. -1.
     999900   -1    0    0    0    0 -0.00000000000E+00 -0.00000000000E+00 -0.74505805969E-08  0.93827000000E+00  0.93827000000E+00 0.  1.
     999902    2    1    2    0    0 -0.51669189989E-02 -0.81006762416E-02  0.25003446865E-02  0.10340017710E+01  0.10339541057E+01 0.  0.
     999903    2    3    3    0    0  0.90734348910E-01  0.10965548729E-01  0.10046847453E+00  0.14318286203E+00  0.45326066141E-01 0.  0.
         14    1    1    2    0    0  0.51669189989E-02  0.81006762416E-02 -0.25003446865E-02  0.99282289994E-02  0.00000000000E+00 0. -1.
     999901    1    3    3    0    0 -0.95901267909E-01 -0.19066224971E-01 -0.97968129847E-01  0.89081890897E+00  0.88000000000E+00 0.  1.
        -11    1    4    4    0    0  0.65870114072E-01  0.19575903032E-01  0.46013919005E-01  0.82702054210E-01  0.51100000000E-03 0.  1.
         11    1    4    4    0    0  0.24864234838E-01 -0.86103543026E-02  0.54454555529E-01  0.60480807816E-01  0.51100000000E-03 0. -1.
</event>
<event>
 8    1  0.2107254E+004  0.1043930E+01  0.7957747E-01            NaN
         13   -1    0    0    0    0  0.00000000000E+00  0.00000000000E+00  0.74505805969E-08  0.10566000000E+00  0.10566000000E+00 0. -1.
     999900   -1    0    0    0    0 -0.00000000000E+00 -0.00000000000E+00 -0.74505805969E-08  0.93827000000E+00  0.93827000000E+00 0.  1.
     999902    2    1    2    0    0  0.33094748165E-02  0.24418808674E-02  0.13294949992E-01  0.10300134235E+01  0.10299194054E+01 0.  0.
     999903    2    3    3    0    0  0.83629142324E-02 -0.13072858713E+00 -0.15245385397E-01  0.13952228850E+00  0.45542786329E-01 0.  0.
         14    1    1    2    0    0 -0.33094748165E-02 -0.24418808674E-02 -0.13294949992E-01  0.13916576483E-01  0.00000000000E+00 0.  1.
     999901    1    3    3    0    0 -0.50534394158E-02  0.13317046799E+00  0.28540335389E-01  0.89049113501E+00  0.88000000000E+00 0. -1.
        -11    1    4    4    0    0 -0.10597686649E-02 -0.24985998144E-01 -0.21768173889E-01  0.33159278163E-01  0.51100000000E-03 0.  1.
         11    1    4    4    0    0  0.94226828973E-02 -0.10574258898E+00  0.65227884917E-02  0.10636301034E+00  0.51100000000E-03 0. -1.
</event>
<event>
 8    1  0.2107254E+004  0.1043930E+01  0.7957747E-01            NaN
         13   -1    0    0    0    0  0.00000000000E+00  0.00000000000E+00  0.74505805969E-08  0.10566000000E+00  0.10566000000E+00 0. -1.
     999900   -1    0    0    0    0 -0.00000000000E+00 -0.00000000000E+00 -0.74505805969E-08  0.93827000000E+00  0.93827000000E+00 0. -1.
     999902    2    1    2    0    0  0.44303572286E-02 -0.12274223758E-01 -0.21789874416E-03  0.10308788654E+01  0.10307962471E+01 0.  0.
     999903    2    3    3    0    0 -0.48868613910E-01  0.11887248434E+00 -0.28662208018E-01  0.13911134072E+00  0.44851242908E-01 0.  0.
         14    1    1    2    0    0 -0.44303572286E-02  0.12274223758E-01  0.21789874416E-03  0.13051134582E-01  0.00000000000E+00 0.  1.
     999901    1    3    3    0    0  0.53298971139E-01 -0.13114670810E+00  0.28444309274E-01  0.89176752469E+00  0.88000000000E+00 0. -1.
        -11    1    4    4    0    0 -0.44878289065E-01  0.75056544360E-01 -0.35874363238E-01  0.94523947968E-01  0.51100000000E-03 0. -1.
         11    1    4    4    0    0 -0.39903248451E-02  0.43815939981E-01  0.72121552203E-02  0.44587392755E-01  0.51100000000E-03 0.  1.
</event>
<event>
 8    1  0.2107254E+004  0.1043930E+01  0.7957747E-01            NaN
         13   -1    0    0    0    0  0.00000000000E+00  0.00000000000E+00  0.74505805969E-08  0.10566000000E+00  0.10566000000E+00 0.  1.
     999900   -1    0    0    0    0 -0.00000000000E+00 -0.00000000000E+00 -0.74505805969E-08  0.93827000000E+00  0.93827000000E+00 0.  1.
     999902    2    1    2    0    0 -0.73493699852E-02 -0.34062068033E-02 -0.96494106193E-02  0.10313313251E+01  0.10312543699E+01 0.  0.
     999903    2    3    3    0    0  0.22272730587E-01  0.13054118143E+00 -0.14474496417E-01  0.14068961649E+00  0.45243591428E-01 0.  0.
         14    1    1    2    0    0  0.73493699852E-02  0.34062068033E-02  0.96494106193E-02  0.12598674901E-01  0.00000000000E+00 0.  1.
     999901    1    3    3    0    0 -0.29622100572E-01 -0.13394738823E+00  0.48250857977E-02  0.89064170861E+00  0.88000000000E+00 0.  1.
        -11    1    4    4    0    0  0.32184020217E-01  0.55693841441E-01 -0.38265429312E-02  0.64440039444E-01  0.51100000000E-03 0. -1.
         11    1    4    4    0    0 -0.99112896301E-02  0.74847339989E-01 -0.10647953486E-01  0.76249577048E-01  0.51100000000E-03 0.  1.
</event>
<event>
 8    1  0.2107254E+004  0.1043930E+01  0.7957747E-01            NaN
         13   -1    0    0    0    0  0.00000000000E+00  0.00000000000E+00  0.74505805969E-08  0.10566000000E+00  0.10566000000E+00 0.  1.
     999900   -1    0    0    0    0 -0.00000000000E+00 -0.00000000000E+00 -0.74505805969E-08  0.93827000000E+00  0.93827000000E+00 0.  1.
     999902    2    1    2    0    0  0.20904278256E-04 -0.12045190953E-01 -0.72981339798E-02  0.10298463278E+01  0.10297500226E+01 0.  0.
     999903    2    3    3    0    0  0.58431413351E-01  0.36814730390E-01 -0.11612635172E+00  0.13987854164E+00  0.36209424288E-01 0.  0.
         14    1    1    2    0    0 -0.20904278256E-04  0.12045190953E-01  0.72981339798E-02  0.14083672166E-01  0.00000000000E+00 0.  1.
     999901    1    3    3    0    0 -0.58410509073E-01 -0.48859921344E-01  0.10882821774E+00  0.88996778619E+00  0.88000000000E+00 0. -1.
        -11    1    4    4    0    0  0.16479596895E-02 -0.21058703073E-02  0.18452766239E-02  0.32888641973E-02  0.51100000000E-03 0. -1.
         11    1    4    4    0    0  0.56783453662E-01  0.38920600697E-01 -0.11797162835E+00  0.13658967744E+00  0.51100000000E-03 0.  1.
</event>
<event>
 8    1  0.2107254E+004  0.1043930E+01  0.7957747E-01            NaN
         13   -1    0    0    0    0  0.00000000000E+00  0.00000000000E+00  0.74505805969E-08  0.10566000000E+00  0.10566000000E+00 0. -1.
     999900   -1    0    0    0    0 -0.00000000000E+00 -0.00000000000E+00 -0.74505805969E-08  0.93827000000E+00  0.93827000000E+00 0. -1.
     999902    2    1    2    0    0 -0.22602281173E-02 -0.13117599564E-01  0.17650504369E-02  0.10305025858E+01  0.10304151027E+01 0.  0.
     999903    2    3    3    0    0 -0.93027971348E-01 -0.95880892016E-01 -0.15281751075E-01  0.14180739663E+00  0.45038393796E-01 0.  0.
         14    1    1    2    0    0  0.22602281173E-02  0.13117599564E-01 -0.17650504369E-02  0.13427414215E-01  0.00000000000E+00 0. -1.
     999901    1    3    3    0    0  0.90767743230E-01  0.82763292452E-01  0.17046801512E-01  0.88869518916E+00  0.88000000000E+00 0.  1.
        -11    1    4    4    0    0 -0.43392985452E-01 -0.51254116418E-01 -0.29840338854E-01  0.73489064358E-01  0.51100000000E-03 0. -1.
         11    1    4    4    0    0 -0.49634985896E-01 -0.44626775598E-01  0.14558587779E-01  0.68318332271E-01  0.51100000000E-03 0.  1.
</event>
<event>
 8    1  0.2107254E+004  0.1043930E+01  0.7957747E-01            NaN
         13   -1    0    0    0    0  0.00000000000E+00  0.00000000000E+00  0.74505805969E-08  0.10566000000E+00  0.10566000000E+00 0.  1.
     999900   -1    0    0    0    0 -0.00000000000E+00 -0.00000000000E+00 -0.74505805969E-08  0.93827000000E+00  0.93827000000E+00 0.  1.
     999902    2    1    2    0    0  0.94951154596E-02  0.98267238512E-02  0.42162407686E-02  0.10296297061E+01  0.10295303945E+01 0.  0.
     999903    2    3    3    0    0 -0.27777059248E-01 -0.11649001189E+00 -0.52456699496E-01  0.13802611992E+00  0.44249481009E-01 0.  0.
         14    1    1    2    0    0 -0.94951154596E-02 -0.98267238512E-02 -0.42162407686E-02  0.14300293894E-01  0.00000000000E+00 0. -1.
     999901    1    3    3    0    0  0.37272174708E-01  0.12631673574E+00  0.56672940265E-01  0.89160358618E+00  0.88000000000E+00 0. -1.
        -11    1    4    4    0    0  0.44026172474E-02 -0.52408667939E-01 -0.68432366690E-02  0.53039066007E-01  0.51100000000E-03 0. -1.
         11    1    4    4    0    0 -0.32179676496E-01 -0.64081343947E-01 -0.45613462827E-01  0.84987053917E-01  0.51100000000E-03 0.  1.
</event>
<event>
 8    1  0.2107254E+004  0.1043930E+01  0.7957747E-01            NaN
         13   -1    0    0    0    0  0.00000000000E+00  0.00000000000E+00  0.74505805969E-08  0.10566000000E+00  0.10566000000E+00 0. -1.
     999900   -1    0    0    0    0 -0.00000000000E+00 -0.00000000000E+00 -0.74505805969E-08  0.93827000000E+00  0.93827000000E+00 0. -1.
     999902    2    1    2    0    0  0.12410659793E-01 -0.55766595004E-02  0.70345739308E-02  0.10286130539E+01  0.10284990062E+01 0.  0.
     999903    2    3    3    0    0 -0.22039050992E-01  0.89908436964E-01  0.92722661436E-01  0.13864303498E+00  0.45333788715E-01 0.  0.
         14    1    1    2    0    0 -0.12410659793E-01  0.55766595004E-02 -0.70345739308E-02  0.15316946107E-01  0.00000000000E+00 0.  1.
     999901    1    3    3    0    0  0.34449710785E-01 -0.95485096465E-01 -0.85688087505E-01  0.88997001891E+00  0.88000000000E+00 0. -1.
        -11    1    4    4    0    0  0.63057755071E-02  0.57786971068E-01  0.39330616464E-01  0.70187287612E-01  0.51100000000E-03 0. -1.
         11    1    4    4    0    0 -0.28344826499E-01  0.32121465896E-01  0.53392044972E-01  0.68455747369E-01  0.51100000000E-03 0.  1.
</event>
<event>
 8    1  0.2107254E+004  0.1043930E+01  0.7957747E-01            NaN
         13   -1    0    0    0    0  0.00000000000E+00  0.00000000000E+00  0.74505805969E-08  0.10566000000E+00  0.10566000000E+00 0. -1.
     999900   -1    0    0    0    0 -0.00000000000E+00 -0.00000000000E+00 -0.74505805969E-08  0.93827000000E+00  0.93827000000E+00 0.  1.
     999902    2    1    2    0    0 -0.40194722007E-02 -0.11398446884E-01 -0.45199443183E-02  0.10310260996E+01  0.10309453465E+01 0.  0.
     999903    2    3    3    0    0  0.54516087371E-01 -0.95050227388E-01  0.75970897489E-01  0.14147407320E+00  0.47294678481E-01 0.  0.
         14    1    1    2    0    0  0.40194722007E-02  0.11398446884E-01  0.45199443183E-02  0.12903900371E-01  0.00000000000E+00 0.  1.
     999901    1    3    3    0    0 -0.58535559572E-01  0.83651780504E-01 -0.80490841807E-01  0.88955202643E+00  0.88000000000E+00 0.  1.
        -11    1    4    4    0    0 -0.10345020002E-02 -0.28628096222E-01  0.41023118599E-02  0.28943534188E-01  0.51100000000E-03 0.  1.
         11    1    4    4    0    0  0.55550589371E-01 -0.66422131166E-01  0.71868585629E-01  0.11253053901E+00  0.51100000000E-03 0. -1.
</event>
<event>
 7    1  0.2107254E+004  0.1043930E+01  0.7957747E-01            NaN
         13   -1    0    0    0    0  0.00000000000E+00  0.00000000000E+00  0.74505805969E-08  0.10566000000E+00  0.10566000000E+00 0. -1.
     999900   -1    0    0    0    0 -0.00000000000E+00 -0.00000000000E+00 -0.74505805969E-08  0.93827000000E+00  0.93827000000E+00 0. -1.
     999903    2    1    2    0    0  0.68378507001E-01  0.88503778973E-01 -0.22759303636E-01  0.12317385308E+00  0.46317092616E-01 0.  0.
         14    1    1    2    0    0  0.68586745604E-02  0.27879215129E-01  0.79370172895E-02  0.29787384853E-01  0.00000000000E+00 0. -1.
     999901    1    1    2    0    0 -0.75237181562E-01 -0.11638299410E+00  0.14822286346E-01  0.89096876207E+00  0.88000000000E+00 0.  1.
        -11    1    3    3    0    0  0.22223655302E-01  0.63076420748E-01 -0.31744002796E-02  0.66954190664E-01  0.51100000000E-03 0. -1.
         11    1    3    3    0    0  0.46154851699E-01  0.25427358225E-01 -0.19584903356E-01  0.56219662416E-01  0.51100000000E-03 0.  1.
</event>
<event>
 8    1  0.2107254E+004  0.1043930E+01  0.7957747E-01            NaN
         13   -1    0    0    0    0  0.00000000000E+00  0.00000000000E+00  0.74505805969E-08  0.10566000000E+00  0.10566000000E+00 0.  1.
     999900   -1    0    0    0    0 -0.00000000000E+00 -0.00000000000E+00 -0.74505805969E-08  0.93827000000E+00  0.93827000000E+00 0.  1.
     999902    2    1    2    0    0  0.42894328287E-02  0.78085220790E-02  0.10864546511E-01  0.10298797110E+01  0.10297838649E+01 0.  0.
     999903    2    3    3    0    0 -0.88528638731E-01 -0.96007132724E-01  0.12756600275E-01  0.13892715080E+00  0.45643542489E-01 0.  0.
         14    1    1    2    0    0 -0.42894328287E-02 -0.78085220790E-02 -0.10864546511E-01  0.14050289034E-01  0.00000000000E+00 0. -1.
     999901    1    3    3    0    0  0.92818071559E-01  0.10381565480E+00 -0.18920537637E-02  0.89095256016E+00  0.88000000000E+00 0.  1.
        -11    1    4    4    0    0 -0.68894275442E-01 -0.70328349786E-01 -0.10632850504E-01  0.99024323291E-01  0.51100000000E-03 0.  1.
         11    1    4    4    0    0 -0.19634363289E-01 -0.25678782938E-01  0.23389450779E-01  0.39902827514E-01  0.51100000000E-03 0. -1.
</event>
<event>
 8    1  0.2107254E+004  0.1043930E+01  0.7957747E-01            NaN
         13   -1    0    0    0    0  0.00000000000E+00  0.00000000000E+00  0.74505805969E-08  0.10566000000E+00  0.10566000000E+00 0. -1.
     999900   -1    0    0    0    0 -0.00000000000E+00 -0.00000000000E+00 -0.74505805969E-08  0.93827000000E+00  0.93827000000E+00 0.  1.
     999902    2    1    2    0    0  0.85322579499E-02  0.70400679567E-02 -0.66401930093E-02  0.10310282890E+01  0.10309475635E+01 0.  0.
     999903    2    3    3    0    0  0.13258968624E+00 -0.47545139876E-02  0.23661896341E-01  0.14173217733E+00  0.43880456363E-01 0.  0.
         14    1    1    2    0    0 -0.85322579499E-02 -0.70400679567E-02  0.66401930093E-02  0.12901710962E-01  0.00000000000E+00 0. -1.
     999901    1    3    3    0    0 -0.12405742829E+00  0.11794581944E-01 -0.30302089351E-01  0.88929611171E+00  0.88000000000E+00 0. -1.
        -11    1    4    4    0    0  0.36030671839E-01  0.38721494506E-02  0.26255033414E-01  0.44752550263E-01  0.51100000000E-03 0. -1.
         11    1    4    4    0    0  0.96559014406E-01 -0.86266634382E-02 -0.25931370728E-02  0.96979627067E-01  0.51100000000E-03 0.  1.
</event>
<event>
 8    1  0.2107254E+004  0.1043930E+01  0.7957747E-01            NaN
         13   -1    0    0    0    0  0.00000000000E+00  0.00000000000E+00  0.74505805969E-08  0.10566000000E+00  0.10566000000E+00 0. -1.
     999900   -1    0    0    0    0 -0.00000000000E+00 -0.00000000000E+00 -0.74505805969E-08  0.93827000000E+00  0.93827000000E+00 0. -1.
     999902    2    1    2    0    0  0.41802187459E-02  0.10726395545E-01 -0.74137016385E-02  0.10302372004E+01  0.10301462014E+01 0.  0.
     999903    2    3    3    0    0  0.64795090256E-02 -0.94374867294E-01 -0.92389472980E-01  0.13991566074E+00  0.45738143697E-01 0.  0.
         14    1    1    2    0    0 -0.41802187459E-02 -0.10726395545E-01  0.74137016385E-02  0.13692799645E-01  0.00000000000E+00 0. -1.
     999901    1    3    3    0    0 -0.22992902797E-02  0.10510126284E+00  0.84975771341E-01  0.89032153961E+00  0.88000000000E+00 0.  1.
        -11    1    4    4    0    0  0.24348360312E-01 -0.69664649816E-01 -0.57353488596E-01  0.93464912449E-01  0.51100000000E-03 0.  1.
         11    1    4    4    0    0 -0.17868851287E-01 -0.24710217479E-01 -0.35035984383E-01  0.46450748292E-01  0.51100000000E-03 0. -1.
</event>
<event>
 8    1  0.2107254E+004  0.1043930E+01  0.7957747E-01            NaN
         13   -1    0    0    0    0  0.00000000000E+00  0.00000000000E+00  0.74505805969E-08  0.10566000000E+00  0.10566000000E+00 0. -1.
     999900   -1    0    0    0    0 -0.00000000000E+00 -0.00000000000E+00 -0.74505805969E-08  0.93827000000E+00  0.93827000000E+00 0.  1.
     999902    2    1    2    0    0 -0.12879404347E-01 -0.32428738520E-03 -0.68087985236E-02  0.10293579735E+01  0.10292548245E+01 0.  0.
     999903    2    3    3    0    0 -0.79893690596E-01  0.10320497902E+00 -0.26414308607E-01  0.14054213230E+00  0.44945586655E-01 0.  0.
         14    1    1    2    0    0  0.12879404347E-01  0.32428738520E-03  0.68087985236E-02  0.14572026488E-01  0.00000000000E+00 0. -1.
     999901    1    3    3    0    0  0.67014286249E-01 -0.10352926641E+00  0.19605510083E-01  0.88881584121E+00  0.88000000000E+00 0. -1.
        -11    1    4    4    0    0 -0.23358298970E-01  0.66859371844E-01 -0.13829378802E-01  0.72161614264E-01  0.51100000000E-03 0.  1.
         11    1    4    4    0    0 -0.56535391627E-01  0.36345607179E-01 -0.12584929805E-01  0.68380518035E-01  0.51100000000E-03 0. -1.
</event>
<event>
 8    1  0.2107254E+004  0.1043930E+01  0.7957747E-01            NaN
         13   -1    0    0    0    0  0.00000000000E+00  0.00000000000E+00  0.74505805969E-08  0.10566000000E+00  0.10566000000E+00 0.  1.
     999900   -1    0    0    0    0 -0.00000000000E+00 -0.00000000000E+00 -0.74505805969E-08  0.93827000000E+00  0.93827000000E+00 0.  1.
     999902    2    1    2    0    0 -0.11835748026E-01 -0.50184666140E-02  0.49858349345E-02  0.10301412913E+01  0.10300490044E+01 0.  0.
     999903    2    3    3    0    0 -0.69738426284E-01  0.93903006935E-01 -0.62881872460E-01  0.14011645803E+00  0.44690816886E-01 0.  0.
         14    1    1    2    0    0  0.11835748026E-01  0.50184666140E-02 -0.49858349345E-02  0.13788708732E-01  0.00000000000E+00 0.  1.
     999901    1    3    3    0    0  0.57902678258E-01 -0.98921473549E-01  0.67867707395E-01  0.89002483324E+00  0.88000000000E+00 0. -1.
        -11    1    4    4    0    0 -0.52082711774E-01  0.76678873485E-01 -0.67945903913E-01  0.11493113366E+00  0.51100000000E-03 0.  1.
         11    1    4    4    0    0 -0.17655714510E-01  0.17224133451E-01  0.50640314527E-02  0.25185324368E-01  0.51100000000E-03 0. -1.
</event>
<event>
 8    1  0.2778337E+004  0.1043930E+01  0.7957747E-01            NaN
         13   -1    0    0    0    0  0.00000000000E+00  0.00000000000E+00  0.74505805969E-08  0.10566000000E+00  0.10566000000E+00 0. -1.
     999900   -1    0    0    0    0 -0.00000000000E+00 -0.00000000000E+00 -0.74505805969E-08  0.93827000000E+00  0.93827000000E+00 0. -1.
     999902    2    1    2    0    0  0.17634017285E-01  0.27007382812E-02 -0.11213683506E-01  0.10228587103E+01  0.10226416488E+01 0.  0.
     999903    2    3    3    0    0  0.56157237803E-01 -0.11259152891E+00 -0.12350199295E-01  0.13450200429E+00  0.45910499851E-01 0.  0.
         14    1    1    2    0    0 -0.17634017285E-01 -0.27007382812E-02  0.11213683506E-01  0.21071289724E-01  0.00000000000E+00 0. -1.
     999901    1    3    3    0    0 -0.38523220518E-01  0.11529226719E+00  0.11365157896E-02  0.88835670598E+00  0.88000000000E+00 0. -1.
        -11    1    4    4    0    0  0.50558091355E-01 -0.52505285301E-01 -0.13555043300E-01  0.74141256435E-01  0.51100000000E-03 0.  1.
         11    1    4    4    0    0  0.55991464488E-02 -0.60086243609E-01  0.12048440048E-02  0.60360747859E-01  0.51100000000E-03 0. -1.
</event>
<event>
 8    1  0.2107254E+004  0.1043930E+01  0.7957747E-01            NaN
         13   -1    0    0    0    0  0.00000000000E+00  0.00000000000E+00  0.74505805969E-08  0.10566000000E+00  0.10566000000E+00 0.  1.
     999900   -1    0    0    0    0 -0.00000000000E+00 -0.00000000000E+00 -0.74505805969E-08  0.93827000000E+00  0.93827000000E+00 0.  1.
     999902    2    1    2    0    0  0.37876675866E-02 -0.12195227398E-01  0.56129085855E-02  0.10299809950E+01  0.10298865352E+01 0.  0.
     999903    2    3    3    0    0  0.12452658223E+00  0.24548020933E-01 -0.36156343353E-01  0.13999637593E+00  0.46714335016E-01 0.  0.
         14    1    1    2    0    0 -0.37876675866E-02  0.12195227398E-01 -0.56129085855E-02  0.13949004976E-01  0.00000000000E+00 0.  1.
     999901    1    3    3    0    0 -0.12073891465E+00 -0.36743248331E-01  0.41769251939E-01  0.88998461909E+00  0.88000000000E+00 0.  1.
        -11    1    4    4    0    0  0.63535945906E-01 -0.49609871497E-02 -0.11734696432E-02  0.63742183581E-01  0.51100000000E-03 0.  1.
         11    1    4    4    0    0  0.60990636327E-01  0.29509008083E-01 -0.34982873710E-01  0.76254192354E-01  0.51100000000E-03 0. -1.
</event>
<event>
 8    1  0.2107254E+004  0.1043930E+01  0.7957747E-01            NaN
         13   -1    0    0    0    0  0.00000000000E+00  0.00000000000E+00  0.74505805969E-08  0.10566000000E+00  0.10566000000E+00 0.  1.
     999900   -1    0    0    0    0 -0.00000000000E+00 -0.00000000000E+00 -0.74505805969E-08  0.93827000000E+00  0.93827000000E+00 0. -1.
     999902    2    1    2    0    0 -0.13233982500E-01 -0.14695415171E-02  0.39339075559E-02  0.10300457113E+01  0.10299521318E+01 0.  0.
     999903    2    3    3    0    0  0.10023833518E+00  0.38427346478E-02 -0.83676441589E-01  0.13842933611E+00  0.45808773947E-01 0.  0.
         14    1    1    2    0    0  0.13233982500E-01  0.14695415171E-02 -0.39339075559E-02  0.13884288737E-01  0.00000000000E+00 0. -1.
     999901    1    3    3    0    0 -0.11347231768E+00 -0.53122761649E-02  0.87610349145E-01  0.89161637515E+00  0.88000000000E+00 0.  1.
        -11    1    4    4    0    0  0.26409340689E-01  0.29375901152E-03  0.48084493468E-03  0.26420293391E-01  0.51100000000E-03 0.  1.
         11    1    4    4    0    0  0.73828994490E-01  0.35489756363E-02 -0.84157286524E-01  0.11200904272E+00  0.51100000000E-03 0. -1.
</event>
<event>
 8    1  0.2107254E+004  0.1043930E+01  0.7957747E-01            NaN
         13   -1    0    0    0    0  0.00000000000E+00  0.00000000000E+00  0.74505805969E-08  0.10566000000E+00  0.10566000000E+00 0.  1.
     999900   -1    0    0    0    0 -0.00000000000E+00 -0.00000000000E+00 -0.74505805969E-08  0.93827000000E+00  0.93827000000E+00 0. -1.
     999902    2    1    2    0    0 -0.20663524035E-02 -0.13032014678E-01 -0.10771201114E-02  0.10306912914E+01  0.10306062656E+01 0.  0.
     999903    2    3    3    0    0  0.12067405661E+00  0.53178423815E-01 -0.25062820438E-02  0.13970808575E+00  0.46064032328E-01 0.  0.
         14    1    1    2    0    0  0.20663524035E-02  0.13032014678E-01  0.10771201114E-02  0.13238708644E-01  0.00000000000E+00 0. -1.
     999901    1    3    3    0    0 -0.12274040902E+00 -0.66210438494E-01  0.14291619324E-02  0.89098320561E+00  0.88000000000E+00 0. -1.
        -11    1    4    4    0    0  0.37363728058E-01 -0.50441269325E-02 -0.50068154283E-02  0.38037096532E-01  0.51100000000E-03 0.  1.
         11    1    4    4    0    0  0.83310328557E-01  0.58222550748E-01  0.25005333845E-02  0.10167098922E+00  0.51100000000E-03 0. -1.
</event>
<event>
 8    1  0.2107254E+004  0.1043930E+01  0.7957747E-01            NaN
         13   -1    0    0    0    0  0.00000000000E+00  0.00000000000E+00  0.74505805969E-08  0.10566000000E+00  0.10566000000E+00 0. -1.
     999900   -1    0    0    0    0 -0.00000000000E+00 -0.00000000000E+00 -0.74505805969E-08  0.93827000000E+00  0.93827000000E+00 0. -1.
     999902    2    1    2    0    0  0.43579454351E-02  0.91891558549E-02 -0.92723806055E-02  0.10301673943E+01  0.10300754589E+01 0.  0.
     999903    2    3    3    0    0 -0.52870058320E-01 -0.10209811228E+00 -0.64252033830E-01  0.13961550769E+00  0.46313049325E-01 0.  0.
         14    1    1    2    0    0 -0.43579454351E-02 -0.91891558549E-02  0.92723806055E-02  0.13762605707E-01  0.00000000000E+00 0. -1.
     999901    1    3    3    0    0  0.57228003755E-01  0.11128726814E+00  0.54979653224E-01  0.89055188660E+00  0.88000000000E+00 0.  1.
        -11    1    4    4    0    0 -0.37372968778E-01 -0.63840296712E-01 -0.15231126381E-01  0.75528607900E-01  0.51100000000E-03 0. -1.
         11    1    4    4    0    0 -0.15497089542E-01 -0.38257815572E-01 -0.49020907449E-01  0.64086899790E-01  0.51100000000E-03 0.  1.
</event>
<event>
 7    1  0.2107254E+004  0.1043930E+01  0.7957747E-01            NaN
         13   -1    0    0    0    0  0.00000000000E+00  0.00000000000E+00  0.74505805969E-08  0.10566000000E+00  0.10566000000E+00 0.  1.
     999900   -1    0    0    0    0 -0.00000000000E+00 -0.00000000000E+00 -0.74505805969E-08  0.93827000000E+00  0.93827000000E+00 0. -1.
     999903    2    1    2    0    0  0.52072379673E-01  0.63539748190E-01  0.75996350589E-01  0.12065726191E+00  0.45098749693E-01 0.  0.
         14    1    1    2    0    0 -0.22999764884E-01 -0.91328827703E-03  0.25965190891E-01  0.34698910908E-01  0.00000000000E+00 0.  1.
     999901    1    1    2    0    0 -0.29072614790E-01 -0.62626459913E-01 -0.10196154148E+00  0.88857382718E+00  0.88000000000E+00 0. -1.
        -11    1    3    3    0    0  0.24181731922E-01  0.60881488470E-01  0.49701286369E-01  0.82230108749E-01  0.51100000000E-03 0. -1.
         11    1    3    3    0    0  0.27890647751E-01  0.26582597194E-02  0.26295064220E-01  0.38427153161E-01  0.51100000000E-03 0.  1.
</event>
<event>
 8    1  0.2107254E+004  0.1043930E+01  0.7957747E-01            NaN
         13   -1    0    0    0    0  0.00000000000E+00  0.00000000000E+00  0.74505805969E-08  0.10566000000E+00  0.10566000000E+00 0. -1.
     999900   -1    0    0    0    0 -0.00000000000E+00 -0.00000000000E+00 -0.74505805969E-08  0.93827000000E+00  0.93827000000E+00 0. -1.
     999902    2    1    2    0    0 -0.20891859833E-02  0.12591336053E-01 -0.62550202879E-02  0.10297162137E+01  0.10296181084E+01 0.  0.
     999903    2    3    3    0    0  0.12870301515E+00 -0.41043235437E-02  0.24044882757E-01  0.13937727317E+00  0.47608363870E-01 0.  0.
         14    1    1    2    0    0  0.20891859833E-02 -0.12591336053E-01  0.62550202879E-02  0.14213786283E-01  0.00000000000E+00 0. -1.
     999901    1    3    3    0    0 -0.13079220113E+00  0.16695659597E-01 -0.30299903045E-01  0.89033894054E+00  0.88000000000E+00 0. -1.
        -11    1    4    4    0    0  0.32645384620E-01 -0.56882286426E-02 -0.14091692278E-01  0.36012692129E-01  0.51100000000E-03 0. -1.
         11    1    4    4    0    0  0.96057630528E-01  0.15839050989E-02  0.38136575035E-01  0.10336458104E+00  0.51100000000E-03 0.  1.
</event>
<event>
 8    1  0.2107254E+004  0.1043930E+01  0.7957747E-01            NaN
         13   -1    0    0    0    0  0.00000000000E+00  0.00000000000E+00  0.74505805969E-08  0.10566000000E+00  0.10566000000E+00 0. -1.
     999900   -1    0    0    0    0 -0.00000000000E+00 -0.00000000000E+00 -0.74505805969E-08  0.93827000000E+00  0.93827000000E+00 0. -1.
     999902    2    1    2    0    0 -0.12478632391E-01  0.41258345809E-02 -0.54849337475E-02  0.10296883963E+01  0.10295899039E+01 0.  0.
     999903    2    3    3    0    0  0.40312140161E-01 -0.69363726379E-01 -0.10468556833E+00  0.13950395074E+00  0.45452050283E-01 0.  0.
         14    1    1    2    0    0  0.12478632391E-01 -0.41258345809E-02  0.54849337475E-02  0.14241603687E-01  0.00000000000E+00 0. -1.
     999901    1    3    3    0    0 -0.52790772552E-01  0.73489560960E-01  0.99200634580E-01  0.89018444557E+00  0.88000000000E+00 0. -1.
        -11    1    4    4    0    0  0.33547187390E-01 -0.45777471275E-01 -0.37628266301E-01  0.68096535917E-01  0.51100000000E-03 0. -1.
         11    1    4    4    0    0  0.67649527710E-02 -0.23586255104E-01 -0.67057302027E-01  0.71407414824E-01  0.51100000000E-03 0.  1.
</event>
<event>
 8    1  0.2107254E+004  0.1043930E+01  0.7957747E-01            NaN
         13   -1    0    0    0    0  0.00000000000E+00  0.00000000000E+00  0.74505805969E-08  0.10566000000E+00  0.10566000000E+00 0.  1.
     999900   -1    0    0    0    0 -0.00000000000E+00 -0.00000000000E+00 -0.74505805969E-08  0.93827000000E+00  0.93827000000E+00 0. -1.
     999902    2    1    2    0    0  0.13556332995E-01  0.15797805701E-01  0.91904837575E-02  0.10211745650E+01  0.10209209972E+01 0.  0.
     999903    2    3    3    0    0 -0.10583660471E+00 -0.40532913677E-01 -0.44102215867E-01  0.12973307207E+00  0.45181418285E-01 0.  0.
         14    1    1    2    0    0 -0.13556332995E-01 -0.15797805701E-01 -0.91904837575E-02  0.22755434976E-01  0.00000000000E+00 0.  1.
     999901    1    3    3    0    0  0.11939293770E+00  0.56330719378E-01  0.53292699624E-01  0.89144149295E+00  0.88000000000E+00 0.  1.
        -11    1    4    4    0    0 -0.39569469175E-01 -0.22490028355E-01 -0.40549912215E-01  0.60959829132E-01  0.51100000000E-03 0.  1.
         11    1    4    4    0    0 -0.66267135534E-01 -0.18042885322E-01 -0.35523036516E-02  0.68773242942E-01  0.51100000000E-03 0. -1.
</event>
<event>
 8    1  0.2107254E+004  0.1043930E+01  0.7957747E-01            NaN
         13   -1    0    0    0    0  0.00000000000E+00  0.00000000000E+00  0.74505805969E-08  0.10566000000E+00  0.10566000000E+00 0.  1.
     999900   -1    0    0    0    0 -0.00000000000E+00 -0.00000000000E+00 -0.74505805969E-08  0.93827000000E+00  0.93827000000E+00 0. -1.
     999902    2    1    2    0    0  0.80354298018E-02 -0.21446121278E-02  0.12011303000E-01  0.10293204520E+01  0.10292167673E+01 0.  0.
     999903    2    3    3    0    0 -0.37151953997E-01  0.12492884350E+00 -0.14377919128E-01  0.13865443500E+00  0.45064888351E-01 0.  0.
         14    1    1    2    0    0 -0.80354298018E-02  0.21446121278E-02 -0.12011303000E-01  0.14609548010E-01  0.00000000000E+00 0.  1.
     999901    1    3    3    0    0  0.45187383799E-01 -0.12707345563E+00  0.26389222128E-01  0.89066601699E+00  0.88000000000E+00 0. -1.
        -11    1    4    4    0    0 -0.21053052823E-01  0.42460942976E-01  0.14884533872E-01  0.49678699471E-01  0.51100000000E-03 0.  1.
         11    1    4    4    0    0 -0.16098901174E-01  0.82467900525E-01 -0.29262453000E-01  0.88975735527E-01  0.51100000000E-03 0. -1.
</event>
<event>
 8    1  0.2107254E+004  0.1043930E+01  0.7957747E-01            NaN
         13   -1    0    0    0    0  0.00000000000E+00  0.00000000000E+00  0.74505805969E-08  0.10566000000E+00  0.10566000000E+00 0.  1.
     999900   -1    0    0    0    0 -0.00000000000E+00 -0.00000000000E+00 -0.74505805969E-08  0.93827000000E+00  0.93827000000E+00 0. -1.
     999902    2    1    2    0    0 -0.27458534729E-02 -0.11345205030E-01 -0.70620262809E-02  0.10302872142E+01  0.10301968832E+01 0.  0.
     999903    2    3    3    0    0 -0.93758817030E-01 -0.17841252564E-01  0.91204044680E-01  0.14012892557E+00  0.46999063293E-01 0.  0.
         14    1    1    2    0    0  0.27458534729E-02  0.11345205030E-01  0.70620262809E-02  0.13642785773E-01  0.00000000000E+00 0.  1.
     999901    1    3    3    0    0  0.91012963558E-01  0.64960475346E-02 -0.98266070961E-01  0.89015828866E+00  0.88000000000E+00 0.  1.
        -11    1    4    4    0    0 -0.90200609034E-02 -0.50973629390E-02  0.37707002275E-01  0.39107847668E-01  0.51100000000E-03 0. -1.
         11    1    4    4    0    0 -0.84738756127E-01 -0.12743889625E-01  0.53497042405E-01  0.10102107790E+00  0.51100000000E-03 0.  1.
</event>
<event>
 7    1  0.3805328E+004  0.1043930E+01  0.7957747E-01            NaN
         13   -1    0    0    0    0  0.00000000000E+00  0.00000000000E+00  0.74505805969E-08  0.10566000000E+00  0.10566000000E+00 0. -1.
     999900   -1    0    0    0    0 -0.00000000000E+00 -0.00000000000E+00 -0.74505805969E-08  0.93827000000E+00  0.93827000000E+00 0. -1.
     999903    2    1    2    0    0  0.32288302260E-01 -0.28000319818E-01  0.78176129108E-01  0.10021120371E+00  0.45871841183E-01 0.  0.
         14    1    1    2    0    0 -0.31171324635E-02 -0.54582075241E-01 -0.17019961355E-01  0.57259047643E-01  0.00000000000E+00 0. -1.
     999901    1    1    2    0    0 -0.29171169796E-01  0.82582395059E-01 -0.61156167753E-01  0.88645974865E+00  0.88000000000E+00 0.  1.
        -11    1    3    3    0    0  0.13398243994E-02 -0.25832965075E-01  0.57138414213E-01  0.62723175253E-01  0.51100000000E-03 0. -1.
         11    1    3    3    0    0  0.30948477860E-01 -0.21673547429E-02  0.21037714895E-01  0.37488028455E-01  0.51100000000E-03 0.  1.
</event>
<event>
 8    1  0.2107254E+004  0.1043930E+01  0.7957747E-01            NaN
         13   -1    0    0    0    0  0.00000000000E+00  0.00000000000E+00  0.74505805969E-08  0.10566000000E+00  0.10566000000E+00 0.  1.
     999900   -1    0    0    0    0 -0.00000000000E+00 -0.00000000000E+00 -0.74505805969E-08  0.93827000000E+00  0.93827000000E+00 0. -1.
     999902    2    1    2    0    0  0.23390624439E-02 -0.12169257493E-01  0.55042467850E-02  0.10303705467E+01  0.10302813231E+01 0.  0.
     999903    2    3    3    0    0 -0.91529827345E-01 -0.30543753090E-01 -0.90972009554E-01  0.13994555907E+00  0.44701485829E-01 0.  0.
         14    1    1    2    0    0 -0.23390624439E-02  0.12169257493E-01 -0.55042467850E-02  0.13559453297E-01  0.00000000000E+00 0.  1.
     999901    1    3    3    0    0  0.93868889789E-01  0.18374495597E-01  0.96476256339E-01  0.89042498763E+00  0.88000000000E+00 0.  1.
        -11    1    4    4    0    0 -0.20502983149E-01 -0.97523726356E-02 -0.49966266208E-04  0.22710013379E-01  0.51100000000E-03 0.  1.
         11    1    4    4    0    0 -0.71026844196E-01 -0.20791380454E-01 -0.90922043288E-01  0.11723554569E+00  0.51100000000E-03 0. -1.
</event>
<event>
 8    1  0.2107254E+004  0.1043930E+01  0.7957747E-01            NaN
         13   -1    0    0    0    0  0.00000000000E+00  0.00000000000E+00  0.74505805969E-08  0.10566000000E+00  0.10566000000E+00 0.  1.
     999900   -1    0    0    0    0 -0.00000000000E+00 -0.00000000000E+00 -0.74505805969E-08  0.93827000000E+00  0.93827000000E+00 0. -1.
     999902    2    1    2    0    0 -0.48590487913E-02  0.64238460365E-02  0.11175437724E-01  0.10301544216E+01  0.10300623116E+01 0.  0.
     999903    2    3    3    0    0 -0.12013281343E+00  0.57623073461E-01 -0.94903616186E-02  0.14092077568E+00  0.44903080027E-01 0.  0.
         14    1    1    2    0    0  0.48590487913E-02 -0.64238460365E-02 -0.11175437724E-01  0.13775578441E-01  0.00000000000E+00 0. -1.
     999901    1    3    3    0    0  0.11527376464E+00 -0.51199227424E-01  0.20665799342E-01  0.88923364588E+00  0.88000000000E+00 0. -1.
        -11    1    4    4    0    0 -0.66707184544E-01  0.15808335175E-01  0.12321623424E-01  0.69655117943E-01  0.51100000000E-03 0. -1.
         11    1    4    4    0    0 -0.53425628889E-01  0.41814738285E-01 -0.21811985043E-01  0.71265657736E-01  0.51100000000E-03 0.  1.
</event>
<event>
 8    1  0.2107254E+004  0.1043930E+01  0.7957747E-01            NaN
         13   -1    0    0    0    0  0.00000000000E+00  0.00000000000E+00  0.74505805969E-08  0.10566000000E+00  0.10566000000E+00 0. -1.
     999900   -1    0    0    0    0 -0.00000000000E+00 -0.00000000000E+00 -0.74505805969E-08  0.93827000000E+00  0.93827000000E+00 0. -1.
     999902    2    1    2    0    0  0.11914556360E-01 -0.29040868659E-02  0.64519964420E-02  0.10300729212E+01  0.10299797107E+01 0.  0.
     999903    2    3    3    0    0  0.52453734505E-02 -0.36071440916E-01  0.12855896313E+00  0.14099774855E+00  0.44992169357E-01 0.  0.
         14    1    1    2    0    0 -0.11914556360E-01  0.29040868659E-02 -0.64519964420E-02  0.13857078764E-01  0.00000000000E+00 0.  1.
     999901    1    3    3    0    0  0.66691829093E-02  0.33167354050E-01 -0.12210696668E+00  0.88907517269E+00  0.88000000000E+00 0. -1.
        -11    1    4    4    0    0 -0.92239139146E-02 -0.35852019544E-01  0.11621667369E+00  0.12197140754E+00  0.51100000000E-03 0. -1.
         11    1    4    4    0    0  0.14469287365E-01 -0.21942137144E-03  0.12342289437E-01  0.19026341008E-01  0.51100000000E-03 0.  1.
</event>
<event>
 8    1  0.2107254E+004  0.1043930E+01  0.7957747E-01            NaN
         13   -1    0    0    0    0  0.00000000000E+00  0.00000000000E+00  0.74505805969E-08  0.10566000000E+00  0.10566000000E+00 0.  1.
     999900   -1    0    0    0    0 -0.00000000000E+00 -0.00000000000E+00 -0.74505805969E-08  0.93827000000E+00  0.93827000000E+00 0. -1.
     999902    2    1    2    0    0 -0.65204548901E-02 -0.83939594285E-02 -0.68532463900E-02  0.10312831872E+01  0.10312056392E+01 0.  0.
     999903    2    3    3    0    0 -0.53981458222E-01  0.65025512175E-01  0.10242252852E+00  0.14022529876E+00  0.45060459368E-01 0.  0.
         14    1    1    2    0    0  0.65204548901E-02  0.83939594285E-02  0.68532463900E-02  0.12646812758E-01  0.00000000000E+00 0.  1.
     999901    1    3    3    0    0  0.47461003332E-01 -0.73419471604E-01 -0.10927577491E+00  0.89105788848E+00  0.88000000000E+00 0. -1.
        -11    1    4    4    0    0 -0.20356217033E-01  0.46248053733E-01  0.82791658516E-01  0.96994731232E-01  0.51100000000E-03 0.  1.
         11    1    4    4    0    0 -0.33625241189E-01  0.18777458442E-01  0.19630870002E-01  0.43230567526E-01  0.51100000000E-03 0. -1.
</event>
<event>
 8    1  0.2107254E+004  0.1043930E+01  0.7957747E-01            NaN
         13   -1    0    0    0    0  0.00000000000E+00  0.00000000000E+00  0.74505805969E-08  0.10566000000E+00  0.10566000000E+00 0.  1.
     999900   -1    0    0    0    0 -0.00000000000E+00 -0.00000000000E+00 -0.74505805969E-08  0.93827000000E+00  0.93827000000E+00 0. -1.
     999902    2    1    2    0    0  0.14959881461E-02 -0.18488971165E-02  0.13997152574E-01  0.10297322297E+01  0.10296343469E+01 0.  0.
     999903    2    3    3    0    0  0.50389168462E-01  0.99916738340E-01  0.72159844042E-01  0.14061486607E+00  0.45200382400E-01 0.  0.
         14    1    1    2    0    0 -0.14959881461E-02  0.18488971165E-02 -0.13997152574E-01  0.14197770292E-01  0.00000000000E+00 0. -1.
     999901    1    3    3    0    0 -0.48893180316E-01 -0.10176563546E+00 -0.58162691468E-01  0.88911736364E+00  0.88000000000E+00 0.  1.
        -11    1    4    4    0    0  0.36157383824E-01  0.60313530097E-01  0.19061849872E-01  0.72860782039E-01  0.51100000000E-03 0.  1.
         11    1    4    4    0    0  0.14231784638E-01  0.39603208243E-01  0.53097994171E-01  0.67754084033E-01  0.51100000000E-03 0. -1.
</event>
<event>
 8    1  0.2107254E+004  0.1043930E+01  0.7957747E-01            NaN
         13   -1    0    0    0    0  0.00000000000E+00  0.00000000000E+00  0.74505805969E-08  0.10566000000E+00  0.10566000000E+00 0.  1.
     999900   -1    0    0    0    0 -0.00000000000E+00 -0.00000000000E+00 -0.74505805969E-08  0.93827000000E+00  0.93827000000E+00 0. -1.
     999902    2    1    2    0    0 -0.15399238251E-03 -0.74366620115E-02  0.11488671572E-01  0.10302436115E+01  0.10301526983E+01 0.  0.
     999903    2    3    3    0    0  0.19742396396E-01 -0.55956020216E-01 -0.11783840735E+00  0.13924670481E+00  0.44529946551E-01 0.  0.
         14    1    1    2    0    0  0.15399238251E-03  0.74366620115E-02 -0.11488671572E-01  0.13686388494E-01  0.00000000000E+00 0. -1.
     999901    1    3    3    0    0 -0.19896388779E-01  0.48519358204E-01  0.12932707892E+00  0.89099690670E+00  0.88000000000E+00 0.  1.
        -11    1    4    4    0    0  0.86770799707E-02  0.13422246983E-02 -0.45303910026E-01  0.46149741804E-01  0.51100000000E-03 0. -1.
         11    1    4    4    0    0  0.11065316426E-01 -0.57298244914E-01 -0.72534497320E-01  0.93096963002E-01  0.51100000000E-03 0.  1.
</event>
<event>
 8    1  0.2107254E+004  0.1043930E+01  0.7957747E-01            NaN
         13   -1    0    0    0    0  0.00000000000E+00  0.00000000000E+00  0.74505805969E-08  0.10566000000E+00  0.10566000000E+00 0. -1.
     999900   -1    0    0    0    0 -0.00000000000E+00 -0.00000000000E+00 -0.74505805969E-08  0.93827000000E+00  0.93827000000E+00 0.  1.
     999902    2    1    2    0    0 -0.72612415973E-02  0.44993293820E-02  0.99886337265E-02  0.10307868498E+01  0.10307030548E+01 0.  0.
     999903    2    3    3    0    0  0.10440665237E+00  0.81614263393E-01 -0.53143526544E-02  0.14025295766E+00  0.45618118561E-01 0.  0.
         14    1    1    2    0    0  0.72612415973E-02 -0.44993293820E-02 -0.99886337265E-02  0.13143150237E-01  0.00000000000E+00 0.  1.
     999901    1    3    3    0    0 -0.11166789396E+00 -0.77114934011E-01  0.15302986381E-01  0.89053389210E+00  0.88000000000E+00 0. -1.
        -11    1    4    4    0    0  0.96946118374E-01  0.72651994631E-01  0.93510239976E-02  0.12150952622E+00  0.51100000000E-03 0.  1.
         11    1    4    4    0    0  0.74605339930E-02  0.89622687621E-02 -0.14665376652E-01  0.18743431441E-01  0.51100000000E-03 0. -1.
</event>
<event>
 8    1  0.2107254E+004  0.1043930E+01  0.7957747E-01            NaN
         13   -1    0    0    0    0  0.00000000000E+00  0.00000000000E+00  0.74505805969E-08  0.10566000000E+00  0.10566000000E+00 0.  1.
     999900   -1    0    0    0    0 -0.00000000000E+00 -0.00000000000E+00 -0.74505805969E-08  0.93827000000E+00  0.93827000000E+00 0.  1.
     999902    2    1    2    0    0  0.62690813935E-02 -0.11241391600E-02  0.12397586863E-01  0.10299920938E+01  0.10298977852E+01 0.  0.
     999903    2    3    3    0    0 -0.87442014133E-01 -0.98292661649E-01 -0.10212619865E-01  0.13941098424E+00  0.44984127776E-01 0.  0.
         14    1    1    2    0    0 -0.62690813935E-02  0.11241391600E-02 -0.12397586863E-01  0.13937906242E-01  0.00000000000E+00 0. -1.
     999901    1    3    3    0    0  0.93711095527E-01  0.97168522489E-01  0.22610206728E-01  0.89058110952E+00  0.88000000000E+00 0. -1.
        -11    1    4    4    0    0 -0.11010778891E-01 -0.32963811349E-01 -0.16884873425E-01  0.38642077869E-01  0.51100000000E-03 0. -1.
         11    1    4    4    0    0 -0.76431235242E-01 -0.65328850300E-01  0.66722535597E-02  0.10076890637E+00  0.51100000000E-03 0.  1.
</event>
<event>
 8    1  0.2107254E+004  0.1043930E+01  0.7957747E-01            NaN
         13   -1    0    0    0    0  0.00000000000E+00  0.00000000000E+00  0.74505805969E-08  0.10566000000E+00  0.10566000000E+00 0. -1.
     999900   -1    0    0    0    0 -0.00000000000E+00 -0.00000000000E+00 -0.74505805969E-08  0.93827000000E+00  0.93827000000E+00 0.  1.
     999902    2    1    2    0    0 -0.11379584096E-01  0.61899980544E-02 -0.51806973512E-02  0.10299782748E+01  0.10298837779E+01 0.  0.
     999903    2    3    3    0    0 -0.48367320797E-02 -0.13063303808E+00 -0.17529110996E-01  0.13929548312E+00  0.44805995920E-01 0.  0.
         14    1    1    2    0    0  0.11379584096E-01 -0.61899980544E-02  0.51806973512E-02  0.13951725168E-01  0.00000000000E+00 0. -1.
     999901    1    3    3    0    0 -0.65428520161E-02  0.13682303614E+00  0.12348413645E-01  0.89068279171E+00  0.88000000000E+00 0.  1.
        -11    1    4    4    0    0  0.82953382417E-03 -0.82642217225E-01  0.10684493975E-01  0.83335728993E-01  0.51100000000E-03 0.  1.
         11    1    4    4    0    0 -0.56662659039E-02 -0.47990820856E-01 -0.28213604971E-01  0.55959754129E-01  0.51100000000E-03 0. -1.
</event>
<event>
 8    1  0.2107254E+004  0.1043930E+01  0.7957747E-01            NaN
         13   -1    0    0    0    0  0.00000000000E+00  0.00000000000E+00  0.74505805969E-08  0.10566000000E+00  0.10566000000E+00 0. -1.
     999900   -1    0    0    0    0 -0.00000000000E+00 -0.00000000000E+00 -0.74505805969E-08  0.93827000000E+00  0.93827000000E+00 0. -1.
     999902    2    1    2    0    0 -0.82537959010E-02  0.69237914034E-02  0.80679886600E-02  0.10304705619E+01  0.10303826582E+01 0.  0.
     999903    2    3    3    0    0 -0.69723144779E-01 -0.30232748712E-01 -0.10892473144E+00  0.13982675770E+00  0.43721722716E-01 0.  0.
         14    1    1    2    0    0  0.82537959010E-02 -0.69237914034E-02 -0.80679886600E-02  0.13459438145E-01  0.00000000000E+00 0. -1.
     999901    1    3    3    0    0  0.61469348878E-01  0.37156540115E-01  0.11699272010E+00  0.89064380416E+00  0.88000000000E+00 0.  1.
        -11    1    4    4    0    0 -0.41049945296E-01  0.59642567041E-02 -0.52626859669E-01  0.67011326255E-01  0.51100000000E-03 0. -1.
         11    1    4    4    0    0 -0.28673199483E-01 -0.36197005416E-01 -0.56297871769E-01  0.72815431444E-01  0.51100000000E-03 0.  1.
</event>
<event>
 8    1  0.2107254E+004  0.1043930E+01  0.7957747E-01            NaN
         13   -1    0    0    0    0  0.00000000000E+00  0.00000000000E+00  0.74505805969E-08  0.10566000000E+00  0.10566000000E+00 0. -1.
     999900   -1    0    0    0    0 -0.00000000000E+00 -0.00000000000E+00 -0.74505805969E-08  0.93827000000E+00  0.93827000000E+00 0. -1.
     999902    2    1    2    0    0  0.81699859057E-02  0.34031504815E-02  0.83123112823E-02  0.10317881459E+01  0.10317167021E+01 0.  0.
     999903    2    3    3    0    0  0.41723119010E-01 -0.11056874088E+00 -0.61202000744E-01  0.14108749787E+00  0.46837293271E-01 0.  0.
         14    1    1    2    0    0 -0.81699859057E-02 -0.34031504815E-02 -0.83123112823E-02  0.12141854132E-01  0.00000000000E+00 0.  1.
     999901    1    3    3    0    0 -0.33553133104E-01  0.11397189136E+00  0.69514312026E-01  0.89070064799E+00  0.88000000000E+00 0.  1.
        -11    1    4    4    0    0  0.10847064223E-01 -0.87710569310E-01 -0.47210176516E-01  0.10019912504E+00  0.51100000000E-03 0.  1.
         11    1    4    4    0    0  0.30876054787E-01 -0.22858171572E-01 -0.13991824227E-01  0.40888372834E-01  0.51100000000E-03 0. -1.
</event>
<event>
 8    1  0.2339459E+004  0.1043930E+01  0.7957747E-01            NaN
         13   -1    0    0    0    0  0.00000000000E+00  0.00000000000E+00  0.74505805969E-08  0.10566000000E+00  0.10566000000E+00 0.  1.
     999900   -1    0    0    0    0 -0.00000000000E+00 -0.00000000000E+00 -0.74505805969E-08  0.93827000000E+00  0.93827000000E+00 0. -1.
     999902    2    1    2    0    0  0.50911910836E-02 -0.12066906999E-01 -0.42397340154E-02  0.10301638889E+01  0.10300719063E+01 0.  0.
     999903    2    3    3    0    0  0.11175946027E+00 -0.66442984143E-01  0.32038084353E-01  0.14131578175E+00  0.45153784130E-01 0.  0.
         14    1    1    2    0    0 -0.50911910836E-02  0.12066906999E-01  0.42397340154E-02  0.13766111132E-01  0.00000000000E+00 0. -1.
     999901    1    3    3    0    0 -0.10666826919E+00  0.54376077143E-01 -0.36277818368E-01  0.88884810712E+00  0.88000000000E+00 0. -1.
        -11    1    4    4    0    0  0.67281758814E-01 -0.31151066973E-01  0.39560797430E-01  0.84038930604E-01  0.51100000000E-03 0. -1.
         11    1    4    4    0    0  0.44477701458E-01 -0.35291917170E-01 -0.75227130774E-02  0.57276851149E-01  0.51100000000E-03 0.  1.
</event>
<event>
 8    1  0.2107254E+004  0.1043930E+01  0.7957747E-01            NaN
         13   -1    0    0    0    0  0.00000000000E+00  0.00000000000E+00  0.74505805969E-08  0.10566000000E+00  0.10566000000E+00 0.  1.
     999900   -1    0    0    0    0 -0.00000000000E+00 -0.00000000000E+00 -0.74505805969E-08  0.93827000000E+00  0.93827000000E+00 0. -1.
     999902    2    1    2    0    0  0.10207306316E-01 -0.15720262892E-01  0.11472318062E-01  0.10219543351E+01  0.10217180301E+01 0.  0.
     999903    2    3    3    0    0 -0.11527456969E+00  0.43399147568E-01  0.14467494755E-02  0.13103272352E+00  0.44674031831E-01 0.  0.
         14    1    1    2    0    0 -0.10207306316E-01  0.15720262892E-01 -0.11472318062E-01  0.21975664935E-01  0.00000000000E+00 0.  1.
     999901    1    3    3    0    0  0.12548187601E+00 -0.59119410460E-01  0.10025568587E-01  0.89092161155E+00  0.88000000000E+00 0.  1.
        -11    1    4    4    0    0 -0.10147458688E+00  0.33815793026E-01 -0.14405736171E-01  0.10792768874E+00  0.51100000000E-03 0. -1.
         11    1    4    4    0    0 -0.13799982814E-01  0.95833545422E-02  0.15852485646E-01  0.23105034779E-01  0.51100000000E-03 0.  1.
</event>
<event>
 8    1  0.2107254E+004  0.1043930E+01  0.7957747E-01            NaN
         13   -1    0    0    0    0  0.00000000000E+00  0.00000000000E+00  0.74505805969E-08  0.10566000000E+00  0.10566000000E+00 0.  1.
     999900   -1    0    0    0    0 -0.00000000000E+00 -0.00000000000E+00 -0.74505805969E-08  0.93827000000E+00  0.93827000000E+00 0. -1.
     999902    2    1    2    0    0  0.74930564501E-02  0.15607088893E-03  0.87113143059E-02  0.10324383835E+01  0.10323744274E+01 0.  0.
     999903    2    3    3    0    0 -0.38627634460E-01  0.12838681836E+00  0.12548781604E-01  0.14194134875E+00  0.44884354657E-01 0.  0.
         14    1    1    2    0    0 -0.74930564501E-02 -0.15607088893E-03 -0.87113143059E-02  0.11491616510E-01  0.00000000000E+00 0. -1.
     999901    1    3    3    0    0  0.46120690910E-01 -0.12823074747E+00 -0.38374672977E-02  0.89049703474E+00  0.88000000000E+00 0. -1.
        -11    1    4    4    0    0 -0.38493960452E-01  0.12040460821E+00  0.23301773407E-01  0.12853905412E+00  0.51100000000E-03 0. -1.
         11    1    4    4    0    0 -0.13367400821E-03  0.79822101499E-02 -0.10752991804E-01  0.13402294630E-01  0.51100000000E-03 0.  1.
</event>
<event>
 8    1  0.2107254E+004  0.1043930E+01  0.7957747E-01            NaN
         13   -1    0    0    0    0  0.00000000000E+00  0.00000000000E+00  0.74505805969E-08  0.10566000000E+00  0.10566000000E+00 0. -1.
     999900   -1    0    0    0    0 -0.00000000000E+00 -0.00000000000E+00 -0.74505805969E-08  0.93827000000E+00  0.93827000000E+00 0. -1.
     999902    2    1    2    0    0 -0.23641020490E-03  0.13689975340E-01 -0.38346836800E-02  0.10297111353E+01  0.10296129593E+01 0.  0.
     999903    2    3    3    0    0 -0.76112695052E-01 -0.49523514909E-01  0.94820027346E-01  0.13870838111E+00  0.44759988026E-01 0.  0.
         14    1    1    2    0    0  0.23641020490E-03 -0.13689975340E-01  0.38346836800E-02  0.14218864706E-01  0.00000000000E+00 0. -1.
     999901    1    3    3    0    0  0.75876284847E-01  0.63213490249E-01 -0.98654711026E-01  0.89100275418E+00  0.88000000000E+00 0. -1.
        -11    1    4    4    0    0 -0.12462466327E-01  0.84883476618E-02  0.12971367639E-01  0.19896799050E-01  0.51100000000E-03 0.  1.
         11    1    4    4    0    0 -0.63650228725E-01 -0.58011862570E-01  0.81848659706E-01  0.11881158206E+00  0.51100000000E-03 0. -1.
</event>
<event>
 8    1  0.2107254E+004  0.1043930E+01  0.7957747E-01            NaN
         13   -1    0    0    0    0  0.00000000000E+00  0.00000000000E+00  0.74505805969E-08  0.10566000000E+00  0.10566000000E+00 0.  1.
     999900   -1    0    0    0    0 -0.00000000000E+00 -0.00000000000E+00 -0.74505805969E-08  0.93827000000E+00  0.93827000000E+00 0. -1.
     999902    2    1    2    0    0  0.88329577919E-02 -0.11375192344E-01 -0.55063466390E-03  0.10295175282E+01  0.10294166414E+01 0.  0.
     999903    2    3    3    0    0  0.21232018233E-01  0.83270710661E-01 -0.99310327030E-01  0.13886324036E+00  0.45118162811E-01 0.  0.
         14    1    1    2    0    0 -0.88329577919E-02  0.11375192344E-01  0.55063466390E-03  0.14412471778E-01  0.00000000000E+00 0. -1.
     999901    1    3    3    0    0 -0.12399060442E-01 -0.94645903005E-01  0.98759692366E-01  0.89065428786E+00  0.88000000000E+00 0.  1.
        -11    1    4    4    0    0  0.25559116046E-01  0.52279026028E-01 -0.36517539257E-01  0.68703397077E-01  0.51100000000E-03 0. -1.
         11    1    4    4    0    0 -0.43270978122E-02  0.30991684633E-01 -0.62792787773E-01  0.70159843281E-01  0.51100000000E-03 0.  1.
</event>
<event>
 8    1  0.2107254E+004  0.1043930E+01  0.7957747E-01            NaN
         13   -1    0    0    0    0  0.00000000000E+00  0.00000000000E+00  0.74505805969E-08  0.10566000000E+00  0.10566000000E+00 0. -1.
     999900   -1    0    0    0    0 -0.00000000000E+00 -0.00000000000E+00 -0.74505805969E-08  0.93827000000E+00  0.93827000000E+00 0. -1.
     999902    2    1    2    0    0 -0.12548990901E-01 -0.24803271605E-02 -0.31947040773E-02  0.10307453373E+01  0.10306610088E+01 0.  0.
     999903    2    3    3    0    0  0.83554484584E-01 -0.59728534501E-01 -0.83614801731E-01  0.14002617433E+00  0.45464763279E-01 0.  0.
         14    1    1    2    0    0  0.12548990901E-01  0.24803271605E-02  0.31947040773E-02  0.13184662666E-01  0.00000000000E+00 0. -1.
     999901    1    3    3    0    0 -0.96103475486E-01  0.57248207341E-01  0.80420097654E-01  0.89071916301E+00  0.88000000000E+00 0. -1.
        -11    1    4    4    0    0  0.48953290229E-01 -0.48842039582E-01 -0.76380308445E-01  0.10303485864E+00  0.51100000000E-03 0.  1.
         11    1    4    4    0    0  0.34601194355E-01 -0.10886494919E-01 -0.72344932861E-02  0.36991315690E-01  0.51100000000E-03 0. -1.
</event>
<event>
 8    1  0.2107254E+004  0.1043930E+01  0.7957747E-01            NaN
         13   -1    0    0    0    0  0.00000000000E+00  0.00000000000E+00  0.74505805969E-08  0.10566000000E+00  0.10566000000E+00 0. -1.
     999900   -1    0    0    0    0 -0.00000000000E+00 -0.00000000000E+00 -0.74505805969E-08  0.93827000000E+00  0.93827000000E+00 0.  1.
     999902    2    1    2    0    0  0.28566490940E-02 -0.58790684219E-02  0.11845563208E-01  0.10304007259E+01  0.10303119017E+01 0.  0.
     999903    2    3    3    0    0 -0.82243039075E-01 -0.43963157785E-01 -0.93210238985E-01  0.13926152446E+00  0.44821276481E-01 0.  0.
         14    1    1    2    0    0 -0.28566490940E-02  0.58790684219E-02 -0.11845563208E-01  0.13529274085E-01  0.00000000000E+00 0.  1.
     999901    1    3    3    0    0  0.85099688169E-01  0.38084089363E-01  0.10505580219E+00  0.89113920145E+00  0.88000000000E+00 0. -1.
        -11    1    4    4    0    0 -0.22325729126E-01  0.71773125886E-02 -0.12920013094E-01  0.26779467067E-01  0.51100000000E-03 0.  1.
         11    1    4    4    0    0 -0.59917309949E-01 -0.51140470374E-01 -0.80290225891E-01  0.11248205740E+00  0.51100000000E-03 0. -1.
</event>
<event>
 8    1  0.2107254E+004  0.1043930E+01  0.7957747E-01            NaN
         13   -1    0    0    0    0  0.00000000000E+00  0.00000000000E+00  0.74505805969E-08  0.10566000000E+00  0.10566000000E+00 0.  1.
     999900   -1    0    0    0    0 -0.00000000000E+00 -0.00000000000E+00 -0.74505805969E-08  0.93827000000E+00  0.93827000000E+00 0.  1.
     999902    2    1    2    0    0 -0.60440963030E-02  0.10934134640E-01 -0.77377031044E-02  0.10292344752E+01  0.10291295577E+01 0.  0.
     999903    2    3    3    0    0 -0.10898806468E+00 -0.70650732526E-01 -0.22406599406E-01  0.13936441293E+00  0.45282001333E-01 0.  0.
         14    1    1    2    0    0  0.60440963030E-02 -0.10934134640E-01  0.77377031044E-02  0.14695524822E-01  0.00000000000E+00 0.  1.
     999901    1    3    3    0    0  0.10294396837E+00  0.81584867167E-01  0.14668896302E-01  0.88987006225E+00  0.88000000000E+00 0. -1.
        -11    1    4    4    0    0 -0.65961716239E-01 -0.61645028520E-01 -0.29182033642E-01  0.94883664342E-01  0.51100000000E-03 0.  1.
         11    1    4    4    0    0 -0.43026348438E-01 -0.90057040062E-02  0.67754342352E-02  0.44480748584E-01  0.51100000000E-03 0. -1.
</event>
<event>
 8    1  0.2107254E+004  0.1043930E+01  0.7957747E-01            NaN
         13   -1    0    0    0    0  0.00000000000E+00  0.00000000000E+00  0.74505805969E-08  0.10566000000E+00  0.10566000000E+00 0.  1.
     999900   -1    0    0    0    0 -0.00000000000E+00 -0.00000000000E+00 -0.74505805969E-08  0.93827000000E+00  0.93827000000E+00 0. -1.
     999902    2    1    2    0    0  0.13459921877E-01  0.24220157397E-03 -0.19157169800E-02  0.10303322748E+01  0.10302425435E+01 0.  0.
     999903    2    3    3    0    0 -0.64315304370E-01  0.11422604210E+00 -0.18667847931E-01  0.13942154101E+00  0.43655818422E-01 0.  0.
         14    1    1    2    0    0 -0.13459921877E-01 -0.24220157397E-03  0.19157169800E-02  0.13597725180E-01  0.00000000000E+00 0. -1.
     999901    1    3    3    0    0  0.77775226247E-01 -0.11398384053E+00  0.16752130951E-01  0.89091073381E+00  0.88000000000E+00 0.  1.
        -11    1    4    4    0    0 -0.13511645315E-01  0.25760016280E-01 -0.23338732910E-01  0.37297460674E-01  0.51100000000E-03 0.  1.
         11    1    4    4    0    0 -0.50803659055E-01  0.88466025820E-01  0.46708849786E-02  0.10212408034E+00  0.51100000000E-03 0. -1.
</event>
<event>
 8    1  0.2107254E+004  0.1043930E+01  0.7957747E-01            NaN
         13   -1    0    0    0    0  0.00000000000E+00  0.00000000000E+00  0.74505805969E-08  0.10566000000E+00  0.10566000000E+00 0. -1.
     999900   -1    0    0    0    0 -0.00000000000E+00 -0.00000000000E+00 -0.74505805969E-08  0.93827000000E+00  0.93827000000E+00 0. -1.
     999902    2    1    2    0    0  0.50370695474E-02 -0.11521714705E-01 -0.61704861289E-02  0.10299229704E+01  0.10298277177E+01 0.  0.
     999903    2    3    3    0    0 -0.12788570700E+00 -0.14267690246E-01 -0.29240913409E-01  0.13963748274E+00  0.45664806230E-01 0.  0.
         14    1    1    2    0    0 -0.50370695474E-02  0.11521714705E-01  0.61704861289E-02  0.14007029608E-01  0.00000000000E+00 0. -1.
     999901    1    3    3    0    0  0.13292277655E+00  0.27459755415E-02  0.23070427280E-01  0.89028548765E+00  0.88000000000E+00 0. -1.
        -11    1    4    4    0    0 -0.86983448034E-01 -0.28239873555E-02  0.17650310384E-02  0.87048673695E-01  0.51100000000E-03 0.  1.
         11    1    4    4    0    0 -0.40902258971E-01 -0.11443702891E-01 -0.31005944448E-01  0.52588809046E-01  0.51100000000E-03 0. -1.
</event>
<event>
 8    1  0.2107254E+004  0.1043930E+01  0.7957747E-01            NaN
         13   -1    0    0    0    0  0.00000000000E+00  0.00000000000E+00  0.74505805969E-08  0.10566000000E+00  0.10566000000E+00 0. -1.
     999900   -1    0    0    0    0 -0.00000000000E+00 -0.00000000000E+00 -0.74505805969E-08  0.93827000000E+00  0.93827000000E+00 0.  1.
     999902    2    1    2    0    0  0.57410104962E-02 -0.82785628755E-02  0.92145104195E-02  0.10302771246E+01  0.10301866590E+01 0.  0.
     999903    2    3    3    0    0 -0.10137168756E-01  0.11429321540E+00  0.65983112361E-01  0.13982856820E+00  0.45083878382E-01 0.  0.
         14    1    1    2    0    0 -0.57410104962E-02  0.82785628755E-02 -0.92145104195E-02  0.13652875414E-01  0.00000000000E+00 0.  1.
     999901    1    3    3    0    0  0.15878179252E-01 -0.12257177828E+00 -0.56768601941E-01  0.89044855639E+00  0.88000000000E+00 0.  1.
        -11    1    4    4    0    0 -0.21466264522E-01  0.86741982411E-01  0.32692777193E-01  0.95152776242E-01  0.51100000000E-03 0.  1.
         11    1    4    4    0    0  0.11329095766E-01  0.27551232992E-01  0.33290335168E-01  0.44675791956E-01  0.51100000000E-03 0. -1.
</event>
<event>
 8    1  0.2107254E+004  0.1043930E+01  0.7957747E-01            NaN
         13   -1    0    0    0    0  0.00000000000E+00  0.00000000000E+00  0.74505805969E-08  0.10566000000E+00  0.10566000000E+00 0.  1.
     999900   -1    0    0    0    0 -0.00000000000E+00 -0.00000000000E+00 -0.74505805969E-08  0.93827000000E+00  0.93827000000E+00 0.  1.
     999902    2    1    2    0    0 -0.48072540392E-02 -0.69664889973E-02 -0.96584501851E-02  0.10310875968E+01  0.10310076163E+01 0.  0.
     999903    2    3    3    0    0  0.35684741394E-01  0.11090283856E+00  0.62225408896E-01  0.13940375749E+00  0.44593337175E-01 0.  0.
         14    1    1    2    0    0  0.48072540392E-02  0.69664889973E-02  0.96584501851E-02  0.12842403215E-01  0.00000000000E+00 0.  1.
     999901    1    3    3    0    0 -0.40491995433E-01 -0.11786932755E+00 -0.71883859081E-01  0.89168383930E+00  0.88000000000E+00 0.  1.
        -11    1    4    4    0    0 -0.15423919930E-02  0.50085698112E-01  0.10213433993E-01  0.51142267092E-01  0.51100000000E-03 0.  1.
         11    1    4    4    0    0  0.37227133387E-01  0.60817140446E-01  0.52011974902E-01  0.88261490393E-01  0.51100000000E-03 0. -1.
</event>
<event>
 8    1  0.2107254E+004  0.1043930E+01  0.7957747E-01            NaN
         13   -1    0    0    0    0  0.00000000000E+00  0.00000000000E+00  0.74505805969E-08  0.10566000000E+00  0.10566000000E+00 0.  1.
     999900   -1    0    0    0    0 -0.00000000000E+00 -0.00000000000E+00 -0.74505805969E-08  0.93827000000E+00  0.93827000000E+00 0.  1.
     999902    2    1    2    0    0  0.56308831902E-02 -0.10711756823E-01  0.92523460965E-02  0.10286966652E+01  0.10285838685E+01 0.  0.
     999903    2    3    3    0    0 -0.72894581833E-01  0.24635154594E-01 -0.10420333497E+00  0.13724400560E+00  0.45354946289E-01 0.  0.
         14    1    1    2    0    0 -0.56308831902E-02  0.10711756823E-01 -0.92523460965E-02  0.15233334764E-01  0.00000000000E+00 0. -1.
     999901    1    3    3    0    0  0.78525465024E-01 -0.35346911417E-01  0.11345568106E+00  0.89145265963E+00  0.88000000000E+00 0. -1.
        -11    1    4    4    0    0 -0.63113380288E-01  0.23571005925E-01 -0.10748904583E+00  0.12685837452E+00  0.51100000000E-03 0.  1.
         11    1    4    4    0    0 -0.97812015450E-02  0.10641486690E-02  0.32857108636E-02  0.10385631080E-01  0.51100000000E-03 0. -1.
</event>
<event>
 8    1  0.2107254E+004  0.1043930E+01  0.7957747E-01            NaN
         13   -1    0    0    0    0  0.00000000000E+00  0.00000000000E+00  0.74505805969E-08  0.10566000000E+00  0.10566000000E+00 0. -1.
     999900   -1    0    0    0    0 -0.00000000000E+00 -0.00000000000E+00 -0.74505805969E-08  0.93827000000E+00  0.93827000000E+00 0. -1.
     999902    2    1    2    0    0  0.52884670738E-02  0.10780826463E-01 -0.16757546293E-02  0.10318055513E+01  0.10317343134E+01 0.  0.
     999903    2    3    3    0    0  0.16618178987E-01  0.13387969583E+00  0.15379085616E-01  0.14300154499E+00  0.44866343367E-01 0.  0.
         14    1    1    2    0    0 -0.52884670738E-02 -0.10780826463E-01  0.16757546293E-02  0.12124448721E-01  0.00000000000E+00 0. -1.
     999901    1    3    3    0    0 -0.11329711913E-01 -0.12309886937E+00 -0.17054840245E-01  0.88880400628E+00  0.88000000000E+00 0. -1.
        -11    1    4    4    0    0  0.28785198877E-01  0.11371227733E+00  0.54235707555E-02  0.11742549097E+00  0.51100000000E-03 0.  1.
         11    1    4    4    0    0 -0.12167019890E-01  0.20167418506E-01  0.99555148603E-02  0.25576054022E-01  0.51100000000E-03 0. -1.
</event>
<event>
 7    1  0.2107254E+004  0.1043930E+01  0.7957747E-01            NaN
         13   -1    0    0    0    0  0.00000000000E+00  0.00000000000E+00  0.74505805969E-08  0.10566000000E+00  0.10566000000E+00 0. -1.
     999900   -1    0    0    0    0 -0.00000000000E+00 -0.00000000000E+00 -0.74505805969E-08  0.93827000000E+00  0.93827000000E+00 0. -1.
     999903    2    1    2    0    0  0.73231988153E-01 -0.86915505863E-01  0.25073608910E-01  0.12463443561E+00  0.44585058355E-01 0.  0.
         14    1    1    2    0    0 -0.12814760449E-01  0.17665386288E-01  0.24886799049E-01  0.33100403698E-01  0.00000000000E+00 0. -1.
     999901    1    1    2    0    0 -0.60417227705E-01  0.69250119575E-01 -0.49960407959E-01  0.88619516069E+00  0.88000000000E+00 0. -1.
        -11    1    3    3    0    0  0.66986112085E-01 -0.92082991938E-01  0.22176042981E-01  0.11601057978E+00  0.51100000000E-03 0.  1.
         11    1    3    3    0    0  0.62458760681E-02  0.51674860752E-02  0.28975659291E-02  0.86238558377E-02  0.51100000000E-03 0. -1.
</event>
<event>
 8    1  0.2107254E+004  0.1043930E+01  0.7957747E-01            NaN
         13   -1    0    0    0    0  0.00000000000E+00  0.00000000000E+00  0.74505805969E-08  0.10566000000E+00  0.10566000000E+00 0. -1.
     999900   -1    0    0    0    0 -0.00000000000E+00 -0.00000000000E+00 -0.74505805969E-08  0.93827000000E+00  0.93827000000E+00 0. -1.
     999902    2    1    2    0    0  0.72256901311E-02  0.69831361208E-02 -0.10123573853E-01  0.10296660056E+01  0.10295672011E+01 0.  0.
     999903    2    3    3    0    0  0.62941657910E-01  0.11512811959E+00 -0.19173058823E-01  0.14125084384E+00  0.48662701114E-01 0.  0.
         14    1    1    2    0    0 -0.72256901311E-02 -0.69831361208E-02  0.10123573853E-01  0.14263994374E-01  0.00000000000E+00 0.  1.
     999901    1    3    3    0    0 -0.55715967779E-01 -0.10814498347E+00  0.90494849698E-02  0.88841516179E+00  0.88000000000E+00 0. -1.
        -11    1    4    4    0    0  0.49961705080E-01  0.81449978619E-01  0.82639402865E-02  0.95910504230E-01  0.51100000000E-03 0.  1.
         11    1    4    4    0    0  0.12979952829E-01  0.33678140971E-01 -0.27436999109E-01  0.45340339609E-01  0.51100000000E-03 0. -1.
</event>
<event>
 7    1  0.2107254E+004  0.1043930E+01  0.7957747E-01            NaN
         13   -1    0    0    0    0  0.00000000000E+00  0.00000000000E+00  0.74505805969E-08  0.10566000000E+00  0.10566000000E+00 0.  1.
     999900   -1    0    0    0    0 -0.00000000000E+00 -0.00000000000E+00 -0.74505805969E-08  0.93827000000E+00  0.93827000000E+00 0.  1.
     999903    2    1    2    0    0 -0.18648206909E-01  0.28758096844E-01  0.81098519033E-01  0.99558120057E-01  0.46476507237E-01 0.  0.
         14    1    1    2    0    0 -0.41359620381E-01  0.86081807661E-02  0.33784672002E-01  0.54093650611E-01  0.00000000000E+00 0.  1.
     999901    1    1    2    0    0  0.60007827290E-01 -0.37366277610E-01 -0.11488319104E+00  0.89027822933E+00  0.88000000000E+00 0.  1.
        -11    1    3    3    0    0  0.74275760312E-02  0.20759052790E-04 -0.21153784154E-02  0.77398490604E-02  0.51100000000E-03 0.  1.
         11    1    3    3    0    0 -0.26075782940E-01  0.28737337791E-01  0.83213897449E-01  0.91818270997E-01  0.51100000000E-03 0. -1.
</event>
<event>
 8    1  0.2107254E+004  0.1043930E+01  0.7957747E-01            NaN
         13   -1    0    0    0    0  0.00000000000E+00  0.00000000000E+00  0.74505805969E-08  0.10566000000E+00  0.10566000000E+00 0.  1.
     999900   -1    0    0    0    0 -0.00000000000E+00 -0.00000000000E+00 -0.74505805969E-08  0.93827000000E+00  0.93827000000E+00 0.  1.
     999902    2    1    2    0    0 -0.76494724557E-02 -0.63407362729E-02  0.84198831543E-02  0.10309064138E+01  0.10308241461E+01 0.  0.
     999903    2    3    3    0    0  0.61792280219E-01  0.69901873450E-01  0.95176696826E-01  0.14064699246E+00  0.44926774461E-01 0.  0.
         14    1    1    2    0    0  0.76494724557E-02  0.63407362729E-02 -0.84198831543E-02  0.13023586206E-01  0.00000000000E+00 0. -1.
     999901    1    3    3    0    0 -0.69441752675E-01 -0.76242609722E-01 -0.86756813672E-01  0.89025942133E+00  0.88000000000E+00 0.  1.
        -11    1    4    4    0    0  0.24821491812E-01  0.50195203088E-01  0.76421421848E-01  0.94742597109E-01  0.51100000000E-03 0. -1.
         11    1    4    4    0    0  0.36970788407E-01  0.19706670362E-01  0.18755274979E-01  0.45904395353E-01  0.51100000000E-03 0.  1.
</event>
<event>
 8    1  0.2107254E+004  0.1043930E+01  0.7957747E-01            NaN
         13   -1    0    0    0    0  0.00000000000E+00  0.00000000000E+00  0.74505805969E-08  0.10566000000E+00  0.10566000000E+00 0.  1.
     999900   -1    0    0    0    0 -0.00000000000E+00 -0.00000000000E+00 -0.74505805969E-08  0.93827000000E+00  0.93827000000E+00 0.  1.
     999902    2    1    2    0    0 -0.76041281073E-02 -0.83904472265E-02  0.63653944256E-02  0.10309399802E+01  0.10308581387E+01 0.  0.
     999903    2    3    3    0    0 -0.10359281420E+00 -0.35039504013E-01  0.79166319674E-01  0.14233209432E+00  0.45076389673E-01 0.  0.
         14    1    1    2    0    0  0.76041281073E-02  0.83904472265E-02 -0.63653944256E-02  0.12990019828E-01  0.00000000000E+00 0.  1.
     999901    1    3    3    0    0  0.95988686096E-01  0.26649056786E-01 -0.72800925249E-01  0.88860788585E+00  0.88000000000E+00 0. -1.
        -11    1    4    4    0    0 -0.14545925345E-01 -0.24281202760E-01  0.23263010062E-01  0.36641363372E-01  0.51100000000E-03 0. -1.
         11    1    4    4    0    0 -0.89046888858E-01 -0.10758301253E-01  0.55903309612E-01  0.10569073095E+00  0.51100000000E-03 0.  1.
</event>
<event>
 8    1  0.2107254E+004  0.1043930E+01  0.7957747E-01            NaN
         13   -1    0    0    0    0  0.00000000000E+00  0.00000000000E+00  0.74505805969E-08  0.10566000000E+00  0.10566000000E+00 0.  1.
     999900   -1    0    0    0    0 -0.00000000000E+00 -0.00000000000E+00 -0.74505805969E-08  0.93827000000E+00  0.93827000000E+00 0. -1.
     999902    2    1    2    0    0  0.19332890734E-03 -0.10368461950E-01 -0.39806563231E-02  0.10328219847E+01  0.10327622495E+01 0.  0.
     999903    2    3    3    0    0 -0.50361490500E-01  0.11208933997E-01  0.12380376089E+00  0.14189537096E+00  0.46314200423E-01 0.  0.
         14    1    1    2    0    0 -0.19332890734E-03  0.10368461950E-01  0.39806563231E-02  0.11108015306E-01  0.00000000000E+00 0.  1.
     999901    1    3    3    0    0  0.50554819407E-01 -0.21577395947E-01 -0.12778441722E+00  0.89092661374E+00  0.88000000000E+00 0. -1.
        -11    1    4    4    0    0 -0.86107894642E-02 -0.13174854101E-01  0.58849586197E-01  0.60920090219E-01  0.51100000000E-03 0.  1.
         11    1    4    4    0    0 -0.41750701036E-01  0.24383788098E-01  0.64954174697E-01  0.80975280738E-01  0.51100000000E-03 0. -1.
</event>
<event>
 8    1  0.2107254E+004  0.1043930E+01  0.7957747E-01            NaN
         13   -1    0    0    0    0  0.00000000000E+00  0.00000000000E+00  0.74505805969E-08  0.10566000000E+00  0.10566000000E+00 0. -1.
     999900   -1    0    0    0    0 -0.00000000000E+00 -0.00000000000E+00 -0.74505805969E-08  0.93827000000E+00  0.93827000000E+00 0.  1.
     999902    2    1    2    0    0  0.92128517651E-02 -0.76588966576E-02  0.67239850906E-02  0.10301914662E+01  0.10300998542E+01 0.  0.
     999903    2    3    3    0    0  0.15264990409E-01  0.85102660221E-01 -0.99636786666E-01  0.13892610246E+00  0.43560188010E-01 0.  0.
         14    1    1    2    0    0 -0.92128517651E-02  0.76588966576E-02 -0.67239850906E-02  0.13738533807E-01  0.00000000000E+00 0.  1.
     999901    1    3    3    0    0 -0.60521386435E-02 -0.92761556879E-01  0.10636077176E+00  0.89126536373E+00  0.88000000000E+00 0. -1.
        -11    1    4    4    0    0  0.15125175609E-01  0.67722383929E-02 -0.29218394188E-01  0.33594788732E-01  0.51100000000E-03 0. -1.
         11    1    4    4    0    0  0.13981479944E-03  0.78330421828E-01 -0.70418392479E-01  0.10533131373E+00  0.51100000000E-03 0.  1.
</event>
<event>
 8    1  0.2107254E+004  0.1043930E+01  0.7957747E-01            NaN
         13   -1    0    0    0    0  0.00000000000E+00  0.00000000000E+00  0.74505805969E-08  0.10566000000E+00  0.10566000000E+00 0.  1.
     999900   -1    0    0    0    0 -0.00000000000E+00 -0.00000000000E+00 -0.74505805969E-08  0.93827000000E+00  0.93827000000E+00 0. -1.
     999902    2    1    2    0    0 -0.95337653793E-02 -0.99000365301E-02 -0.98223626430E-03  0.10301507332E+01  0.10300585735E+01 0.  0.
     999903    2    3    3    0    0  0.46328991144E-01  0.11665188028E+00  0.19204471910E-01  0.13911563939E+00  0.56835840697E-01 0.  0.
         14    1    1    2    0    0  0.95337653793E-02  0.99000365301E-02  0.98223626430E-03  0.13779266805E-01  0.00000000000E+00 0.  1.
     999901    1    3    3    0    0 -0.55862756524E-01 -0.12655191681E+00 -0.20186708174E-01  0.89103509381E+00  0.88000000000E+00 0.  1.
        -11    1    4    4    0    0  0.50126366386E-01  0.64935574403E-01  0.27662714871E-01  0.86572330136E-01  0.51100000000E-03 0.  1.
         11    1    4    4    0    0 -0.37973752412E-02  0.51716305873E-01 -0.84582429614E-02  0.52543309249E-01  0.51100000000E-03 0. -1.
</event>
<event>
 8    1  0.2107254E+004  0.1043930E+01  0.7957747E-01            NaN
         13   -1    0    0    0    0  0.00000000000E+00  0.00000000000E+00  0.74505805969E-08  0.10566000000E+00  0.10566000000E+00 0. -1.
     999900   -1    0    0    0    0 -0.00000000000E+00 -0.00000000000E+00 -0.74505805969E-08  0.93827000000E+00  0.93827000000E+00 0. -1.
     999902    2    1    2    0    0  0.11089324157E-01  0.74169978243E-02 -0.83941295991E-02  0.10281678181E+01  0.10280469910E+01 0.  0.
     999903    2    3    3    0    0 -0.66074576293E-01  0.58381290675E-02  0.10900190844E+00  0.13702327868E+00  0.49940259055E-01 0.  0.
         14    1    1    2    0    0 -0.11089324157E-01 -0.74169978243E-02  0.83941295991E-02  0.15762181915E-01  0.00000000000E+00 0. -1.
     999901    1    3    3    0    0  0.77163900450E-01  0.15788687568E-02 -0.11739603804E+00  0.89114453940E+00  0.88000000000E+00 0. -1.
        -11    1    4    4    0    0 -0.42767743284E-01 -0.35746199832E-02  0.25735843817E-01  0.50044505708E-01  0.51100000000E-03 0.  1.
         11    1    4    4    0    0 -0.23306833009E-01  0.94127490507E-02  0.83266064622E-01  0.86978772975E-01  0.51100000000E-03 0. -1.
</event>
<event>
 8    1  0.2107254E+004  0.1043930E+01  0.7957747E-01            NaN
         13   -1    0    0    0    0  0.00000000000E+00  0.00000000000E+00  0.74505805969E-08  0.10566000000E+00  0.10566000000E+00 0.  1.
     999900   -1    0    0    0    0 -0.00000000000E+00 -0.00000000000E+00 -0.74505805969E-08  0.93827000000E+00  0.93827000000E+00 0. -1.
     999902    2    1    2    0    0 -0.49323356203E-02  0.92313721596E-02 -0.10911279490E-01  0.10288104039E+01  0.10286992976E+01 0.  0.
     999903    2    3    3    0    0 -0.70761225980E-01  0.44647680463E-01 -0.10401019971E+00  0.14074781226E+00  0.44623520012E-01 0.  0.
         14    1    1    2    0    0  0.49323356203E-02 -0.92313721596E-02  0.10911279490E-01  0.15119596117E-01  0.00000000000E+00 0. -1.
     999901    1    3    3    0    0  0.65828890360E-01 -0.35416308303E-01  0.93098920221E-01  0.88806259163E+00  0.88000000000E+00 0.  1.
        -11    1    4    4    0    0 -0.29246035087E-01  0.29049050600E-01 -0.20158626252E-01  0.45889097207E-01  0.51100000000E-03 0. -1.
         11    1    4    4    0    0 -0.41515190893E-01  0.15598629863E-01 -0.83851573459E-01  0.94858715050E-01  0.51100000000E-03 0.  1.
</event>
<event>
 8    1  0.2107254E+004  0.1043930E+01  0.7957747E-01            NaN
         13   -1    0    0    0    0  0.00000000000E+00  0.00000000000E+00  0.74505805969E-08  0.10566000000E+00  0.10566000000E+00 0. -1.
     999900   -1    0    0    0    0 -0.00000000000E+00 -0.00000000000E+00 -0.74505805969E-08  0.93827000000E+00  0.93827000000E+00 0.  1.
     999902    2    1    2    0    0 -0.30862906215E-02  0.11059054635E-01  0.99734566515E-03  0.10324051322E+01  0.10323408034E+01 0.  0.
     999903    2    3    3    0    0 -0.75271501150E-01 -0.91132194410E-01 -0.62015880602E-01  0.14132465173E+00  0.46430722556E-01 0.  0.
         14    1    1    2    0    0  0.30862906215E-02 -0.11059054635E-01 -0.99734566515E-03  0.11524867791E-01  0.00000000000E+00 0. -1.
     999901    1    3    3    0    0  0.72185210528E-01  0.10219124905E+00  0.63013226267E-01  0.89108048048E+00  0.88000000000E+00 0. -1.
        -11    1    4    4    0    0 -0.65736598020E-01 -0.95770465024E-01 -0.59014738570E-01  0.13029306497E+00  0.51100000000E-03 0.  1.
         11    1    4    4    0    0 -0.95349031301E-02  0.46382706133E-02 -0.30011420318E-02  0.11031586762E-01  0.51100000000E-03 0. -1.
</event>
<event>
 8    1  0.2107254E+004  0.1043930E+01  0.7957747E-01            NaN
         13   -1    0    0    0    0  0.00000000000E+00  0.00000000000E+00  0.74505805969E-08  0.10566000000E+00  0.10566000000E+00 0.  1.
     999900   -1    0    0    0    0 -0.00000000000E+00 -0.00000000000E+00 -0.74505805969E-08  0.93827000000E+00  0.93827000000E+00 0. -1.
     999902    2    1    2    0    0 -0.26987876013E-02 -0.81563908842E-02  0.11357313368E-01  0.10296892580E+01  0.10295907776E+01 0.  0.
     999903    2    3    3    0    0 -0.42962969991E-03  0.62251420639E-01 -0.11479962234E+00  0.13790566234E+00  0.44312463972E-01 0.  0.
         14    1    1    2    0    0  0.26987876013E-02  0.81563908842E-02 -0.11357313368E-01  0.14240742035E-01  0.00000000000E+00 0. -1.
     999901    1    3    3    0    0 -0.22691579014E-02 -0.70407811524E-01  0.12615693570E+00  0.89178359563E+00  0.88000000000E+00 0. -1.
        -11    1    4    4    0    0  0.17679052953E-01  0.47572147163E-01 -0.61562652698E-01  0.79786461428E-01  0.51100000000E-03 0.  1.
         11    1    4    4    0    0 -0.18108682653E-01  0.14679273477E-01 -0.53236969638E-01  0.58119200911E-01  0.51100000000E-03 0. -1.
</event>
<event>
 8    1  0.2107254E+004  0.1043930E+01  0.7957747E-01            NaN
         13   -1    0    0    0    0  0.00000000000E+00  0.00000000000E+00  0.74505805969E-08  0.10566000000E+00  0.10566000000E+00 0.  1.
     999900   -1    0    0    0    0 -0.00000000000E+00 -0.00000000000E+00 -0.74505805969E-08  0.93827000000E+00  0.93827000000E+00 0. -1.
     999902    2    1    2    0    0 -0.97354131885E-02  0.83175451600E-02 -0.35926250210E-02  0.10306308729E+01  0.10305450642E+01 0.  0.
     999903    2    3    3    0    0  0.71534729281E-01 -0.11045972139E+00 -0.34793227236E-02  0.13893984571E+00  0.44425302454E-01 0.  0.
         14    1    1    2    0    0  0.97354131885E-02 -0.83175451600E-02  0.35926250210E-02  0.13299127113E-01  0.00000000000E+00 0. -1.
     999901    1    3    3    0    0 -0.81270142470E-01  0.11877726655E+00 -0.11330229736E-03  0.89169102717E+00  0.88000000000E+00 0.  1.
        -11    1    4    4    0    0  0.14083436348E-01 -0.26661275594E-01 -0.19741832837E-01  0.36043971485E-01  0.51100000000E-03 0. -1.
         11    1    4    4    0    0  0.57451292933E-01 -0.83798445792E-01  0.16262510114E-01  0.10289587423E+00  0.51100000000E-03 0.  1.
</event>
<event>
 8    1  0.2107254E+004  0.1043930E+01  0.7957747E-01            NaN
         13   -1    0    0    0    0  0.00000000000E+00  0.00000000000E+00  0.74505805969E-08  0.10566000000E+00  0.10566000000E+00 0. -1.
     999900   -1    0    0    0    0 -0.00000000000E+00 -0.00000000000E+00 -0.74505805969E-08  0.93827000000E+00  0.93827000000E+00 0. -1.
     999902    2    1    2    0    0 -0.11800496870E-01 -0.16331920668E-02 -0.74726636076E-02  0.10298672924E+01  0.10297712757E+01 0.  0.
     999903    2    3    3    0    0 -0.61910432770E-01  0.11227043138E+00 -0.36279434811E-01  0.14064579518E+00  0.45027667749E-01 0.  0.
         14    1    1    2    0    0  0.11800496870E-01  0.16331920668E-02  0.74726636076E-02  0.14062707567E-01  0.00000000000E+00 0.  1.
     999901    1    3    3    0    0  0.50109935899E-01 -0.11390362345E+00  0.28806771203E-01  0.88922149725E+00  0.88000000000E+00 0. -1.
        -11    1    4    4    0    0 -0.38280682337E-01  0.99858392067E-01 -0.18403901001E-01  0.10851761977E+00  0.51100000000E-03 0.  1.
         11    1    4    4    0    0 -0.23629750432E-01  0.12412039315E-01 -0.17875533810E-01  0.32128175414E-01  0.51100000000E-03 0. -1.
</event>
<event>
 8    1  0.2107254E+004  0.1043930E+01  0.7957747E-01            NaN
         13   -1    0    0    0    0  0.00000000000E+00  0.00000000000E+00  0.74505805969E-08  0.10566000000E+00  0.10566000000E+00 0. -1.
     999900   -1    0    0    0    0 -0.00000000000E+00 -0.00000000000E+00 -0.74505805969E-08  0.93827000000E+00  0.93827000000E+00 0.  1.
     999902    2    1    2    0    0  0.34603531869E-02  0.11951713875E-01 -0.60860554368E-02  0.10300787336E+01  0.10299856018E+01 0.  0.
     999903    2    3    3    0    0 -0.23554686796E-01 -0.84125933972E-01  0.97736831068E-01  0.13837254966E+00  0.44299868125E-01 0.  0.
         14    1    1    2    0    0 -0.34603531869E-02 -0.11951713875E-01  0.60860554368E-02  0.13851266350E-01  0.00000000000E+00 0.  1.
     999901    1    3    3    0    0  0.27015039982E-01  0.96077647847E-01 -0.10382288650E+00  0.89170618399E+00  0.88000000000E+00 0.  1.
        -11    1    4    4    0    0 -0.49832168403E-02 -0.68358185715E-01  0.89329602071E-01  0.11259535040E+00  0.51100000000E-03 0.  1.
         11    1    4    4    0    0 -0.18571469955E-01 -0.15767748257E-01  0.84072289967E-02  0.25777199262E-01  0.51100000000E-03 0. -1.
</event>
<event>
 8    1  0.2107254E+004  0.1043930E+01  0.7957747E-01            NaN
         13   -1    0    0    0    0  0.00000000000E+00  0.00000000000E+00  0.74505805969E-08  0.10566000000E+00  0.10566000000E+00 0. -1.
     999900   -1    0    0    0    0 -0.00000000000E+00 -0.00000000000E+00 -0.74505805969E-08  0.93827000000E+00  0.93827000000E+00 0. -1.
     999902    2    1    2    0    0  0.12147927458E-01  0.57085279623E-03  0.60604010421E-02  0.10303422675E+01  0.10302526688E+01 0.  0.
     999903    2    3    3    0    0  0.11460466693E+00  0.43985106804E-02  0.68588217905E-01  0.14218588355E+00  0.48568562523E-01 0.  0.
         14    1    1    2    0    0 -0.12147927458E-01 -0.57085279623E-03 -0.60604010421E-02  0.13587732527E-01  0.00000000000E+00 0.  1.
     999901    1    3    3    0    0 -0.10245673947E+00 -0.38276578842E-02 -0.62527816863E-01  0.88815638393E+00  0.88000000000E+00 0.  1.
        -11    1    4    4    0    0  0.65943960133E-01  0.14585803339E-02  0.11235080357E-01  0.66912042909E-01  0.51100000000E-03 0. -1.
         11    1    4    4    0    0  0.48660706799E-01  0.29399303466E-02  0.57353137549E-01  0.75273840637E-01  0.51100000000E-03 0.  1.
</event>
<event>
 8    1  0.2107254E+004  0.1043930E+01  0.7957747E-01            NaN
         13   -1    0    0    0    0  0.00000000000E+00  0.00000000000E+00  0.74505805969E-08  0.10566000000E+00  0.10566000000E+00 0. -1.
     999900   -1    0    0    0    0 -0.00000000000E+00 -0.00000000000E+00 -0.74505805969E-08  0.93827000000E+00  0.93827000000E+00 0. -1.
     999902    2    1    2    0    0  0.10483401200E-01  0.52178890283E-02 -0.44029318155E-02  0.10314194494E+01  0.10313435736E+01 0.  0.
     999903    2    3    3    0    0 -0.62027748362E-01  0.11028242415E+00  0.42560003383E-01  0.14096903497E+00  0.45290841119E-01 0.  0.
         14    1    1    2    0    0 -0.10483401200E-01 -0.52178890283E-02  0.44029318155E-02  0.12510550555E-01  0.00000000000E+00 0. -1.
     999901    1    3    3    0    0  0.72511149562E-01 -0.10506453512E+00 -0.46962935198E-01  0.89045041447E+00  0.88000000000E+00 0.  1.
        -11    1    4    4    0    0 -0.44506448637E-01  0.94168023462E-01  0.50653329303E-01  0.11582081636E+00  0.51100000000E-03 0.  1.
         11    1    4    4    0    0 -0.17521299726E-01  0.16114400690E-01 -0.80933259197E-02  0.25148218607E-01  0.51100000000E-03 0. -1.
</event>
<event>
 8    1  0.2107254E+004  0.1043930E+01  0.7957747E-01            NaN
         13   -1    0    0    0    0  0.00000000000E+00  0.00000000000E+00  0.74505805969E-08  0.10566000000E+00  0.10566000000E+00 0.  1.
     999900   -1    0    0    0    0 -0.00000000000E+00 -0.00000000000E+00 -0.74505805969E-08  0.93827000000E+00  0.93827000000E+00 0.  1.
     999902    2    1    2    0    0  0.71062625504E-02 -0.54469126410E-02 -0.10805935675E-01  0.10298966087E+01  0.10298009947E+01 0.  0.
     999903    2    3    3    0    0 -0.37136609881E-01  0.11977730673E+00  0.38187280570E-01  0.13858360416E+00  0.44960159509E-01 0.  0.
         14    1    1    2    0    0 -0.71062625504E-02  0.54469126410E-02  0.10805935675E-01  0.14033391271E-01  0.00000000000E+00 0. -1.
     999901    1    3    3    0    0  0.44242872432E-01 -0.12522421937E+00 -0.48993216245E-01  0.89131300457E+00  0.88000000000E+00 0.  1.
        -11    1    4    4    0    0 -0.41173714852E-01  0.10419050022E+00  0.19169946933E-01  0.11366038500E+00  0.51100000000E-03 0. -1.
         11    1    4    4    0    0  0.40371049708E-02  0.15586806507E-01  0.19017333637E-01  0.24923219160E-01  0.51100000000E-03 0.  1.
</event>
<event>
 8    1  0.2107254E+004  0.1043930E+01  0.7957747E-01            NaN
         13   -1    0    0    0    0  0.00000000000E+00  0.00000000000E+00  0.74505805969E-08  0.10566000000E+00  0.10566000000E+00 0.  1.
     999900   -1    0    0    0    0 -0.00000000000E+00 -0.00000000000E+00 -0.74505805969E-08  0.93827000000E+00  0.93827000000E+00 0. -1.
     999902    2    1    2    0    0  0.23168620633E-02  0.12125165640E-02  0.12976383531E-01  0.10306927580E+01  0.10306077512E+01 0.  0.
     999903    2    3    3    0    0  0.11241956803E+00  0.53514407471E-01  0.50036310849E-01  0.14151812281E+00  0.44964381421E-01 0.  0.
         14    1    1    2    0    0 -0.23168620633E-02 -0.12125165640E-02 -0.12976383531E-01  0.13237242001E-01  0.00000000000E+00 0. -1.
     999901    1    3    3    0    0 -0.11010270597E+00 -0.52301890907E-01 -0.37059927318E-01  0.88917463519E+00  0.88000000000E+00 0.  1.
        -11    1    4    4    0    0  0.49603041588E-01  0.48297760527E-01  0.29044639678E-01  0.75079874945E-01  0.51100000000E-03 0. -1.
         11    1    4    4    0    0  0.62816526442E-01  0.52166469444E-02  0.20991671172E-01  0.66438247864E-01  0.51100000000E-03 0.  1.
</event>
<event>
 8    1  0.2107254E+004  0.1043930E+01  0.7957747E-01            NaN
         13   -1    0    0    0    0  0.00000000000E+00  0.00000000000E+00  0.74505805969E-08  0.10566000000E+00  0.10566000000E+00 0.  1.
     999900   -1    0    0    0    0 -0.00000000000E+00 -0.00000000000E+00 -0.74505805969E-08  0.93827000000E+00  0.93827000000E+00 0.  1.
     999902    2    1    2    0    0  0.11043321951E-01 -0.66761517898E-02  0.43599800921E-02  0.10303088624E+01  0.10302188198E+01 0.  0.
     999903    2    3    3    0    0 -0.91782075827E-01 -0.33492677592E-01  0.89406002206E-01  0.13984549184E+00  0.44917919151E-01 0.  0.
         14    1    1    2    0    0 -0.11043321951E-01  0.66761517898E-02 -0.43599800921E-02  0.13621137575E-01  0.00000000000E+00 0. -1.
     999901    1    3    3    0    0  0.10282539778E+00  0.26816525802E-01 -0.85046022114E-01  0.89046337059E+00  0.88000000000E+00 0.  1.
        -11    1    4    4    0    0 -0.58137932336E-01 -0.40253531568E-01  0.73578900210E-01  0.10205136774E+00  0.51100000000E-03 0.  1.
         11    1    4    4    0    0 -0.33644143491E-01  0.67608539761E-02  0.15827101996E-01  0.37794124098E-01  0.51100000000E-03 0. -1.
</event>
<event>
 8    1  0.2107254E+004  0.1043930E+01  0.7957747E-01            NaN
         13   -1    0    0    0    0  0.00000000000E+00  0.00000000000E+00  0.74505805969E-08  0.10566000000E+00  0.10566000000E+00 0. -1.
     999900   -1    0    0    0    0 -0.00000000000E+00 -0.00000000000E+00 -0.74505805969E-08  0.93827000000E+00  0.93827000000E+00 0.  1.
     999902    2    1    2    0    0  0.11808847220E-01 -0.64294237386E-02 -0.27611226113E-02  0.10302037419E+01  0.10301122947E+01 0.  0.
     999903    2    3    3    0    0  0.99122807123E-01  0.42429507551E-02 -0.91340368427E-01  0.14139335161E+00  0.42493334204E-01 0.  0.
         14    1    1    2    0    0 -0.11808847220E-01  0.64294237386E-02  0.27611226113E-02  0.13726258060E-01  0.00000000000E+00 0. -1.
     999901    1    3    3    0    0 -0.87313959903E-01 -0.10672374494E-01  0.88579245815E-01  0.88881039033E+00  0.88000000000E+00 0. -1.
        -11    1    4    4    0    0  0.34410114914E-01  0.19594016690E-01 -0.21958790404E-01  0.45281686093E-01  0.51100000000E-03 0. -1.
         11    1    4    4    0    0  0.64712692208E-01 -0.15351065934E-01 -0.69381578022E-01  0.96111665515E-01  0.51100000000E-03 0.  1.
</event>
<event>
 8    1  0.2107254E+004  0.1043930E+01  0.7957747E-01            NaN
         13   -1    0    0    0    0  0.00000000000E+00  0.00000000000E+00  0.74505805969E-08  0.10566000000E+00  0.10566000000E+00 0.  1.
     999900   -1    0    0    0    0 -0.00000000000E+00 -0.00000000000E+00 -0.74505805969E-08  0.93827000000E+00  0.93827000000E+00 0.  1.
     999902    2    1    2    0    0  0.18679712794E-01  0.20412375050E-01  0.24504833071E-02  0.10161522824E+01  0.10157725432E+01 0.  0.
     999903    2    3    3    0    0 -0.60161501059E-02 -0.78503019969E-01 -0.87400659928E-01  0.12572128063E+00  0.44362673961E-01 0.  0.
         14    1    1    2    0    0 -0.18679712794E-01 -0.20412375050E-01 -0.24504833071E-02  0.27777717575E-01  0.00000000000E+00 0.  1.
     999901    1    3    3    0    0  0.24695862900E-01  0.98915395020E-01  0.89851143235E-01  0.89043100179E+00  0.88000000000E+00 0. -1.
        -11    1    4    4    0    0  0.14597047473E-01 -0.11024874086E-01 -0.28198897160E-01  0.33616373475E-01  0.51100000000E-03 0. -1.
         11    1    4    4    0    0 -0.20613197579E-01 -0.67478145883E-01 -0.59201762768E-01  0.92104907155E-01  0.51100000000E-03 0.  1.
</event>
<event>
 8    1  0.2107254E+004  0.1043930E+01  0.7957747E-01            NaN
         13   -1    0    0    0    0  0.00000000000E+00  0.00000000000E+00  0.74505805969E-08  0.10566000000E+00  0.10566000000E+00 0. -1.
     999900   -1    0    0    0    0 -0.00000000000E+00 -0.00000000000E+00 -0.74505805969E-08  0.93827000000E+00  0.93827000000E+00 0.  1.
     999902    2    1    2    0    0  0.11348466237E-01 -0.48034498040E-02  0.52075331065E-02  0.10305516886E+01  0.10304648483E+01 0.  0.
     999903    2    3    3    0    0 -0.10848825155E+00  0.68363822719E-01 -0.16169812778E-01  0.13916441043E+00  0.51594159594E-01 0.  0.
         14    1    1    2    0    0 -0.11348466237E-01  0.48034498040E-02 -0.52075331065E-02  0.13378311441E-01  0.00000000000E+00 0. -1.
     999901    1    3    3    0    0  0.11983671778E+00 -0.73167272523E-01  0.21377345885E-01  0.89138727813E+00  0.88000000000E+00 0. -1.
        -11    1    4    4    0    0 -0.60041515952E-01  0.16251541856E-01  0.10675767381E-01  0.63113622782E-01  0.51100000000E-03 0. -1.
         11    1    4    4    0    0 -0.48446735593E-01  0.52112280863E-01 -0.26845580159E-01  0.76050787645E-01  0.51100000000E-03 0.  1.
</event>
<event>
 8    1  0.2107254E+004  0.1043930E+01  0.7957747E-01            NaN
         13   -1    0    0    0    0  0.00000000000E+00  0.00000000000E+00  0.74505805969E-08  0.10566000000E+00  0.10566000000E+00 0. -1.
     999900   -1    0    0    0    0 -0.00000000000E+00 -0.00000000000E+00 -0.74505805969E-08  0.93827000000E+00  0.93827000000E+00 0.  1.
     999902    2    1    2    0    0 -0.57794530835E-03  0.85397766945E-02  0.26848766785E-02  0.10349594722E+01  0.10349205953E+01 0.  0.
     999903    2    3    3    0    0  0.66834738718E-01  0.10755624485E+00 -0.54124316859E-01  0.14502912916E+00  0.45483827078E-01 0.  0.
         14    1    1    2    0    0  0.57794530835E-03 -0.85397766945E-02 -0.26848766785E-02  0.89705278301E-02  0.00000000000E+00 0.  1.
     999901    1    3    3    0    0 -0.67412684027E-01 -0.99016468152E-01  0.56809193537E-01  0.88993034301E+00  0.88000000000E+00 0.  1.
        -11    1    4    4    0    0  0.67002796456E-02 -0.36825541507E-02 -0.51095564528E-03  0.76796581352E-02  0.51100000000E-03 0.  1.
         11    1    4    4    0    0  0.60134459073E-01  0.11123879900E+00 -0.53613361213E-01  0.13734947103E+00  0.51100000000E-03 0. -1.
</event>
<event>
 8    1  0.2107254E+004  0.1043930E+01  0.7957747E-01            NaN
         13   -1    0    0    0    0  0.00000000000E+00  0.00000000000E+00  0.74505805969E-08  0.10566000000E+00  0.10566000000E+00 0.  1.
     999900   -1    0    0    0    0 -0.00000000000E+00 -0.00000000000E+00 -0.74505805969E-08  0.93827000000E+00  0.93827000000E+00 0.  1.
     999902    2    1    2    0    0  0.57340350494E-02  0.10927643983E-01  0.74615469527E-02  0.10295089306E+01  0.10294079225E+01 0.  0.
     999903    2    3    3    0    0  0.97802396922E-01  0.70550798899E-01  0.58137663372E-01  0.14125245147E+00  0.45050450336E-01 0.  0.
         14    1    1    2    0    0 -0.57340350494E-02 -0.10927643983E-01 -0.74615469527E-02  0.14421069444E-01  0.00000000000E+00 0. -1.
     999901    1    3    3    0    0 -0.92068361873E-01 -0.59623154916E-01 -0.50676116419E-01  0.88825647908E+00  0.88000000000E+00 0.  1.
        -11    1    4    4    0    0  0.73257006410E-01  0.35076575529E-01  0.19949266308E-01  0.83637249394E-01  0.51100000000E-03 0. -1.
         11    1    4    4    0    0  0.24545390512E-01  0.35474223371E-01  0.38188397064E-01  0.57615202078E-01  0.51100000000E-03 0.  1.
</event>
<event>
 8    1  0.2107254E+004  0.1043930E+01  0.7957747E-01            NaN
         13   -1    0    0    0    0  0.00000000000E+00  0.00000000000E+00  0.74505805969E-08  0.10566000000E+00  0.10566000000E+00 0. -1.
     999900   -1    0    0    0    0 -0.00000000000E+00 -0.00000000000E+00 -0.74505805969E-08  0.93827000000E+00  0.93827000000E+00 0. -1.
     999902    2    1    2    0    0 -0.18673769571E-01  0.13176763033E-01 -0.33545682363E-03  0.10210728505E+01  0.10208169849E+01 0.  0.
     999903    2    3    3    0    0 -0.73300158950E-01  0.79997477304E-01  0.66250896333E-01  0.13434696683E+00  0.43444407617E-01 0.  0.
         14    1    1    2    0    0  0.18673769571E-01 -0.13176763033E-01  0.33545682363E-03  0.22857149545E-01  0.00000000000E+00 0. -1.
     999901    1    3    3    0    0  0.54626389379E-01 -0.66820714271E-01 -0.66586353157E-01  0.88672588363E+00  0.88000000000E+00 0.  1.
        -11    1    4    4    0    0 -0.19695786574E-01  0.37361326065E-01  0.47016301986E-01  0.63202740981E-01  0.51100000000E-03 0. -1.
         11    1    4    4    0    0 -0.53604372376E-01  0.42636151239E-01  0.19234594347E-01  0.71144225844E-01  0.51100000000E-03 0.  1.
</event>
<event>
 8    1  0.2107254E+004  0.1043930E+01  0.7957747E-01            NaN
         13   -1    0    0    0    0  0.00000000000E+00  0.00000000000E+00  0.74505805969E-08  0.10566000000E+00  0.10566000000E+00 0.  1.
     999900   -1    0    0    0    0 -0.00000000000E+00 -0.00000000000E+00 -0.74505805969E-08  0.93827000000E+00  0.93827000000E+00 0. -1.
     999902    2    1    2    0    0 -0.25133940276E-02 -0.65613014170E-02  0.12801898649E-01  0.10293266978E+01  0.10292231023E+01 0.  0.
     999903    2    3    3    0    0  0.11511897063E+00  0.20536326644E-01  0.60570698825E-01  0.13980237946E+00  0.46923103428E-01 0.  0.
         14    1    1    2    0    0  0.25133940276E-02  0.65613014170E-02 -0.12801898649E-01  0.14603302190E-01  0.00000000000E+00 0. -1.
     999901    1    3    3    0    0 -0.11763236466E+00 -0.27097628061E-01 -0.47768800176E-01  0.88952431835E+00  0.88000000000E+00 0. -1.
        -11    1    4    4    0    0  0.29899623325E-01 -0.13437749066E-01  0.68648434708E-02  0.33495488828E-01  0.51100000000E-03 0.  1.
         11    1    4    4    0    0  0.85219347309E-01  0.33974075710E-01  0.53705855354E-01  0.10630689063E+00  0.51100000000E-03 0. -1.
</event>
<event>
 8    1  0.2107254E+004  0.1043930E+01  0.7957747E-01            NaN
         13   -1    0    0    0    0  0.00000000000E+00  0.00000000000E+00  0.74505805969E-08  0.10566000000E+00  0.10566000000E+00 0. -1.
     999900   -1    0    0    0    0 -0.00000000000E+00 -0.00000000000E+00 -0.74505805969E-08  0.93827000000E+00  0.93827000000E+00 0. -1.
     999902    2    1    2    0    0 -0.10557290653E-01 -0.20274817680E-02  0.92836326552E-02  0.10297260251E+01  0.10296280561E+01 0.  0.
     999903    2    3    3    0    0 -0.19721747091E-01 -0.77481842639E-01  0.10712207295E+00  0.14104739462E+00  0.45020503860E-01 0.  0.
         14    1    1    2    0    0  0.10557290653E-01  0.20274817680E-02 -0.92836326552E-02  0.14203974920E-01  0.00000000000E+00 0.  1.
     999901    1    3    3    0    0  0.91644564376E-02  0.75454360871E-01 -0.97838440300E-01  0.88867863046E+00  0.88000000000E+00 0. -1.
        -11    1    4    4    0    0 -0.21195362472E-01 -0.39702537650E-01  0.87617038080E-01  0.98501479020E-01  0.51100000000E-03 0. -1.
         11    1    4    4    0    0  0.14736153807E-02 -0.37779304989E-01  0.19505034875E-01  0.42545915600E-01  0.51100000000E-03 0.  1.
</event>
<event>
 8    1  0.2107254E+004  0.1043930E+01  0.7957747E-01            NaN
         13   -1    0    0    0    0  0.00000000000E+00  0.00000000000E+00  0.74505805969E-08  0.10566000000E+00  0.10566000000E+00 0. -1.
     999900   -1    0    0    0    0 -0.00000000000E+00 -0.00000000000E+00 -0.74505805969E-08  0.93827000000E+00  0.93827000000E+00 0.  1.
     999902    2    1    2    0    0  0.94328410751E-02 -0.42891532230E-02  0.62152112686E-02  0.10318467812E+01  0.10317760298E+01 0.  0.
     999903    2    3    3    0    0  0.12876932800E+00 -0.27554267028E-01 -0.31378386201E-01  0.14269227199E+00  0.45118775457E-01 0.  0.
         14    1    1    2    0    0 -0.94328410751E-02  0.42891532230E-02 -0.62152112686E-02  0.12083218827E-01  0.00000000000E+00 0.  1.
     999901    1    3    3    0    0 -0.11933648693E+00  0.23265113805E-01  0.37593597469E-01  0.88915450918E+00  0.88000000000E+00 0. -1.
        -11    1    4    4    0    0  0.12529522801E-01  0.94014667931E-02  0.30187215105E-02  0.15960899725E-01  0.51100000000E-03 0. -1.
         11    1    4    4    0    0  0.11623980520E+00 -0.36955733821E-01 -0.34397107711E-01  0.12673137226E+00  0.51100000000E-03 0.  1.
</event>
<event>
 8    1  0.2107254E+004  0.1043930E+01  0.7957747E-01            NaN
         13   -1    0    0    0    0  0.00000000000E+00  0.00000000000E+00  0.74505805969E-08  0.10566000000E+00  0.10566000000E+00 0. -1.
     999900   -1    0    0    0    0 -0.00000000000E+00 -0.00000000000E+00 -0.74505805969E-08  0.93827000000E+00  0.93827000000E+00 0.  1.
     999902    2    1    2    0    0 -0.96161391440E-03  0.13513343483E-01  0.29553510011E-02  0.10300638811E+01  0.10299705481E+01 0.  0.
     999903    2    3    3    0    0  0.89360848161E-01  0.16339587679E-01  0.97528075318E-01  0.14039532767E+00  0.44122321396E-01 0.  0.
         14    1    1    2    0    0  0.96161391440E-03 -0.13513343483E-01 -0.29553510011E-02  0.13866118886E-01  0.00000000000E+00 0. -1.
     999901    1    3    3    0    0 -0.90322462076E-01 -0.28262441956E-02 -0.94572724317E-01  0.88966855345E+00  0.88000000000E+00 0.  1.
        -11    1    4    4    0    0  0.60715171066E-01  0.75524864535E-02  0.33628520248E-01  0.69817695065E-01  0.51100000000E-03 0. -1.
         11    1    4    4    0    0  0.28645677095E-01  0.87871012253E-02  0.63899555070E-01  0.70577632600E-01  0.51100000000E-03 0.  1.
</event>
<event>
 8    1  0.2107254E+004  0.1043930E+01  0.7957747E-01            NaN
         13   -1    0    0    0    0  0.00000000000E+00  0.00000000000E+00  0.74505805969E-08  0.10566000000E+00  0.10566000000E+00 0.  1.
     999900   -1    0    0    0    0 -0.00000000000E+00 -0.00000000000E+00 -0.74505805969E-08  0.93827000000E+00  0.93827000000E+00 0. -1.
     999902    2    1    2    0    0  0.12642129131E-01  0.50097910011E-02  0.21714675854E-02  0.10301591356E+01  0.10300670891E+01 0.  0.
     999903    2    3    3    0    0  0.11863352859E+00 -0.28639141817E-01 -0.55068640935E-01  0.14131558499E+00  0.45204256386E-01 0.  0.
         14    1    1    2    0    0 -0.12642129131E-01 -0.50097910011E-02 -0.21714675854E-02  0.13770864399E-01  0.00000000000E+00 0. -1.
     999901    1    3    3    0    0 -0.10599139946E+00  0.33648932818E-01  0.57240108521E-01  0.88884355061E+00  0.88000000000E+00 0.  1.
        -11    1    4    4    0    0  0.98924098899E-01 -0.56170086432E-02 -0.35575405970E-01  0.10527772205E+00  0.51100000000E-03 0.  1.
         11    1    4    4    0    0  0.19709429696E-01 -0.23022133174E-01 -0.19493234966E-01  0.36037862939E-01  0.51100000000E-03 0. -1.
</event>
<event>
 8    1  0.2107254E+004  0.1043930E+01  0.7957747E-01            NaN
         13   -1    0    0    0    0  0.00000000000E+00  0.00000000000E+00  0.74505805969E-08  0.10566000000E+00  0.10566000000E+00 0.  1.
     999900   -1    0    0    0    0 -0.00000000000E+00 -0.00000000000E+00 -0.74505805969E-08  0.93827000000E+00  0.93827000000E+00 0. -1.
     999902    2    1    2    0    0  0.77149917451E-02 -0.66080028857E-02 -0.14712414766E-01  0.10260514668E+01  0.10258956919E+01 0.  0.
     999903    2    3    3    0    0  0.11410305862E+00  0.58881601959E-01 -0.16345555939E-01  0.13722641304E+00  0.45578067093E-01 0.  0.
         14    1    1    2    0    0 -0.77149917451E-02  0.66080028857E-02  0.14712414766E-01  0.17878533161E-01  0.00000000000E+00 0.  1.
     999901    1    3    3    0    0 -0.10638806688E+00 -0.65489604845E-01  0.16331411736E-02  0.88882505380E+00  0.88000000000E+00 0.  1.
        -11    1    4    4    0    0  0.21849917371E-01 -0.31657576740E-02  0.78634285856E-02  0.23442174407E-01  0.51100000000E-03 0.  1.
         11    1    4    4    0    0  0.92253141250E-01  0.62047359633E-01 -0.24208984525E-01  0.11378423863E+00  0.51100000000E-03 0. -1.
</event>
<event>
 8    1  0.2107254E+004  0.1043930E+01  0.7957747E-01            NaN
         13   -1    0    0    0    0  0.00000000000E+00  0.00000000000E+00  0.74505805969E-08  0.10566000000E+00  0.10566000000E+00 0.  1.
     999900   -1    0    0    0    0 -0.00000000000E+00 -0.00000000000E+00 -0.74505805969E-08  0.93827000000E+00  0.93827000000E+00 0.  1.
     999902    2    1    2    0    0 -0.40789222551E-03  0.10974533364E-01  0.76809435908E-03  0.10329210615E+01  0.10328623928E+01 0.  0.
     999903    2    3    3    0    0 -0.13800707489E-01  0.13484504833E+00 -0.18213300206E-01  0.14394211610E+00  0.44877186798E-01 0.  0.
         14    1    1    2    0    0  0.40789222551E-03 -0.10974533364E-01 -0.76809435908E-03  0.11008938530E-01  0.00000000000E+00 0. -1.
     999901    1    3    3    0    0  0.13392815263E-01 -0.12387051497E+00  0.18981394565E-01  0.88897894537E+00  0.88000000000E+00 0. -1.
        -11    1    4    4    0    0  0.64673968989E-02  0.23533523973E-01 -0.18777403075E-01  0.30797823957E-01  0.51100000000E-03 0.  1.
         11    1    4    4    0    0 -0.20268104388E-01  0.11131152436E+00  0.56410286947E-03  0.11314429214E+00  0.51100000000E-03 0. -1.
</event>
<event>
 8    1  0.2107254E+004  0.1043930E+01  0.7957747E-01            NaN
         13   -1    0    0    0    0  0.00000000000E+00  0.00000000000E+00  0.74505805969E-08  0.10566000000E+00  0.10566000000E+00 0. -1.
     999900   -1    0    0    0    0 -0.00000000000E+00 -0.00000000000E+00 -0.74505805969E-08  0.93827000000E+00  0.93827000000E+00 0.  1.
     999902    2    1    2    0    0 -0.11381813887E-01 -0.88054618045E-02  0.31065894519E-02  0.10292081542E+01  0.10291028578E+01 0.  0.
     999903    2    3    3    0    0  0.11306797951E+00 -0.50092083621E-01 -0.42649409112E-01  0.13831761795E+00  0.44935581757E-01 0.  0.
         14    1    1    2    0    0  0.11381813887E-01  0.88054618045E-02 -0.31065894519E-02  0.14721845773E-01  0.00000000000E+00 0. -1.
     999901    1    3    3    0    0 -0.12444979339E+00  0.41286621817E-01  0.45755998564E-01  0.89089053627E+00  0.88000000000E+00 0. -1.
        -11    1    4    4    0    0  0.72060597187E-01 -0.53889871000E-01 -0.24154167990E-01  0.93169377027E-01  0.51100000000E-03 0. -1.
         11    1    4    4    0    0  0.41007382318E-01  0.37977873789E-02 -0.18495241123E-01  0.45148240927E-01  0.51100000000E-03 0.  1.
</event>
<event>
 8    1  0.2107254E+004  0.1043930E+01  0.7957747E-01            NaN
         13   -1    0    0    0    0  0.00000000000E+00  0.00000000000E+00  0.74505805969E-08  0.10566000000E+00  0.10566000000E+00 0.  1.
     999900   -1    0    0    0    0 -0.00000000000E+00 -0.00000000000E+00 -0.74505805969E-08  0.93827000000E+00  0.93827000000E+00 0.  1.
     999902    2    1    2    0    0 -0.52180003705E-02  0.12361832057E-02 -0.12881620880E-01  0.10299767985E+01  0.10298822814E+01 0.  0.
     999903    2    3    3    0    0 -0.16772349010E-01 -0.57180394789E-01  0.11611064075E+00  0.13858182253E+00  0.46608276096E-01 0.  0.
         14    1    1    2    0    0  0.52180003705E-02 -0.12361832057E-02  0.12881620880E-01  0.13953201542E-01  0.00000000000E+00 0.  1.
     999901    1    3    3    0    0  0.11554348640E-01  0.58416577994E-01 -0.12899226163E+00  0.89139497593E+00  0.88000000000E+00 0.  1.
        -11    1    4    4    0    0 -0.11410978723E-01 -0.22228520651E-01  0.93086329113E-01  0.96382795947E-01  0.51100000000E-03 0. -1.
         11    1    4    4    0    0 -0.53613702875E-02 -0.34951874137E-01  0.23024311633E-01  0.42199026579E-01  0.51100000000E-03 0.  1.
</event>
<event>
 8    1  0.2107254E+004  0.1043930E+01  0.7957747E-01            NaN
         13   -1    0    0    0    0  0.00000000000E+00  0.00000000000E+00  0.74505805969E-08  0.10566000000E+00  0.10566000000E+00 0. -1.
     999900   -1    0    0    0    0 -0.00000000000E+00 -0.00000000000E+00 -0.74505805969E-08  0.93827000000E+00  0.93827000000E+00 0.  1.
     999902    2    1    2    0    0  0.12777398205E-01 -0.79415805475E-02 -0.18943275398E-01  0.10197395414E+01  0.10194525756E+01 0.  0.
     999903    2    3    3    0    0 -0.11887901289E+00  0.12345671086E-01 -0.21149856751E-01  0.12971153497E+00  0.45750743856E-01 0.  0.
         14    1    1    2    0    0 -0.12777398205E-01  0.79415805475E-02  0.18943275398E-01  0.24190458642E-01  0.00000000000E+00 0. -1.
     999901    1    3    3    0    0  0.13165641109E+00 -0.20287251633E-01  0.22065813523E-02  0.89002800639E+00  0.88000000000E+00 0.  1.
        -11    1    4    4    0    0 -0.29774795101E-01  0.10684203528E-01  0.13090563839E-01  0.34239080171E-01  0.51100000000E-03 0.  1.
         11    1    4    4    0    0 -0.89104217785E-01  0.16614675580E-02 -0.34240420589E-01  0.95472454795E-01  0.51100000000E-03 0. -1.
</event>
<event>
 8    1  0.2107254E+004  0.1043930E+01  0.7957747E-01            NaN
         13   -1    0    0    0    0  0.00000000000E+00  0.00000000000E+00  0.74505805969E-08  0.10566000000E+00  0.10566000000E+00 0.  1.
     999900   -1    0    0    0    0 -0.00000000000E+00 -0.00000000000E+00 -0.74505805969E-08  0.93827000000E+00  0.93827000000E+00 0. -1.
     999902    2    1    2    0    0  0.14891668071E-01 -0.66861946917E-02  0.31953963950E-02  0.10272963734E+01  0.10271617016E+01 0.  0.
     999903    2    3    3    0    0 -0.32406671166E-01  0.12390217934E+00  0.13069784369E-01  0.13634858596E+00  0.44924105421E-01 0.  0.
         14    1    1    2    0    0 -0.14891668071E-01  0.66861946917E-02 -0.31953963950E-02  0.16633626650E-01  0.00000000000E+00 0. -1.
     999901    1    3    3    0    0  0.47298339237E-01 -0.13058837403E+00 -0.98743879736E-02  0.89094778740E+00  0.88000000000E+00 0.  1.
        -11    1    4    4    0    0 -0.29705155842E-01  0.31778220230E-01  0.24187763837E-02  0.43570209602E-01  0.51100000000E-03 0.  1.
         11    1    4    4    0    0 -0.27015153244E-02  0.92123959107E-01  0.10651007985E-01  0.92778376353E-01  0.51100000000E-03 0. -1.
</event>
<event>
 8    1  0.2107254E+004  0.1043930E+01  0.7957747E-01            NaN
         13   -1    0    0    0    0  0.00000000000E+00  0.00000000000E+00  0.74505805969E-08  0.10566000000E+00  0.10566000000E+00 0.  1.
     999900   -1    0    0    0    0 -0.00000000000E+00 -0.00000000000E+00 -0.74505805969E-08  0.93827000000E+00  0.93827000000E+00 0. -1.
     999902    2    1    2    0    0  0.10933267028E-01 -0.55914690688E-02  0.78341603575E-02  0.10293637746E+01  0.10292607082E+01 0.  0.
     999903    2    3    3    0    0 -0.11963016176E+00  0.27453970132E-01  0.45316984779E-01  0.13832854963E+00  0.44900584127E-01 0.  0.
         14    1    1    2    0    0 -0.10933267028E-01  0.55914690688E-02 -0.78341603575E-02  0.14566225412E-01  0.00000000000E+00 0. -1.
     999901    1    3    3    0    0  0.13056342879E+00 -0.33045439201E-01 -0.37482824421E-01  0.89103522496E+00  0.88000000000E+00 0.  1.
        -11    1    4    4    0    0 -0.27108997672E-01 -0.11076758942E-01  0.18262532711E-01  0.34516279716E-01  0.51100000000E-03 0. -1.
         11    1    4    4    0    0 -0.92521164087E-01  0.38530729075E-01  0.27054452068E-01  0.10381226991E+00  0.51100000000E-03 0.  1.
</event>
<event>
 8    1  0.2206533E+004  0.1043930E+01  0.7957747E-01            NaN
         13   -1    0    0    0    0  0.00000000000E+00  0.00000000000E+00  0.74505805969E-08  0.10566000000E+00  0.10566000000E+00 0. -1.
     999900   -1    0    0    0    0 -0.00000000000E+00 -0.00000000000E+00 -0.74505805969E-08  0.93827000000E+00  0.93827000000E+00 0.  1.
     999902    2    1    2    0    0 -0.19379514652E-02 -0.49709291550E-02  0.13500347038E-01  0.10294136243E+01  0.10293112672E+01 0.  0.
     999903    2    3    3    0    0  0.83083730442E-03  0.13160667804E+00  0.19246716706E-02  0.13879860916E+00  0.44049308149E-01 0.  0.
         14    1    1    2    0    0  0.19379514652E-02  0.49709291550E-02 -0.13500347038E-01  0.14516375674E-01  0.00000000000E+00 0.  1.
     999901    1    3    3    0    0 -0.27687887696E-02 -0.13657760720E+00  0.11575675368E-01  0.89061501517E+00  0.88000000000E+00 0.  1.
        -11    1    4    4    0    0  0.20147084681E-01  0.69876578019E-01  0.10751930005E-01  0.73515347355E-01  0.51100000000E-03 0.  1.
         11    1    4    4    0    0 -0.19316247377E-01  0.61730100021E-01 -0.88272583347E-02  0.65283261806E-01  0.51100000000E-03 0. -1.
</event>
<event>
 8    1  0.2107254E+004  0.1043930E+01  0.7957747E-01            NaN
         13   -1    0    0    0    0  0.00000000000E+00  0.00000000000E+00  0.74505805969E-08  0.10566000000E+00  0.10566000000E+00 0.  1.
     999900   -1    0    0    0    0 -0.00000000000E+00 -0.00000000000E+00 -0.74505805969E-08  0.93827000000E+00  0.93827000000E+00 0. -1.
     999902    2    1    2    0    0  0.53989307653E-02  0.11971744623E-01  0.18347397706E-02  0.10306696307E+01  0.10305843247E+01 0.  0.
     999903    2    3    3    0    0 -0.84153968717E-01  0.10282933842E+00  0.16239003016E-01  0.14135399108E+00  0.45403549259E-01 0.  0.
         14    1    1    2    0    0 -0.53989307653E-02 -0.11971744623E-01 -0.18347397706E-02  0.13260369254E-01  0.00000000000E+00 0. -1.
     999901    1    3    3    0    0  0.89552899483E-01 -0.90857593793E-01 -0.14404263245E-01  0.88931563967E+00  0.88000000000E+00 0.  1.
        -11    1    4    4    0    0 -0.41348152173E-01  0.25948505421E-01  0.21189829978E-01  0.53219025143E-01  0.51100000000E-03 0.  1.
         11    1    4    4    0    0 -0.42805816544E-01  0.76880832995E-01 -0.49508269623E-02  0.88134965936E-01  0.51100000000E-03 0. -1.
</event>
<event>
 8    1  0.2171302E+004  0.1043930E+01  0.7957747E-01            NaN
         13   -1    0    0    0    0  0.00000000000E+00  0.00000000000E+00  0.74505805969E-08  0.10566000000E+00  0.10566000000E+00 0. -1.
     999900   -1    0    0    0    0 -0.00000000000E+00 -0.00000000000E+00 -0.74505805969E-08  0.93827000000E+00  0.93827000000E+00 0.  1.
     999902    2    1    2    0    0  0.13198192280E-01 -0.25221882498E-02  0.31753781728E-02  0.10301228736E+01  0.10300303384E+01 0.  0.
     999903    2    3    3    0    0  0.10353288264E-01  0.13193618846E+00 -0.32022004003E-02  0.13988255657E+00  0.45194326426E-01 0.  0.
         14    1    1    2    0    0 -0.13198192280E-01  0.25221882498E-02 -0.31753781728E-02  0.13807126405E-01  0.00000000000E+00 0.  1.
     999901    1    3    3    0    0  0.28449040155E-02 -0.13445837671E+00  0.63775785731E-02  0.89024031702E+00  0.88000000000E+00 0.  1.
        -11    1    4    4    0    0 -0.16127738315E-02  0.68742882443E-01  0.19828147961E-01  0.71565365217E-01  0.51100000000E-03 0.  1.
         11    1    4    4    0    0  0.11966062096E-01  0.63193306021E-01 -0.23030348361E-01  0.68317191354E-01  0.51100000000E-03 0. -1.
</event>
<event>
 8    1  0.2107254E+004  0.1043930E+01  0.7957747E-01            NaN
         13   -1    0    0    0    0  0.00000000000E+00  0.00000000000E+00  0.74505805969E-08  0.10566000000E+00  0.10566000000E+00 0.  1.
     999900   -1    0    0    0    0 -0.00000000000E+00 -0.00000000000E+00 -0.74505805969E-08  0.93827000000E+00  0.93827000000E+00 0. -1.
     999902    2    1    2    0    0  0.59064560631E-02  0.10435907536E-01  0.67853968135E-02  0.10301519015E+01  0.10300597575E+01 0.  0.
     999903    2    3    3    0    0  0.10960928439E-01  0.12893531168E+00 -0.33880356465E-01  0.14126419204E+00  0.45422867039E-01 0.  0.
         14    1    1    2    0    0 -0.59064560631E-02 -0.10435907536E-01 -0.67853968135E-02  0.13778098535E-01  0.00000000000E+00 0. -1.
     999901    1    3    3    0    0 -0.50544723761E-02 -0.11849940414E+00  0.40665753279E-01  0.88888770942E+00  0.88000000000E+00 0.  1.
        -11    1    4    4    0    0  0.11106164328E-01  0.31540691955E-01 -0.28126875291E-01  0.43698333718E-01  0.51100000000E-03 0. -1.
         11    1    4    4    0    0 -0.14523588859E-03  0.97394619721E-01 -0.57534811744E-02  0.97565858325E-01  0.51100000000E-03 0.  1.
</event>
<event>
 8    1  0.2107254E+004  0.1043930E+01  0.7957747E-01            NaN
         13   -1    0    0    0    0  0.00000000000E+00  0.00000000000E+00  0.74505805969E-08  0.10566000000E+00  0.10566000000E+00 0. -1.
     999900   -1    0    0    0    0 -0.00000000000E+00 -0.00000000000E+00 -0.74505805969E-08  0.93827000000E+00  0.93827000000E+00 0. -1.
     999902    2    1    2    0    0  0.46800458896E-02 -0.12637062174E-01 -0.16851505333E-02  0.10303492083E+01  0.10302597018E+01 0.  0.
     999903    2    3    3    0    0 -0.12563241131E+00 -0.29208044901E-01  0.31027118248E-01  0.13999757752E+00  0.44721661270E-01 0.  0.
         14    1    1    2    0    0 -0.46800458896E-02  0.12637062174E-01  0.16851505333E-02  0.13580791665E-01  0.00000000000E+00 0. -1.
     999901    1    3    3    0    0  0.13031245720E+00  0.16570982727E-01 -0.32712268781E-01  0.89035163082E+00  0.88000000000E+00 0. -1.
        -11    1    4    4    0    0 -0.37932549626E-02 -0.12060738818E-01 -0.14669307345E-02  0.12738257763E-01  0.51100000000E-03 0.  1.
         11    1    4    4    0    0 -0.12183915634E+00 -0.17147306083E-01  0.32494048982E-01  0.12725931976E+00  0.51100000000E-03 0. -1.
</event>
<event>
 8    1  0.2107254E+004  0.1043930E+01  0.7957747E-01            NaN
         13   -1    0    0    0    0  0.00000000000E+00  0.00000000000E+00  0.74505805969E-08  0.10566000000E+00  0.10566000000E+00 0.  1.
     999900   -1    0    0    0    0 -0.00000000000E+00 -0.00000000000E+00 -0.74505805969E-08  0.93827000000E+00  0.93827000000E+00 0.  1.
     999902    2    1    2    0    0  0.13990645134E-01 -0.83646457183E-03  0.11468474559E-02  0.10298675293E+01  0.10297715158E+01 0.  0.
     999903    2    3    3    0    0  0.44029183817E-01  0.94932991832E-01  0.83569754055E-01  0.14033527121E+00  0.41943325879E-01 0.  0.
         14    1    1    2    0    0 -0.13990645134E-01  0.83646457183E-03 -0.11468474559E-02  0.14062470741E-01  0.00000000000E+00 0. -1.
     999901    1    3    3    0    0 -0.30038538683E-01 -0.95769456404E-01 -0.82422906599E-01  0.88953225805E+00  0.88000000000E+00 0.  1.
        -11    1    4    4    0    0  0.22000981850E-01  0.99509529566E-02  0.25229360313E-01  0.34926299689E-01  0.51100000000E-03 0.  1.
         11    1    4    4    0    0  0.22028201966E-01  0.84982038876E-01  0.58340393741E-01  0.10540897152E+00  0.51100000000E-03 0. -1.
</event>
<event>
 7    1  0.2107254E+004  0.1043930E+01  0.7957747E-01            NaN
         13   -1    0    0    0    0  0.00000000000E+00  0.00000000000E+00  0.74505805969E-08  0.10566000000E+00  0.10566000000E+00 0. -1.
     999900   -1    0    0    0    0 -0.00000000000E+00 -0.00000000000E+00 -0.74505805969E-08  0.93827000000E+00  0.93827000000E+00 0.  1.
     999902    2    1    2    0    0 -0.45834647124E-02  0.12799297884E-01 -0.63453613120E-02  0.10289268741E+01  0.10288174855E+01 0.  0.
         14    1    1    2    0    0  0.45834647124E-02 -0.12799297884E-01  0.63453613120E-02  0.15003125850E-01  0.00000000000E+00 0. -1.
     999901    1    3    3    0    0  0.11201949056E+00  0.73217188351E-01  0.26422985827E-01  0.89050957160E+00  0.88000000000E+00 0. -1.
        -11    1    3    3    0    0 -0.68335074834E-01 -0.46705218007E-01 -0.30407440302E-01  0.88181253044E-01  0.51100000000E-03 0. -1.
         11    1    3    3    0    0 -0.48267880435E-01 -0.13712672460E-01 -0.23609068369E-02  0.50236049504E-01  0.51100000000E-03 0.  1.
</event>
<event>
 8    1  0.2107254E+004  0.1043930E+01  0.7957747E-01            NaN
         13   -1    0    0    0    0  0.00000000000E+00  0.00000000000E+00  0.74505805969E-08  0.10566000000E+00  0.10566000000E+00 0.  1.
     999900   -1    0    0    0    0 -0.00000000000E+00 -0.00000000000E+00 -0.74505805969E-08  0.93827000000E+00  0.93827000000E+00 0.  1.
     999902    2    1    2    0    0 -0.10669145919E-01 -0.10673197808E-01 -0.39500482254E-02  0.10283302979E+01  0.10282119678E+01 0.  0.
     999903    2    3    3    0    0 -0.10486816556E+00 -0.21043238965E-01  0.77803769623E-01  0.13947447164E+00  0.44266822990E-01 0.  0.
         14    1    1    2    0    0  0.10669145919E-01  0.10673197808E-01  0.39500482254E-02  0.15599702147E-01  0.00000000000E+00 0.  1.
     999901    1    3    3    0    0  0.94199019644E-01  0.10370041157E-01 -0.81753817848E-01  0.88885582621E+00  0.88000000000E+00 0.  1.
        -11    1    4    4    0    0 -0.66057103783E-01 -0.67395607418E-02  0.21879333228E-01  0.69913725281E-01  0.51100000000E-03 0. -1.
         11    1    4    4    0    0 -0.38811061780E-01 -0.14303678224E-01  0.55924436395E-01  0.69560746361E-01  0.51100000000E-03 0.  1.
</event>
<event>
 7    1  0.2107254E+004  0.1043930E+01  0.7957747E-01            NaN
         13   -1    0    0    0    0  0.00000000000E+00  0.00000000000E+00  0.74505805969E-08  0.10566000000E+00  0.10566000000E+00 0.  1.
     999900   -1    0    0    0    0 -0.00000000000E+00 -0.00000000000E+00 -0.74505805969E-08  0.93827000000E+00  0.93827000000E+00 0. -1.
     999903    2    1    2    0    0  0.50440716735E-01 -0.37002606978E-01  0.73666928989E-02  0.78022318796E-01  0.46040799713E-01 0.  0.
         14    1    1    2    0    0  0.69138933601E-01 -0.12999812517E-01  0.27983075059E-01  0.75711556283E-01  0.00000000000E+00 0.  1.
     999901    1    1    2    0    0 -0.11957965034E+00  0.50002419495E-01 -0.35349767958E-01  0.89019612492E+00  0.88000000000E+00 0. -1.
        -11    1    3    3    0    0  0.12841677178E-01 -0.55131323719E-02 -0.18008458790E-01  0.22800636182E-01  0.51100000000E-03 0. -1.
         11    1    3    3    0    0  0.37599039557E-01 -0.31489474606E-01  0.25375151689E-01  0.55221682615E-01  0.51100000000E-03 0.  1.
</event>
<event>
 8    1  0.2107254E+004  0.1043930E+01  0.7957747E-01            NaN
         13   -1    0    0    0    0  0.00000000000E+00  0.00000000000E+00  0.74505805969E-08  0.10566000000E+00  0.10566000000E+00 0.  1.
     999900   -1    0    0    0    0 -0.00000000000E+00 -0.00000000000E+00 -0.74505805969E-08  0.93827000000E+00  0.93827000000E+00 0. -1.
     999902    2    1    2    0    0 -0.16764876799E-01 -0.28045186223E-02  0.13247564817E-01  0.10223794921E+01  0.10221523377E+01 0.  0.
     999903    2    3    3    0    0 -0.19275770286E-01  0.44764926705E-01 -0.11547195573E+00  0.13174046772E+00  0.40574921960E-01 0.  0.
         14    1    1    2    0    0  0.16764876799E-01  0.28045186223E-02 -0.13247564817E-01  0.21550507937E-01  0.00000000000E+00 0. -1.
     999901    1    3    3    0    0  0.25108934868E-02 -0.47569445327E-01  0.12871952054E+00  0.89063902434E+00  0.88000000000E+00 0.  1.
        -11    1    4    4    0    0 -0.51629169485E-02  0.48119121313E-01 -0.81328573328E-01  0.94639862151E-01  0.51100000000E-03 0.  1.
         11    1    4    4    0    0 -0.14112853337E-01 -0.33541946081E-02 -0.34143382400E-01  0.37100605568E-01  0.51100000000E-03 0. -1.
</event>
<event>
 8    1  0.2107254E+004  0.1043930E+01  0.7957747E-01            NaN
         13   -1    0    0    0    0  0.00000000000E+00  0.00000000000E+00  0.74505805969E-08  0.10566000000E+00  0.10566000000E+00 0.  1.
     999900   -1    0    0    0    0 -0.00000000000E+00 -0.00000000000E+00 -0.74505805969E-08  0.93827000000E+00  0.93827000000E+00 0. -1.
     999902    2    1    2    0    0  0.90354965446E-02 -0.36392137964E-04 -0.21142491572E-03  0.10348919569E+01  0.10348524901E+01 0.  0.
     999903    2    3    3    0    0  0.19158794603E-01 -0.62704805003E-01 -0.12082148663E+00  0.14439962224E+00  0.44209357500E-01 0.  0.
         14    1    1    2    0    0 -0.90354965446E-02  0.36392137964E-04  0.21142491572E-03  0.90380430786E-02  0.00000000000E+00 0. -1.
     999901    1    3    3    0    0 -0.10123298058E-01  0.62668412865E-01  0.12061006172E+00  0.89049233468E+00  0.88000000000E+00 0.  1.
        -11    1    4    4    0    0  0.29641958265E-01 -0.58859529260E-01 -0.89524925828E-01  0.11116682662E+00  0.51100000000E-03 0. -1.
         11    1    4    4    0    0 -0.10483163662E-01 -0.38452757428E-02 -0.31296560805E-01  0.33232795626E-01  0.51100000000E-03 0.  1.
</event>
<event>
 8    1  0.2107254E+004  0.1043930E+01  0.7957747E-01            NaN
         13   -1    0    0    0    0  0.00000000000E+00  0.00000000000E+00  0.74505805969E-08  0.10566000000E+00  0.10566000000E+00 0. -1.
     999900   -1    0    0    0    0 -0.00000000000E+00 -0.00000000000E+00 -0.74505805969E-08  0.93827000000E+00  0.93827000000E+00 0. -1.
     999902    2    1    2    0    0  0.75570519590E-02  0.22053612931E-02 -0.11649102514E-01  0.10298703328E+01  0.10297743579E+01 0.  0.
     999903    2    3    3    0    0 -0.79615930533E-02 -0.12170658112E+00  0.50218912357E-01  0.13890307801E+00  0.43545919123E-01 0.  0.
         14    1    1    2    0    0 -0.75570519590E-02 -0.22053612931E-02  0.11649102514E-01  0.14059667212E-01  0.00000000000E+00 0. -1.
     999901    1    3    3    0    0  0.15518645012E-01  0.12391194241E+00 -0.61868014871E-01  0.89096725477E+00  0.88000000000E+00 0. -1.
        -11    1    4    4    0    0 -0.16726541674E-01 -0.11608506170E+00  0.52053878153E-01  0.12831752062E+00  0.51100000000E-03 0.  1.
         11    1    4    4    0    0  0.87649486209E-02 -0.56215194177E-02 -0.18349657952E-02  0.10585557395E-01  0.51100000000E-03 0. -1.
</event>
<event>
 8    1  0.2107254E+004  0.1043930E+01  0.7957747E-01            NaN
         13   -1    0    0    0    0  0.00000000000E+00  0.00000000000E+00  0.74505805969E-08  0.10566000000E+00  0.10566000000E+00 0. -1.
     999900   -1    0    0    0    0 -0.00000000000E+00 -0.00000000000E+00 -0.74505805969E-08  0.93827000000E+00  0.93827000000E+00 0.  1.
     999902    2    1    2    0    0 -0.96585426612E-02  0.33674298767E-02  0.97277673368E-02  0.10298141760E+01  0.10297174275E+01 0.  0.
     999903    2    3    3    0    0  0.33246853754E-01 -0.90053355502E-01  0.92543643980E-01  0.13996768045E+00  0.42563663011E-01 0.  0.
         14    1    1    2    0    0  0.96585426612E-02 -0.33674298767E-02 -0.97277673368E-02  0.14115824017E-01  0.00000000000E+00 0.  1.
     999901    1    3    3    0    0 -0.42905396415E-01  0.93420785378E-01 -0.82815876643E-01  0.88984649553E+00  0.88000000000E+00 0.  1.
        -11    1    4    4    0    0 -0.43866224957E-02 -0.74811141545E-03  0.15583851082E-01  0.16214797660E-01  0.51100000000E-03 0. -1.
         11    1    4    4    0    0  0.37633476250E-01 -0.89305244086E-01  0.76959792898E-01  0.12375288279E+00  0.51100000000E-03 0.  1.
</event>
<event>
 8    1  0.2107254E+004  0.1043930E+01  0.7957747E-01            NaN
         13   -1    0    0    0    0  0.00000000000E+00  0.00000000000E+00  0.74505805969E-08  0.10566000000E+00  0.10566000000E+00 0.  1.
     999900   -1    0    0    0    0 -0.00000000000E+00 -0.00000000000E+00 -0.74505805969E-08  0.93827000000E+00  0.93827000000E+00 0.  1.
     999902    2    1    2    0    0  0.13204654279E-01 -0.19539619978E-02 -0.23234291209E-02  0.10303808604E+01  0.10302917733E+01 0.  0.
     999903    2    3    3    0    0 -0.20603435135E-01  0.11382636329E+00  0.59359762647E-01  0.14001414558E+00  0.51956106702E-01 0.  0.
         14    1    1    2    0    0 -0.13204654279E-01  0.19539619978E-02  0.23234291209E-02  0.13549139641E-01  0.00000000000E+00 0. -1.
     999901    1    3    3    0    0  0.33808089414E-01 -0.11578032528E+00 -0.61683191768E-01  0.89036671478E+00  0.88000000000E+00 0.  1.
        -11    1    4    4    0    0  0.15538471446E-01  0.26766804997E-01  0.54742123009E-02  0.31434599821E-01  0.51100000000E-03 0. -1.
         11    1    4    4    0    0 -0.36141906581E-01  0.87059558290E-01  0.53885550346E-01  0.10857954576E+00  0.51100000000E-03 0.  1.
</event>
<event>
 7    1  0.2107254E+004  0.1043930E+01  0.7957747E-01            NaN
         13   -1    0    0    0    0  0.00000000000E+00  0.00000000000E+00  0.74505805969E-08  0.10566000000E+00  0.10566000000E+00 0. -1.
     999900   -1    0    0    0    0 -0.00000000000E+00 -0.00000000000E+00 -0.74505805969E-08  0.93827000000E+00  0.93827000000E+00 0.  1.
     999903    2    1    2    0    0  0.55564097887E-01 -0.75728917494E-01  0.49490138825E-01  0.11503368974E+00  0.44285866996E-01 0.  0.
         14    1    1    2    0    0  0.18619039343E-01 -0.32411184676E-01 -0.79182594336E-02  0.38208014220E-01  0.00000000000E+00 0.  1.
     999901    1    1    2    0    0 -0.74183137230E-01  0.10814010217E+00 -0.41571879391E-01  0.89068829604E+00  0.88000000000E+00 0.  1.
        -11    1    3    3    0    0 -0.22414265682E-02 -0.90733495040E-02 -0.57039996297E-02  0.10961131194E-01  0.51100000000E-03 0. -1.
         11    1    3    3    0    0  0.57805524455E-01 -0.66655567990E-01  0.55194138455E-01  0.10407255855E+00  0.51100000000E-03 0.  1.
</event>
<event>
 8    1  0.2107254E+004  0.1043930E+01  0.7957747E-01            NaN
         13   -1    0    0    0    0  0.00000000000E+00  0.00000000000E+00  0.74505805969E-08  0.10566000000E+00  0.10566000000E+00 0.  1.
     999900   -1    0    0    0    0 -0.00000000000E+00 -0.00000000000E+00 -0.74505805969E-08  0.93827000000E+00  0.93827000000E+00 0. -1.
     999902    2    1    2    0    0  0.58685782396E-02  0.16950428052E-02 -0.12519302326E-01  0.10299999493E+01  0.10299057478E+01 0.  0.
     999903    2    3    3    0    0 -0.55448372901E-01  0.99350217045E-01  0.65938497111E-01  0.13901626383E+00  0.45084903500E-01 0.  0.
         14    1    1    2    0    0 -0.58685782396E-02 -0.16950428052E-02  0.12519302326E-01  0.13930050661E-01  0.00000000000E+00 0. -1.
     999901    1    3    3    0    0  0.61316951140E-01 -0.97655174239E-01 -0.78457799438E-01  0.89098368551E+00  0.88000000000E+00 0. -1.
        -11    1    4    4    0    0 -0.22908712073E-01  0.67978483980E-01  0.59812087741E-01  0.93400376520E-01  0.51100000000E-03 0. -1.
         11    1    4    4    0    0 -0.32539660828E-01  0.31371733065E-01  0.61264093701E-02  0.45615887310E-01  0.51100000000E-03 0.  1.
</event>
<event>
 8    1  0.2107254E+004  0.1043930E+01  0.7957747E-01            NaN
         13   -1    0    0    0    0  0.00000000000E+00  0.00000000000E+00  0.74505805969E-08  0.10566000000E+00  0.10566000000E+00 0.  1.
     999900   -1    0    0    0    0 -0.00000000000E+00 -0.00000000000E+00 -0.74505805969E-08  0.93827000000E+00  0.93827000000E+00 0. -1.
     999902    2    1    2    0    0 -0.14384126131E-01  0.54643579452E-03 -0.23600148055E-02  0.10293433161E+01  0.10292399580E+01 0.  0.
     999903    2    3    3    0    0 -0.73736346087E-01  0.99909966343E-01  0.47528640046E-01  0.14036374656E+00  0.44988438684E-01 0.  0.
         14    1    1    2    0    0  0.14384126131E-01 -0.54643579452E-03  0.23600148055E-02  0.14586683876E-01  0.00000000000E+00 0.  1.
     999901    1    3    3    0    0  0.59352219957E-01 -0.99363530548E-01 -0.49888654851E-01  0.88897956956E+00  0.88000000000E+00 0. -1.
        -11    1    4    4    0    0 -0.47141720412E-02  0.32382718816E-01  0.25063903453E-01  0.41222861051E-01  0.51100000000E-03 0.  1.
         11    1    4    4    0    0 -0.69022174046E-01  0.67527247527E-01  0.22464736593E-01  0.99140885510E-01  0.51100000000E-03 0. -1.
</event>
<event>
 8    1  0.2107254E+004  0.1043930E+01  0.7957747E-01            NaN
         13   -1    0    0    0    0  0.00000000000E+00  0.00000000000E+00  0.74505805969E-08  0.10566000000E+00  0.10566000000E+00 0. -1.
     999900   -1    0    0    0    0 -0.00000000000E+00 -0.00000000000E+00 -0.74505805969E-08  0.93827000000E+00  0.93827000000E+00 0.  1.
     999902    2    1    2    0    0 -0.79202493260E-02 -0.10975393162E-01 -0.18285185164E-02  0.10302722885E+01  0.10301817584E+01 0.  0.
     999903    2    3    3    0    0  0.10950175016E+00  0.58142025537E-01 -0.43121993855E-01  0.13882947222E+00  0.45199420141E-01 0.  0.
         14    1    1    2    0    0  0.79202493260E-02  0.10975393162E-01  0.18285185164E-02  0.13657711537E-01  0.00000000000E+00 0. -1.
     999901    1    3    3    0    0 -0.11742199948E+00 -0.69117418700E-01  0.41293475339E-01  0.89144281625E+00  0.88000000000E+00 0.  1.
        -11    1    4    4    0    0  0.71690039068E-01  0.15722011157E-01 -0.35374744725E-01  0.81475622255E-01  0.51100000000E-03 0.  1.
         11    1    4    4    0    0  0.37811711089E-01  0.42420014380E-01 -0.77472491303E-02  0.57353849963E-01  0.51100000000E-03 0. -1.
</event>
<event>
 8    1  0.2107254E+004  0.1043930E+01  0.7957747E-01            NaN
         13   -1    0    0    0    0  0.00000000000E+00  0.00000000000E+00  0.74505805969E-08  0.10566000000E+00  0.10566000000E+00 0. -1.
     999900   -1    0    0    0    0 -0.00000000000E+00 -0.00000000000E+00 -0.74505805969E-08  0.93827000000E+00  0.93827000000E+00 0. -1.
     999902    2    1    2    0    0 -0.12554683217E-01 -0.56695231697E-02 -0.60706134745E-03  0.10301411608E+01  0.10300488722E+01 0.  0.
     999903    2    3    3    0    0 -0.10397730690E+00 -0.75438504149E-01 -0.40037254703E-01  0.14178281699E+00  0.44689340694E-01 0.  0.
         14    1    1    2    0    0  0.12554683217E-01  0.56695231697E-02  0.60706134745E-03  0.13788839224E-01  0.00000000000E+00 0.  1.
     999901    1    3    3    0    0  0.91422623679E-01  0.69768980980E-01  0.39430193356E-01  0.88835834379E+00  0.88000000000E+00 0.  1.
        -11    1    4    4    0    0 -0.20716701352E-01 -0.17577231426E-01 -0.29079180435E-01  0.39799505465E-01  0.51100000000E-03 0.  1.
         11    1    4    4    0    0 -0.83260605545E-01 -0.57861272723E-01 -0.10958074268E-01  0.10198331152E+00  0.51100000000E-03 0. -1.
</event>
<event>
 8    1  0.2107254E+004  0.1043930E+01  0.7957747E-01            NaN
         13   -1    0    0    0    0  0.00000000000E+00  0.00000000000E+00  0.74505805969E-08  0.10566000000E+00  0.10566000000E+00 0. -1.
     999900   -1    0    0    0    0 -0.00000000000E+00 -0.00000000000E+00 -0.74505805969E-08  0.93827000000E+00  0.93827000000E+00 0. -1.
     999902    2    1    2    0    0 -0.11943762657E-01 -0.81394546459E-02  0.85374516995E-02  0.10271433306E+01  0.10270061486E+01 0.  0.
     999903    2    3    3    0    0 -0.29949547167E-01  0.38610293349E-01  0.12284091812E+00  0.13833793589E+00  0.40740191632E-01 0.  0.
         14    1    1    2    0    0  0.11943762657E-01  0.81394546459E-02 -0.85374516995E-02  0.16786669409E-01  0.00000000000E+00 0. -1.
     999901    1    3    3    0    0  0.18005784510E-01 -0.46749747995E-01 -0.11430346642E+00  0.88880539470E+00  0.88000000000E+00 0. -1.
        -11    1    4    4    0    0 -0.43010210189E-02  0.47859106019E-02  0.71179874556E-01  0.71471948238E-01  0.51100000000E-03 0. -1.
         11    1    4    4    0    0 -0.25648526148E-01  0.33824382748E-01  0.51661043562E-01  0.66865987653E-01  0.51100000000E-03 0.  1.
</event>
<event>
 8    1  0.2107254E+004  0.1043930E+01  0.7957747E-01            NaN
         13   -1    0    0    0    0  0.00000000000E+00  0.00000000000E+00  0.74505805969E-08  0.10566000000E+00  0.10566000000E+00 0.  1.
     999900   -1    0    0    0    0 -0.00000000000E+00 -0.00000000000E+00 -0.74505805969E-08  0.93827000000E+00  0.93827000000E+00 0. -1.
     999902    2    1    2    0    0  0.18978068301E-01 -0.36728483108E-02 -0.19572438102E-02  0.10245009574E+01  0.10243167108E+01 0.  0.
     999903    2    3    3    0    0 -0.81176777624E-02  0.77055752947E-01 -0.10073105373E+00  0.13489005821E+00  0.45222747198E-01 0.  0.
         14    1    1    2    0    0 -0.18978068301E-01  0.36728483108E-02  0.19572438102E-02  0.19429042552E-01  0.00000000000E+00 0.  1.
     999901    1    3    3    0    0  0.27095746063E-01 -0.80728601258E-01  0.98773809920E-01  0.88961089924E+00  0.88000000000E+00 0.  1.
        -11    1    4    4    0    0  0.13897138582E-01  0.18371293660E-01 -0.46951999428E-01  0.52300920286E-01  0.51100000000E-03 0. -1.
         11    1    4    4    0    0 -0.22014816344E-01  0.58684459288E-01 -0.53779054302E-01  0.82589137925E-01  0.51100000000E-03 0.  1.
</event>
<event>
 8    1  0.2107254E+004  0.1043930E+01  0.7957747E-01            NaN
         13   -1    0    0    0    0  0.00000000000E+00  0.00000000000E+00  0.74505805969E-08  0.10566000000E+00  0.10566000000E+00 0.  1.
     999900   -1    0    0    0    0 -0.00000000000E+00 -0.00000000000E+00 -0.74505805969E-08  0.93827000000E+00  0.93827000000E+00 0.  1.
     999902    2    1    2    0    0 -0.95842049259E-02  0.43275318230E-02 -0.95583211111E-02  0.10297192288E+01  0.10296211653E+01 0.  0.
     999903    2    3    3    0    0 -0.11089350106E+00  0.71456501306E-01 -0.22739850070E-01  0.14126910373E+00  0.45127139626E-01 0.  0.
         14    1    1    2    0    0  0.95842049259E-02 -0.43275318230E-02  0.95583211111E-02  0.14210771204E-01  0.00000000000E+00 0.  1.
     999901    1    3    3    0    0  0.10130929613E+00 -0.67128969483E-01  0.13181528959E-01  0.88845012507E+00  0.88000000000E+00 0. -1.
        -11    1    4    4    0    0 -0.96884588856E-02  0.81774300181E-03  0.96094138628E-02  0.13679798792E-01  0.51100000000E-03 0.  1.
         11    1    4    4    0    0 -0.10120504217E+00  0.70638758304E-01 -0.32349263933E-01  0.12758930494E+00  0.51100000000E-03 0. -1.
</event>
<event>
 8    1  0.2147600E+004  0.1043930E+01  0.7957747E-01            NaN
         13   -1    0    0    0    0  0.00000000000E+00  0.00000000000E+00  0.74505805969E-08  0.10566000000E+00  0.10566000000E+00 0. -1.
     999900   -1    0    0    0    0 -0.00000000000E+00 -0.00000000000E+00 -0.74505805969E-08  0.93827000000E+00  0.93827000000E+00 0.  1.
     999902    2    1    2    0    0 -0.15099836439E-01  0.10781841668E-01  0.58566786963E-02  0.10244735395E+01  0.10242887675E+01 0.  0.
     999903    2    3    3    0    0 -0.72257241773E-01  0.22655663834E-01  0.10493088672E+00  0.13699190287E+00  0.44965568748E-01 0.  0.
         14    1    1    2    0    0  0.15099836439E-01 -0.10781841668E-01 -0.58566786963E-02  0.19456460510E-01  0.00000000000E+00 0.  1.
     999901    1    3    3    0    0  0.57157405334E-01 -0.11873822166E-01 -0.99074208022E-01  0.88748163662E+00  0.88000000000E+00 0.  1.
        -11    1    4    4    0    0 -0.10036588850E-01  0.94558568039E-02  0.53329578708E-01  0.55085855079E-01  0.51100000000E-03 0. -1.
         11    1    4    4    0    0 -0.62220652923E-01  0.13199807030E-01  0.51601308010E-01  0.81906047793E-01  0.51100000000E-03 0.  1.
</event>
<event>
 8    1  0.2983948E+004  0.1043930E+01  0.7957747E-01            NaN
         13   -1    0    0    0    0  0.00000000000E+00  0.00000000000E+00  0.74505805969E-08  0.10566000000E+00  0.10566000000E+00 0.  1.
     999900   -1    0    0    0    0 -0.00000000000E+00 -0.00000000000E+00 -0.74505805969E-08  0.93827000000E+00  0.93827000000E+00 0. -1.
     999902    2    1    2    0    0  0.83687990154E-02 -0.11459535895E-01 -0.36920817178E-02  0.10292674891E+01  0.10291630458E+01 0.  0.
     999903    2    3    3    0    0  0.51895698187E-01 -0.12212722749E+00 -0.14589646031E-01  0.14120179001E+00  0.46009396269E-01 0.  0.
         14    1    1    2    0    0 -0.83687990154E-02  0.11459535895E-01  0.36920817178E-02  0.14662510948E-01  0.00000000000E+00 0. -1.
     999901    1    3    3    0    0 -0.43526899172E-01  0.11066769159E+00  0.10897564313E-01  0.88806569905E+00  0.88000000000E+00 0.  1.
        -11    1    4    4    0    0  0.51459947126E-01 -0.66349433657E-01 -0.15629412424E-01  0.85410263778E-01  0.51100000000E-03 0.  1.
         11    1    4    4    0    0  0.43575106137E-03 -0.55777793832E-01  0.10397663930E-02  0.55791526229E-01  0.51100000000E-03 0. -1.
</event>
<event>
 8    1  0.2107254E+004  0.1043930E+01  0.7957747E-01            NaN
         13   -1    0    0    0    0  0.00000000000E+00  0.00000000000E+00  0.74505805969E-08  0.10566000000E+00  0.10566000000E+00 0.  1.
     999900   -1    0    0    0    0 -0.00000000000E+00 -0.00000000000E+00 -0.74505805969E-08  0.93827000000E+00  0.93827000000E+00 0. -1.
     999902    2    1    2    0    0 -0.25846357001E-02  0.65440109585E-02  0.11555280439E-01  0.10304011816E+01  0.10303123634E+01 0.  0.
     999903    2    3    3    0    0 -0.72274357409E-01 -0.10199689124E+00 -0.42504069636E-01  0.13935673934E+00  0.44573044560E-01 0.  0.
         14    1    1    2    0    0  0.25846357001E-02 -0.65440109585E-02 -0.11555280439E-01  0.13528818394E-01  0.00000000000E+00 0. -1.
     999901    1    3    3    0    0  0.69689721709E-01  0.10854090220E+00  0.54059350075E-01  0.89104444227E+00  0.88000000000E+00 0.  1.
        -11    1    4    4    0    0 -0.53049623845E-01 -0.36387219707E-01 -0.19562826176E-01  0.67240297717E-01  0.51100000000E-03 0.  1.
         11    1    4    4    0    0 -0.19224733564E-01 -0.65609671537E-01 -0.22941243460E-01  0.72116441622E-01  0.51100000000E-03 0. -1.
</event>
<event>
 8    1  0.2107254E+004  0.1043930E+01  0.7957747E-01            NaN
         13   -1    0    0    0    0  0.00000000000E+00  0.00000000000E+00  0.74505805969E-08  0.10566000000E+00  0.10566000000E+00 0. -1.
     999900   -1    0    0    0    0 -0.00000000000E+00 -0.00000000000E+00 -0.74505805969E-08  0.93827000000E+00  0.93827000000E+00 0. -1.
     999902    2    1    2    0    0  0.13780821577E-02  0.12688446136E-01  0.58921435707E-02  0.10298725062E+01  0.10297765612E+01 0.  0.
     999903    2    3    3    0    0  0.79638491165E-01 -0.48993753505E-01 -0.92523238547E-01  0.13879732823E+00  0.44288502977E-01 0.  0.
         14    1    1    2    0    0 -0.13780821577E-02 -0.12688446136E-01 -0.58921435707E-02  0.14057493789E-01  0.00000000000E+00 0.  1.
     999901    1    3    3    0    0 -0.78260409007E-01  0.61682199641E-01  0.98415382118E-01  0.89107517798E+00  0.88000000000E+00 0.  1.
        -11    1    4    4    0    0  0.55997140272E-01 -0.31121035609E-01 -0.32463990364E-01  0.71821795908E-01  0.51100000000E-03 0.  1.
         11    1    4    4    0    0  0.23641350893E-01 -0.17872717896E-01 -0.60059248183E-01  0.66975532325E-01  0.51100000000E-03 0. -1.
</event>
<event>
 8    1  0.2107254E+004  0.1043930E+01  0.7957747E-01            NaN
         13   -1    0    0    0    0  0.00000000000E+00  0.00000000000E+00  0.74505805969E-08  0.10566000000E+00  0.10566000000E+00 0.  1.
     999900   -1    0    0    0    0 -0.00000000000E+00 -0.00000000000E+00 -0.74505805969E-08  0.93827000000E+00  0.93827000000E+00 0. -1.
     999902    2    1    2    0    0 -0.62421271119E-02  0.11300330868E-01 -0.38627605854E-02  0.10304547431E+01  0.10303666314E+01 0.  0.
     999903    2    3    3    0    0 -0.91829571563E-02 -0.13090528027E+00  0.62674959387E-02  0.13897636065E+00  0.45328006908E-01 0.  0.
         14    1    1    2    0    0  0.62421271119E-02 -0.11300330868E-01  0.38627605854E-02  0.13475256878E-01  0.00000000000E+00 0.  1.
     999901    1    3    3    0    0  0.29408300444E-02  0.14220561113E+00 -0.10130256524E-01  0.89147838247E+00  0.88000000000E+00 0.  1.
        -11    1    4    4    0    0 -0.22054182297E-01 -0.34323357840E-01 -0.40142939038E-02  0.40998238094E-01  0.51100000000E-03 0. -1.
         11    1    4    4    0    0  0.12871225141E-01 -0.96581922426E-01  0.10281789843E-01  0.97978122555E-01  0.51100000000E-03 0.  1.
</event>
<event>
 8    1  0.2107254E+004  0.1043930E+01  0.7957747E-01            NaN
         13   -1    0    0    0    0  0.00000000000E+00  0.00000000000E+00  0.74505805969E-08  0.10566000000E+00  0.10566000000E+00 0.  1.
     999900   -1    0    0    0    0 -0.00000000000E+00 -0.00000000000E+00 -0.74505805969E-08  0.93827000000E+00  0.93827000000E+00 0.  1.
     999902    2    1    2    0    0  0.12698027687E-01 -0.19536585026E-02 -0.59693001928E-02  0.10297635173E+01  0.10296660683E+01 0.  0.
     999903    2    3    3    0    0 -0.12245614081E+00 -0.89296608285E-02  0.45383208386E-01  0.13793820139E+00  0.43497891153E-01 0.  0.
         14    1    1    2    0    0 -0.12698027687E-01  0.19536585026E-02  0.59693001928E-02  0.14166482749E-01  0.00000000000E+00 0.  1.
     999901    1    3    3    0    0  0.13515416850E+00  0.69760023259E-02 -0.51352508579E-01  0.89182531586E+00  0.88000000000E+00 0. -1.
        -11    1    4    4    0    0 -0.83838672534E-01 -0.23299569238E-01  0.19183644522E-01  0.89107049536E-01  0.51100000000E-03 0.  1.
         11    1    4    4    0    0 -0.38617468278E-01  0.14369908409E-01  0.26199563863E-01  0.48831151855E-01  0.51100000000E-03 0. -1.
</event>
<event>
 8    1  0.2107254E+004  0.1043930E+01  0.7957747E-01            NaN
         13   -1    0    0    0    0  0.00000000000E+00  0.00000000000E+00  0.74505805969E-08  0.10566000000E+00  0.10566000000E+00 0. -1.
     999900   -1    0    0    0    0 -0.00000000000E+00 -0.00000000000E+00 -0.74505805969E-08  0.93827000000E+00  0.93827000000E+00 0. -1.
     999902    2    1    2    0    0 -0.63174531161E-02  0.11992345539E-01  0.29808297476E-02  0.10300515307E+01  0.10299580302E+01 0.  0.
     999903    2    3    3    0    0  0.30799134128E-01  0.34840154989E-01  0.12456968018E+00  0.14062277466E+00  0.45768291100E-01 0.  0.
         14    1    1    2    0    0  0.63174531161E-02 -0.11992345539E-01 -0.29808297476E-02  0.13878469346E-01  0.00000000000E+00 0.  1.
     999901    1    3    3    0    0 -0.37116587244E-01 -0.22847809450E-01 -0.12158885043E+00  0.88942875600E+00  0.88000000000E+00 0. -1.
        -11    1    4    4    0    0  0.36809678077E-01  0.18628704663E-01  0.11166110100E+00  0.11903967253E+00  0.51100000000E-03 0. -1.
         11    1    4    4    0    0 -0.60105439491E-02  0.16211450325E-01  0.12908579176E-01  0.21583102130E-01  0.51100000000E-03 0.  1.
</event>
<event>
 8    1  0.2107254E+004  0.1043930E+01  0.7957747E-01            NaN
         13   -1    0    0    0    0  0.00000000000E+00  0.00000000000E+00  0.74505805969E-08  0.10566000000E+00  0.10566000000E+00 0. -1.
     999900   -1    0    0    0    0 -0.00000000000E+00 -0.00000000000E+00 -0.74505805969E-08  0.93827000000E+00  0.93827000000E+00 0. -1.
     999902    2    1    2    0    0 -0.19204341792E-02  0.67149703706E-02 -0.11811991256E-01  0.10302076812E+01  0.10301162869E+01 0.  0.
     999903    2    3    3    0    0 -0.81446164658E-01  0.61749976097E-01  0.83022705424E-01  0.13984437711E+00  0.47086546991E-01 0.  0.
         14    1    1    2    0    0  0.19204341792E-02 -0.67149703706E-02  0.11811991256E-01  0.13722318752E-01  0.00000000000E+00 0. -1.
     999901    1    3    3    0    0  0.79525730479E-01 -0.55035005726E-01 -0.94834696680E-01  0.89036330414E+00  0.88000000000E+00 0. -1.
        -11    1    4    4    0    0 -0.53431730032E-01  0.26965529281E-01  0.21036377130E-01  0.63441940602E-01  0.51100000000E-03 0.  1.
         11    1    4    4    0    0 -0.28014434625E-01  0.34784446817E-01  0.61986328294E-01  0.76402436506E-01  0.51100000000E-03 0. -1.
</event>
<event>
 8    1  0.2107254E+004  0.1043930E+01  0.7957747E-01            NaN
         13   -1    0    0    0    0  0.00000000000E+00  0.00000000000E+00  0.74505805969E-08  0.10566000000E+00  0.10566000000E+00 0.  1.
     999900   -1    0    0    0    0 -0.00000000000E+00 -0.00000000000E+00 -0.74505805969E-08  0.93827000000E+00  0.93827000000E+00 0.  1.
     999902    2    1    2    0    0  0.89103771199E-02 -0.10292472392E-01  0.14778003370E-02  0.10302364357E+01  0.10301454265E+01 0.  0.
     999903    2    3    3    0    0  0.72976423598E-01 -0.25076445236E-01 -0.10914827257E+00  0.14087646803E+00  0.44479740689E-01 0.  0.
         14    1    1    2    0    0 -0.89103771199E-02  0.10292472392E-01 -0.14778003370E-02  0.13693564262E-01  0.00000000000E+00 0.  1.
     999901    1    3    3    0    0 -0.64066046478E-01  0.14783972844E-01  0.11062607291E+00  0.88935996771E+00  0.88000000000E+00 0. -1.
        -11    1    4    4    0    0  0.65557199147E-01 -0.40667450105E-02 -0.71226945390E-01  0.96890782047E-01  0.51100000000E-03 0. -1.
         11    1    4    4    0    0  0.74192244502E-02 -0.21009700225E-01 -0.37921327178E-01  0.43985685978E-01  0.51100000000E-03 0.  1.
</event>
<event>
 8    1  0.2107254E+004  0.1043930E+01  0.7957747E-01            NaN
         13   -1    0    0    0    0  0.00000000000E+00  0.00000000000E+00  0.74505805969E-08  0.10566000000E+00  0.10566000000E+00 0.  1.
     999900   -1    0    0    0    0 -0.00000000000E+00 -0.00000000000E+00 -0.74505805969E-08  0.93827000000E+00  0.93827000000E+00 0.  1.
     999902    2    1    2    0    0  0.71886555334E-02  0.96418239951E-02  0.47763757146E-03  0.10318938180E+01  0.10318236196E+01 0.  0.
     999903    2    3    3    0    0  0.40706002961E-01 -0.89124928868E-01  0.92072476258E-01  0.14101341164E+00  0.42511289733E-01 0.  0.
         14    1    1    2    0    0 -0.71886555334E-02 -0.96418239951E-02 -0.47763757146E-03  0.12036181952E-01  0.00000000000E+00 0.  1.
     999901    1    3    3    0    0 -0.33517347428E-01  0.98766752864E-01 -0.91594838687E-01  0.89088040641E+00  0.88000000000E+00 0.  1.
        -11    1    4    4    0    0  0.45669302015E-01 -0.51487532012E-01  0.58253912361E-01  0.90168899991E-01  0.51100000000E-03 0. -1.
         11    1    4    4    0    0 -0.49632990539E-02 -0.37637396856E-01  0.33818563897E-01  0.50844511647E-01  0.51100000000E-03 0.  1.
</event>
<event>
 8    1  0.2107254E+004  0.1043930E+01  0.7957747E-01            NaN
         13   -1    0    0    0    0  0.00000000000E+00  0.00000000000E+00  0.74505805969E-08  0.10566000000E+00  0.10566000000E+00 0. -1.
     999900   -1    0    0    0    0 -0.00000000000E+00 -0.00000000000E+00 -0.74505805969E-08  0.93827000000E+00  0.93827000000E+00 0. -1.
     999902    2    1    2    0    0  0.71676624295E-02 -0.27266473914E-01  0.22926698374E-02  0.10156440968E+01  0.10152501362E+01 0.  0.
     999903    2    3    3    0    0  0.53590903656E-02  0.13386984839E-01  0.11759491818E+00  0.12719005573E+00  0.46268934299E-01 0.  0.
         14    1    1    2    0    0 -0.71676624295E-02  0.27266473914E-01 -0.22926698374E-02  0.28285903192E-01  0.00000000000E+00 0. -1.
     999901    1    3    3    0    0  0.18085720638E-02 -0.40653458754E-01 -0.11530224834E+00  0.88845404108E+00  0.88000000000E+00 0. -1.
        -11    1    4    4    0    0 -0.14820543882E-01  0.21811076475E-01  0.70201132115E-01  0.74992210590E-01  0.51100000000E-03 0.  1.
         11    1    4    4    0    0  0.20179634248E-01 -0.84240916354E-02  0.47393786065E-01  0.52197845136E-01  0.51100000000E-03 0. -1.
</event>
<event>
 8    1  0.2107254E+004  0.1043930E+01  0.7957747E-01            NaN
         13   -1    0    0    0    0  0.00000000000E+00  0.00000000000E+00  0.74505805969E-08  0.10566000000E+00  0.10566000000E+00 0.  1.
     999900   -1    0    0    0    0 -0.00000000000E+00 -0.00000000000E+00 -0.74505805969E-08  0.93827000000E+00  0.93827000000E+00 0. -1.
     999902    2    1    2    0    0 -0.95004199513E-02  0.94807367659E-02 -0.19517610236E-03  0.10305068691E+01  0.10304194422E+01 0.  0.
     999903    2    3    3    0    0  0.66226716064E-01  0.74296578416E-01  0.88289160326E-01  0.14047025737E+00  0.45066150165E-01 0.  0.
         14    1    1    2    0    0  0.95004199513E-02 -0.94807367659E-02  0.19517610236E-03  0.13423130879E-01  0.00000000000E+00 0.  1.
     999901    1    3    3    0    0 -0.75727136015E-01 -0.64815841651E-01 -0.88484336428E-01  0.89003661175E+00  0.88000000000E+00 0.  1.
        -11    1    4    4    0    0  0.12490680619E-01  0.10570074381E-01  0.42095655334E-01  0.45166900422E-01  0.51100000000E-03 0. -1.
         11    1    4    4    0    0  0.53736035444E-01  0.63726504035E-01  0.46193504991E-01  0.95303356951E-01  0.51100000000E-03 0.  1.
</event>
<event>
 8    1  0.2107254E+004  0.1043930E+01  0.7957747E-01            NaN
         13   -1    0    0    0    0  0.00000000000E+00  0.00000000000E+00  0.74505805969E-08  0.10566000000E+00  0.10566000000E+00 0.  1.
     999900   -1    0    0    0    0 -0.00000000000E+00 -0.00000000000E+00 -0.74505805969E-08  0.93827000000E+00  0.93827000000E+00 0. -1.
     999902    2    1    2    0    0  0.36877592959E-02 -0.48750800952E-02 -0.11184030141E-01  0.10311844712E+01  0.10311057003E+01 0.  0.
     999903    2    3    3    0    0 -0.76508392925E-01 -0.78859058034E-01 -0.77690556392E-01  0.14195549625E+00  0.45202379831E-01 0.  0.
         14    1    1    2    0    0 -0.36877592959E-02  0.48750800952E-02  0.11184030141E-01  0.12745528814E-01  0.00000000000E+00 0.  1.
     999901    1    3    3    0    0  0.80196152221E-01  0.73983977939E-01  0.66506526251E-01  0.88922897493E+00  0.88000000000E+00 0.  1.
        -11    1    4    4    0    0 -0.76310103936E-01 -0.54519963728E-01 -0.55280694250E-01  0.10886631566E+00  0.51100000000E-03 0.  1.
         11    1    4    4    0    0 -0.19828898887E-03 -0.24339094307E-01 -0.22409862142E-01  0.33089180595E-01  0.51100000000E-03 0. -1.
</event>
<event>
 8    1  0.2523363E+004  0.1043930E+01  0.7957747E-01            NaN
         13   -1    0    0    0    0  0.00000000000E+00  0.00000000000E+00  0.74505805969E-08  0.10566000000E+00  0.10566000000E+00 0. -1.
     999900   -1    0    0    0    0 -0.00000000000E+00 -0.00000000000E+00 -0.74505805969E-08  0.93827000000E+00  0.93827000000E+00 0.  1.
     999902    2    1    2    0    0 -0.33186058713E-02 -0.13387540132E-01  0.54042757513E-02  0.10291163046E+01  0.10290096806E+01 0.  0.
     999903    2    3    3    0    0 -0.87775873412E-01  0.86423956772E-01 -0.41262642167E-01  0.13823294174E+00  0.47244431263E-01 0.  0.
         14    1    1    2    0    0  0.33186058713E-02  0.13387540132E-01 -0.54042757513E-02  0.14813695424E-01  0.00000000000E+00 0. -1.
     999901    1    3    3    0    0  0.84457267541E-01 -0.99811496904E-01  0.46666917918E-01  0.89088336284E+00  0.88000000000E+00 0. -1.
        -11    1    4    4    0    0 -0.44229360877E-01  0.54747467243E-01  0.12522135903E-04  0.70383114530E-01  0.51100000000E-03 0.  1.
         11    1    4    4    0    0 -0.43546512535E-01  0.31676489529E-01 -0.41275164303E-01  0.67849827208E-01  0.51100000000E-03 0. -1.
</event>
<event>
 8    1  0.2107254E+004  0.1043930E+01  0.7957747E-01            NaN
         13   -1    0    0    0    0  0.00000000000E+00  0.00000000000E+00  0.74505805969E-08  0.10566000000E+00  0.10566000000E+00 0. -1.
     999900   -1    0    0    0    0 -0.00000000000E+00 -0.00000000000E+00 -0.74505805969E-08  0.93827000000E+00  0.93827000000E+00 0. -1.
     999902    2    1    2    0    0  0.61494741066E-02 -0.18198884690E-02 -0.12427154319E-01  0.10299456448E+01  0.10298507023E+01 0.  0.
     999903    2    3    3    0    0  0.12159306863E+00  0.30186828354E-01 -0.47578997720E-01  0.14113334429E+00  0.44257664903E-01 0.  0.
         14    1    1    2    0    0 -0.61494741066E-02  0.18198884690E-02  0.12427154319E-01  0.13984355198E-01  0.00000000000E+00 0. -1.
     999901    1    3    3    0    0 -0.11544359452E+00 -0.32006716822E-01  0.35151843401E-01  0.88881230051E+00  0.88000000000E+00 0.  1.
        -11    1    4    4    0    0  0.77815874710E-01 -0.29491030765E-02 -0.25313419828E-01  0.81884295870E-01  0.51100000000E-03 0.  1.
         11    1    4    4    0    0  0.43777193921E-01  0.33135931430E-01 -0.22265577892E-01  0.59249048425E-01  0.51100000000E-03 0. -1.
</event>
<event>
 8    1  0.2107254E+004  0.1043930E+01  0.7957747E-01            NaN
         13   -1    0    0    0    0  0.00000000000E+00  0.00000000000E+00  0.74505805969E-08  0.10566000000E+00  0.10566000000E+00 0. -1.
     999900   -1    0    0    0    0 -0.00000000000E+00 -0.00000000000E+00 -0.74505805969E-08  0.93827000000E+00  0.93827000000E+00 0. -1.
     999902    2    1    2    0    0 -0.11276264027E-01  0.20694973061E-02  0.70858582879E-02  0.10304523764E+01  0.10303642335E+01 0.  0.
     999903    2    3    3    0    0 -0.13115201323E+00  0.28020758031E-01  0.11178816082E-01  0.14193652655E+00  0.45110954141E-01 0.  0.
         14    1    1    2    0    0  0.11276264027E-01 -0.20694973061E-02 -0.70858582879E-02  0.13477623573E-01  0.00000000000E+00 0.  1.
     999901    1    3    3    0    0  0.11987574921E+00 -0.25951260725E-01 -0.40929577943E-02  0.88851584988E+00  0.88000000000E+00 0. -1.
        -11    1    4    4    0    0 -0.10559173385E+00  0.29818068279E-01  0.25403987277E-01  0.11262484248E+00  0.51100000000E-03 0. -1.
         11    1    4    4    0    0 -0.25560279386E-01 -0.17973102473E-02 -0.14225171195E-01  0.29311684068E-01  0.51100000000E-03 0.  1.
</event>
<event>
 8    1  0.2107254E+004  0.1043930E+01  0.7957747E-01            NaN
         13   -1    0    0    0    0  0.00000000000E+00  0.00000000000E+00  0.74505805969E-08  0.10566000000E+00  0.10566000000E+00 0. -1.
     999900   -1    0    0    0    0 -0.00000000000E+00 -0.00000000000E+00 -0.74505805969E-08  0.93827000000E+00  0.93827000000E+00 0. -1.
     999902    2    1    2    0    0 -0.10318616389E-01  0.80087439591E-02  0.48624485889E-02  0.10299923808E+01  0.10298980761E+01 0.  0.
     999903    2    3    3    0    0 -0.14483673233E-01 -0.27332420191E-01 -0.12797752378E+00  0.13931129089E+00  0.45525280812E-01 0.  0.
         14    1    1    2    0    0  0.10318616389E-01 -0.80087439591E-02 -0.48624485889E-02  0.13937619247E-01  0.00000000000E+00 0.  1.
     999901    1    3    3    0    0  0.41650568437E-02  0.35341164150E-01  0.13283997237E+00  0.89068108986E+00  0.88000000000E+00 0.  1.
        -11    1    4    4    0    0  0.13460700153E-01 -0.77265375714E-02 -0.72707237216E-01  0.74347113569E-01  0.51100000000E-03 0. -1.
         11    1    4    4    0    0 -0.27944373386E-01 -0.19605882619E-01 -0.55270286563E-01  0.64964177321E-01  0.51100000000E-03 0.  1.
</event>
<event>
 8    1  0.2107254E+004  0.1043930E+01  0.7957747E-01            NaN
         13   -1    0    0    0    0  0.00000000000E+00  0.00000000000E+00  0.74505805969E-08  0.10566000000E+00  0.10566000000E+00 0. -1.
     999900   -1    0    0    0    0 -0.00000000000E+00 -0.00000000000E+00 -0.74505805969E-08  0.93827000000E+00  0.93827000000E+00 0.  1.
     999902    2    1    2    0    0  0.56216447782E-02 -0.19308322246E-01  0.35805934691E-02  0.10235036727E+01  0.10232998256E+01 0.  0.
     999903    2    3    3    0    0 -0.36611336763E-01  0.10521909066E+00 -0.54479966735E-01  0.13184133192E+00  0.44750676055E-01 0.  0.
         14    1    1    2    0    0 -0.56216447782E-02  0.19308322246E-01 -0.35805934691E-02  0.20426327314E-01  0.00000000000E+00 0.  1.
     999901    1    3    3    0    0  0.42232981542E-01 -0.12452741290E+00  0.58060560204E-01  0.89166234077E+00  0.88000000000E+00 0. -1.
        -11    1    4    4    0    0 -0.19242511725E-01  0.29270273777E-01 -0.38969143669E-01  0.52401130368E-01  0.51100000000E-03 0. -1.
         11    1    4    4    0    0 -0.17368825038E-01  0.75948816882E-01 -0.15510823066E-01  0.79440201549E-01  0.51100000000E-03 0.  1.
</event>
<event>
 8    1  0.2107254E+004  0.1043930E+01  0.7957747E-01            NaN
         13   -1    0    0    0    0  0.00000000000E+00  0.00000000000E+00  0.74505805969E-08  0.10566000000E+00  0.10566000000E+00 0.  1.
     999900   -1    0    0    0    0 -0.00000000000E+00 -0.00000000000E+00 -0.74505805969E-08  0.93827000000E+00  0.93827000000E+00 0. -1.
     999902    2    1    2    0    0  0.51268958623E-02  0.67634397277E-02 -0.12274644845E-01  0.10290069948E+01  0.10288987799E+01 0.  0.
     999903    2    3    3    0    0 -0.11468159702E-01  0.13055452356E+00  0.17284477523E-01  0.13969637976E+00  0.45169935211E-01 0.  0.
         14    1    1    2    0    0 -0.51268958623E-02 -0.67634397277E-02  0.12274644845E-01  0.14923005200E-01  0.00000000000E+00 0.  1.
     999901    1    3    3    0    0  0.16595055564E-01 -0.12379108383E+00 -0.29559122368E-01  0.88931061504E+00  0.88000000000E+00 0. -1.
        -11    1    4    4    0    0  0.15770410189E-01  0.76185939238E-01  0.10440037170E-01  0.78500055237E-01  0.51100000000E-03 0. -1.
         11    1    4    4    0    0 -0.27238569891E-01  0.54368584320E-01  0.68444403537E-02  0.61196324525E-01  0.51100000000E-03 0.  1.
</event>
<event>
 8    1  0.2107254E+004  0.1043930E+01  0.7957747E-01            NaN
         13   -1    0    0    0    0  0.00000000000E+00  0.00000000000E+00  0.74505805969E-08  0.10566000000E+00  0.10566000000E+00 0. -1.
     999900   -1    0    0    0    0 -0.00000000000E+00 -0.00000000000E+00 -0.74505805969E-08  0.93827000000E+00  0.93827000000E+00 0. -1.
     999902    2    1    2    0    0  0.88733397410E-03 -0.12970019356E-01  0.51604309805E-02  0.10299429055E+01  0.10298479256E+01 0.  0.
     999903    2    3    3    0    0  0.67660112746E-01 -0.41980430610E-02  0.11456725319E+00  0.14061427994E+00  0.45290239547E-01 0.  0.
         14    1    1    2    0    0 -0.88733397410E-03  0.12970019356E-01 -0.51604309805E-02  0.13987094465E-01  0.00000000000E+00 0.  1.
     999901    1    3    3    0    0 -0.66772778772E-01 -0.87719762945E-02 -0.10940682221E+00  0.88932862559E+00  0.88000000000E+00 0. -1.
        -11    1    4    4    0    0  0.16037830907E-01  0.17857332055E-01  0.46933433425E-01  0.52717213720E-01  0.51100000000E-03 0.  1.
         11    1    4    4    0    0  0.51622281838E-01 -0.22055375116E-01  0.67633819764E-01  0.87897066223E-01  0.51100000000E-03 0. -1.
</event>
<event>
 8    1  0.2107254E+004  0.1043930E+01  0.7957747E-01            NaN
         13   -1    0    0    0    0  0.00000000000E+00  0.00000000000E+00  0.74505805969E-08  0.10566000000E+00  0.10566000000E+00 0.  1.
     999900   -1    0    0    0    0 -0.00000000000E+00 -0.00000000000E+00 -0.74505805969E-08  0.93827000000E+00  0.93827000000E+00 0. -1.
     999902    2    1    2    0    0  0.32974944795E-02 -0.12289600444E-01 -0.33133073109E-02  0.10307813973E+01  0.10306975323E+01 0.  0.
     999903    2    3    3    0    0  0.48519620915E-01 -0.11545311123E+00 -0.50419569407E-01  0.14235202437E+00  0.45148547666E-01 0.  0.
         14    1    1    2    0    0 -0.32974944795E-02  0.12289600444E-01  0.33133073109E-02  0.13148602749E-01  0.00000000000E+00 0. -1.
     999901    1    3    3    0    0 -0.45222126435E-01  0.10316351078E+00  0.47106262096E-01  0.88842937288E+00  0.88000000000E+00 0. -1.
        -11    1    4    4    0    0  0.38543429515E-01 -0.50017137198E-01 -0.78071327008E-02  0.63628000238E-01  0.51100000000E-03 0.  1.
         11    1    4    4    0    0  0.99761913997E-02 -0.65435974028E-01 -0.42612436706E-01  0.78724024128E-01  0.51100000000E-03 0. -1.
</event>
<event>
 8    1  0.2107254E+004  0.1043930E+01  0.7957747E-01            NaN
         13   -1    0    0    0    0  0.00000000000E+00  0.00000000000E+00  0.74505805969E-08  0.10566000000E+00  0.10566000000E+00 0.  1.
     999900   -1    0    0    0    0 -0.00000000000E+00 -0.00000000000E+00 -0.74505805969E-08  0.93827000000E+00  0.93827000000E+00 0. -1.
     999902    2    1    2    0    0  0.11848909302E-01 -0.98113129494E-02 -0.11689405991E-02  0.10285019432E+01  0.10283862223E+01 0.  0.
     999903    2    3    3    0    0  0.48025636071E-02 -0.43403866872E-01  0.12426859555E+00  0.13894436436E+00  0.44225470831E-01 0.  0.
         14    1    1    2    0    0 -0.11848909302E-01  0.98113129494E-02  0.11689405991E-02  0.15428056765E-01  0.00000000000E+00 0.  1.
     999901    1    3    3    0    0  0.70463456946E-02  0.33592553922E-01 -0.12543753615E+00  0.88955757888E+00  0.88000000000E+00 0. -1.
        -11    1    4    4    0    0 -0.13453791632E-01 -0.10030592069E-01  0.74123016550E-01  0.76000657827E-01  0.51100000000E-03 0. -1.
         11    1    4    4    0    0  0.18256355239E-01 -0.33373274803E-01  0.50145578997E-01  0.62943706529E-01  0.51100000000E-03 0.  1.
</event>
<event>
 8    1  0.2107254E+004  0.1043930E+01  0.7957747E-01            NaN
         13   -1    0    0    0    0  0.00000000000E+00  0.00000000000E+00  0.74505805969E-08  0.10566000000E+00  0.10566000000E+00 0.  1.
     999900   -1    0    0    0    0 -0.00000000000E+00 -0.00000000000E+00 -0.74505805969E-08  0.93827000000E+00  0.93827000000E+00 0.  1.
     999902    2    1    2    0    0 -0.11372145497E-01 -0.61569505132E-02 -0.43511910734E-02  0.10302857119E+01  0.10301953609E+01 0.  0.
     999903    2    3    3    0    0 -0.61296056002E-01 -0.11440885423E+00 -0.37860256243E-01  0.14161607200E+00  0.42132178186E-01 0.  0.
         14    1    1    2    0    0  0.11372145497E-01  0.61569505132E-02  0.43511910734E-02  0.13644288057E-01  0.00000000000E+00 0.  1.
     999901    1    3    3    0    0  0.49923910506E-01  0.10825190372E+00  0.33509065170E-01  0.88866963994E+00  0.88000000000E+00 0. -1.
        -11    1    4    4    0    0 -0.46447162947E-01 -0.45015851986E-01 -0.25766739203E-01  0.69627234944E-01  0.51100000000E-03 0. -1.
         11    1    4    4    0    0 -0.14848893056E-01 -0.69393002248E-01 -0.12093517041E-01  0.71988837061E-01  0.51100000000E-03 0.  1.
</event>
<event>
 8    1  0.2107254E+004  0.1043930E+01  0.7957747E-01            NaN
         13   -1    0    0    0    0  0.00000000000E+00  0.00000000000E+00  0.74505805969E-08  0.10566000000E+00  0.10566000000E+00 0. -1.
     999900   -1    0    0    0    0 -0.00000000000E+00 -0.00000000000E+00 -0.74505805969E-08  0.93827000000E+00  0.93827000000E+00 0.  1.
     999902    2    1    2    0    0  0.52043058353E-02 -0.12692200394E-01  0.61150686407E-02  0.10289109849E+01  0.10288013628E+01 0.  0.
     999903    2    3    3    0    0 -0.12447201690E+00 -0.41231386228E-01 -0.95925606582E-02  0.13881146045E+00  0.44534190573E-01 0.  0.
         14    1    1    2    0    0 -0.52043058353E-02  0.12692200394E-01 -0.61150686407E-02  0.15019015099E-01  0.00000000000E+00 0.  1.
     999901    1    3    3    0    0  0.12967632274E+00  0.28539185834E-01  0.15707629299E-01  0.89009952445E+00  0.88000000000E+00 0. -1.
        -11    1    4    4    0    0 -0.10875423056E+00 -0.26293236173E-01  0.60767084520E-02  0.11205357843E+00  0.51100000000E-03 0. -1.
         11    1    4    4    0    0 -0.15717786346E-01 -0.14938150055E-01 -0.15669269110E-01  0.26757882019E-01  0.51100000000E-03 0.  1.
</event>
<event>
 8    1  0.2107254E+004  0.1043930E+01  0.7957747E-01            NaN
         13   -1    0    0    0    0  0.00000000000E+00  0.00000000000E+00  0.74505805969E-08  0.10566000000E+00  0.10566000000E+00 0.  1.
     999900   -1    0    0    0    0 -0.00000000000E+00 -0.00000000000E+00 -0.74505805969E-08  0.93827000000E+00  0.93827000000E+00 0.  1.
     999902    2    1    2    0    0 -0.24499340066E-02  0.11881881551E-01 -0.92094172882E-02  0.10286986293E+01  0.10285858619E+01 0.  0.
     999903    2    3    3    0    0  0.12308975008E+00  0.14720287327E-01  0.41166285623E-01  0.13835825606E+00  0.45613271244E-01 0.  0.
         14    1    1    2    0    0  0.24499340066E-02 -0.11881881551E-01  0.92094172882E-02  0.15231370675E-01  0.00000000000E+00 0.  1.
     999901    1    3    3    0    0 -0.12553968409E+00 -0.28384057759E-02 -0.50375702911E-01  0.89034037327E+00  0.88000000000E+00 0.  1.
        -11    1    4    4    0    0  0.12286655556E-01 -0.12710770296E-01  0.26335325170E-02  0.17880777410E-01  0.51100000000E-03 0. -1.
         11    1    4    4    0    0  0.11080309452E+00  0.27431057623E-01  0.38532753106E-01  0.12047747865E+00  0.51100000000E-03 0.  1.
</event>
<event>
 8    1  0.2107254E+004  0.1043930E+01  0.7957747E-01            NaN
         13   -1    0    0    0    0  0.00000000000E+00  0.00000000000E+00  0.74505805969E-08  0.10566000000E+00  0.10566000000E+00 0.  1.
     999900   -1    0    0    0    0 -0.00000000000E+00 -0.00000000000E+00 -0.74505805969E-08  0.93827000000E+00  0.93827000000E+00 0.  1.
     999902    2    1    2    0    0 -0.62310920879E-02 -0.11836994556E-01  0.36348836812E-02  0.10300680619E+01  0.10299747855E+01 0.  0.
     999903    2    3    3    0    0 -0.10409780554E+00 -0.39138898457E-01 -0.73901897532E-01  0.14083511154E+00  0.44775346916E-01 0.  0.
         14    1    1    2    0    0  0.62310920879E-02  0.11836994556E-01 -0.36348836812E-02  0.13861938108E-01  0.00000000000E+00 0. -1.
     999901    1    3    3    0    0  0.97866713454E-01  0.27301903901E-01  0.77536781213E-01  0.88923295036E+00  0.88000000000E+00 0. -1.
        -11    1    4    4    0    0 -0.27895544201E-01 -0.27197297176E-01 -0.89050372842E-02  0.39967676565E-01  0.51100000000E-03 0.  1.
         11    1    4    4    0    0 -0.76202261341E-01 -0.11941601281E-01 -0.64996860247E-01  0.10086743497E+00  0.51100000000E-03 0. -1.
</event>
<event>
 8    1  0.2107254E+004  0.1043930E+01  0.7957747E-01            NaN
         13   -1    0    0    0    0  0.00000000000E+00  0.00000000000E+00  0.74505805969E-08  0.10566000000E+00  0.10566000000E+00 0. -1.
     999900   -1    0    0    0    0 -0.00000000000E+00 -0.00000000000E+00 -0.74505805969E-08  0.93827000000E+00  0.93827000000E+00 0.  1.
     999902    2    1    2    0    0  0.13145219480E-01 -0.35381401075E-02  0.39482084173E-02  0.10297559540E+01  0.10296584002E+01 0.  0.
     999903    2    3    3    0    0  0.59229769403E-02  0.12806092657E+00 -0.30708258965E-01  0.13926645609E+00  0.44916211468E-01 0.  0.
         14    1    1    2    0    0 -0.13145219480E-01  0.35381401075E-02 -0.39482084173E-02  0.14174046010E-01  0.00000000000E+00 0.  1.
     999901    1    3    3    0    0  0.72222425396E-02 -0.13159906668E+00  0.34656467382E-01  0.89048949790E+00  0.88000000000E+00 0.  1.
        -11    1    4    4    0    0  0.24890137202E-01  0.83342038254E-01 -0.23973009436E-01  0.90224057616E-01  0.51100000000E-03 0. -1.
         11    1    4    4    0    0 -0.18967160262E-01  0.44718888319E-01 -0.67352495286E-02  0.49042398474E-01  0.51100000000E-03 0.  1.
</event>
<event>
 8    1  0.2107254E+004  0.1043930E+01  0.7957747E-01            NaN
         13   -1    0    0    0    0  0.00000000000E+00  0.00000000000E+00  0.74505805969E-08  0.10566000000E+00  0.10566000000E+00 0.  1.
     999900   -1    0    0    0    0 -0.00000000000E+00 -0.00000000000E+00 -0.74505805969E-08  0.93827000000E+00  0.93827000000E+00 0.  1.
     999902    2    1    2    0    0 -0.55784492738E-02  0.36835587005E-02 -0.12813630129E-01  0.10294774287E+01  0.10293759757E+01 0.  0.
     999903    2    3    3    0    0  0.68047456844E-01 -0.69730177823E-01 -0.90630959609E-01  0.13994615461E+00  0.43338219488E-01 0.  0.
         14    1    1    2    0    0  0.55784492738E-02 -0.36835587005E-02  0.12813630129E-01  0.14452571331E-01  0.00000000000E+00 0.  1.
     999901    1    3    3    0    0 -0.73625906118E-01  0.73413736523E-01  0.77817329481E-01  0.88953127406E+00  0.88000000000E+00 0. -1.
        -11    1    4    4    0    0  0.22784009543E-01 -0.32790029485E-01 -0.64685440299E-01  0.76018184878E-01  0.51100000000E-03 0.  1.
         11    1    4    4    0    0  0.45263447301E-01 -0.36940148338E-01 -0.25945519310E-01  0.63927969732E-01  0.51100000000E-03 0. -1.
</event>
<event>
 8    1  0.2107254E+004  0.1043930E+01  0.7957747E-01            NaN
         13   -1    0    0    0    0  0.00000000000E+00  0.00000000000E+00  0.74505805969E-08  0.10566000000E+00  0.10566000000E+00 0.  1.
     999900   -1    0    0    0    0 -0.00000000000E+00 -0.00000000000E+00 -0.74505805969E-08  0.93827000000E+00  0.93827000000E+00 0. -1.
     999902    2    1    2    0    0  0.46578016590E-02 -0.44506037705E-03  0.15003875512E-01  0.10282134649E+01  0.10280933420E+01 0.  0.
     999903    2    3    3    0    0 -0.24422124377E-01  0.51776412375E-01  0.12037330839E+00  0.13991428011E+00  0.42532756439E-01 0.  0.
         14    1    1    2    0    0 -0.46578016590E-02  0.44506037705E-03 -0.15003875512E-01  0.15716535096E-01  0.00000000000E+00 0. -1.
     999901    1    3    3    0    0  0.29079926036E-01 -0.52221472752E-01 -0.10536943287E+00  0.88829918479E+00  0.88000000000E+00 0.  1.
        -11    1    4    4    0    0 -0.33089506988E-01  0.40871009667E-01  0.11179534890E+00  0.12354681729E+00  0.51100000000E-03 0. -1.
         11    1    4    4    0    0  0.86673826103E-02  0.10905402708E-01  0.85779594821E-02  0.16367462828E-01  0.51100000000E-03 0.  1.
</event>
<event>
 8    1  0.2107254E+004  0.1043930E+01  0.7957747E-01            NaN
         13   -1    0    0    0    0  0.00000000000E+00  0.00000000000E+00  0.74505805969E-08  0.10566000000E+00  0.10566000000E+00 0. -1.
     999900   -1    0    0    0    0 -0.00000000000E+00 -0.00000000000E+00 -0.74505805969E-08  0.93827000000E+00  0.93827000000E+00 0. -1.
     999902    2    1    2    0    0  0.95416990030E-02 -0.85783193392E-02  0.59808663284E-02  0.10297736465E+01  0.10296763378E+01 0.  0.
     999903    2    3    3    0    0 -0.10391537476E+00  0.25115608774E-01 -0.74968391894E-01  0.13816803257E+00  0.45176836165E-01 0.  0.
         14    1    1    2    0    0 -0.95416990030E-02  0.85783193392E-02 -0.59808663284E-02  0.14156353506E-01  0.00000000000E+00 0.  1.
     999901    1    3    3    0    0  0.11345707376E+00 -0.33693928114E-01  0.80949258222E-01  0.89160561393E+00  0.88000000000E+00 0. -1.
        -11    1    4    4    0    0 -0.81993283938E-01  0.32691409728E-01 -0.41741986092E-01  0.97643644980E-01  0.51100000000E-03 0. -1.
         11    1    4    4    0    0 -0.21922090817E-01 -0.75758009541E-02 -0.33226405802E-01  0.40524387588E-01  0.51100000000E-03 0.  1.
</event>
<event>
 8    1  0.2107254E+004  0.1043930E+01  0.7957747E-01            NaN
         13   -1    0    0    0    0  0.00000000000E+00  0.00000000000E+00  0.74505805969E-08  0.10566000000E+00  0.10566000000E+00 0. -1.
     999900   -1    0    0    0    0 -0.00000000000E+00 -0.00000000000E+00 -0.74505805969E-08  0.93827000000E+00  0.93827000000E+00 0.  1.
     999902    2    1    2    0    0  0.56106834086E-02  0.94547069697E-02 -0.14322308194E-01  0.10258745364E+01  0.10257156354E+01 0.  0.
     999903    2    3    3    0    0 -0.27086052813E-01 -0.12426964929E+00  0.40835755599E-02  0.13498169408E+00  0.45019797380E-01 0.  0.
         14    1    1    2    0    0 -0.56106834086E-02 -0.94547069697E-02  0.14322308194E-01  0.18055463555E-01  0.00000000000E+00 0. -1.
     999901    1    3    3    0    0  0.32696736222E-01  0.13372435626E+00 -0.18405883754E-01  0.89089284236E+00  0.88000000000E+00 0. -1.
        -11    1    4    4    0    0 -0.23896696428E-01 -0.39980496090E-01 -0.14150126013E-01  0.48682433741E-01  0.51100000000E-03 0.  1.
         11    1    4    4    0    0 -0.31893563851E-02 -0.84289153200E-01  0.18233701573E-01  0.86299260340E-01  0.51100000000E-03 0. -1.
</event>
<event>
 8    1  0.2107254E+004  0.1043930E+01  0.7957747E-01            NaN
         13   -1    0    0    0    0  0.00000000000E+00  0.00000000000E+00  0.74505805969E-08  0.10566000000E+00  0.10566000000E+00 0.  1.
     999900   -1    0    0    0    0 -0.00000000000E+00 -0.00000000000E+00 -0.74505805969E-08  0.93827000000E+00  0.93827000000E+00 0.  1.
     999902    2    1    2    0    0  0.87858857943E-03  0.77206439257E-02 -0.11741425633E-01  0.10298501798E+01  0.10297539277E+01 0.  0.
     999903    2    3    3    0    0 -0.59714666170E-01  0.84664502089E-01 -0.85301427262E-01  0.14136665511E+00  0.44432852879E-01 0.  0.
         14    1    1    2    0    0 -0.87858857943E-03 -0.77206439257E-02  0.11741425633E-01  0.14079820184E-01  0.00000000000E+00 0.  1.
     999901    1    3    3    0    0  0.60593254750E-01 -0.76943858164E-01  0.73560001629E-01  0.88848352470E+00  0.88000000000E+00 0. -1.
        -11    1    4    4    0    0 -0.20287583129E-01  0.11655188536E-02 -0.13612188171E-01  0.24464203466E-01  0.51100000000E-03 0.  1.
         11    1    4    4    0    0 -0.39427083041E-01  0.83498983236E-01 -0.71689239091E-01  0.11690245165E+00  0.51100000000E-03 0. -1.
</event>
<event>
 7    1  0.2107254E+004  0.1043930E+01  0.7957747E-01            NaN
         13   -1    0    0    0    0  0.00000000000E+00  0.00000000000E+00  0.74505805969E-08  0.10566000000E+00  0.10566000000E+00 0. -1.
     999900   -1    0    0    0    0 -0.00000000000E+00 -0.00000000000E+00 -0.74505805969E-08  0.93827000000E+00  0.93827000000E+00 0. -1.
     999903    2    1    2    0    0  0.48269607337E-02 -0.83514912967E-01 -0.28933588094E-01  0.10066930204E+00  0.47949093993E-01 0.  0.
         14    1    1    2    0    0  0.51556889309E-01  0.14302220881E-01 -0.20661762005E-01  0.57354814676E-01  0.00000000000E+00 0.  1.
     999901    1    1    2    0    0 -0.56383850042E-01  0.69212692086E-01  0.49595350100E-01  0.88590588329E+00  0.88000000000E+00 0.  1.
        -11    1    3    3    0    0  0.11405561944E-01 -0.81638927769E-02 -0.20100579235E-01  0.24515921258E-01  0.51100000000E-03 0. -1.
         11    1    3    3    0    0 -0.65786012103E-02 -0.75351020190E-01 -0.88330088592E-02  0.76153380779E-01  0.51100000000E-03 0.  1.
</event>
<event>
 8    1  0.2107254E+004  0.1043930E+01  0.7957747E-01            NaN
         13   -1    0    0    0    0  0.00000000000E+00  0.00000000000E+00  0.74505805969E-08  0.10566000000E+00  0.10566000000E+00 0.  1.
     999900   -1    0    0    0    0 -0.00000000000E+00 -0.00000000000E+00 -0.74505805969E-08  0.93827000000E+00  0.93827000000E+00 0. -1.
     999902    2    1    2    0    0  0.66728604162E-03  0.10994537167E-01 -0.41421588923E-03  0.10329074462E+01  0.10328486315E+01 0.  0.
     999903    2    3    3    0    0 -0.39964468085E-01 -0.30782820346E-02  0.12848776706E+00  0.14247794032E+00  0.46735667987E-01 0.  0.
         14    1    1    2    0    0 -0.66728604162E-03 -0.10994537167E-01  0.41421588923E-03  0.11022553832E-01  0.00000000000E+00 0. -1.
     999901    1    3    3    0    0  0.40631754127E-01  0.14072819202E-01 -0.12890198295E+00  0.89042950585E+00  0.88000000000E+00 0.  1.
        -11    1    4    4    0    0 -0.24722660096E-01  0.16071889967E-01  0.34660672291E-01  0.45509767017E-01  0.51100000000E-03 0. -1.
         11    1    4    4    0    0 -0.15241807990E-01 -0.19150172001E-01  0.93827094772E-01  0.96968173298E-01  0.51100000000E-03 0.  1.
</event>
<event>
 8    1  0.2107254E+004  0.1043930E+01  0.7957747E-01            NaN
         13   -1    0    0    0    0  0.00000000000E+00  0.00000000000E+00  0.74505805969E-08  0.10566000000E+00  0.10566000000E+00 0.  1.
     999900   -1    0    0    0    0 -0.00000000000E+00 -0.00000000000E+00 -0.74505805969E-08  0.93827000000E+00  0.93827000000E+00 0. -1.
     999902    2    1    2    0    0  0.59452107988E-02  0.64256474964E-02 -0.10645066684E-01  0.10301476953E+01  0.10300554948E+01 0.  0.
     999903    2    3    3    0    0 -0.94957838725E-02 -0.10212249389E+00 -0.83973533271E-01  0.14031726917E+00  0.46023994489E-01 0.  0.
         14    1    1    2    0    0 -0.59452107988E-02 -0.64256474964E-02  0.10645066684E-01  0.13782304666E-01  0.00000000000E+00 0.  1.
     999901    1    3    3    0    0  0.15440994671E-01  0.10854814138E+00  0.73328466587E-01  0.88983042616E+00  0.88000000000E+00 0.  1.
        -11    1    4    4    0    0 -0.89798116407E-02  0.77497210500E-03 -0.34840242559E-02  0.96766287974E-02  0.51100000000E-03 0.  1.
         11    1    4    4    0    0 -0.51597223180E-03 -0.10289746599E+00 -0.80489509015E-01  0.13064064037E+00  0.51100000000E-03 0. -1.
</event>
<event>
 8    1  0.2107254E+004  0.1043930E+01  0.7957747E-01            NaN
         13   -1    0    0    0    0  0.00000000000E+00  0.00000000000E+00  0.74505805969E-08  0.10566000000E+00  0.10566000000E+00 0. -1.
     999900   -1    0    0    0    0 -0.00000000000E+00 -0.00000000000E+00 -0.74505805969E-08  0.93827000000E+00  0.93827000000E+00 0. -1.
     999902    2    1    2    0    0  0.84633500520E-02 -0.12540148184E-01 -0.10924257003E-01  0.10252692658E+01  0.10250994314E+01 0.  0.
     999903    2    3    3    0    0 -0.30641800108E-02  0.11516551334E+00 -0.54232269373E-01  0.13492258955E+00  0.44614812188E-01 0.  0.
         14    1    1    2    0    0 -0.84633500520E-02  0.12540148184E-01  0.10924257003E-01  0.18660734221E-01  0.00000000000E+00 0. -1.
     999901    1    3    3    0    0  0.11527530063E-01 -0.12770566153E+00  0.43308012370E-01  0.89034667623E+00  0.88000000000E+00 0.  1.
        -11    1    4    4    0    0  0.18074064309E-01  0.24577825908E-01 -0.12719025171E-01  0.33057163358E-01  0.51100000000E-03 0. -1.
         11    1    4    4    0    0 -0.21138244320E-01  0.90587687437E-01 -0.41513244203E-01  0.10186542619E+00  0.51100000000E-03 0.  1.
</event>
<event>
 8    1  0.2107254E+004  0.1043930E+01  0.7957747E-01            NaN
         13   -1    0    0    0    0  0.00000000000E+00  0.00000000000E+00  0.74505805969E-08  0.10566000000E+00  0.10566000000E+00 0.  1.
     999900   -1    0    0    0    0 -0.00000000000E+00 -0.00000000000E+00 -0.74505805969E-08  0.93827000000E+00  0.93827000000E+00 0. -1.
     999902    2    1    2    0    0  0.53047218310E-03 -0.11308117074E-01 -0.26362832885E-02  0.10323065366E+01  0.10322410961E+01 0.  0.
     999903    2    3    3    0    0 -0.91607730878E-01 -0.16223374891E-02 -0.98608836841E-01  0.14225373262E+00  0.46019706704E-01 0.  0.
         14    1    1    2    0    0 -0.53047218310E-03  0.11308117074E-01  0.26362832885E-02  0.11623463429E-01  0.00000000000E+00 0.  1.
     999901    1    3    3    0    0  0.92138203061E-01 -0.96857795853E-02  0.95972553553E-01  0.89005280395E+00  0.88000000000E+00 0.  1.
        -11    1    4    4    0    0 -0.99257556514E-02  0.91950197515E-02 -0.36915597584E-01  0.39320369778E-01  0.51100000000E-03 0. -1.
         11    1    4    4    0    0 -0.81681975226E-01 -0.10817357241E-01 -0.61693239257E-01  0.10293336284E+00  0.51100000000E-03 0.  1.
</event>
<event>
 8    1  0.2107254E+004  0.1043930E+01  0.7957747E-01            NaN
         13   -1    0    0    0    0  0.00000000000E+00  0.00000000000E+00  0.74505805969E-08  0.10566000000E+00  0.10566000000E+00 0. -1.
     999900   -1    0    0    0    0 -0.00000000000E+00 -0.00000000000E+00 -0.74505805969E-08  0.93827000000E+00  0.93827000000E+00 0.  1.
     999902    2    1    2    0    0  0.69596746385E-02 -0.94987214221E-02  0.14274112547E-02  0.10320682850E+01  0.10320001185E+01 0.  0.
     999903    2    3    3    0    0 -0.51144988764E-01  0.10385827784E+00 -0.65531139449E-01  0.14037920876E+00  0.44829011386E-01 0.  0.
         14    1    1    2    0    0 -0.69596746385E-02  0.94987214221E-02 -0.14274112547E-02  0.11861714995E-01  0.00000000000E+00 0.  1.
     999901    1    3    3    0    0  0.58104663402E-01 -0.11335699926E+00  0.66958550704E-01  0.89168907625E+00  0.88000000000E+00 0. -1.
        -11    1    4    4    0    0 -0.26091609767E-01  0.25637771552E-01 -0.40359845423E-01  0.54472430402E-01  0.51100000000E-03 0.  1.
         11    1    4    4    0    0 -0.25053378997E-01  0.78220506288E-01 -0.25171294026E-01  0.85906778353E-01  0.51100000000E-03 0. -1.
</event>
<event>
 8    1  0.2107254E+004  0.1043930E+01  0.7957747E-01            NaN
         13   -1    0    0    0    0  0.00000000000E+00  0.00000000000E+00  0.74505805969E-08  0.10566000000E+00  0.10566000000E+00 0. -1.
     999900   -1    0    0    0    0 -0.00000000000E+00 -0.00000000000E+00 -0.74505805969E-08  0.93827000000E+00  0.93827000000E+00 0.  1.
     999902    2    1    2    0    0 -0.12827243589E-01 -0.16756949582E-02 -0.55207222164E-02  0.10298649900E+01  0.10297689416E+01 0.  0.
     999903    2    3    3    0    0  0.26521575406E-01 -0.88973119553E-01 -0.94857659498E-01  0.14017388731E+00  0.45068094621E-01 0.  0.
         14    1    1    2    0    0  0.12827243589E-01  0.16756949582E-02  0.55207222164E-02  0.14065009970E-01  0.00000000000E+00 0.  1.
     999901    1    3    3    0    0 -0.39348818995E-01  0.87297424595E-01  0.89336937282E-01  0.88969110272E+00  0.88000000000E+00 0.  1.
        -11    1    4    4    0    0 -0.16179217193E-02 -0.19699774874E-01 -0.48049692961E-01  0.51958954141E-01  0.51100000000E-03 0. -1.
         11    1    4    4    0    0  0.28139497126E-01 -0.69273344679E-01 -0.46807966537E-01  0.88214933168E-01  0.51100000000E-03 0.  1.
</event>
<event>
 8    1  0.2107254E+004  0.1043930E+01  0.7957747E-01            NaN
         13   -1    0    0    0    0  0.00000000000E+00  0.00000000000E+00  0.74505805969E-08  0.10566000000E+00  0.10566000000E+00 0. -1.
     999900   -1    0    0    0    0 -0.00000000000E+00 -0.00000000000E+00 -0.74505805969E-08  0.93827000000E+00  0.93827000000E+00 0.  1.
     999902    2    1    2    0    0 -0.21008223114E-02 -0.17764197497E-03  0.14188326602E-01  0.10295858854E+01  0.10294859600E+01 0.  0.
     999903    2    3    3    0    0  0.10489607208E+00 -0.61791269252E-01  0.55052341816E-01  0.14002731950E+00  0.41899200169E-01 0.  0.
         14    1    1    2    0    0  0.21008223114E-02  0.17764197497E-03 -0.14188326602E-01  0.14344114571E-01  0.00000000000E+00 0.  1.
     999901    1    3    3    0    0 -0.10699689439E+00  0.61613627277E-01 -0.40864015214E-01  0.88955856593E+00  0.88000000000E+00 0. -1.
        -11    1    4    4    0    0  0.48081488627E-01 -0.44863962256E-01  0.12222520301E-01  0.66889878019E-01  0.51100000000E-03 0.  1.
         11    1    4    4    0    0  0.56814583449E-01 -0.16927306996E-01  0.42829821516E-01  0.73137441483E-01  0.51100000000E-03 0. -1.
</event>
<event>
 8    1  0.2107254E+004  0.1043930E+01  0.7957747E-01            NaN
         13   -1    0    0    0    0  0.00000000000E+00  0.00000000000E+00  0.74505805969E-08  0.10566000000E+00  0.10566000000E+00 0. -1.
     999900   -1    0    0    0    0 -0.00000000000E+00 -0.00000000000E+00 -0.74505805969E-08  0.93827000000E+00  0.93827000000E+00 0.  1.
     999902    2    1    2    0    0  0.12554757312E-01  0.68438210843E-02 -0.11196917166E-02  0.10295872831E+01  0.10294873773E+01 0.  0.
     999903    2    3    3    0    0  0.65012685109E-01 -0.11374262047E+00  0.16578913294E-01  0.13964000114E+00  0.45392032498E-01 0.  0.
         14    1    1    2    0    0 -0.12554757312E-01 -0.68438210843E-02  0.11196917166E-02  0.14342716888E-01  0.00000000000E+00 0. -1.
     999901    1    3    3    0    0 -0.52457927797E-01  0.12058644156E+00 -0.17698605011E-01  0.88994728198E+00  0.88000000000E+00 0.  1.
        -11    1    4    4    0    0  0.55917459522E-01 -0.57970801597E-01 -0.69201401939E-03  0.80548843080E-01  0.51100000000E-03 0.  1.
         11    1    4    4    0    0  0.90952255878E-02 -0.55771818876E-01  0.17270927314E-01  0.59091158056E-01  0.51100000000E-03 0. -1.
</event>
<event>
 8    1  0.2107254E+004  0.1043930E+01  0.7957747E-01            NaN
         13   -1    0    0    0    0  0.00000000000E+00  0.00000000000E+00  0.74505805969E-08  0.10566000000E+00  0.10566000000E+00 0. -1.
     999900   -1    0    0    0    0 -0.00000000000E+00 -0.00000000000E+00 -0.74505805969E-08  0.93827000000E+00  0.93827000000E+00 0.  1.
     999902    2    1    2    0    0  0.15428841660E-01  0.35789634547E-03  0.81342721685E-02  0.10264845528E+01  0.10263362965E+01 0.  0.
     999903    2    3    3    0    0 -0.22714727262E-01 -0.39786561226E-01 -0.11949177855E+00  0.13555530860E+00  0.44699298212E-01 0.  0.
         14    1    1    2    0    0 -0.15428841660E-01 -0.35789634547E-03 -0.81342721685E-02  0.17445447214E-01  0.00000000000E+00 0.  1.
     999901    1    3    3    0    0  0.38143568923E-01  0.40144457571E-01  0.12762605072E+00  0.89092924419E+00  0.88000000000E+00 0. -1.
        -11    1    4    4    0    0 -0.13450119526E-01 -0.48386576617E-01 -0.10447242535E+00  0.11591770914E+00  0.51100000000E-03 0. -1.
         11    1    4    4    0    0 -0.92646077366E-02  0.86000153907E-02 -0.15019353195E-01  0.19637599462E-01  0.51100000000E-03 0.  1.
</event>
<event>
 8    1  0.2107254E+004  0.1043930E+01  0.7957747E-01            NaN
         13   -1    0    0    0    0  0.00000000000E+00  0.00000000000E+00  0.74505805969E-08  0.10566000000E+00  0.10566000000E+00 0.  1.
     999900   -1    0    0    0    0 -0.00000000000E+00 -0.00000000000E+00 -0.74505805969E-08  0.93827000000E+00  0.93827000000E+00 0.  1.
     999902    2    1    2    0    0 -0.85226134721E-02  0.61858074872E-02 -0.89227328916E-02  0.10301273076E+01  0.10300348322E+01 0.  0.
     999903    2    3    3    0    0 -0.10445780191E+00 -0.23343480100E-01 -0.80401255191E-01  0.14154151077E+00  0.45970501337E-01 0.  0.
         14    1    1    2    0    0  0.85226134721E-02 -0.61858074872E-02  0.89227328916E-02  0.13802692379E-01  0.00000000000E+00 0.  1.
     999901    1    3    3    0    0  0.95935188437E-01  0.29529287587E-01  0.71478522300E-01  0.88858579685E+00  0.88000000000E+00 0. -1.
        -11    1    4    4    0    0 -0.48332742044E-01 -0.10151907349E-01 -0.65419595434E-01  0.81970115066E-01  0.51100000000E-03 0.  1.
         11    1    4    4    0    0 -0.56125059866E-01 -0.13191572751E-01 -0.14981659758E-01  0.59571395708E-01  0.51100000000E-03 0. -1.
</event>
<event>
 8    1  0.2107254E+004  0.1043930E+01  0.7957747E-01            NaN
         13   -1    0    0    0    0  0.00000000000E+00  0.00000000000E+00  0.74505805969E-08  0.10566000000E+00  0.10566000000E+00 0.  1.
     999900   -1    0    0    0    0 -0.00000000000E+00 -0.00000000000E+00 -0.74505805969E-08  0.93827000000E+00  0.93827000000E+00 0.  1.
     999902    2    1    2    0    0 -0.43916386902E-02  0.47935048913E-02 -0.10259969924E-01  0.10317837593E+01  0.10317122636E+01 0.  0.
     999903    2    3    3    0    0 -0.10526001140E+00  0.12258801203E-01  0.81625461231E-01  0.14123724639E+00  0.45335368530E-01 0.  0.
         14    1    1    2    0    0  0.43916386902E-02 -0.47935048913E-02  0.10259969924E-01  0.12146240668E-01  0.00000000000E+00 0.  1.
     999901    1    3    3    0    0  0.10086837271E+00 -0.74652963118E-02 -0.91885431154E-01  0.89054651295E+00  0.88000000000E+00 0.  1.
        -11    1    4    4    0    0 -0.43730903051E-01  0.21944548450E-01  0.17836128188E-01  0.52080165880E-01  0.51100000000E-03 0.  1.
         11    1    4    4    0    0 -0.61529108344E-01 -0.96857472470E-02  0.63789333043E-01  0.89157080507E-01  0.51100000000E-03 0. -1.
</event>
<event>
 8    1  0.2107254E+004  0.1043930E+01  0.7957747E-01            NaN
         13   -1    0    0    0    0  0.00000000000E+00  0.00000000000E+00  0.74505805969E-08  0.10566000000E+00  0.10566000000E+00 0. -1.
     999900   -1    0    0    0    0 -0.00000000000E+00 -0.00000000000E+00 -0.74505805969E-08  0.93827000000E+00  0.93827000000E+00 0. -1.
     999902    2    1    2    0    0  0.43469290916E-03 -0.39502442743E-02  0.13119228416E-01  0.10302220628E+01  0.10301308612E+01 0.  0.
     999903    2    3    3    0    0  0.66073617086E-01  0.11020260322E+00  0.34633886607E-01  0.14016463687E+00  0.44003212331E-01 0.  0.
         14    1    1    2    0    0 -0.43469290916E-03  0.39502442743E-02 -0.13119228416E-01  0.13707937189E-01  0.00000000000E+00 0.  1.
     999901    1    3    3    0    0 -0.65638924176E-01 -0.11415284750E+00 -0.21514658191E-01  0.89005742594E+00  0.88000000000E+00 0.  1.
        -11    1    4    4    0    0  0.14768389677E-01  0.13353789063E-01 -0.94321614604E-02  0.22037599842E-01  0.51100000000E-03 0. -1.
         11    1    4    4    0    0  0.51305227409E-01  0.96848814158E-01  0.44066048068E-01  0.11812703703E+00  0.51100000000E-03 0.  1.
</event>
<event>
 8    1  0.2107254E+004  0.1043930E+01  0.7957747E-01            NaN
         13   -1    0    0    0    0  0.00000000000E+00  0.00000000000E+00  0.74505805969E-08  0.10566000000E+00  0.10566000000E+00 0.  1.
     999900   -1    0    0    0    0 -0.00000000000E+00 -0.00000000000E+00 -0.74505805969E-08  0.93827000000E+00  0.93827000000E+00 0.  1.
     999902    2    1    2    0    0 -0.61517801952E-02 -0.11445205124E-01 -0.39505791666E-02  0.10303489766E+01  0.10302594671E+01 0.  0.
     999903    2    3    3    0    0 -0.63766796275E-01 -0.11691783762E+00 -0.21164527100E-01  0.14201329330E+00  0.44540467060E-01 0.  0.
         14    1    1    2    0    0  0.61517801952E-02  0.11445205124E-01  0.39505791666E-02  0.13581023365E-01  0.00000000000E+00 0. -1.
     999901    1    3    3    0    0  0.57615016080E-01  0.10547263249E+00  0.17213947934E-01  0.88833568334E+00  0.88000000000E+00 0.  1.
        -11    1    4    4    0    0 -0.42618365185E-01 -0.88553097909E-01  0.43763464578E-02  0.98373724793E-01  0.51100000000E-03 0. -1.
         11    1    4    4    0    0 -0.21148431090E-01 -0.28364739709E-01 -0.25540873558E-01  0.43639568507E-01  0.51100000000E-03 0.  1.
</event>
<event>
 8    1  0.2107254E+004  0.1043930E+01  0.7957747E-01            NaN
         13   -1    0    0    0    0  0.00000000000E+00  0.00000000000E+00  0.74505805969E-08  0.10566000000E+00  0.10566000000E+00 0. -1.
     999900   -1    0    0    0    0 -0.00000000000E+00 -0.00000000000E+00 -0.74505805969E-08  0.93827000000E+00  0.93827000000E+00 0. -1.
     999902    2    1    2    0    0  0.49483206362E-02 -0.28916594309E-02 -0.12993598379E-01  0.10297285504E+01  0.10296306165E+01 0.  0.
     999903    2    3    3    0    0 -0.78718489914E-01 -0.67886474370E-01 -0.82340807906E-01  0.14066528123E+00  0.46920556682E-01 0.  0.
         14    1    1    2    0    0 -0.49483206362E-02  0.28916594309E-02  0.12993598379E-01  0.14201449581E-01  0.00000000000E+00 0. -1.
     999901    1    3    3    0    0  0.83666810550E-01  0.64994814939E-01  0.69347209527E-01  0.88906326919E+00  0.88000000000E+00 0.  1.
        -11    1    4    4    0    0 -0.38924560802E-01 -0.60154467311E-01 -0.40066912774E-01  0.82093239620E-01  0.51100000000E-03 0. -1.
         11    1    4    4    0    0 -0.39793929112E-01 -0.77320070588E-02 -0.42273895132E-01  0.58572041606E-01  0.51100000000E-03 0.  1.
</event>
<event>
 8    1  0.2107254E+004  0.1043930E+01  0.7957747E-01            NaN
         13   -1    0    0    0    0  0.00000000000E+00  0.00000000000E+00  0.74505805969E-08  0.10566000000E+00  0.10566000000E+00 0. -1.
     999900   -1    0    0    0    0 -0.00000000000E+00 -0.00000000000E+00 -0.74505805969E-08  0.93827000000E+00  0.93827000000E+00 0.  1.
     999902    2    1    2    0    0  0.12255623920E-02 -0.11349151276E-01  0.73299174721E-02  0.10303641263E+01  0.10302748177E+01 0.  0.
     999903    2    3    3    0    0  0.46737563883E-01 -0.13698333718E-01  0.12595309904E+00  0.14123628394E+00  0.41369802029E-01 0.  0.
         14    1    1    2    0    0 -0.12255623920E-02  0.11349151276E-01 -0.73299174721E-02  0.13565873655E-01  0.00000000000E+00 0.  1.
     999901    1    3    3    0    0 -0.45512001491E-01  0.23491824419E-02 -0.11862318156E+00  0.88912784241E+00  0.88000000000E+00 0.  1.
        -11    1    4    4    0    0 -0.62005311010E-02  0.27167349382E-02  0.26761058163E-01  0.27608741182E-01  0.51100000000E-03 0.  1.
         11    1    4    4    0    0  0.52938094984E-01 -0.16415068656E-01  0.99192040873E-01  0.11362754276E+00  0.51100000000E-03 0. -1.
</event>
<event>
 8    1  0.2107254E+004  0.1043930E+01  0.7957747E-01            NaN
         13   -1    0    0    0    0  0.00000000000E+00  0.00000000000E+00  0.74505805969E-08  0.10566000000E+00  0.10566000000E+00 0. -1.
     999900   -1    0    0    0    0 -0.00000000000E+00 -0.00000000000E+00 -0.74505805969E-08  0.93827000000E+00  0.93827000000E+00 0. -1.
     999902    2    1    2    0    0 -0.94726494863E-02 -0.79449453218E-02  0.32509574493E-02  0.10311463398E+01  0.10310670939E+01 0.  0.
     999903    2    3    3    0    0  0.41212122866E-01  0.11658339400E+00  0.47968580377E-01  0.13981255311E+00  0.44231645662E-01 0.  0.
         14    1    1    2    0    0  0.94726494863E-02  0.79449453218E-02 -0.32509574493E-02  0.12783660227E-01  0.00000000000E+00 0.  1.
     999901    1    3    3    0    0 -0.50684772352E-01 -0.12452833932E+00 -0.44717622928E-01  0.89133378666E+00  0.88000000000E+00 0.  1.
        -11    1    4    4    0    0  0.44165770832E-01  0.86470376945E-01  0.50499664419E-01  0.10944504845E+00  0.51100000000E-03 0. -1.
         11    1    4    4    0    0 -0.29536479665E-02  0.30113017051E-01 -0.25310840418E-02  0.30367504666E-01  0.51100000000E-03 0.  1.
</event>
<event>
 8    1  0.2107254E+004  0.1043930E+01  0.7957747E-01            NaN
         13   -1    0    0    0    0  0.00000000000E+00  0.00000000000E+00  0.74505805969E-08  0.10566000000E+00  0.10566000000E+00 0.  1.
     999900   -1    0    0    0    0 -0.00000000000E+00 -0.00000000000E+00 -0.74505805969E-08  0.93827000000E+00  0.93827000000E+00 0.  1.
     999902    2    1    2    0    0  0.54012720596E-03 -0.10044013152E-01 -0.96720830736E-02  0.10299756771E+01  0.10298811447E+01 0.  0.
     999903    2    3    3    0    0  0.13144157794E-02 -0.74690147750E-01  0.10905188156E+00  0.13965264467E+00  0.45057767700E-01 0.  0.
         14    1    1    2    0    0 -0.54012720596E-03  0.10044013152E-01  0.96720830736E-02  0.13954322936E-01  0.00000000000E+00 0.  1.
     999901    1    3    3    0    0 -0.77428857347E-03  0.64646134597E-01 -0.11872396464E+00  0.89032303240E+00  0.88000000000E+00 0.  1.
        -11    1    4    4    0    0  0.11641505346E-01 -0.47649638348E-01  0.96186437946E-01  0.10797270325E+00  0.51100000000E-03 0. -1.
         11    1    4    4    0    0 -0.10327089566E-01 -0.27040509402E-01  0.12865443616E-01  0.31679941415E-01  0.51100000000E-03 0.  1.
</event>
<event>
 7    1  0.2107254E+004  0.1043930E+01  0.7957747E-01            NaN
         13   -1    0    0    0    0  0.00000000000E+00  0.00000000000E+00  0.74505805969E-08  0.10566000000E+00  0.10566000000E+00 0. -1.
     999900   -1    0    0    0    0 -0.00000000000E+00 -0.00000000000E+00 -0.74505805969E-08  0.93827000000E+00  0.93827000000E+00 0. -1.
     999903    2    1    2    0    0 -0.36574027998E-01 -0.16101251657E-01 -0.41244265375E-01  0.73052632384E-01  0.45151831003E-01 0.  0.
         14    1    1    2    0    0  0.32298722203E-01  0.64080797444E-01  0.53444534265E-01  0.89475551409E-01  0.00000000000E+00 0. -1.
     999901    1    1    2    0    0  0.42753057953E-02 -0.47979545787E-01 -0.12200268890E-01  0.88140181621E+00  0.88000000000E+00 0. -1.
        -11    1    3    3    0    0 -0.25735425682E-01  0.10556638080E-01 -0.32899214404E-01  0.43085660863E-01  0.51100000000E-03 0.  1.
         11    1    3    3    0    0 -0.10838602317E-01 -0.26657889737E-01 -0.83450509710E-02  0.29966971521E-01  0.51100000000E-03 0. -1.
</event>
<event>
 8    1  0.2107254E+004  0.1043930E+01  0.7957747E-01            NaN
         13   -1    0    0    0    0  0.00000000000E+00  0.00000000000E+00  0.74505805969E-08  0.10566000000E+00  0.10566000000E+00 0.  1.
     999900   -1    0    0    0    0 -0.00000000000E+00 -0.00000000000E+00 -0.74505805969E-08  0.93827000000E+00  0.93827000000E+00 0. -1.
     999902    2    1    2    0    0  0.10359814012E-01  0.93961818237E-02 -0.24803200314E-03  0.10299415941E+01  0.10298465962E+01 0.  0.
     999903    2    3    3    0    0 -0.17485762741E-01 -0.12931743688E+00  0.13383014781E-01  0.13853672000E+00  0.44548471621E-01 0.  0.
         14    1    1    2    0    0 -0.10359814012E-01 -0.93961818237E-02  0.24803200314E-03  0.13988405881E-01  0.00000000000E+00 0.  1.
     999901    1    3    3    0    0  0.27845576753E-01  0.13871361871E+00 -0.13631046784E-01  0.89140487412E+00  0.88000000000E+00 0. -1.
        -11    1    4    4    0    0 -0.20960816957E-01 -0.54925553074E-01 -0.11713796202E-01  0.59947029705E-01  0.51100000000E-03 0. -1.
         11    1    4    4    0    0  0.34750542161E-02 -0.74391883811E-01  0.25096810984E-01  0.78589690299E-01  0.51100000000E-03 0.  1.
</event>
<event>
 8    1  0.2107254E+004  0.1043930E+01  0.7957747E-01            NaN
         13   -1    0    0    0    0  0.00000000000E+00  0.00000000000E+00  0.74505805969E-08  0.10566000000E+00  0.10566000000E+00 0. -1.
     999900   -1    0    0    0    0 -0.00000000000E+00 -0.00000000000E+00 -0.74505805969E-08  0.93827000000E+00  0.93827000000E+00 0.  1.
     999902    2    1    2    0    0 -0.12812541008E-01 -0.63501893511E-02 -0.21682777066E-03  0.10296284922E+01  0.10295291636E+01 0.  0.
     999903    2    3    3    0    0 -0.75877560617E-01  0.38016665782E-01 -0.10242864591E+00  0.14036313790E+00  0.44805266393E-01 0.  0.
         14    1    1    2    0    0  0.12812541008E-01  0.63501893511E-02  0.21682777066E-03  0.14301507828E-01  0.00000000000E+00 0. -1.
     999901    1    3    3    0    0  0.63065019609E-01 -0.44366855133E-01  0.10221181814E+00  0.88926535427E+00  0.88000000000E+00 0. -1.
        -11    1    4    4    0    0 -0.69282540714E-01  0.33979540865E-01 -0.61416274898E-01  0.98625045442E-01  0.51100000000E-03 0.  1.
         11    1    4    4    0    0 -0.65950199029E-02  0.40371249164E-02 -0.41012371015E-01  0.41738092462E-01  0.51100000000E-03 0. -1.
</event>
<event>
 8    1  0.2107254E+004  0.1043930E+01  0.7957747E-01            NaN
         13   -1    0    0    0    0  0.00000000000E+00  0.00000000000E+00  0.74505805969E-08  0.10566000000E+00  0.10566000000E+00 0. -1.
     999900   -1    0    0    0    0 -0.00000000000E+00 -0.00000000000E+00 -0.74505805969E-08  0.93827000000E+00  0.93827000000E+00 0. -1.
     999902    2    1    2    0    0  0.63356356950E-02  0.10069352768E-01  0.70327614094E-02  0.10301100189E+01  0.10300173101E+01 0.  0.
     999903    2    3    3    0    0 -0.78010278664E-01 -0.10123318911E-01 -0.10421506006E+00  0.13887601200E+00  0.47304152071E-01 0.  0.
         14    1    1    2    0    0 -0.63356356950E-02 -0.10069352768E-01 -0.70327614094E-02  0.13819981109E-01  0.00000000000E+00 0.  1.
     999901    1    3    3    0    0  0.84345914359E-01  0.20192671679E-01  0.11124782147E+00  0.89123400689E+00  0.88000000000E+00 0.  1.
        -11    1    4    4    0    0 -0.55247636380E-01 -0.13177750600E-02 -0.34839169428E-01  0.65330442399E-01  0.51100000000E-03 0. -1.
         11    1    4    4    0    0 -0.22762642285E-01 -0.88055438512E-02 -0.69375890628E-01  0.73545569600E-01  0.51100000000E-03 0.  1.
</event>
<event>
 8    1  0.2107254E+004  0.1043930E+01  0.7957747E-01            NaN
         13   -1    0    0    0    0  0.00000000000E+00  0.00000000000E+00  0.74505805969E-08  0.10566000000E+00  0.10566000000E+00 0. -1.
     999900   -1    0    0    0    0 -0.00000000000E+00 -0.00000000000E+00 -0.74505805969E-08  0.93827000000E+00  0.93827000000E+00 0. -1.
     999902    2    1    2    0    0 -0.85758326656E-02 -0.10224041438E-01 -0.14657500928E-02  0.10305052336E+01  0.10304177852E+01 0.  0.
     999903    2    3    3    0    0 -0.13317981203E+00  0.15488530333E-01  0.14294970718E-01  0.14121580472E+00  0.41961892361E-01 0.  0.
         14    1    1    2    0    0  0.85758326656E-02  0.10224041438E-01  0.14657500928E-02  0.13424766388E-01  0.00000000000E+00 0. -1.
     999901    1    3    3    0    0  0.12460397936E+00 -0.25712571771E-01 -0.15760720811E-01  0.88928942889E+00  0.88000000000E+00 0.  1.
        -11    1    4    4    0    0 -0.21044205008E-01 -0.54232281682E-02 -0.11018589768E-01  0.24370892673E-01  0.51100000000E-03 0. -1.
         11    1    4    4    0    0 -0.11213560702E+00  0.20911758501E-01  0.25313560486E-01  0.11684491205E+00  0.51100000000E-03 0.  1.
</event>
<event>
 8    1  0.2107254E+004  0.1043930E+01  0.7957747E-01            NaN
         13   -1    0    0    0    0  0.00000000000E+00  0.00000000000E+00  0.74505805969E-08  0.10566000000E+00  0.10566000000E+00 0.  1.
     999900   -1    0    0    0    0 -0.00000000000E+00 -0.00000000000E+00 -0.74505805969E-08  0.93827000000E+00  0.93827000000E+00 0. -1.
     999902    2    1    2    0    0  0.12085315906E-01 -0.12846210084E-01 -0.49103934480E-03  0.10262857065E+01  0.10261340216E+01 0.  0.
     999903    2    3    3    0    0 -0.30524480910E-01 -0.12568672014E+00  0.16300716748E-01  0.13789922608E+00  0.44962068804E-01 0.  0.
         14    1    1    2    0    0 -0.12085315906E-01  0.12846210084E-01  0.49103934480E-03  0.17644293516E-01  0.00000000000E+00 0. -1.
     999901    1    3    3    0    0  0.42609796816E-01  0.11284051006E+00 -0.16791756093E-01  0.88838648041E+00  0.88000000000E+00 0.  1.
        -11    1    4    4    0    0 -0.27026114877E-01 -0.68435165061E-01 -0.10957056645E-01  0.74391537917E-01  0.51100000000E-03 0. -1.
         11    1    4    4    0    0 -0.34983660332E-02 -0.57251555082E-01  0.27257773393E-01  0.63507688161E-01  0.51100000000E-03 0.  1.
</event>
<event>
 8    1  0.2107254E+004  0.1043930E+01  0.7957747E-01            NaN
         13   -1    0    0    0    0  0.00000000000E+00  0.00000000000E+00  0.74505805969E-08  0.10566000000E+00  0.10566000000E+00 0.  1.
     999900   -1    0    0    0    0 -0.00000000000E+00 -0.00000000000E+00 -0.74505805969E-08  0.93827000000E+00  0.93827000000E+00 0.  1.
     999902    2    1    2    0    0 -0.11476438406E-02 -0.67501208601E-02 -0.11604164132E-01  0.10304564020E+01  0.10303683121E+01 0.  0.
     999903    2    3    3    0    0  0.10531323162E+00 -0.81279623941E-01 -0.14543921696E-01  0.14090752363E+00  0.44115196166E-01 0.  0.
         14    1    1    2    0    0  0.11476438406E-02  0.67501208601E-02  0.11604164132E-01  0.13473598005E-01  0.00000000000E+00 0.  1.
     999901    1    3    3    0    0 -0.10646087546E+00  0.74529503081E-01  0.29397575648E-02  0.88954887837E+00  0.88000000000E+00 0.  1.
        -11    1    4    4    0    0  0.96054966464E-01 -0.66964287036E-01  0.20488275331E-02  0.11711204522E+00  0.51100000000E-03 0.  1.
         11    1    4    4    0    0  0.92582651596E-02 -0.14315336905E-01 -0.16592749229E-01  0.23795478404E-01  0.51100000000E-03 0. -1.
</event>
<event>
 8    1  0.2107254E+004  0.1043930E+01  0.7957747E-01            NaN
         13   -1    0    0    0    0  0.00000000000E+00  0.00000000000E+00  0.74505805969E-08  0.10566000000E+00  0.10566000000E+00 0.  1.
     999900   -1    0    0    0    0 -0.00000000000E+00 -0.00000000000E+00 -0.74505805969E-08  0.93827000000E+00  0.93827000000E+00 0.  1.
     999902    2    1    2    0    0 -0.13767730893E-01  0.36551031807E-02  0.24162000150E-03  0.10296832961E+01  0.10295847326E+01 0.  0.
     999903    2    3    3    0    0  0.11556723089E+00 -0.51175044017E-01  0.32506446649E-01  0.13795749940E+00  0.44731784909E-01 0.  0.
         14    1    1    2    0    0  0.13767730893E-01 -0.36551031807E-02 -0.24162000150E-03  0.14246703950E-01  0.00000000000E+00 0.  1.
     999901    1    3    3    0    0 -0.12933496178E+00  0.54830147197E-01 -0.32264826648E-01  0.89172579665E+00  0.88000000000E+00 0.  1.
        -11    1    4    4    0    0  0.19545623508E-01  0.42492455163E-02 -0.55046456888E-02  0.20752101844E-01  0.51100000000E-03 0. -1.
         11    1    4    4    0    0  0.96021607378E-01 -0.55424289533E-01  0.38011092338E-01  0.11720539755E+00  0.51100000000E-03 0.  1.
</event>
<event>
 8    1  0.2107254E+004  0.1043930E+01  0.7957747E-01            NaN
         13   -1    0    0    0    0  0.00000000000E+00  0.00000000000E+00  0.74505805969E-08  0.10566000000E+00  0.10566000000E+00 0.  1.
     999900   -1    0    0    0    0 -0.00000000000E+00 -0.00000000000E+00 -0.74505805969E-08  0.93827000000E+00  0.93827000000E+00 0.  1.
     999902    2    1    2    0    0 -0.69398277577E-02 -0.76248381126E-02 -0.90693721131E-02  0.10301985443E+01  0.10301070273E+01 0.  0.
     999903    2    3    3    0    0 -0.87485584279E-01  0.98662299192E-01  0.11987892755E-01  0.13990197412E+00  0.45176056160E-01 0.  0.
         14    1    1    2    0    0  0.69398277577E-02  0.76248381126E-02  0.90693721131E-02  0.13731455716E-01  0.00000000000E+00 0.  1.
     999901    1    3    3    0    0  0.80545756521E-01 -0.10628713731E+00 -0.21057264868E-01  0.89029657017E+00  0.88000000000E+00 0.  1.
        -11    1    4    4    0    0 -0.49859739059E-01  0.76140119336E-01 -0.86688676483E-02  0.91426045188E-01  0.51100000000E-03 0.  1.
         11    1    4    4    0    0 -0.37625845220E-01  0.22522179857E-01  0.20656760403E-01  0.48475928927E-01  0.51100000000E-03 0. -1.
</event>
<event>
 8    1  0.2107254E+004  0.1043930E+01  0.7957747E-01            NaN
         13   -1    0    0    0    0  0.00000000000E+00  0.00000000000E+00  0.74505805969E-08  0.10566000000E+00  0.10566000000E+00 0.  1.
     999900   -1    0    0    0    0 -0.00000000000E+00 -0.00000000000E+00 -0.74505805969E-08  0.93827000000E+00  0.93827000000E+00 0. -1.
     999902    2    1    2    0    0  0.46856734636E-03 -0.14892245935E-01  0.64085767325E-04  0.10290302466E+01  0.10289223711E+01 0.  0.
     999903    2    3    3    0    0 -0.79986827109E-01 -0.93243021653E-01  0.50925108758E-01  0.14043654968E+00  0.45132074908E-01 0.  0.
         14    1    1    2    0    0 -0.46856734636E-03  0.14892245935E-01 -0.64085767325E-04  0.14899753398E-01  0.00000000000E+00 0. -1.
     999901    1    3    3    0    0  0.80455394456E-01  0.78350775718E-01 -0.50861022990E-01  0.88859369692E+00  0.88000000000E+00 0. -1.
        -11    1    4    4    0    0 -0.23505184484E-01 -0.23850787065E-01 -0.65052187347E-02  0.34116458389E-01  0.51100000000E-03 0. -1.
         11    1    4    4    0    0 -0.56481642626E-01 -0.69392234588E-01  0.57430327492E-01  0.10632009129E+00  0.51100000000E-03 0.  1.
</event>
<event>
 8    1  0.2107254E+004  0.1043930E+01  0.7957747E-01            NaN
         13   -1    0    0    0    0  0.00000000000E+00  0.00000000000E+00  0.74505805969E-08  0.10566000000E+00  0.10566000000E+00 0.  1.
     999900   -1    0    0    0    0 -0.00000000000E+00 -0.00000000000E+00 -0.74505805969E-08  0.93827000000E+00  0.93827000000E+00 0.  1.
     999902    2    1    2    0    0  0.12003982649E-01 -0.19559516676E-02 -0.71853316697E-02  0.10298037713E+01  0.10297068792E+01 0.  0.
     999903    2    3    3    0    0 -0.11154238916E+00 -0.59368776495E-01 -0.37208262909E-01  0.13881481802E+00  0.43803455029E-01 0.  0.
         14    1    1    2    0    0 -0.12003982649E-01  0.19559516676E-02  0.71853316697E-02  0.14126228710E-01  0.00000000000E+00 0.  1.
     999901    1    3    3    0    0  0.12354637181E+00  0.57412824827E-01  0.30022931239E-01  0.89098895327E+00  0.88000000000E+00 0.  1.
        -11    1    4    4    0    0 -0.64975856236E-01 -0.40095134665E-01 -0.31310015395E-03  0.76353394620E-01  0.51100000000E-03 0.  1.
         11    1    4    4    0    0 -0.46566532923E-01 -0.19273641830E-01 -0.36895162755E-01  0.62461423404E-01  0.51100000000E-03 0. -1.
</event>
<event>
 8    1  0.2107254E+004  0.1043930E+01  0.7957747E-01            NaN
         13   -1    0    0    0    0  0.00000000000E+00  0.00000000000E+00  0.74505805969E-08  0.10566000000E+00  0.10566000000E+00 0.  1.
     999900   -1    0    0    0    0 -0.00000000000E+00 -0.00000000000E+00 -0.74505805969E-08  0.93827000000E+00  0.93827000000E+00 0.  1.
     999902    2    1    2    0    0 -0.64916059409E-02 -0.12684433760E-01  0.53395028480E-02  0.10287133611E+01  0.10286008134E+01 0.  0.
     999903    2    3    3    0    0  0.58275533838E-01 -0.11100222098E+00 -0.41388133455E-01  0.13964382411E+00  0.45496034071E-01 0.  0.
         14    1    1    2    0    0  0.64916059409E-02  0.12684433760E-01 -0.53395028480E-02  0.15216638859E-01  0.00000000000E+00 0. -1.
     999901    1    3    3    0    0 -0.64767139779E-01  0.98317787216E-01  0.46727636303E-01  0.88906953703E+00  0.88000000000E+00 0.  1.
        -11    1    4    4    0    0  0.44170224238E-01 -0.95808153315E-01 -0.15753262329E-01  0.10667069582E+00  0.51100000000E-03 0.  1.
         11    1    4    4    0    0  0.14105309600E-01 -0.15194067661E-01 -0.25634871126E-01  0.32973128296E-01  0.51100000000E-03 0. -1.
</event>
<event>
 8    1  0.2107254E+004  0.1043930E+01  0.7957747E-01            NaN
         13   -1    0    0    0    0  0.00000000000E+00  0.00000000000E+00  0.74505805969E-08  0.10566000000E+00  0.10566000000E+00 0. -1.
     999900   -1    0    0    0    0 -0.00000000000E+00 -0.00000000000E+00 -0.74505805969E-08  0.93827000000E+00  0.93827000000E+00 0.  1.
     999902    2    1    2    0    0 -0.80010096565E-02  0.11474689153E-01 -0.15147959426E-03  0.10299404470E+01  0.10298454335E+01 0.  0.
     999903    2    3    3    0    0 -0.10619137030E+00  0.31888398850E-01  0.75415500409E-01  0.14102625828E+00  0.43674142413E-01 0.  0.
         14    1    1    2    0    0  0.80010096565E-02 -0.11474689153E-01  0.15147959426E-03  0.13989552986E-01  0.00000000000E+00 0.  1.
     999901    1    3    3    0    0  0.98190360641E-01 -0.20413709697E-01 -0.75566980003E-01  0.88891418873E+00  0.88000000000E+00 0.  1.
        -11    1    4    4    0    0 -0.83559496186E-01  0.39467118585E-01  0.46261232376E-01  0.10334508016E+00  0.51100000000E-03 0.  1.
         11    1    4    4    0    0 -0.22631874111E-01 -0.75787197342E-02  0.29154268033E-01  0.37681178115E-01  0.51100000000E-03 0. -1.
</event>
<event>
 8    1  0.2107254E+004  0.1043930E+01  0.7957747E-01            NaN
         13   -1    0    0    0    0  0.00000000000E+00  0.00000000000E+00  0.74505805969E-08  0.10566000000E+00  0.10566000000E+00 0.  1.
     999900   -1    0    0    0    0 -0.00000000000E+00 -0.00000000000E+00 -0.74505805969E-08  0.93827000000E+00  0.93827000000E+00 0. -1.
     999902    2    1    2    0    0 -0.29680533017E-03  0.98086480879E-02 -0.91076350982E-02  0.10305416959E+01  0.10304547250E+01 0.  0.
     999903    2    3    3    0    0 -0.12343181240E+00  0.31604369032E-01 -0.40839963186E-01  0.14113502618E+00  0.44910406001E-01 0.  0.
         14    1    1    2    0    0  0.29680533017E-03 -0.98086480879E-02  0.91076350982E-02  0.13388304142E-01  0.00000000000E+00 0.  1.
     999901    1    3    3    0    0  0.12313500707E+00 -0.21795720945E-01  0.31732328087E-01  0.88940666968E+00  0.88000000000E+00 0.  1.
        -11    1    4    4    0    0 -0.10683956240E+00  0.28607481915E-01 -0.50618661617E-01  0.12163712484E+00  0.51100000000E-03 0. -1.
         11    1    4    4    0    0 -0.16592250008E-01  0.29968871170E-02  0.97786984316E-02  0.19497901342E-01  0.51100000000E-03 0.  1.
</event>
<event>
 8    1  0.2107254E+004  0.1043930E+01  0.7957747E-01            NaN
         13   -1    0    0    0    0  0.00000000000E+00  0.00000000000E+00  0.74505805969E-08  0.10566000000E+00  0.10566000000E+00 0. -1.
     999900   -1    0    0    0    0 -0.00000000000E+00 -0.00000000000E+00 -0.74505805969E-08  0.93827000000E+00  0.93827000000E+00 0. -1.
     999902    2    1    2    0    0  0.16728042652E-01 -0.14251749524E-01  0.11414129385E-01  0.10191666778E+01  0.10188657885E+01 0.  0.
     999903    2    3    3    0    0 -0.62248521683E-01  0.17049799136E-01  0.10374850214E+00  0.13026695285E+00  0.45168055173E-01 0.  0.
         14    1    1    2    0    0 -0.16728042652E-01  0.14251749524E-01 -0.11414129385E-01  0.24763322174E-01  0.00000000000E+00 0.  1.
     999901    1    3    3    0    0  0.78976564335E-01 -0.31301548660E-01 -0.92334372752E-01  0.88889972497E+00  0.88000000000E+00 0. -1.
        -11    1    4    4    0    0 -0.32362389349E-01  0.25132813986E-01  0.31576855520E-01  0.51733369393E-01  0.51100000000E-03 0. -1.
         11    1    4    4    0    0 -0.29886132334E-01 -0.80830148498E-02  0.72171646617E-01  0.78533583462E-01  0.51100000000E-03 0.  1.
</event>
<event>
 8    1  0.2107254E+004  0.1043930E+01  0.7957747E-01            NaN
         13   -1    0    0    0    0  0.00000000000E+00  0.00000000000E+00  0.74505805969E-08  0.10566000000E+00  0.10566000000E+00 0. -1.
     999900   -1    0    0    0    0 -0.00000000000E+00 -0.00000000000E+00 -0.74505805969E-08  0.93827000000E+00  0.93827000000E+00 0.  1.
     999902    2    1    2    0    0 -0.39605094854E-02  0.12913068906E-01 -0.10895401400E-02  0.10303793512E+01  0.10302902442E+01 0.  0.
     999903    2    3    3    0    0 -0.73117429812E-01  0.25795681773E-01  0.10850227788E+00  0.14079573633E+00  0.45156608857E-01 0.  0.
         14    1    1    2    0    0  0.39605094854E-02 -0.12913068906E-01  0.10895401400E-02  0.13550648755E-01  0.00000000000E+00 0. -1.
     999901    1    3    3    0    0  0.69156920327E-01 -0.12882612867E-01 -0.10959181802E+00  0.88958361491E+00  0.88000000000E+00 0.  1.
        -11    1    4    4    0    0 -0.45220956565E-01  0.37211719399E-01  0.81250117507E-01  0.10015732469E+00  0.51100000000E-03 0. -1.
         11    1    4    4    0    0 -0.27896473247E-01 -0.11416037626E-01  0.27252160375E-01  0.40638411642E-01  0.51100000000E-03 0.  1.
</event>
<event>
 8    1  0.2107254E+004  0.1043930E+01  0.7957747E-01            NaN
         13   -1    0    0    0    0  0.00000000000E+00  0.00000000000E+00  0.74505805969E-08  0.10566000000E+00  0.10566000000E+00 0.  1.
     999900   -1    0    0    0    0 -0.00000000000E+00 -0.00000000000E+00 -0.74505805969E-08  0.93827000000E+00  0.93827000000E+00 0.  1.
     999902    2    1    2    0    0 -0.12436200257E-01 -0.10047553049E-02  0.53881841730E-02  0.10303395203E+01  0.10302498852E+01 0.  0.
     999903    2    3    3    0    0  0.11468570246E+00 -0.25237706246E-01 -0.56526463282E-01  0.13872265323E+00  0.47528741847E-01 0.  0.
         14    1    1    2    0    0  0.12436200257E-01  0.10047553049E-02 -0.53881841730E-02  0.13590479710E-01  0.00000000000E+00 0. -1.
     999901    1    3    3    0    0 -0.12712190272E+00  0.24232950942E-01  0.61914647455E-01  0.89161686706E+00  0.88000000000E+00 0. -1.
        -11    1    4    4    0    0  0.75134997438E-01  0.40780472071E-02 -0.21361966099E-01  0.78220796632E-01  0.51100000000E-03 0.  1.
         11    1    4    4    0    0  0.39550705023E-01 -0.29315753454E-01 -0.35164497183E-01  0.60501856595E-01  0.51100000000E-03 0. -1.
</event>
<event>
 7    1  0.2107254E+004  0.1043930E+01  0.7957747E-01            NaN
         13   -1    0    0    0    0  0.00000000000E+00  0.00000000000E+00  0.74505805969E-08  0.10566000000E+00  0.10566000000E+00 0.  1.
     999900   -1    0    0    0    0 -0.00000000000E+00 -0.00000000000E+00 -0.74505805969E-08  0.93827000000E+00  0.93827000000E+00 0.  1.
     999903    2    1    2    0    0 -0.45311737098E-01 -0.79163779126E-01 -0.60663166224E-01  0.11848660524E+00  0.45155270361E-01 0.  0.
         14    1    1    2    0    0 -0.26862507778E-01  0.25092198320E-01  0.14862035090E-01  0.39649625820E-01  0.00000000000E+00 0.  1.
     999901    1    1    2    0    0  0.72174244875E-01  0.54071580807E-01  0.45801131134E-01  0.88579376894E+00  0.88000000000E+00 0. -1.
        -11    1    3    3    0    0 -0.22103344770E-01 -0.55922777573E-01 -0.60970765424E-01  0.85636500739E-01  0.51100000000E-03 0. -1.
         11    1    3    3    0    0 -0.23208392328E-01 -0.23241001553E-01  0.30759919978E-03  0.32850104504E-01  0.51100000000E-03 0.  1.
</event>
<event>
 8    1  0.2107254E+004  0.1043930E+01  0.7957747E-01            NaN
         13   -1    0    0    0    0  0.00000000000E+00  0.00000000000E+00  0.74505805969E-08  0.10566000000E+00  0.10566000000E+00 0. -1.
     999900   -1    0    0    0    0 -0.00000000000E+00 -0.00000000000E+00 -0.74505805969E-08  0.93827000000E+00  0.93827000000E+00 0.  1.
     999902    2    1    2    0    0 -0.62485049410E-02 -0.10465488552E-01  0.60322669194E-02  0.10303300548E+01  0.10302402940E+01 0.  0.
     999903    2    3    3    0    0 -0.77393661664E-01  0.22634913103E-02 -0.10823181117E+00  0.14000430556E+00  0.43499176640E-01 0.  0.
         14    1    1    2    0    0  0.62485049410E-02  0.10465488552E-01 -0.60322669194E-02  0.13599945177E-01  0.00000000000E+00 0.  1.
     999901    1    3    3    0    0  0.71145156723E-01 -0.12728979863E-01  0.11426407809E+00  0.89032574926E+00  0.88000000000E+00 0. -1.
        -11    1    4    4    0    0 -0.61356861347E-01 -0.12666847171E-01 -0.96742674880E-01  0.11525849086E+00  0.51100000000E-03 0.  1.
         11    1    4    4    0    0 -0.16036800316E-01  0.14930338482E-01 -0.11489136290E-01  0.24745814702E-01  0.51100000000E-03 0. -1.
</event>
<event>
 8    1  0.2107254E+004  0.1043930E+01  0.7957747E-01            NaN
         13   -1    0    0    0    0  0.00000000000E+00  0.00000000000E+00  0.74505805969E-08  0.10566000000E+00  0.10566000000E+00 0. -1.
     999900   -1    0    0    0    0 -0.00000000000E+00 -0.00000000000E+00 -0.74505805969E-08  0.93827000000E+00  0.93827000000E+00 0.  1.
     999902    2    1    2    0    0  0.13368166147E-01 -0.82687335513E-02  0.42504450290E-02  0.10276466925E+01  0.10275176779E+01 0.  0.
     999903    2    3    3    0    0 -0.10223992107E+00  0.65851845868E-01 -0.40908043567E-01  0.13585166042E+00  0.44640100199E-01 0.  0.
         14    1    1    2    0    0 -0.13368166147E-01  0.82687335513E-02 -0.42504450290E-02  0.16283307515E-01  0.00000000000E+00 0. -1.
     999901    1    3    3    0    0  0.11560808722E+00 -0.74120579419E-01  0.45158488596E-01  0.89179503206E+00  0.88000000000E+00 0.  1.
        -11    1    4    4    0    0 -0.86352753885E-01  0.51275062928E-01 -0.14053133860E-01  0.10140849015E+00  0.51100000000E-03 0.  1.
         11    1    4    4    0    0 -0.15887167185E-01  0.14576782940E-01 -0.26854909706E-01  0.34443170272E-01  0.51100000000E-03 0. -1.
</event>
<event>
 8    1  0.2107254E+004  0.1043930E+01  0.7957747E-01            NaN
         13   -1    0    0    0    0  0.00000000000E+00  0.00000000000E+00  0.74505805969E-08  0.10566000000E+00  0.10566000000E+00 0.  1.
     999900   -1    0    0    0    0 -0.00000000000E+00 -0.00000000000E+00 -0.74505805969E-08  0.93827000000E+00  0.93827000000E+00 0. -1.
     999902    2    1    2    0    0 -0.97893894671E-02 -0.75190352493E-02  0.81018338027E-02  0.10291649146E+01  0.10290589942E+01 0.  0.
     999903    2    3    3    0    0 -0.70212658664E-01  0.42351132874E-01  0.10571269249E+00  0.14030841047E+00  0.42282866518E-01 0.  0.
         14    1    1    2    0    0  0.97893894671E-02  0.75190352493E-02 -0.81018338027E-02  0.14765085445E-01  0.00000000000E+00 0. -1.
     999901    1    3    3    0    0  0.60423269197E-01 -0.49870168123E-01 -0.97610858690E-01  0.88885650409E+00  0.88000000000E+00 0. -1.
        -11    1    4    4    0    0 -0.53287028217E-01  0.29548428462E-01  0.44313517488E-01  0.75342988751E-01  0.51100000000E-03 0.  1.
         11    1    4    4    0    0 -0.16925630447E-01  0.12802704411E-01  0.61399175005E-01  0.64965421715E-01  0.51100000000E-03 0. -1.
</event>
<event>
 8    1  0.2107254E+004  0.1043930E+01  0.7957747E-01            NaN
         13   -1    0    0    0    0  0.00000000000E+00  0.00000000000E+00  0.74505805969E-08  0.10566000000E+00  0.10566000000E+00 0.  1.
     999900   -1    0    0    0    0 -0.00000000000E+00 -0.00000000000E+00 -0.74505805969E-08  0.93827000000E+00  0.93827000000E+00 0. -1.
     999902    2    1    2    0    0 -0.98799950914E-02  0.11317905854E-01  0.28532512834E-02  0.10286378341E+01  0.10285241579E+01 0.  0.
     999903    2    3    3    0    0  0.12870006821E+00  0.74103226138E-02 -0.14463866360E-01  0.13761618130E+00  0.45938975686E-01 0.  0.
         14    1    1    2    0    0  0.98799950914E-02 -0.11317905854E-01 -0.28532512834E-02  0.15292165929E-01  0.00000000000E+00 0. -1.
     999901    1    3    3    0    0 -0.13858006330E+00  0.39075832400E-02  0.17317117643E-01  0.89102165277E+00  0.88000000000E+00 0. -1.
        -11    1    4    4    0    0  0.68153831370E-01 -0.12188153319E-01 -0.23970164339E-01  0.73268859082E-01  0.51100000000E-03 0.  1.
         11    1    4    4    0    0  0.60546236835E-01  0.19598475933E-01  0.95062979788E-02  0.64347322214E-01  0.51100000000E-03 0. -1.
</event>
<event>
 7    1  0.5349569E+004  0.1043930E+01  0.7957747E-01            NaN
         13   -1    0    0    0    0  0.00000000000E+00  0.00000000000E+00  0.74505805969E-08  0.10566000000E+00  0.10566000000E+00 0. -1.
     999900   -1    0    0    0    0 -0.00000000000E+00 -0.00000000000E+00 -0.74505805969E-08  0.93827000000E+00  0.93827000000E+00 0.  1.
     999903    2    1    2    0    0 -0.36098328546E-01  0.67935920972E-01  0.31053457304E-01  0.94719706024E-01  0.45706966828E-01 0.  0.
         14    1    1    2    0    0  0.22647418974E-01  0.36844567522E-01 -0.45499446833E-01  0.62774416797E-01  0.00000000000E+00 0.  1.
     999901    1    1    2    0    0  0.13450909572E-01 -0.10478048849E+00  0.14445989529E-01  0.88643587718E+00  0.88000000000E+00 0. -1.
        -11    1    3    3    0    0 -0.16352657652E-01  0.65952845324E-01  0.16010855261E-01  0.69812576416E-01  0.51100000000E-03 0.  1.
         11    1    3    3    0    0 -0.19745670894E-01  0.19830756481E-02  0.15042602043E-01  0.24907129608E-01  0.51100000000E-03 0. -1.
</event>
<event>
 8    1  0.2107254E+004  0.1043930E+01  0.7957747E-01            NaN
         13   -1    0    0    0    0  0.00000000000E+00  0.00000000000E+00  0.74505805969E-08  0.10566000000E+00  0.10566000000E+00 0.  1.
     999900   -1    0    0    0    0 -0.00000000000E+00 -0.00000000000E+00 -0.74505805969E-08  0.93827000000E+00  0.93827000000E+00 0. -1.
     999902    2    1    2    0    0  0.66006075301E-02  0.11204846460E-01  0.12919203895E-02  0.10308615011E+01  0.10307786614E+01 0.  0.
     999903    2    3    3    0    0 -0.16140732862E-02  0.23978830511E-01  0.13187613998E+00  0.14109586119E+00  0.44035624231E-01 0.  0.
         14    1    1    2    0    0 -0.66006075301E-02 -0.11204846460E-01 -0.12919203895E-02  0.13068498852E-01  0.00000000000E+00 0.  1.
     999901    1    3    3    0    0  0.82146808164E-02 -0.12773984052E-01 -0.13058421959E+00  0.88976563996E+00  0.88000000000E+00 0. -1.
        -11    1    4    4    0    0 -0.22565408342E-04  0.29915590785E-01  0.45230623840E-01  0.54231112243E-01  0.51100000000E-03 0.  1.
         11    1    4    4    0    0 -0.15915078779E-02 -0.59367602740E-02  0.86645516145E-01  0.86864748943E-01  0.51100000000E-03 0. -1.
</event>
<event>
 8    1  0.2378435E+004  0.1043930E+01  0.7957747E-01            NaN
         13   -1    0    0    0    0  0.00000000000E+00  0.00000000000E+00  0.74505805969E-08  0.10566000000E+00  0.10566000000E+00 0. -1.
     999900   -1    0    0    0    0 -0.00000000000E+00 -0.00000000000E+00 -0.74505805969E-08  0.93827000000E+00  0.93827000000E+00 0.  1.
     999902    2    1    2    0    0  0.63774655806E-02 -0.11220304683E-01 -0.40629136558E-02  0.10303994948E+01  0.10303106542E+01 0.  0.
     999903    2    3    3    0    0  0.24859371040E-01 -0.11587832301E+00 -0.64257278882E-01  0.14196365396E+00  0.44484908495E-01 0.  0.
         14    1    1    2    0    0 -0.63774655806E-02  0.11220304683E-01  0.40629136558E-02  0.13530505230E-01  0.00000000000E+00 0.  1.
     999901    1    3    3    0    0 -0.18481905459E-01  0.10465801833E+00  0.60194365226E-01  0.88843584081E+00  0.88000000000E+00 0. -1.
        -11    1    4    4    0    0  0.14390850826E-01 -0.57195679001E-01 -0.71502679189E-02  0.59412370229E-01  0.51100000000E-03 0.  1.
         11    1    4    4    0    0  0.10468520214E-01 -0.58682644011E-01 -0.57107010963E-01  0.82551283732E-01  0.51100000000E-03 0. -1.
</event>
<event>
 8    1  0.2107254E+004  0.1043930E+01  0.7957747E-01            NaN
         13   -1    0    0    0    0  0.00000000000E+00  0.00000000000E+00  0.74505805969E-08  0.10566000000E+00  0.10566000000E+00 0.  1.
     999900   -1    0    0    0    0 -0.00000000000E+00 -0.00000000000E+00 -0.74505805969E-08  0.93827000000E+00  0.93827000000E+00 0. -1.
     999902    2    1    2    0    0 -0.98096134922E-02  0.97263442735E-02 -0.42094994009E-02  0.10294887336E+01  0.10293874404E+01 0.  0.
     999903    2    3    3    0    0  0.12078286291E+00  0.52431059637E-01  0.12033958250E-01  0.13867902468E+00  0.41827499908E-01 0.  0.
         14    1    1    2    0    0  0.98096134922E-02 -0.97263442735E-02  0.42094994009E-02  0.14441266392E-01  0.00000000000E+00 0.  1.
     999901    1    3    3    0    0 -0.13059247640E+00 -0.42704715364E-01 -0.16243457650E-01  0.89080970893E+00  0.88000000000E+00 0. -1.
        -11    1    4    4    0    0  0.51114615834E-01  0.18595557573E-01  0.25483829539E-01  0.60068172956E-01  0.51100000000E-03 0. -1.
         11    1    4    4    0    0  0.69668247071E-01  0.33835502064E-01 -0.13449871289E-01  0.78610851723E-01  0.51100000000E-03 0.  1.
</event>
<event>
 8    1  0.2107254E+004  0.1043930E+01  0.7957747E-01            NaN
         13   -1    0    0    0    0  0.00000000000E+00  0.00000000000E+00  0.74505805969E-08  0.10566000000E+00  0.10566000000E+00 0.  1.
     999900   -1    0    0    0    0 -0.00000000000E+00 -0.00000000000E+00 -0.74505805969E-08  0.93827000000E+00  0.93827000000E+00 0.  1.
     999902    2    1    2    0    0  0.26220380703E-03 -0.37808564962E-02  0.13236856386E-01  0.10301612675E+01  0.10300692497E+01 0.  0.
     999903    2    3    3    0    0  0.96590618843E-01 -0.10343407260E-01  0.92958562412E-01  0.14129807164E+00  0.43440959934E-01 0.  0.
         14    1    1    2    0    0 -0.26220380703E-03  0.37808564962E-02 -0.13236856386E-01  0.13768732464E-01  0.00000000000E+00 0. -1.
     999901    1    3    3    0    0 -0.96328415036E-01  0.65625507634E-02 -0.79721706026E-01  0.88886319590E+00  0.88000000000E+00 0.  1.
        -11    1    4    4    0    0  0.51493320298E-01 -0.10416343032E-01  0.77484306972E-01  0.93616991969E-01  0.51100000000E-03 0. -1.
         11    1    4    4    0    0  0.45097298545E-01  0.72935772211E-04  0.15474255440E-01  0.47681079666E-01  0.51100000000E-03 0.  1.
</event>
<event>
 8    1  0.2107254E+004  0.1043930E+01  0.7957747E-01            NaN
         13   -1    0    0    0    0  0.00000000000E+00  0.00000000000E+00  0.74505805969E-08  0.10566000000E+00  0.10566000000E+00 0. -1.
     999900   -1    0    0    0    0 -0.00000000000E+00 -0.00000000000E+00 -0.74505805969E-08  0.93827000000E+00  0.93827000000E+00 0. -1.
     999902    2    1    2    0    0  0.44643534454E-02  0.26418666122E-02 -0.13760589003E-01  0.10292240923E+01  0.10291190254E+01 0.  0.
     999903    2    3    3    0    0  0.12761986668E+00 -0.15425957133E-01  0.27200863852E-01  0.13952101415E+00  0.46919461524E-01 0.  0.
         14    1    1    2    0    0 -0.44643534454E-02 -0.26418666122E-02  0.13760589003E-01  0.14705907677E-01  0.00000000000E+00 0. -1.
     999901    1    3    3    0    0 -0.12315551323E+00  0.18067823745E-01 -0.40961452856E-01  0.88970307818E+00  0.88000000000E+00 0. -1.
        -11    1    4    4    0    0  0.82851544119E-01 -0.28413238138E-01  0.30598477120E-01  0.92780484950E-01  0.51100000000E-03 0.  1.
         11    1    4    4    0    0  0.44768322560E-01  0.12987281005E-01 -0.33976132680E-02  0.46740529198E-01  0.51100000000E-03 0. -1.
</event>
<event>
 8    1  0.2107254E+004  0.1043930E+01  0.7957747E-01            NaN
         13   -1    0    0    0    0  0.00000000000E+00  0.00000000000E+00  0.74505805969E-08  0.10566000000E+00  0.10566000000E+00 0. -1.
     999900   -1    0    0    0    0 -0.00000000000E+00 -0.00000000000E+00 -0.74505805969E-08  0.93827000000E+00  0.93827000000E+00 0. -1.
     999902    2    1    2    0    0  0.36778045624E-02  0.13700738221E-01 -0.12207160710E-02  0.10296917901E+01  0.10295933449E+01 0.  0.
     999903    2    3    3    0    0 -0.99761773435E-01 -0.81568208368E-01 -0.21341797687E-01  0.13829918498E+00  0.45446762079E-01 0.  0.
         14    1    1    2    0    0 -0.36778045624E-02 -0.13700738221E-01  0.12207160710E-02  0.14238209927E-01  0.00000000000E+00 0.  1.
     999901    1    3    3    0    0  0.10343957800E+00  0.95268946589E-01  0.20121081616E-01  0.89139260509E+00  0.88000000000E+00 0. -1.
        -11    1    4    4    0    0 -0.20814454760E-01 -0.18609810692E-01 -0.24675625077E-01  0.37265455517E-01  0.51100000000E-03 0.  1.
         11    1    4    4    0    0 -0.78947318676E-01 -0.62958397676E-01  0.33338273904E-02  0.10103372947E+00  0.51100000000E-03 0. -1.
</event>
<event>
 8    1  0.2107254E+004  0.1043930E+01  0.7957747E-01            NaN
         13   -1    0    0    0    0  0.00000000000E+00  0.00000000000E+00  0.74505805969E-08  0.10566000000E+00  0.10566000000E+00 0.  1.
     999900   -1    0    0    0    0 -0.00000000000E+00 -0.00000000000E+00 -0.74505805969E-08  0.93827000000E+00  0.93827000000E+00 0.  1.
     999902    2    1    2    0    0  0.39114454120E-02 -0.72247598185E-02  0.11162461873E-01  0.10300700897E+01  0.10299768408E+01 0.  0.
     999903    2    3    3    0    0  0.17485201716E-01  0.41767385831E-01 -0.12271116502E+00  0.13849472819E+00  0.45524860451E-01 0.  0.
         14    1    1    2    0    0 -0.39114454120E-02  0.72247598185E-02 -0.11162461873E-01  0.13859910343E-01  0.00000000000E+00 0. -1.
     999901    1    3    3    0    0 -0.13573756304E-01 -0.48992145650E-01  0.13387362689E+00  0.89157536147E+00  0.88000000000E+00 0. -1.
        -11    1    4    4    0    0  0.86960897763E-02  0.46587104027E-01 -0.68100538752E-01  0.82969420501E-01  0.51100000000E-03 0.  1.
         11    1    4    4    0    0  0.87891119399E-02 -0.48197181954E-02 -0.54610626265E-01  0.55525307691E-01  0.51100000000E-03 0. -1.
</event>
<event>
 8    1  0.2107254E+004  0.1043930E+01  0.7957747E-01            NaN
         13   -1    0    0    0    0  0.00000000000E+00  0.00000000000E+00  0.74505805969E-08  0.10566000000E+00  0.10566000000E+00 0. -1.
     999900   -1    0    0    0    0 -0.00000000000E+00 -0.00000000000E+00 -0.74505805969E-08  0.93827000000E+00  0.93827000000E+00 0. -1.
     999902    2    1    2    0    0  0.92403851895E-02  0.59189367643E-02  0.92927701450E-02  0.10295503579E+01  0.10294499334E+01 0.  0.
     999903    2    3    3    0    0  0.83833583180E-01 -0.54354165405E-01  0.88685310915E-01  0.14078707805E+00  0.44423777494E-01 0.  0.
         14    1    1    2    0    0 -0.92403851895E-02 -0.59189367643E-02 -0.92927701450E-02  0.14379642132E-01  0.00000000000E+00 0.  1.
     999901    1    3    3    0    0 -0.74593197990E-01  0.60273102169E-01 -0.79392540770E-01  0.88876327982E+00  0.88000000000E+00 0. -1.
        -11    1    4    4    0    0  0.38171821351E-01 -0.22662207642E-02  0.19672211080E-01  0.43005589306E-01  0.51100000000E-03 0.  1.
         11    1    4    4    0    0  0.45661761829E-01 -0.52087944640E-01  0.69013099835E-01  0.97781488739E-01  0.51100000000E-03 0. -1.
</event>
<event>
 8    1  0.2107254E+004  0.1043930E+01  0.7957747E-01            NaN
         13   -1    0    0    0    0  0.00000000000E+00  0.00000000000E+00  0.74505805969E-08  0.10566000000E+00  0.10566000000E+00 0.  1.
     999900   -1    0    0    0    0 -0.00000000000E+00 -0.00000000000E+00 -0.74505805969E-08  0.93827000000E+00  0.93827000000E+00 0.  1.
     999902    2    1    2    0    0 -0.13110807347E-01  0.55052849001E-02 -0.34642328878E-02  0.10292943469E+01  0.10291902887E+01 0.  0.
     999903    2    3    3    0    0 -0.11400813688E+00 -0.65718872835E-01  0.18758661060E-01  0.14039221016E+00  0.45180303096E-01 0.  0.
         14    1    1    2    0    0  0.13110807347E-01 -0.55052849001E-02  0.34642328878E-02  0.14635653064E-01  0.00000000000E+00 0.  1.
     999901    1    3    3    0    0  0.10089732953E+00  0.71224157735E-01 -0.22222893948E-01  0.88890213678E+00  0.88000000000E+00 0.  1.
        -11    1    4    4    0    0 -0.63291884272E-01 -0.32265043059E-01 -0.12388713675E-01  0.72115441937E-01  0.51100000000E-03 0. -1.
         11    1    4    4    0    0 -0.50716252604E-01 -0.33453829776E-01  0.31147374735E-01  0.68276768221E-01  0.51100000000E-03 0.  1.
</event>
<event>
 8    1  0.2107254E+004  0.1043930E+01  0.7957747E-01            NaN
         13   -1    0    0    0    0  0.00000000000E+00  0.00000000000E+00  0.74505805969E-08  0.10566000000E+00  0.10566000000E+00 0.  1.
     999900   -1    0    0    0    0 -0.00000000000E+00 -0.00000000000E+00 -0.74505805969E-08  0.93827000000E+00  0.93827000000E+00 0.  1.
     999902    2    1    2    0    0  0.12812582363E-01  0.68777531000E-02  0.87159524565E-02  0.10269761337E+01  0.10268361825E+01 0.  0.
     999903    2    3    3    0    0 -0.11577721527E-01  0.12897645076E+00  0.16090868207E-01  0.13818067453E+00  0.45453429896E-01 0.  0.
         14    1    1    2    0    0 -0.12812582363E-01 -0.68777531000E-02 -0.87159524565E-02  0.16953866277E-01  0.00000000000E+00 0. -1.
     999901    1    3    3    0    0  0.24390303890E-01 -0.12209869766E+00 -0.73749157506E-02  0.88879545919E+00  0.88000000000E+00 0.  1.
        -11    1    4    4    0    0  0.23637582523E-02  0.49700316973E-01 -0.14876026845E-01  0.51935211138E-01  0.51100000000E-03 0.  1.
         11    1    4    4    0    0 -0.13941479779E-01  0.79276133784E-01  0.30966895052E-01  0.86245463395E-01  0.51100000000E-03 0. -1.
</event>
<event>
 8    1  0.2107254E+004  0.1043930E+01  0.7957747E-01            NaN
         13   -1    0    0    0    0  0.00000000000E+00  0.00000000000E+00  0.74505805969E-08  0.10566000000E+00  0.10566000000E+00 0. -1.
     999900   -1    0    0    0    0 -0.00000000000E+00 -0.00000000000E+00 -0.74505805969E-08  0.93827000000E+00  0.93827000000E+00 0.  1.
     999902    2    1    2    0    0 -0.36401690229E-02  0.72859518594E-02  0.12066426935E-01  0.10293720268E+01  0.10292690780E+01 0.  0.
     999903    2    3    3    0    0 -0.71468782481E-01 -0.54899693993E-01  0.98027320851E-01  0.14040799454E+00  0.44534099602E-01 0.  0.
         14    1    1    2    0    0  0.36401690229E-02 -0.72859518594E-02 -0.12066426935E-01  0.14557973210E-01  0.00000000000E+00 0.  1.
     999901    1    3    3    0    0  0.67828613458E-01  0.62185645852E-01 -0.85960893916E-01  0.88896403225E+00  0.88000000000E+00 0.  1.
        -11    1    4    4    0    0 -0.10407335413E-01 -0.30209835749E-01  0.48142406043E-01  0.57783208521E-01  0.51100000000E-03 0.  1.
         11    1    4    4    0    0 -0.61061447067E-01 -0.24689858244E-01  0.49884914808E-01  0.82624786017E-01  0.51100000000E-03 0. -1.
</event>
<event>
 8    1  0.2107254E+004  0.1043930E+01  0.7957747E-01            NaN
         13   -1    0    0    0    0  0.00000000000E+00  0.00000000000E+00  0.74505805969E-08  0.10566000000E+00  0.10566000000E+00 0. -1.
     999900   -1    0    0    0    0 -0.00000000000E+00 -0.00000000000E+00 -0.74505805969E-08  0.93827000000E+00  0.93827000000E+00 0.  1.
     999902    2    1    2    0    0  0.10571552868E-01  0.18430320104E-02  0.61912573539E-02  0.10315410467E+01  0.10314666474E+01 0.  0.
     999903    2    3    3    0    0 -0.14211591353E-01  0.10182165783E-01 -0.13166798601E+00  0.14042437845E+00  0.45573036928E-01 0.  0.
         14    1    1    2    0    0 -0.10571552868E-01 -0.18430320104E-02 -0.61912573539E-02  0.12388953331E-01  0.00000000000E+00 0.  1.
     999901    1    3    3    0    0  0.24783144221E-01 -0.83391337722E-02  0.13785924337E+00  0.89111666822E+00  0.88000000000E+00 0. -1.
        -11    1    4    4    0    0  0.55735836640E-02  0.95209947244E-02 -0.11189961436E+00  0.11244331456E+00  0.51100000000E-03 0.  1.
         11    1    4    4    0    0 -0.19785175017E-01  0.66117105815E-03 -0.19768371655E-01  0.27981063892E-01  0.51100000000E-03 0. -1.
</event>
<event>
 8    1  0.2107254E+004  0.1043930E+01  0.7957747E-01            NaN
         13   -1    0    0    0    0  0.00000000000E+00  0.00000000000E+00  0.74505805969E-08  0.10566000000E+00  0.10566000000E+00 0. -1.
     999900   -1    0    0    0    0 -0.00000000000E+00 -0.00000000000E+00 -0.74505805969E-08  0.93827000000E+00  0.93827000000E+00 0.  1.
     999902    2    1    2    0    0  0.73433422759E-02  0.74851939246E-02 -0.56055402967E-02  0.10320398828E+01  0.10319713876E+01 0.  0.
     999903    2    3    3    0    0 -0.31996341834E-01 -0.39758067105E-02 -0.13058888310E+00  0.14226474201E+00  0.46327394681E-01 0.  0.
         14    1    1    2    0    0 -0.73433422759E-02 -0.74851939246E-02  0.56055402967E-02  0.11890117152E-01  0.00000000000E+00 0. -1.
     999901    1    3    3    0    0  0.39339684110E-01  0.11461000635E-01  0.12498334281E+00  0.88977514084E+00  0.88000000000E+00 0. -1.
        -11    1    4    4    0    0 -0.35846461534E-01  0.50477007517E-02 -0.12657788633E+00  0.13165360047E+00  0.51100000000E-03 0.  1.
         11    1    4    4    0    0  0.38501196997E-02 -0.90235074621E-02 -0.40109967737E-02  0.10611141538E-01  0.51100000000E-03 0. -1.
</event>
<event>
 8    1  0.2107254E+004  0.1043930E+01  0.7957747E-01            NaN
         13   -1    0    0    0    0  0.00000000000E+00  0.00000000000E+00  0.74505805969E-08  0.10566000000E+00  0.10566000000E+00 0. -1.
     999900   -1    0    0    0    0 -0.00000000000E+00 -0.00000000000E+00 -0.74505805969E-08  0.93827000000E+00  0.93827000000E+00 0.  1.
     999902    2    1    2    0    0 -0.36652894253E-02 -0.14205299520E-01 -0.24488671475E-04  0.10292594349E+01  0.10291548760E+01 0.  0.
     999903    2    3    3    0    0 -0.64543189663E-01 -0.29452595036E-01  0.11189712565E+00  0.13995349962E+00  0.45085880701E-01 0.  0.
         14    1    1    2    0    0  0.36652894253E-02  0.14205299520E-01  0.24488671475E-04  0.14670565112E-01  0.00000000000E+00 0. -1.
     999901    1    3    3    0    0  0.60877900238E-01  0.15247295516E-01 -0.11192161433E+00  0.88930593527E+00  0.88000000000E+00 0.  1.
        -11    1    4    4    0    0 -0.46830645036E-01  0.29853772419E-02  0.66968761197E-01  0.81774677554E-01  0.51100000000E-03 0.  1.
         11    1    4    4    0    0 -0.17712544627E-01 -0.32437972277E-01  0.44928364457E-01  0.58178822061E-01  0.51100000000E-03 0. -1.
</event>
<event>
 8    1  0.2107254E+004  0.1043930E+01  0.7957747E-01            NaN
         13   -1    0    0    0    0  0.00000000000E+00  0.00000000000E+00  0.74505805969E-08  0.10566000000E+00  0.10566000000E+00 0.  1.
     999900   -1    0    0    0    0 -0.00000000000E+00 -0.00000000000E+00 -0.74505805969E-08  0.93827000000E+00  0.93827000000E+00 0.  1.
     999902    2    1    2    0    0 -0.92588814448E-02  0.21047904794E-02  0.10876461126E-01  0.10294920488E+01  0.10293908024E+01 0.  0.
     999903    2    3    3    0    0 -0.12568224463E+00 -0.33242218696E-02 -0.42798416334E-01  0.14018621493E+00  0.44870851892E-01 0.  0.
         14    1    1    2    0    0  0.92588814448E-02 -0.21047904794E-02 -0.10876461126E-01  0.14437951212E-01  0.00000000000E+00 0. -1.
     999901    1    3    3    0    0  0.11642336318E+00  0.54290123490E-02  0.53674877460E-01  0.88930583386E+00  0.88000000000E+00 0.  1.
        -11    1    4    4    0    0 -0.88974177114E-01  0.17865744512E-01 -0.24379642841E-01  0.93969234998E-01  0.51100000000E-03 0.  1.
         11    1    4    4    0    0 -0.36708067512E-01 -0.21189966382E-01 -0.18418773494E-01  0.46216979929E-01  0.51100000000E-03 0. -1.
</event>
<event>
 8    1  0.2107254E+004  0.1043930E+01  0.7957747E-01            NaN
         13   -1    0    0    0    0  0.00000000000E+00  0.00000000000E+00  0.74505805969E-08  0.10566000000E+00  0.10566000000E+00 0.  1.
     999900   -1    0    0    0    0 -0.00000000000E+00 -0.00000000000E+00 -0.74505805969E-08  0.93827000000E+00  0.93827000000E+00 0.  1.
     999902    2    1    2    0    0  0.72523265836E-02 -0.48784882032E-02  0.10083267714E-01  0.10305857812E+01  0.10304993858E+01 0.  0.
     999903    2    3    3    0    0  0.12048478969E+00 -0.25173790524E-01  0.55027580170E-01  0.14196129288E+00  0.44437257102E-01 0.  0.
         14    1    1    2    0    0 -0.72523265836E-02  0.48784882032E-02 -0.10083267714E-01  0.13344218816E-01  0.00000000000E+00 0. -1.
     999901    1    3    3    0    0 -0.11323246311E+00  0.20295302321E-01 -0.44944312456E-01  0.88862448831E+00  0.88000000000E+00 0.  1.
        -11    1    4    4    0    0  0.94994431279E-01 -0.14450930953E-01  0.21440545812E-01  0.98451660753E-01  0.51100000000E-03 0. -1.
         11    1    4    4    0    0  0.25490358415E-01 -0.10722859571E-01  0.33587034357E-01  0.43509632122E-01  0.51100000000E-03 0.  1.
</event>
<event>
 8    1  0.2107254E+004  0.1043930E+01  0.7957747E-01            NaN
         13   -1    0    0    0    0  0.00000000000E+00  0.00000000000E+00  0.74505805969E-08  0.10566000000E+00  0.10566000000E+00 0.  1.
     999900   -1    0    0    0    0 -0.00000000000E+00 -0.00000000000E+00 -0.74505805969E-08  0.93827000000E+00  0.93827000000E+00 0. -1.
     999902    2    1    2    0    0  0.14608106841E-01  0.62066218679E-02 -0.10451998955E-01  0.10249257052E+01  0.10247495001E+01 0.  0.
     999903    2    3    3    0    0  0.11701960674E+00  0.52703220356E-01 -0.22401416156E-01  0.13768682100E+00  0.44549067722E-01 0.  0.
         14    1    1    2    0    0 -0.14608106841E-01 -0.62066218679E-02  0.10451998955E-01  0.19004294847E-01  0.00000000000E+00 0. -1.
     999901    1    3    3    0    0 -0.10241149989E+00 -0.46496598488E-01  0.11949417201E-01  0.88723888415E+00  0.88000000000E+00 0.  1.
        -11    1    4    4    0    0  0.68755747963E-01  0.45487814083E-01  0.33423344760E-02  0.82510159549E-01  0.51100000000E-03 0.  1.
         11    1    4    4    0    0  0.48263858772E-01  0.72154062727E-02 -0.25743750632E-01  0.55176661451E-01  0.51100000000E-03 0. -1.
</event>
<event>
 8    1  0.2107254E+004  0.1043930E+01  0.7957747E-01            NaN
         13   -1    0    0    0    0  0.00000000000E+00  0.00000000000E+00  0.74505805969E-08  0.10566000000E+00  0.10566000000E+00 0. -1.
     999900   -1    0    0    0    0 -0.00000000000E+00 -0.00000000000E+00 -0.74505805969E-08  0.93827000000E+00  0.93827000000E+00 0. -1.
     999902    2    1    2    0    0  0.99363338832E-02  0.94499208150E-02  0.51953193762E-02  0.10292663348E+01  0.10291618749E+01 0.  0.
     999903    2    3    3    0    0  0.53095059166E-01 -0.94902931219E-01  0.74457136402E-01  0.13935094970E+00  0.45267762911E-01 0.  0.
         14    1    1    2    0    0 -0.99363338832E-02 -0.94499208150E-02 -0.51953193762E-02  0.14663665226E-01  0.00000000000E+00 0. -1.
     999901    1    3    3    0    0 -0.43158725283E-01  0.10435285203E+00 -0.69261817026E-01  0.88991538508E+00  0.88000000000E+00 0. -1.
        -11    1    4    4    0    0  0.29362862841E-01 -0.15248417145E-01  0.31943716771E-01  0.45992978831E-01  0.51100000000E-03 0.  1.
         11    1    4    4    0    0  0.23732196326E-01 -0.79654514074E-01  0.42513419631E-01  0.93357970868E-01  0.51100000000E-03 0. -1.
</event>
<event>
 8    1  0.2107254E+004  0.1043930E+01  0.7957747E-01            NaN
         13   -1    0    0    0    0  0.00000000000E+00  0.00000000000E+00  0.74505805969E-08  0.10566000000E+00  0.10566000000E+00 0.  1.
     999900   -1    0    0    0    0 -0.00000000000E+00 -0.00000000000E+00 -0.74505805969E-08  0.93827000000E+00  0.93827000000E+00 0.  1.
     999902    2    1    2    0    0  0.11260099197E-01  0.47363853944E-02 -0.73653234314E-02  0.10296656679E+01  0.10295668587E+01 0.  0.
     999903    2    3    3    0    0  0.11615049511E+00  0.51874440692E-01  0.40693127043E-01  0.14088357647E+00  0.44836998334E-01 0.  0.
         14    1    1    2    0    0 -0.11260099197E-01 -0.47363853944E-02  0.73653234314E-02  0.14264332083E-01  0.00000000000E+00 0. -1.
     999901    1    3    3    0    0 -0.10489039591E+00 -0.47138055298E-01 -0.48058450474E-01  0.88878209145E+00  0.88000000000E+00 0.  1.
        -11    1    4    4    0    0  0.73318856667E-01  0.19558008995E-01  0.42916971648E-01  0.87179688204E-01  0.51100000000E-03 0.  1.
         11    1    4    4    0    0  0.42831638442E-01  0.32316431697E-01 -0.22238446048E-02  0.53703888268E-01  0.51100000000E-03 0. -1.
</event>
<event>
 7    1  0.2107254E+004  0.1043930E+01  0.7957747E-01            NaN
         13   -1    0    0    0    0  0.00000000000E+00  0.00000000000E+00  0.74505805969E-08  0.10566000000E+00  0.10566000000E+00 0.  1.
     999900   -1    0    0    0    0 -0.00000000000E+00 -0.00000000000E+00 -0.74505805969E-08  0.93827000000E+00  0.93827000000E+00 0.  1.
     999903    2    1    2    0    0  0.11431287067E+00  0.14705412324E-01  0.17269643526E-01  0.12487662554E+00  0.44858103682E-01 0.  0.
         14    1    1    2    0    0  0.13563527876E-01  0.20012646790E-01 -0.16255488267E-01  0.29132734489E-01  0.00000000000E+00 0. -1.
     999901    1    1    2    0    0 -0.12787639855E+00 -0.34718059113E-01 -0.10141552587E-02  0.88992063997E+00  0.88000000000E+00 0. -1.
        -11    1    3    3    0    0  0.63491498007E-01 -0.88718181771E-02 -0.56168592194E-02  0.64355960916E-01  0.51100000000E-03 0. -1.
         11    1    3    3    0    0  0.50821372666E-01  0.23577230501E-01  0.22886502746E-01  0.60520664625E-01  0.51100000000E-03 0.  1.
</event>
<event>
 7    1  0.2107254E+004  0.1043930E+01  0.7957747E-01            NaN
         13   -1    0    0    0    0  0.00000000000E+00  0.00000000000E+00  0.74505805969E-08  0.10566000000E+00  0.10566000000E+00 0.  1.
     999900   -1    0    0    0    0 -0.00000000000E+00 -0.00000000000E+00 -0.74505805969E-08  0.93827000000E+00  0.93827000000E+00 0. -1.
     999903    2    1    2    0    0 -0.46152871280E-01 -0.92978799760E-01  0.48751298870E-01  0.12317211549E+00  0.44939249670E-01 0.  0.
         14    1    1    2    0    0 -0.13638313503E-02 -0.28123845759E-01  0.83339621934E-02  0.29364360406E-01  0.00000000000E+00 0. -1.
     999901    1    1    2    0    0  0.47516702631E-01  0.12110264552E+00 -0.57085261064E-01  0.89139352410E+00  0.88000000000E+00 0. -1.
        -11    1    3    3    0    0 -0.38754537895E-01 -0.49977394550E-01  0.85130128504E-02  0.63815254306E-01  0.51100000000E-03 0. -1.
         11    1    3    3    0    0 -0.73983333858E-02 -0.43001405211E-01  0.40238286020E-01  0.59356861186E-01  0.51100000000E-03 0.  1.
</event>
<event>
 8    1  0.2107254E+004  0.1043930E+01  0.7957747E-01            NaN
         13   -1    0    0    0    0  0.00000000000E+00  0.00000000000E+00  0.74505805969E-08  0.10566000000E+00  0.10566000000E+00 0. -1.
     999900   -1    0    0    0    0 -0.00000000000E+00 -0.00000000000E+00 -0.74505805969E-08  0.93827000000E+00  0.93827000000E+00 0. -1.
     999902    2    1    2    0    0 -0.11471471041E-01  0.26938436024E-02  0.70017038065E-02  0.10302232390E+01  0.10301320531E+01 0.  0.
     999903    2    3    3    0    0 -0.19398072764E-01 -0.37425859879E-01  0.12723817926E+00  0.14110613104E+00  0.44095416330E-01 0.  0.
         14    1    1    2    0    0  0.11471471041E-01 -0.26938436024E-02 -0.70017038065E-02  0.13706761010E-01  0.00000000000E+00 0.  1.
     999901    1    3    3    0    0  0.79266017238E-02  0.40119703481E-01 -0.12023647545E+00  0.88911710795E+00  0.88000000000E+00 0. -1.
        -11    1    4    4    0    0 -0.32751461976E-01 -0.30605616237E-01  0.10612943724E+00  0.11520885633E+00  0.51100000000E-03 0. -1.
         11    1    4    4    0    0  0.13353389212E-01 -0.68202436418E-02  0.21108742013E-01  0.25897274705E-01  0.51100000000E-03 0.  1.
</event>
<event>
 8    1  0.2107254E+004  0.1043930E+01  0.7957747E-01            NaN
         13   -1    0    0    0    0  0.00000000000E+00  0.00000000000E+00  0.74505805969E-08  0.10566000000E+00  0.10566000000E+00 0. -1.
     999900   -1    0    0    0    0 -0.00000000000E+00 -0.00000000000E+00 -0.74505805969E-08  0.93827000000E+00  0.93827000000E+00 0.  1.
     999902    2    1    2    0    0  0.28303986505E-02 -0.61294919829E-02  0.12158397597E-01  0.10300228630E+01  0.10299289732E+01 0.  0.
     999903    2    3    3    0    0  0.62577049463E-02  0.11684157600E+00  0.62080502191E-01  0.14006452320E+00  0.45529870977E-01 0.  0.
         14    1    1    2    0    0 -0.28303986505E-02  0.61294919829E-02 -0.12158397597E-01  0.13907137039E-01  0.00000000000E+00 0.  1.
     999901    1    3    3    0    0 -0.34273062957E-02 -0.12297106799E+00 -0.49922104594E-01  0.88995833977E+00  0.88000000000E+00 0.  1.
        -11    1    4    4    0    0  0.18276025062E-01  0.60299856687E-01  0.13238885645E-01  0.64386450613E-01  0.51100000000E-03 0. -1.
         11    1    4    4    0    0 -0.12018320116E-01  0.56541719318E-01  0.48841616547E-01  0.75678072582E-01  0.51100000000E-03 0.  1.
</event>
<event>
 8    1  0.2107254E+004  0.1043930E+01  0.7957747E-01            NaN
         13   -1    0    0    0    0  0.00000000000E+00  0.00000000000E+00  0.74505805969E-08  0.10566000000E+00  0.10566000000E+00 0. -1.
     999900   -1    0    0    0    0 -0.00000000000E+00 -0.00000000000E+00 -0.74505805969E-08  0.93827000000E+00  0.93827000000E+00 0.  1.
     999902    2    1    2    0    0  0.45624386685E-03 -0.94767403567E-02  0.10392156137E-01  0.10298582668E+01  0.10297621259E+01 0.  0.
     999903    2    3    3    0    0 -0.55311885563E-01  0.65713820804E-02  0.12130647078E+00  0.14099966629E+00  0.45420901502E-01 0.  0.
         14    1    1    2    0    0 -0.45624386685E-03  0.94767403567E-02 -0.10392156137E-01  0.14071733206E-01  0.00000000000E+00 0.  1.
     999901    1    3    3    0    0  0.55768129430E-01 -0.16048122437E-01 -0.11091431465E+00  0.88885860050E+00  0.88000000000E+00 0.  1.
        -11    1    4    4    0    0 -0.45640429502E-01 -0.10978332163E-01  0.10549734206E+00  0.11547087462E+00  0.51100000000E-03 0.  1.
         11    1    4    4    0    0 -0.96714560607E-02  0.17549714243E-01  0.15809128726E-01  0.25528791675E-01  0.51100000000E-03 0. -1.
</event>
<event>
 8    1  0.2107254E+004  0.1043930E+01  0.7957747E-01            NaN
         13   -1    0    0    0    0  0.00000000000E+00  0.00000000000E+00  0.74505805969E-08  0.10566000000E+00  0.10566000000E+00 0.  1.
     999900   -1    0    0    0    0 -0.00000000000E+00 -0.00000000000E+00 -0.74505805969E-08  0.93827000000E+00  0.93827000000E+00 0.  1.
     999902    2    1    2    0    0  0.50226354222E-02  0.12494515183E-01 -0.60195960014E-02  0.10291795657E+01  0.10290738570E+01 0.  0.
     999903    2    3    3    0    0  0.16488653672E-01  0.11024338373E+00 -0.74219613418E-01  0.14107058969E+00  0.44349531049E-01 0.  0.
         14    1    1    2    0    0 -0.50226354222E-02 -0.12494515183E-01  0.60195960014E-02  0.14750434308E-01  0.00000000000E+00 0.  1.
     999901    1    3    3    0    0 -0.11466018250E-01 -0.97748868546E-01  0.68200017417E-01  0.88810897600E+00  0.88000000000E+00 0. -1.
        -11    1    4    4    0    0  0.42249535596E-02  0.22825605683E-01 -0.40285185376E-01  0.46497481535E-01  0.51100000000E-03 0. -1.
         11    1    4    4    0    0  0.12263700112E-01  0.87417778046E-01 -0.33934428043E-01  0.94573108157E-01  0.51100000000E-03 0.  1.
</event>
<event>
 8    1  0.2107254E+004  0.1043930E+01  0.7957747E-01            NaN
         13   -1    0    0    0    0  0.00000000000E+00  0.00000000000E+00  0.74505805969E-08  0.10566000000E+00  0.10566000000E+00 0. -1.
     999900   -1    0    0    0    0 -0.00000000000E+00 -0.00000000000E+00 -0.74505805969E-08  0.93827000000E+00  0.93827000000E+00 0. -1.
     999902    2    1    2    0    0 -0.34186179291E-02  0.83386106143E-02 -0.10238637786E-01  0.10302900191E+01  0.10301997255E+01 0.  0.
     999903    2    3    3    0    0  0.96501613995E-01  0.98996623777E-02 -0.92207343746E-01  0.14084898204E+00  0.43882532768E-01 0.  0.
         14    1    1    2    0    0  0.34186179291E-02 -0.83386106143E-02  0.10238637786E-01  0.13639980911E-01  0.00000000000E+00 0. -1.
     999901    1    3    3    0    0 -0.99920231924E-01 -0.15610517634E-02  0.81968705960E-01  0.88944103705E+00  0.88000000000E+00 0.  1.
        -11    1    4    4    0    0  0.26090291030E-01  0.12842663318E-01 -0.63459840011E-02  0.29768606300E-01  0.51100000000E-03 0.  1.
         11    1    4    4    0    0  0.70411322966E-01 -0.29430009399E-02 -0.85861359745E-01  0.11108037574E+00  0.51100000000E-03 0. -1.
</event>
<event>
 8    1  0.2107254E+004  0.1043930E+01  0.7957747E-01            NaN
         13   -1    0    0    0    0  0.00000000000E+00  0.00000000000E+00  0.74505805969E-08  0.10566000000E+00  0.10566000000E+00 0.  1.
     999900   -1    0    0    0    0 -0.00000000000E+00 -0.00000000000E+00 -0.74505805969E-08  0.93827000000E+00  0.93827000000E+00 0.  1.
     999902    2    1    2    0    0 -0.22367545404E-02  0.52831826693E-02  0.12926249929E-01  0.10297877573E+01  0.10296906439E+01 0.  0.
     999903    2    3    3    0    0  0.91653152374E-01 -0.79393763457E-01 -0.49869579726E-01  0.13853649309E+00  0.44740528818E-01 0.  0.
         14    1    1    2    0    0  0.22367545404E-02 -0.52831826693E-02 -0.12926249929E-01  0.14142242651E-01  0.00000000000E+00 0. -1.
     999901    1    3    3    0    0 -0.93889906914E-01  0.84676946127E-01  0.62795829654E-01  0.89125126426E+00  0.88000000000E+00 0. -1.
        -11    1    4    4    0    0  0.27887493074E-01 -0.44292412939E-01 -0.39925434376E-02  0.52495062987E-01  0.51100000000E-03 0.  1.
         11    1    4    4    0    0  0.63765659300E-01 -0.35101350519E-01 -0.45877036288E-01  0.86041430100E-01  0.51100000000E-03 0. -1.
</event>
<event>
 8    1  0.2107254E+004  0.1043930E+01  0.7957747E-01            NaN
         13   -1    0    0    0    0  0.00000000000E+00  0.00000000000E+00  0.74505805969E-08  0.10566000000E+00  0.10566000000E+00 0. -1.
     999900   -1    0    0    0    0 -0.00000000000E+00 -0.00000000000E+00 -0.74505805969E-08  0.93827000000E+00  0.93827000000E+00 0. -1.
     999902    2    1    2    0    0  0.13922070582E-01 -0.34931242480E-03  0.25939347035E-02  0.10297640350E+01  0.10296665932E+01 0.  0.
     999903    2    3    3    0    0  0.69132724775E-01  0.10554641137E+00 -0.42608039032E-01  0.14054789751E+00  0.44932036659E-01 0.  0.
         14    1    1    2    0    0 -0.13922070582E-01  0.34931242480E-03 -0.25939347035E-02  0.14165965046E-01  0.00000000000E+00 0. -1.
     999901    1    3    3    0    0 -0.55210654193E-01 -0.10589572379E+00  0.45201973735E-01  0.88921613744E+00  0.88000000000E+00 0.  1.
        -11    1    4    4    0    0  0.40527550851E-01  0.86740689630E-01 -0.45854954814E-01  0.10615727774E+00  0.51100000000E-03 0. -1.
         11    1    4    4    0    0  0.28605173924E-01  0.18805721736E-01  0.32469157824E-02  0.34390619772E-01  0.51100000000E-03 0.  1.
</event>
<event>
 8    1  0.2107254E+004  0.1043930E+01  0.7957747E-01            NaN
         13   -1    0    0    0    0  0.00000000000E+00  0.00000000000E+00  0.74505805969E-08  0.10566000000E+00  0.10566000000E+00 0. -1.
     999900   -1    0    0    0    0 -0.00000000000E+00 -0.00000000000E+00 -0.74505805969E-08  0.93827000000E+00  0.93827000000E+00 0.  1.
     999902    2    1    2    0    0 -0.18057247618E-02 -0.12887240217E-01 -0.64131589152E-02  0.10294224086E+01  0.10293201761E+01 0.  0.
     999903    2    3    3    0    0  0.10847628435E+00 -0.75901208475E-02 -0.75187648811E-01  0.13986065608E+00  0.45641060273E-01 0.  0.
         14    1    1    2    0    0  0.18057247618E-02  0.12887240217E-01  0.64131589152E-02  0.14507591447E-01  0.00000000000E+00 0. -1.
     999901    1    3    3    0    0 -0.11028200912E+00 -0.52971193690E-02  0.68774489896E-01  0.88956175248E+00  0.88000000000E+00 0.  1.
        -11    1    4    4    0    0  0.10822790598E+00 -0.66146714796E-02 -0.58634795194E-01  0.12326935483E+00  0.51100000000E-03 0. -1.
         11    1    4    4    0    0  0.24837837589E-03 -0.97544936787E-03 -0.16552853617E-01  0.16591301250E-01  0.51100000000E-03 0.  1.
</event>
<event>
 8    1  0.2107254E+004  0.1043930E+01  0.7957747E-01            NaN
         13   -1    0    0    0    0  0.00000000000E+00  0.00000000000E+00  0.74505805969E-08  0.10566000000E+00  0.10566000000E+00 0. -1.
     999900   -1    0    0    0    0 -0.00000000000E+00 -0.00000000000E+00 -0.74505805969E-08  0.93827000000E+00  0.93827000000E+00 0.  1.
     999902    2    1    2    0    0  0.12760191062E-01 -0.67226076141E-02 -0.76922252338E-02  0.10275841669E+01  0.10274541517E+01 0.  0.
     999903    2    3    3    0    0  0.65152745864E-01  0.91523373397E-01 -0.67682758104E-01  0.13854192014E+00  0.44626222324E-01 0.  0.
         14    1    1    2    0    0 -0.12760191062E-01  0.67226076141E-02  0.76922252338E-02  0.16345833051E-01  0.00000000000E+00 0.  1.
     999901    1    3    3    0    0 -0.52392554802E-01 -0.98245981011E-01  0.59990532870E-01  0.88904224681E+00  0.88000000000E+00 0. -1.
        -11    1    4    4    0    0  0.65323510242E-01  0.58007841611E-01 -0.49137707143E-01  0.10023395664E+00  0.51100000000E-03 0. -1.
         11    1    4    4    0    0 -0.17076437762E-03  0.33515531787E-01 -0.18545050961E-01  0.38307963501E-01  0.51100000000E-03 0.  1.
</event>
<event>
 8    1  0.2107254E+004  0.1043930E+01  0.7957747E-01            NaN
         13   -1    0    0    0    0  0.00000000000E+00  0.00000000000E+00  0.74505805969E-08  0.10566000000E+00  0.10566000000E+00 0.  1.
     999900   -1    0    0    0    0 -0.00000000000E+00 -0.00000000000E+00 -0.74505805969E-08  0.93827000000E+00  0.93827000000E+00 0.  1.
     999902    2    1    2    0    0 -0.30311836461E-03  0.73223168283E-02  0.12625357223E-01  0.10293317861E+01  0.10292282633E+01 0.  0.
     999903    2    3    3    0    0  0.51904161747E-01  0.12162056780E+00  0.41671247771E-02  0.14036540204E+00  0.46898578255E-01 0.  0.
         14    1    1    2    0    0  0.30311836461E-03 -0.73223168283E-02 -0.12625357223E-01  0.14598213914E-01  0.00000000000E+00 0. -1.
     999901    1    3    3    0    0 -0.52207280111E-01 -0.11429825097E+00  0.84582324460E-02  0.88896638405E+00  0.88000000000E+00 0. -1.
        -11    1    4    4    0    0  0.38236713844E-01  0.10828647387E+00  0.18714826251E-01  0.11635511399E+00  0.51100000000E-03 0. -1.
         11    1    4    4    0    0  0.13667447902E-01  0.13334093929E-01 -0.14547701474E-01  0.24010288050E-01  0.51100000000E-03 0.  1.
</event>
<event>
 8    1  0.2107254E+004  0.1043930E+01  0.7957747E-01            NaN
         13   -1    0    0    0    0  0.00000000000E+00  0.00000000000E+00  0.74505805969E-08  0.10566000000E+00  0.10566000000E+00 0.  1.
     999900   -1    0    0    0    0 -0.00000000000E+00 -0.00000000000E+00 -0.74505805969E-08  0.93827000000E+00  0.93827000000E+00 0. -1.
     999902    2    1    2    0    0 -0.64022096858E-02 -0.11939205233E-01 -0.22200351016E-02  0.10302018732E+01  0.10301104009E+01 0.  0.
     999903    2    3    3    0    0 -0.10635592404E+00  0.39631628979E-01  0.68915210170E-01  0.14019596360E+00  0.44981700974E-01 0.  0.
         14    1    1    2    0    0  0.64022096858E-02  0.11939205233E-01  0.22200351016E-02  0.13728126832E-01  0.00000000000E+00 0.  1.
     999901    1    3    3    0    0  0.99953714351E-01 -0.51570834212E-01 -0.71135245272E-01  0.89000590957E+00  0.88000000000E+00 0. -1.
        -11    1    4    4    0    0 -0.45213957006E-02 -0.54857426130E-02  0.14662595621E-01  0.16303043349E-01  0.51100000000E-03 0.  1.
         11    1    4    4    0    0 -0.10183452834E+00  0.45117371592E-01  0.54252614549E-01  0.12389292025E+00  0.51100000000E-03 0. -1.
</event>
<event>
 8    1  0.2107254E+004  0.1043930E+01  0.7957747E-01            NaN
         13   -1    0    0    0    0  0.00000000000E+00  0.00000000000E+00  0.74505805969E-08  0.10566000000E+00  0.10566000000E+00 0.  1.
     999900   -1    0    0    0    0 -0.00000000000E+00 -0.00000000000E+00 -0.74505805969E-08  0.93827000000E+00  0.93827000000E+00 0.  1.
     999902    2    1    2    0    0  0.11415566304E-02 -0.81168182087E-02 -0.85511447080E-02  0.10320848337E+01  0.10320168584E+01 0.  0.
     999903    2    3    3    0    0  0.19649001048E-01  0.11712118500E+00  0.64331881105E-01  0.14004278400E+00  0.37012635756E-01 0.  0.
         14    1    1    2    0    0 -0.11415566304E-02  0.81168182087E-02  0.85511447080E-02  0.11845166322E-01  0.00000000000E+00 0.  1.
     999901    1    3    3    0    0 -0.18507444418E-01 -0.12523800321E+00 -0.72883025813E-01  0.89204204968E+00  0.88000000000E+00 0.  1.
        -11    1    4    4    0    0  0.19544105174E-01  0.91331089628E-01  0.32105979701E-01  0.98764340899E-01  0.51100000000E-03 0. -1.
         11    1    4    4    0    0  0.10489587474E-03  0.25790095371E-01  0.32225901403E-01  0.41278443099E-01  0.51100000000E-03 0.  1.
</event>
<event>
 8    1  0.2107254E+004  0.1043930E+01  0.7957747E-01            NaN
         13   -1    0    0    0    0  0.00000000000E+00  0.00000000000E+00  0.74505805969E-08  0.10566000000E+00  0.10566000000E+00 0. -1.
     999900   -1    0    0    0    0 -0.00000000000E+00 -0.00000000000E+00 -0.74505805969E-08  0.93827000000E+00  0.93827000000E+00 0. -1.
     999902    2    1    2    0    0 -0.14561960358E-01  0.10260765200E-01  0.13329592004E-01  0.10216811345E+01  0.10214388521E+01 0.  0.
     999903    2    3    3    0    0  0.13544585156E-02 -0.12196714570E-01  0.12565227604E+00  0.13411476735E+00  0.45251319789E-01 0.  0.
         14    1    1    2    0    0  0.14561960358E-01 -0.10260765200E-01 -0.13329592004E-01  0.22248865475E-01  0.00000000000E+00 0.  1.
     999901    1    3    3    0    0 -0.15916418873E-01  0.22457479770E-01 -0.11232268404E+00  0.88756636717E+00  0.88000000000E+00 0. -1.
        -11    1    4    4    0    0 -0.15682070979E-01  0.96962681757E-02  0.39268002539E-01  0.43384122800E-01  0.51100000000E-03 0.  1.
         11    1    4    4    0    0  0.17036529495E-01 -0.21892982746E-01  0.86384273504E-01  0.90730644551E-01  0.51100000000E-03 0. -1.
</event>
<event>
 8    1  0.2107254E+004  0.1043930E+01  0.7957747E-01            NaN
         13   -1    0    0    0    0  0.00000000000E+00  0.00000000000E+00  0.74505805969E-08  0.10566000000E+00  0.10566000000E+00 0.  1.
     999900   -1    0    0    0    0 -0.00000000000E+00 -0.00000000000E+00 -0.74505805969E-08  0.93827000000E+00  0.93827000000E+00 0.  1.
     999902    2    1    2    0    0 -0.10934782278E-01  0.34179660754E-02  0.65382796803E-02  0.10307390540E+01  0.10306546446E+01 0.  0.
     999903    2    3    3    0    0  0.19319097223E-01 -0.78140831241E-01 -0.10395052782E+00  0.13957413590E+00  0.46861606383E-01 0.  0.
         14    1    1    2    0    0  0.10934782278E-01 -0.34179660754E-02 -0.65382796803E-02  0.13190946013E-01  0.00000000000E+00 0.  1.
     999901    1    3    3    0    0 -0.30253879501E-01  0.81558797316E-01  0.11048880750E+00  0.89116491809E+00  0.88000000000E+00 0.  1.
        -11    1    4    4    0    0  0.10370072098E-01 -0.25335912750E-01 -0.61425697462E-02  0.28061346266E-01  0.51100000000E-03 0.  1.
         11    1    4    4    0    0  0.89490251248E-02 -0.52804918491E-01 -0.97807958078E-01  0.11151278963E+00  0.51100000000E-03 0. -1.
</event>
<event>
 8    1  0.2107254E+004  0.1043930E+01  0.7957747E-01            NaN
         13   -1    0    0    0    0  0.00000000000E+00  0.00000000000E+00  0.74505805969E-08  0.10566000000E+00  0.10566000000E+00 0. -1.
     999900   -1    0    0    0    0 -0.00000000000E+00 -0.00000000000E+00 -0.74505805969E-08  0.93827000000E+00  0.93827000000E+00 0. -1.
     999902    2    1    2    0    0 -0.17971459523E-02  0.70832335067E-02 -0.12320600526E-01  0.10296052268E+01  0.10295055725E+01 0.  0.
     999903    2    3    3    0    0  0.22914924802E-01  0.35855783860E-01  0.12324917708E+00  0.13841629580E+00  0.46454066336E-01 0.  0.
         14    1    1    2    0    0  0.17971459523E-02 -0.70832335067E-02  0.12320600526E-01  0.14324773220E-01  0.00000000000E+00 0. -1.
     999901    1    3    3    0    0 -0.24712070754E-01 -0.28772550354E-01 -0.13556977760E+00  0.89118893098E+00  0.88000000000E+00 0. -1.
        -11    1    4    4    0    0 -0.57464542168E-02 -0.80564095566E-03  0.57885533554E-01  0.58177890209E-01  0.51100000000E-03 0. -1.
         11    1    4    4    0    0  0.28661379019E-01  0.36661424816E-01  0.65363643523E-01  0.80238405595E-01  0.51100000000E-03 0.  1.
</event>
<event>
 8    1  0.2107254E+004  0.1043930E+01  0.7957747E-01            NaN
         13   -1    0    0    0    0  0.00000000000E+00  0.00000000000E+00  0.74505805969E-08  0.10566000000E+00  0.10566000000E+00 0. -1.
     999900   -1    0    0    0    0 -0.00000000000E+00 -0.00000000000E+00 -0.74505805969E-08  0.93827000000E+00  0.93827000000E+00 0. -1.
     999902    2    1    2    0    0  0.34047892308E-02  0.23713872484E-02 -0.12898493657E-01  0.10303805644E+01  0.10302914734E+01 0.  0.
     999903    2    3    3    0    0  0.30216325403E-01 -0.29575722408E-01  0.12430430159E+00  0.13877298067E+00  0.44929178663E-01 0.  0.
         14    1    1    2    0    0 -0.34047892308E-02 -0.23713872484E-02  0.12898493657E-01  0.13549435627E-01  0.00000000000E+00 0. -1.
     999901    1    3    3    0    0 -0.26811536172E-01  0.31947109657E-01 -0.13720279524E+00  0.89160758370E+00  0.88000000000E+00 0. -1.
        -11    1    4    4    0    0  0.58581194267E-02 -0.15261141546E-02  0.82982196258E-01  0.83204282368E-01  0.51100000000E-03 0. -1.
         11    1    4    4    0    0  0.24358205976E-01 -0.28049608254E-01  0.41322105328E-01  0.55568698305E-01  0.51100000000E-03 0.  1.
</event>
<event>
 8    1  0.2107254E+004  0.1043930E+01  0.7957747E-01            NaN
         13   -1    0    0    0    0  0.00000000000E+00  0.00000000000E+00  0.74505805969E-08  0.10566000000E+00  0.10566000000E+00 0.  1.
     999900   -1    0    0    0    0 -0.00000000000E+00 -0.00000000000E+00 -0.74505805969E-08  0.93827000000E+00  0.93827000000E+00 0.  1.
     999902    2    1    2    0    0 -0.60065607854E-02 -0.43230883067E-02 -0.11571049259E-01  0.10301947517E+01  0.10301031839E+01 0.  0.
     999903    2    3    3    0    0  0.58069876600E-01  0.11593990160E+00 -0.24438120860E-01  0.13961374017E+00  0.45613631071E-01 0.  0.
         14    1    1    2    0    0  0.60065607854E-02  0.43230883067E-02  0.11571049259E-01  0.13735248302E-01  0.00000000000E+00 0. -1.
     999901    1    3    3    0    0 -0.64076437385E-01 -0.12026298991E+00  0.12867071601E-01  0.89058101153E+00  0.88000000000E+00 0.  1.
        -11    1    4    4    0    0  0.44733668729E-01  0.62233885045E-01 -0.33305493852E-01  0.83568382822E-01  0.51100000000E-03 0.  1.
         11    1    4    4    0    0  0.13336207871E-01  0.53706016559E-01  0.88673729914E-02  0.56045357344E-01  0.51100000000E-03 0. -1.
</event>
<event>
 8    1  0.2107254E+004  0.1043930E+01  0.7957747E-01            NaN
         13   -1    0    0    0    0  0.00000000000E+00  0.00000000000E+00  0.74505805969E-08  0.10566000000E+00  0.10566000000E+00 0.  1.
     999900   -1    0    0    0    0 -0.00000000000E+00 -0.00000000000E+00 -0.74505805969E-08  0.93827000000E+00  0.93827000000E+00 0. -1.
     999902    2    1    2    0    0 -0.13593419537E-01  0.59700690710E-02 -0.51908441147E-02  0.10282020745E+01  0.10280817761E+01 0.  0.
     999903    2    3    3    0    0 -0.48687751830E-01  0.96260944239E-01 -0.77116274465E-01  0.13996937869E+00  0.44808934579E-01 0.  0.
         14    1    1    2    0    0  0.13593419537E-01 -0.59700690710E-02  0.51908441147E-02  0.15727925548E-01  0.00000000000E+00 0.  1.
     999901    1    3    3    0    0  0.35094332293E-01 -0.90290875168E-01  0.71925430350E-01  0.88823269577E+00  0.88000000000E+00 0.  1.
        -11    1    4    4    0    0 -0.34442823305E-01  0.44753931292E-01 -0.63174474894E-01  0.84737818253E-01  0.51100000000E-03 0. -1.
         11    1    4    4    0    0 -0.14244928526E-01  0.51507012947E-01 -0.13941799571E-01  0.55231560432E-01  0.51100000000E-03 0.  1.
</event>
<event>
 8    1  0.2107254E+004  0.1043930E+01  0.7957747E-01            NaN
         13   -1    0    0    0    0  0.00000000000E+00  0.00000000000E+00  0.74505805969E-08  0.10566000000E+00  0.10566000000E+00 0.  1.
     999900   -1    0    0    0    0 -0.00000000000E+00 -0.00000000000E+00 -0.74505805969E-08  0.93827000000E+00  0.93827000000E+00 0.  1.
     999902    2    1    2    0    0  0.70939302579E-02  0.19746894093E-01  0.71322057116E-02  0.10217685012E+01  0.10215281386E+01 0.  0.
     999903    2    3    3    0    0 -0.25712970909E-01 -0.75334997102E-01 -0.90648919535E-01  0.13065795400E+00  0.50177242536E-01 0.  0.
         14    1    1    2    0    0 -0.70939302579E-02 -0.19746894093E-01 -0.71322057116E-02  0.22161498847E-01  0.00000000000E+00 0.  1.
     999901    1    3    3    0    0  0.32806901167E-01  0.95081891196E-01  0.97781125247E-01  0.89111054716E+00  0.88000000000E+00 0. -1.
        -11    1    4    4    0    0 -0.25078942166E-02 -0.50687566139E-02 -0.41353650779E-01  0.41741674389E-01  0.51100000000E-03 0. -1.
         11    1    4    4    0    0 -0.23205076693E-01 -0.70266240489E-01 -0.49295268756E-01  0.88916279609E-01  0.51100000000E-03 0.  1.
</event>
<event>
 8    1  0.2107254E+004  0.1043930E+01  0.7957747E-01            NaN
         13   -1    0    0    0    0  0.00000000000E+00  0.00000000000E+00  0.74505805969E-08  0.10566000000E+00  0.10566000000E+00 0.  1.
     999900   -1    0    0    0    0 -0.00000000000E+00 -0.00000000000E+00 -0.74505805969E-08  0.93827000000E+00  0.93827000000E+00 0. -1.
     999902    2    1    2    0    0 -0.90304118836E-02  0.10406972059E-01 -0.46600968077E-02  0.10293845571E+01  0.10292817868E+01 0.  0.
     999903    2    3    3    0    0  0.68673632327E-01  0.11164127332E+00  0.18866242402E-01  0.13986795195E+00  0.45025184025E-01 0.  0.
         14    1    1    2    0    0  0.90304118836E-02 -0.10406972059E-01  0.46600968077E-02  0.14545442877E-01  0.00000000000E+00 0.  1.
     999901    1    3    3    0    0 -0.77704044211E-01 -0.10123430126E+00 -0.23526339209E-01  0.88951660517E+00  0.88000000000E+00 0. -1.
        -11    1    4    4    0    0 -0.53395827580E-02  0.19850581903E-01  0.80248002820E-03  0.20578188479E-01  0.51100000000E-03 0.  1.
         11    1    4    4    0    0  0.74013215085E-01  0.91790691414E-01  0.18063762373E-01  0.11928976347E+00  0.51100000000E-03 0. -1.
</event>
<event>
 8    1  0.2107254E+004  0.1043930E+01  0.7957747E-01            NaN
         13   -1    0    0    0    0  0.00000000000E+00  0.00000000000E+00  0.74505805969E-08  0.10566000000E+00  0.10566000000E+00 0.  1.
     999900   -1    0    0    0    0 -0.00000000000E+00 -0.00000000000E+00 -0.74505805969E-08  0.93827000000E+00  0.93827000000E+00 0. -1.
     999902    2    1    2    0    0  0.10260214026E-02 -0.11582869482E-02 -0.13844261383E-01  0.10299995326E+01  0.10299053254E+01 0.  0.
     999903    2    3    3    0    0 -0.11671278899E+00  0.62012137210E-01  0.59817713872E-03  0.13979645803E+00  0.45555587859E-01 0.  0.
         14    1    1    2    0    0 -0.10260214026E-02  0.11582869482E-02  0.13844261383E-01  0.13930467394E-01  0.00000000000E+00 0.  1.
     999901    1    3    3    0    0  0.11773881039E+00 -0.63170424158E-01 -0.14442438521E-01  0.89020307458E+00  0.88000000000E+00 0. -1.
        -11    1    4    4    0    0 -0.65151784588E-01  0.92268551642E-02  0.40180158741E-02  0.65926439793E-01  0.51100000000E-03 0.  1.
         11    1    4    4    0    0 -0.51561004404E-01  0.52785282046E-01 -0.34198387354E-02  0.73870018234E-01  0.51100000000E-03 0. -1.
</event>
<event>
 7    1  0.2107254E+004  0.1043930E+01  0.7957747E-01            NaN
         13   -1    0    0    0    0  0.00000000000E+00  0.00000000000E+00  0.74505805969E-08  0.10566000000E+00  0.10566000000E+00 0.  1.
     999900   -1    0    0    0    0 -0.00000000000E+00 -0.00000000000E+00 -0.74505805969E-08  0.93827000000E+00  0.93827000000E+00 0.  1.
     999903    2    1    2    0    0  0.41968074058E-01 -0.43997625034E-01  0.88954852065E-01  0.11621196077E+00  0.43533250169E-01 0.  0.
         14    1    1    2    0    0  0.42160694507E-02  0.37607246744E-01  0.14301356249E-01  0.40455024902E-01  0.00000000000E+00 0.  1.
     999901    1    1    2    0    0 -0.46184143508E-01  0.63903782897E-02 -0.10325620831E+00  0.88726301433E+00  0.88000000000E+00 0.  1.
        -11    1    3    3    0    0  0.19253668200E-01 -0.37169039613E-01  0.81019741368E-01  0.91195947593E-01  0.51100000000E-03 0. -1.
         11    1    3    3    0    0  0.22714405857E-01 -0.68285854203E-02  0.79351106973E-02  0.25016013173E-01  0.51100000000E-03 0.  1.
</event>
<event>
 8    1  0.2107254E+004  0.1043930E+01  0.7957747E-01            NaN
         13   -1    0    0    0    0  0.00000000000E+00  0.00000000000E+00  0.74505805969E-08  0.10566000000E+00  0.10566000000E+00 0.  1.
     999900   -1    0    0    0    0 -0.00000000000E+00 -0.00000000000E+00 -0.74505805969E-08  0.93827000000E+00  0.93827000000E+00 0. -1.
     999902    2    1    2    0    0  0.27496347165E-02 -0.61346797467E-02  0.11592453824E-01  0.10305292622E+01  0.10304421287E+01 0.  0.
     999903    2    3    3    0    0  0.66619272019E-01 -0.34869740889E-01  0.11074395103E+00  0.14219596122E+00  0.47973351621E-01 0.  0.
         14    1    1    2    0    0 -0.27496347165E-02  0.61346797467E-02 -0.11592453824E-01  0.13400737753E-01  0.00000000000E+00 0. -1.
     999901    1    3    3    0    0 -0.63869637303E-01  0.28735061142E-01 -0.99151497202E-01  0.88833330102E+00  0.88000000000E+00 0. -1.
        -11    1    4    4    0    0  0.56446666705E-01 -0.13857734923E-01  0.48451539387E-01  0.75670838433E-01  0.51100000000E-03 0. -1.
         11    1    4    4    0    0  0.10172605315E-01 -0.21012005966E-01  0.62292411639E-01  0.66525122791E-01  0.51100000000E-03 0.  1.
</event>
<event>
 8    1  0.2107254E+004  0.1043930E+01  0.7957747E-01            NaN
         13   -1    0    0    0    0  0.00000000000E+00  0.00000000000E+00  0.74505805969E-08  0.10566000000E+00  0.10566000000E+00 0.  1.
     999900   -1    0    0    0    0 -0.00000000000E+00 -0.00000000000E+00 -0.74505805969E-08  0.93827000000E+00  0.93827000000E+00 0.  1.
     999902    2    1    2    0    0 -0.43433788268E-02 -0.87794499498E-02  0.93794541211E-02  0.10303683688E+01  0.10302791164E+01 0.  0.
     999903    2    3    3    0    0 -0.11773435354E+00 -0.43082568957E-01  0.48564101861E-01  0.14156599834E+00  0.44328028884E-01 0.  0.
         14    1    1    2    0    0  0.43433788268E-02  0.87794499498E-02 -0.93794541211E-02  0.13561631195E-01  0.00000000000E+00 0. -1.
     999901    1    3    3    0    0  0.11339097472E+00  0.34303119008E-01 -0.39184647740E-01  0.88880237046E+00  0.88000000000E+00 0.  1.
        -11    1    4    4    0    0 -0.45692658032E-02 -0.14518448677E-01  0.11577738160E-01  0.19130307992E-01  0.51100000000E-03 0. -1.
         11    1    4    4    0    0 -0.11316508774E+00 -0.28564120280E-01  0.36986363701E-01  0.12243569035E+00  0.51100000000E-03 0.  1.
</event>
<event>
 8    1  0.2107254E+004  0.1043930E+01  0.7957747E-01            NaN
         13   -1    0    0    0    0  0.00000000000E+00  0.00000000000E+00  0.74505805969E-08  0.10566000000E+00  0.10566000000E+00 0.  1.
     999900   -1    0    0    0    0 -0.00000000000E+00 -0.00000000000E+00 -0.74505805969E-08  0.93827000000E+00  0.93827000000E+00 0. -1.
     999902    2    1    2    0    0 -0.22808167368E-02  0.86152030778E-02 -0.99954134748E-02  0.10305385050E+01  0.10304514923E+01 0.  0.
     999903    2    3    3    0    0 -0.10614124501E+00  0.50136028271E-03  0.80461451981E-01  0.13978867054E+00  0.42433617571E-01 0.  0.
         14    1    1    2    0    0  0.22808167368E-02 -0.86152030778E-02  0.99954134748E-02  0.13391495047E-01  0.00000000000E+00 0.  1.
     999901    1    3    3    0    0  0.10386042828E+00  0.81138427950E-02 -0.90456865456E-01  0.89074983442E+00  0.88000000000E+00 0. -1.
        -11    1    4    4    0    0 -0.47894973220E-01 -0.37610646273E-02  0.11469139147E-01  0.49395104420E-01  0.51100000000E-03 0.  1.
         11    1    4    4    0    0 -0.58246271793E-01  0.42624249100E-02  0.68992312834E-01  0.90393566116E-01  0.51100000000E-03 0. -1.
</event>
<event>
 8    1  0.2107254E+004  0.1043930E+01  0.7957747E-01            NaN
         13   -1    0    0    0    0  0.00000000000E+00  0.00000000000E+00  0.74505805969E-08  0.10566000000E+00  0.10566000000E+00 0.  1.
     999900   -1    0    0    0    0 -0.00000000000E+00 -0.00000000000E+00 -0.74505805969E-08  0.93827000000E+00  0.93827000000E+00 0.  1.
     999902    2    1    2    0    0 -0.26354233868E-02 -0.25316335042E-02 -0.13178748732E-01  0.10302539610E+01  0.10301631862E+01 0.  0.
     999903    2    3    3    0    0 -0.11566322154E+00 -0.57729205152E-01  0.31956504921E-01  0.14016450134E+00  0.43751883219E-01 0.  0.
         14    1    1    2    0    0  0.26354233868E-02  0.25316335042E-02  0.13178748732E-01  0.13676039002E-01  0.00000000000E+00 0.  1.
     999901    1    3    3    0    0  0.11302779815E+00  0.55197571648E-01 -0.45135253653E-01  0.89008945966E+00  0.88000000000E+00 0.  1.
        -11    1    4    4    0    0 -0.44113685338E-02 -0.23169947005E-02 -0.81487928860E-02  0.95651755489E-02  0.51100000000E-03 0. -1.
         11    1    4    4    0    0 -0.11125185300E+00 -0.55412210452E-01  0.40105297807E-01  0.13059932579E+00  0.51100000000E-03 0.  1.
</event>
<event>
 8    1  0.2107254E+004  0.1043930E+01  0.7957747E-01            NaN
         13   -1    0    0    0    0  0.00000000000E+00  0.00000000000E+00  0.74505805969E-08  0.10566000000E+00  0.10566000000E+00 0.  1.
     999900   -1    0    0    0    0 -0.00000000000E+00 -0.00000000000E+00 -0.74505805969E-08  0.93827000000E+00  0.93827000000E+00 0. -1.
     999902    2    1    2    0    0 -0.28312484028E-02 -0.19712785314E-02 -0.13592279759E-01  0.10299067345E+01  0.10298112593E+01 0.  0.
     999903    2    3    3    0    0 -0.17531604362E-01 -0.98719015512E-01 -0.88934299929E-01  0.14128271665E+00  0.44706768446E-01 0.  0.
         14    1    1    2    0    0  0.28312484028E-02  0.19712785314E-02  0.13592279759E-01  0.14023265511E-01  0.00000000000E+00 0.  1.
     999901    1    3    3    0    0  0.14700355959E-01  0.96747736981E-01  0.75342020171E-01  0.88862401784E+00  0.88000000000E+00 0.  1.
        -11    1    4    4    0    0 -0.29597145876E-01 -0.86655793044E-01 -0.66882137226E-01  0.11339620326E+00  0.51100000000E-03 0.  1.
         11    1    4    4    0    0  0.12065541514E-01 -0.12063222469E-01 -0.22052162703E-01  0.27886513393E-01  0.51100000000E-03 0. -1.
</event>
<event>
 7    1  0.2107254E+004  0.1043930E+01  0.7957747E-01            NaN
         13   -1    0    0    0    0  0.00000000000E+00  0.00000000000E+00  0.74505805969E-08  0.10566000000E+00  0.10566000000E+00 0. -1.
     999900   -1    0    0    0    0 -0.00000000000E+00 -0.00000000000E+00 -0.74505805969E-08  0.93827000000E+00  0.93827000000E+00 0.  1.
     999903    2    1    2    0    0  0.73097718770E-01 -0.39082858907E-01  0.43636618505E-01  0.10372789504E+00  0.44548573318E-01 0.  0.
         14    1    1    2    0    0  0.66900610667E-02  0.43249921337E-01 -0.35809987009E-01  0.56547924651E-01  0.00000000000E+00 0.  1.
     999901    1    1    2    0    0 -0.79787779837E-01 -0.41670624300E-02 -0.78266314958E-02  0.88365418031E+00  0.88000000000E+00 0. -1.
        -11    1    3    3    0    0  0.28400446292E-01  0.61236424930E-02  0.54441772504E-02  0.29563229422E-01  0.51100000000E-03 0. -1.
         11    1    3    3    0    0  0.44697272478E-01 -0.45206501400E-01  0.38192441255E-01  0.74164665615E-01  0.51100000000E-03 0.  1.
</event>
<event>
 8    1  0.2107254E+004  0.1043930E+01  0.7957747E-01            NaN
         13   -1    0    0    0    0  0.00000000000E+00  0.00000000000E+00  0.74505805969E-08  0.10566000000E+00  0.10566000000E+00 0. -1.
     999900   -1    0    0    0    0 -0.00000000000E+00 -0.00000000000E+00 -0.74505805969E-08  0.93827000000E+00  0.93827000000E+00 0.  1.
     999902    2    1    2    0    0 -0.12181676470E-01  0.18296129125E-02  0.31717737376E-02  0.10312099028E+01  0.10311314478E+01 0.  0.
     999903    2    3    3    0    0  0.11825012398E-01 -0.35386163611E-01 -0.12665067131E+00  0.14058360494E+00  0.48284013319E-01 0.  0.
         14    1    1    2    0    0  0.12181676470E-01 -0.18296129125E-02 -0.31717737376E-02  0.12720097235E-01  0.00000000000E+00 0.  1.
     999901    1    3    3    0    0 -0.24006688868E-01  0.37215776523E-01  0.12982244505E+00  0.89062629782E+00  0.88000000000E+00 0. -1.
        -11    1    4    4    0    0 -0.17005626782E-01 -0.14202482287E-01 -0.71389327595E-01  0.74750244553E-01  0.51100000000E-03 0. -1.
         11    1    4    4    0    0  0.28830639180E-01 -0.21183681323E-01 -0.55261343716E-01  0.65833360390E-01  0.51100000000E-03 0.  1.
</event>
<event>
 7    1  0.2983695E+004  0.1043930E+01  0.7957747E-01            NaN
         13   -1    0    0    0    0  0.00000000000E+00  0.00000000000E+00  0.74505805969E-08  0.10566000000E+00  0.10566000000E+00 0. -1.
     999900   -1    0    0    0    0 -0.00000000000E+00 -0.00000000000E+00 -0.74505805969E-08  0.93827000000E+00  0.93827000000E+00 0. -1.
     999903    2    1    2    0    0 -0.54719548208E-01  0.66153600028E-01  0.54449112953E-01  0.11165223255E+00  0.46162618851E-01 0.  0.
         14    1    1    2    0    0  0.39160874177E-01 -0.17185011770E-01  0.20833323468E-01  0.47570222435E-01  0.00000000000E+00 0. -1.
     999901    1    1    2    0    0  0.15558674031E-01 -0.48968588258E-01 -0.75282436421E-01  0.88470754502E+00  0.88000000000E+00 0.  1.
        -11    1    3    3    0    0 -0.17525547625E-01  0.15131220821E-01  0.41007175480E-01  0.47095097674E-01  0.51100000000E-03 0.  1.
         11    1    3    3    0    0 -0.37194000583E-01  0.51022379207E-01  0.13441937473E-01  0.64557134876E-01  0.51100000000E-03 0. -1.
</event>
<event>
 8    1  0.2107254E+004  0.1043930E+01  0.7957747E-01            NaN
         13   -1    0    0    0    0  0.00000000000E+00  0.00000000000E+00  0.74505805969E-08  0.10566000000E+00  0.10566000000E+00 0.  1.
     999900   -1    0    0    0    0 -0.00000000000E+00 -0.00000000000E+00 -0.74505805969E-08  0.93827000000E+00  0.93827000000E+00 0.  1.
     999902    2    1    2    0    0 -0.44633164427E-02 -0.40465189472E-02 -0.11506311778E-01  0.10309419008E+01  0.10308600837E+01 0.  0.
     999903    2    3    3    0    0  0.55598652264E-01 -0.92403771114E-01  0.77027550651E-01  0.14007003076E+00  0.45350886510E-01 0.  0.
         14    1    1    2    0    0  0.44633164427E-02  0.40465189472E-02  0.11506311778E-01  0.12988099167E-01  0.00000000000E+00 0.  1.
     999901    1    3    3    0    0 -0.60061968707E-01  0.88357252167E-01 -0.88533862429E-01  0.89087187008E+00  0.88000000000E+00 0.  1.
        -11    1    4    4    0    0  0.48207282815E-01 -0.41908633465E-01  0.55716160500E-01  0.84763360818E-01  0.51100000000E-03 0.  1.
         11    1    4    4    0    0  0.73913694491E-02 -0.50495137649E-01  0.21311390151E-01  0.55306669939E-01  0.51100000000E-03 0. -1.
</event>
<event>
 8    1  0.2107254E+004  0.1043930E+01  0.7957747E-01            NaN
         13   -1    0    0    0    0  0.00000000000E+00  0.00000000000E+00  0.74505805969E-08  0.10566000000E+00  0.10566000000E+00 0. -1.
     999900   -1    0    0    0    0 -0.00000000000E+00 -0.00000000000E+00 -0.74505805969E-08  0.93827000000E+00  0.93827000000E+00 0.  1.
     999902    2    1    2    0    0  0.94666236283E-02  0.89200845877E-02 -0.38570622482E-02  0.10303630622E+01  0.10302737394E+01 0.  0.
     999903    2    3    3    0    0 -0.10575239265E+00  0.78378693032E-01  0.27950523088E-01  0.13957035765E+00  0.37038694936E-01 0.  0.
         14    1    1    2    0    0 -0.94666236283E-02 -0.89200845877E-02  0.38570622482E-02  0.13566937796E-01  0.00000000000E+00 0. -1.
     999901    1    3    3    0    0  0.11521901627E+00 -0.69458608444E-01 -0.31807585337E-01  0.89079270455E+00  0.88000000000E+00 0.  1.
        -11    1    4    4    0    0 -0.87655919282E-01  0.44654205150E-01  0.22395946710E-01  0.10089300160E+00  0.51100000000E-03 0. -1.
         11    1    4    4    0    0 -0.18096473364E-01  0.33724487882E-01  0.55545763789E-02  0.38677356048E-01  0.51100000000E-03 0.  1.
</event>
<event>
 8    1  0.2107254E+004  0.1043930E+01  0.7957747E-01            NaN
         13   -1    0    0    0    0  0.00000000000E+00  0.00000000000E+00  0.74505805969E-08  0.10566000000E+00  0.10566000000E+00 0.  1.
     999900   -1    0    0    0    0 -0.00000000000E+00 -0.00000000000E+00 -0.74505805969E-08  0.93827000000E+00  0.93827000000E+00 0.  1.
     999902    2    1    2    0    0  0.98297847393E-02  0.72193912380E-02 -0.64413649784E-02  0.10301374128E+01  0.10300450737E+01 0.  0.
     999903    2    3    3    0    0 -0.14384705834E-01 -0.12265845667E+00 -0.46402037968E-01  0.13937849353E+00  0.44957742143E-01 0.  0.
         14    1    1    2    0    0 -0.98297847393E-02 -0.72193912380E-02  0.64413649784E-02  0.13792587163E-01  0.00000000000E+00 0.  1.
     999901    1    3    3    0    0  0.24214490573E-01  0.12987784791E+00  0.39960672990E-01  0.89075891930E+00  0.88000000000E+00 0. -1.
        -11    1    4    4    0    0 -0.26370578389E-01 -0.82351654750E-01 -0.44573672622E-01  0.97284509850E-01  0.51100000000E-03 0.  1.
         11    1    4    4    0    0  0.11985872555E-01 -0.40306801917E-01 -0.18283653461E-02  0.42093983685E-01  0.51100000000E-03 0. -1.
</event>
<event>
 8    1  0.2107412E+004  0.1043930E+01  0.7957747E-01            NaN
         13   -1    0    0    0    0  0.00000000000E+00  0.00000000000E+00  0.74505805969E-08  0.10566000000E+00  0.10566000000E+00 0.  1.
     999900   -1    0    0    0    0 -0.00000000000E+00 -0.00000000000E+00 -0.74505805969E-08  0.93827000000E+00  0.93827000000E+00 0. -1.
     999902    2    1    2    0    0  0.11354362151E-01  0.50290290708E-02  0.41553491534E-02  0.10308349781E+01  0.10307517996E+01 0.  0.
     999903    2    3    3    0    0 -0.49132340892E-01  0.88730686295E-01 -0.86177672628E-01  0.14020336875E+00  0.44082555922E-01 0.  0.
         14    1    1    2    0    0 -0.11354362151E-01 -0.50290290708E-02 -0.41553491534E-02  0.13095021949E-01  0.00000000000E+00 0. -1.
     999901    1    3    3    0    0  0.60486703043E-01 -0.83701657224E-01  0.90333021781E-01  0.89063160930E+00  0.88000000000E+00 0.  1.
        -11    1    4    4    0    0  0.94063611957E-03  0.41730329404E-01 -0.28847447121E-01  0.50741910832E-01  0.51100000000E-03 0. -1.
         11    1    4    4    0    0 -0.50072977011E-01  0.47000356891E-01 -0.57330225507E-01  0.89461457915E-01  0.51100000000E-03 0.  1.
</event>
<event>
 8    1  0.2107254E+004  0.1043930E+01  0.7957747E-01            NaN
         13   -1    0    0    0    0  0.00000000000E+00  0.00000000000E+00  0.74505805969E-08  0.10566000000E+00  0.10566000000E+00 0. -1.
     999900   -1    0    0    0    0 -0.00000000000E+00 -0.00000000000E+00 -0.74505805969E-08  0.93827000000E+00  0.93827000000E+00 0.  1.
     999902    2    1    2    0    0 -0.54386567056E-02  0.11519117385E-01 -0.53046416129E-02  0.10301311495E+01  0.10300387259E+01 0.  0.
     999903    2    3    3    0    0 -0.13807113344E-01 -0.85948058240E-01 -0.99346199571E-01  0.13973028697E+00  0.45576097182E-01 0.  0.
         14    1    1    2    0    0  0.54386567056E-02 -0.11519117385E-01  0.53046416129E-02  0.13798850486E-01  0.00000000000E+00 0. -1.
     999901    1    3    3    0    0  0.83684566385E-02  0.97467175625E-01  0.94041557958E-01  0.89040086254E+00  0.88000000000E+00 0. -1.
        -11    1    4    4    0    0 -0.16054766133E-01 -0.51637935533E-01 -0.28846766719E-01  0.61291345008E-01  0.51100000000E-03 0. -1.
         11    1    4    4    0    0  0.22476527892E-02 -0.34310122707E-01 -0.70499432852E-01  0.78438941965E-01  0.51100000000E-03 0.  1.
</event>
<event>
 8    1  0.2107254E+004  0.1043930E+01  0.7957747E-01            NaN
         13   -1    0    0    0    0  0.00000000000E+00  0.00000000000E+00  0.74505805969E-08  0.10566000000E+00  0.10566000000E+00 0.  1.
     999900   -1    0    0    0    0 -0.00000000000E+00 -0.00000000000E+00 -0.74505805969E-08  0.93827000000E+00  0.93827000000E+00 0. -1.
     999902    2    1    2    0    0 -0.21455661609E-03  0.10111575900E-01  0.98198139205E-02  0.10298332363E+01  0.10297367507E+01 0.  0.
     999903    2    3    3    0    0 -0.85219497675E-01 -0.82522073276E-01 -0.56099270478E-01  0.13845668362E+00  0.44168650967E-01 0.  0.
         14    1    1    2    0    0  0.21455661609E-03 -0.10111575900E-01 -0.98198139205E-02  0.14096763712E-01  0.00000000000E+00 0. -1.
     999901    1    3    3    0    0  0.85004941058E-01  0.92633649176E-01  0.65919084399E-01  0.89137655267E+00  0.88000000000E+00 0.  1.
        -11    1    4    4    0    0 -0.25784947130E-01 -0.47882868171E-01 -0.40781366000E-01  0.67978036869E-01  0.51100000000E-03 0. -1.
         11    1    4    4    0    0 -0.59434550545E-01 -0.34639205105E-01 -0.15317904479E-01  0.70478646747E-01  0.51100000000E-03 0.  1.
</event>
<event>
 8    1  0.2107254E+004  0.1043930E+01  0.7957747E-01            NaN
         13   -1    0    0    0    0  0.00000000000E+00  0.00000000000E+00  0.74505805969E-08  0.10566000000E+00  0.10566000000E+00 0. -1.
     999900   -1    0    0    0    0 -0.00000000000E+00 -0.00000000000E+00 -0.74505805969E-08  0.93827000000E+00  0.93827000000E+00 0. -1.
     999902    2    1    2    0    0 -0.34735985837E-02 -0.17762864088E-01  0.33565633263E-02  0.10255220739E+01  0.10253568512E+01 0.  0.
     999903    2    3    3    0    0  0.60213534817E-01  0.10364680679E+00  0.38237635722E-01  0.13422355576E+00  0.46749500552E-01 0.  0.
         14    1    1    2    0    0  0.34735985837E-02  0.17762864088E-01 -0.33565633263E-02  0.18407926148E-01  0.00000000000E+00 0.  1.
     999901    1    3    3    0    0 -0.63687133401E-01 -0.12140967088E+00 -0.34881072395E-01  0.89129851809E+00  0.88000000000E+00 0. -1.
        -11    1    4    4    0    0  0.49353205535E-02  0.52596845417E-01  0.95089571175E-02  0.53679296970E-01  0.51100000000E-03 0.  1.
         11    1    4    4    0    0  0.55278214264E-01  0.51049961374E-01  0.28728678604E-01  0.80544258788E-01  0.51100000000E-03 0. -1.
</event>
<event>
 6    1  0.2107254E+004  0.1043930E+01  0.7957747E-01            NaN
         13   -1    0    0    0    0  0.00000000000E+00  0.00000000000E+00  0.74505805969E-08  0.10566000000E+00  0.10566000000E+00 0.  1.
     999900   -1    0    0    0    0 -0.00000000000E+00 -0.00000000000E+00 -0.74505805969E-08  0.93827000000E+00  0.93827000000E+00 0. -1.
         14    1    1    2    0    0  0.34547628100E-01 -0.32398468147E-02  0.44514413683E-01  0.56440838409E-01  0.00000000000E+00 0.  1.
     999901    1    1    2    0    0  0.16181134978E-01  0.40416878379E-01 -0.51401775966E-01  0.88257435707E+00  0.88000000000E+00 0. -1.
        -11    1    1    2    0    0 -0.18711014363E-01 -0.28409364486E-01 -0.36752114514E-01  0.50081664222E-01  0.51100000000E-03 0. -1.
         11    1    1    2    0    0 -0.32017748716E-01 -0.87676670777E-02  0.43639476797E-01  0.54833140298E-01  0.51100000000E-03 0.  1.
</event>
<event>
 8    1  0.2107254E+004  0.1043930E+01  0.7957747E-01            NaN
         13   -1    0    0    0    0  0.00000000000E+00  0.00000000000E+00  0.74505805969E-08  0.10566000000E+00  0.10566000000E+00 0. -1.
     999900   -1    0    0    0    0 -0.00000000000E+00 -0.00000000000E+00 -0.74505805969E-08  0.93827000000E+00  0.93827000000E+00 0. -1.
     999902    2    1    2    0    0  0.94501297041E-02  0.82993182533E-02  0.74019784006E-02  0.10293364083E+01  0.10292329515E+01 0.  0.
     999903    2    3    3    0    0  0.41101008330E-01  0.12060791020E+00  0.33211195168E-01  0.14125920803E+00  0.51143127405E-01 0.  0.
         14    1    1    2    0    0 -0.94501297041E-02 -0.82993182533E-02 -0.74019784006E-02  0.14593591715E-01  0.00000000000E+00 0.  1.
     999901    1    3    3    0    0 -0.31650878626E-01 -0.11230859194E+00 -0.25809216767E-01  0.88807720025E+00  0.88000000000E+00 0. -1.
        -11    1    4    4    0    0  0.10182976615E-01  0.10253499939E-01  0.21701725426E-01  0.26077831221E-01  0.51100000000E-03 0.  1.
         11    1    4    4    0    0  0.30918031716E-01  0.11035441026E+00  0.11509469741E-01  0.11518137681E+00  0.51100000000E-03 0. -1.
</event>
<event>
 8    1  0.2107254E+004  0.1043930E+01  0.7957747E-01            NaN
         13   -1    0    0    0    0  0.00000000000E+00  0.00000000000E+00  0.74505805969E-08  0.10566000000E+00  0.10566000000E+00 0.  1.
     999900   -1    0    0    0    0 -0.00000000000E+00 -0.00000000000E+00 -0.74505805969E-08  0.93827000000E+00  0.93827000000E+00 0.  1.
     999902    2    1    2    0    0 -0.10745705468E-01 -0.15890755350E-01  0.16347584804E-01  0.10187262340E+01  0.10184144098E+01 0.  0.
     999903    2    3    3    0    0  0.24336116285E-01  0.65446685259E-01  0.10015055960E+00  0.13031785265E+00  0.45575135387E-01 0.  0.
         14    1    1    2    0    0  0.10745705468E-01  0.15890755350E-01 -0.16347584804E-01  0.25203765999E-01  0.00000000000E+00 0. -1.
     999901    1    3    3    0    0 -0.35081821753E-01 -0.81337440609E-01 -0.83802974794E-01  0.88840838135E+00  0.88000000000E+00 0.  1.
        -11    1    4    4    0    0  0.29022741008E-01  0.17409053169E-01  0.30403923052E-01  0.45497849245E-01  0.51100000000E-03 0. -1.
         11    1    4    4    0    0 -0.46866247239E-02  0.48037632090E-01  0.69746636545E-01  0.84820003410E-01  0.51100000000E-03 0.  1.
</event>
<event>
 8    1  0.2107254E+004  0.1043930E+01  0.7957747E-01            NaN
         13   -1    0    0    0    0  0.00000000000E+00  0.00000000000E+00  0.74505805969E-08  0.10566000000E+00  0.10566000000E+00 0. -1.
     999900   -1    0    0    0    0 -0.00000000000E+00 -0.00000000000E+00 -0.74505805969E-08  0.93827000000E+00  0.93827000000E+00 0.  1.
     999902    2    1    2    0    0  0.45053215925E-02  0.70488266926E-02  0.89591853716E-02  0.10316723133E+01  0.10315994917E+01 0.  0.
     999903    2    3    3    0    0  0.16077598129E-01  0.12568576107E+00  0.48973888266E-01  0.14273484857E+00  0.43810906916E-01 0.  0.
         14    1    1    2    0    0 -0.45053215925E-02 -0.70488266926E-02 -0.89591853716E-02  0.12257686687E-01  0.00000000000E+00 0.  1.
     999901    1    3    3    0    0 -0.11572276536E-01 -0.11863693438E+00 -0.40014702894E-01  0.88893746475E+00  0.88000000000E+00 0. -1.
        -11    1    4    4    0    0 -0.78137555411E-02  0.39709060202E-01  0.32687300288E-01  0.52024849436E-01  0.51100000000E-03 0. -1.
         11    1    4    4    0    0  0.23891353670E-01  0.85976700873E-01  0.16286587978E-01  0.90709999130E-01  0.51100000000E-03 0.  1.
</event>
<event>
 8    1  0.2107254E+004  0.1043930E+01  0.7957747E-01            NaN
         13   -1    0    0    0    0  0.00000000000E+00  0.00000000000E+00  0.74505805969E-08  0.10566000000E+00  0.10566000000E+00 0. -1.
     999900   -1    0    0    0    0 -0.00000000000E+00 -0.00000000000E+00 -0.74505805969E-08  0.93827000000E+00  0.93827000000E+00 0. -1.
     999902    2    1    2    0    0  0.88782666095E-02 -0.60507371394E-03  0.11045962816E-01  0.10297453947E+01  0.10296476946E+01 0.  0.
     999903    2    3    3    0    0  0.20365843694E-01  0.12887150936E+00 -0.20676881524E-01  0.13963164422E+00  0.45241895686E-01 0.  0.
         14    1    1    2    0    0 -0.88782666095E-02  0.60507371394E-03 -0.11045962816E-01  0.14184605272E-01  0.00000000000E+00 0.  1.
     999901    1    3    3    0    0 -0.11487577085E-01 -0.12947658307E+00  0.31722844339E-01  0.89011375051E+00  0.88000000000E+00 0. -1.
        -11    1    4    4    0    0  0.23437815238E-01  0.12169726743E+00 -0.29948514455E-01  0.12750188517E+00  0.51100000000E-03 0.  1.
         11    1    4    4    0    0 -0.30719715437E-02  0.71742419234E-02  0.92716329315E-02  0.12129759048E-01  0.51100000000E-03 0. -1.
</event>
<event>
 8    1  0.2107254E+004  0.1043930E+01  0.7957747E-01            NaN
         13   -1    0    0    0    0  0.00000000000E+00  0.00000000000E+00  0.74505805969E-08  0.10566000000E+00  0.10566000000E+00 0. -1.
     999900   -1    0    0    0    0 -0.00000000000E+00 -0.00000000000E+00 -0.74505805969E-08  0.93827000000E+00  0.93827000000E+00 0. -1.
     999902    2    1    2    0    0 -0.11408048824E-01 -0.26660527248E-02 -0.70211554677E-02  0.10302717410E+01  0.10301812036E+01 0.  0.
     999903    2    3    3    0    0  0.12580233072E+00  0.34610057713E-02 -0.37681546057E-01  0.13909034046E+00  0.45694845674E-01 0.  0.
         14    1    1    2    0    0  0.11408048824E-01  0.26660527248E-02  0.70211554677E-02  0.13658259011E-01  0.00000000000E+00 0. -1.
     999901    1    3    3    0    0 -0.13721037954E+00 -0.61270584961E-02  0.30660390589E-01  0.89118140053E+00  0.88000000000E+00 0.  1.
        -11    1    4    4    0    0  0.40650644371E-01  0.14577639697E-02 -0.35331531294E-01  0.53881148727E-01  0.51100000000E-03 0. -1.
         11    1    4    4    0    0  0.85151686346E-01  0.20032418016E-02 -0.23500147626E-02  0.85209191732E-01  0.51100000000E-03 0.  1.
</event>
<event>
 8    1  0.2107254E+004  0.1043930E+01  0.7957747E-01            NaN
         13   -1    0    0    0    0  0.00000000000E+00  0.00000000000E+00  0.74505805969E-08  0.10566000000E+00  0.10566000000E+00 0. -1.
     999900   -1    0    0    0    0 -0.00000000000E+00 -0.00000000000E+00 -0.74505805969E-08  0.93827000000E+00  0.93827000000E+00 0.  1.
     999902    2    1    2    0    0  0.77278314896E-02  0.34555668565E-03  0.11540350999E-01  0.10300368906E+01  0.10299431914E+01 0.  0.
     999903    2    3    3    0    0  0.72926581725E-02  0.85964155388E-01  0.10224922186E+00  0.14124060733E+00  0.45287822997E-01 0.  0.
         14    1    1    2    0    0 -0.77278314896E-02 -0.34555668565E-03 -0.11540350999E-01  0.13893109448E-01  0.00000000000E+00 0.  1.
     999901    1    3    3    0    0  0.43517331712E-03 -0.85618598702E-01 -0.90708870865E-01  0.88879628322E+00  0.88000000000E+00 0.  1.
        -11    1    4    4    0    0  0.12306147212E-01  0.39559891593E-01  0.18528774331E-01  0.45387254612E-01  0.51100000000E-03 0. -1.
         11    1    4    4    0    0 -0.50134890395E-02  0.46404263795E-01  0.83720447533E-01  0.95853352716E-01  0.51100000000E-03 0.  1.
</event>
<event>
 8    1  0.2107254E+004  0.1043930E+01  0.7957747E-01            NaN
         13   -1    0    0    0    0  0.00000000000E+00  0.00000000000E+00  0.74505805969E-08  0.10566000000E+00  0.10566000000E+00 0. -1.
     999900   -1    0    0    0    0 -0.00000000000E+00 -0.00000000000E+00 -0.74505805969E-08  0.93827000000E+00  0.93827000000E+00 0. -1.
     999902    2    1    2    0    0  0.17866158672E-02  0.61042337212E-02 -0.13904084229E-01  0.10286402249E+01  0.10285265845E+01 0.  0.
     999903    2    3    3    0    0  0.11161532229E+00  0.25207061422E-01  0.63097918310E-01  0.13827144105E+00  0.45213582026E-01 0.  0.
         14    1    1    2    0    0 -0.17866158672E-02 -0.61042337212E-02  0.13904084229E-01  0.15289775140E-01  0.00000000000E+00 0. -1.
     999901    1    3    3    0    0 -0.10982870643E+00 -0.19102827701E-01 -0.77002002539E-01  0.89036878381E+00  0.88000000000E+00 0.  1.
        -11    1    4    4    0    0  0.69552964775E-01  0.10430833436E-01  0.13566499810E-01  0.71629101860E-01  0.51100000000E-03 0. -1.
         11    1    4    4    0    0  0.42062357520E-01  0.14776227987E-01  0.49531418500E-01  0.66642339194E-01  0.51100000000E-03 0.  1.
</event>
<event>
 8    1  0.2107254E+004  0.1043930E+01  0.7957747E-01            NaN
         13   -1    0    0    0    0  0.00000000000E+00  0.00000000000E+00  0.74505805969E-08  0.10566000000E+00  0.10566000000E+00 0. -1.
     999900   -1    0    0    0    0 -0.00000000000E+00 -0.00000000000E+00 -0.74505805969E-08  0.93827000000E+00  0.93827000000E+00 0. -1.
     999902    2    1    2    0    0 -0.51294908769E-02  0.69657517912E-02 -0.10868268292E-01  0.10300392610E+01  0.10299455940E+01 0.  0.
     999903    2    3    3    0    0 -0.85720989447E-01  0.92613044738E-01  0.42284079633E-01  0.14062618456E+00  0.45414934830E-01 0.  0.
         14    1    1    2    0    0  0.51294908769E-02 -0.69657517912E-02  0.10868268292E-01  0.13890739013E-01  0.00000000000E+00 0. -1.
     999901    1    3    3    0    0  0.80591498570E-01 -0.85647292947E-01 -0.53152347925E-01  0.88941307643E+00  0.88000000000E+00 0. -1.
        -11    1    4    4    0    0 -0.29293528354E-01  0.29668822403E-01 -0.77247122059E-02  0.42406156698E-01  0.51100000000E-03 0. -1.
         11    1    4    4    0    0 -0.56427461093E-01  0.62944222335E-01  0.50008791839E-01  0.98220027861E-01  0.51100000000E-03 0.  1.
</event>
<event>
 8    1  0.2107254E+004  0.1043930E+01  0.7957747E-01            NaN
         13   -1    0    0    0    0  0.00000000000E+00  0.00000000000E+00  0.74505805969E-08  0.10566000000E+00  0.10566000000E+00 0.  1.
     999900   -1    0    0    0    0 -0.00000000000E+00 -0.00000000000E+00 -0.74505805969E-08  0.93827000000E+00  0.93827000000E+00 0. -1.
     999902    2    1    2    0    0 -0.59744243761E-02  0.24305747076E-02 -0.12440848276E-01  0.10299165727E+01  0.10298212323E+01 0.  0.
     999903    2    3    3    0    0  0.18809709781E-01  0.12823012487E+00  0.27727974698E-01  0.13971810351E+00  0.44221462704E-01 0.  0.
         14    1    1    2    0    0  0.59744243761E-02 -0.24305747076E-02  0.12440848276E-01  0.14013427342E-01  0.00000000000E+00 0.  1.
     999901    1    3    3    0    0 -0.24784134157E-01 -0.12579955016E+00 -0.40168822974E-01  0.89019846914E+00  0.88000000000E+00 0. -1.
        -11    1    4    4    0    0  0.29214385539E-01  0.73077738953E-01  0.28160285038E-01  0.83588869039E-01  0.51100000000E-03 0.  1.
         11    1    4    4    0    0 -0.10404675758E-01  0.55152385913E-01 -0.43231033964E-03  0.56129234475E-01  0.51100000000E-03 0. -1.
</event>
<event>
 8    1  0.2107254E+004  0.1043930E+01  0.7957747E-01            NaN
         13   -1    0    0    0    0  0.00000000000E+00  0.00000000000E+00  0.74505805969E-08  0.10566000000E+00  0.10566000000E+00 0. -1.
     999900   -1    0    0    0    0 -0.00000000000E+00 -0.00000000000E+00 -0.74505805969E-08  0.93827000000E+00  0.93827000000E+00 0.  1.
     999902    2    1    2    0    0 -0.72847215306E-02  0.96830118915E-03  0.11541618229E-01  0.10302473933E+01  0.10301565307E+01 0.  0.
     999903    2    3    3    0    0  0.69435990754E-01  0.10389013246E+00  0.43450980119E-01  0.14036134529E+00  0.46891397348E-01 0.  0.
         14    1    1    2    0    0  0.72847215306E-02 -0.96830118915E-03 -0.11541618229E-01  0.13682606708E-01  0.00000000000E+00 0.  1.
     999901    1    3    3    0    0 -0.76720712284E-01 -0.10292183127E+00 -0.31909361890E-01  0.88988604800E+00  0.88000000000E+00 0.  1.
        -11    1    4    4    0    0  0.44978621953E-01  0.85427097231E-01  0.50437631960E-01  0.10892695356E+00  0.51100000000E-03 0. -1.
         11    1    4    4    0    0  0.24457368800E-01  0.18463035227E-01 -0.69866518411E-02  0.31434391729E-01  0.51100000000E-03 0.  1.
</event>
<event>
 8    1  0.2107254E+004  0.1043930E+01  0.7957747E-01            NaN
         13   -1    0    0    0    0  0.00000000000E+00  0.00000000000E+00  0.74505805969E-08  0.10566000000E+00  0.10566000000E+00 0. -1.
     999900   -1    0    0    0    0 -0.00000000000E+00 -0.00000000000E+00 -0.74505805969E-08  0.93827000000E+00  0.93827000000E+00 0. -1.
     999902    2    1    2    0    0 -0.79664308688E-02  0.90219096776E-02 -0.58537058727E-02  0.10305462506E+01  0.10304593393E+01 0.  0.
     999903    2    3    3    0    0  0.76919189168E-01  0.10707765244E+00  0.21402304506E-01  0.14062300265E+00  0.43983916612E-01 0.  0.
         14    1    1    2    0    0  0.79664308688E-02 -0.90219096776E-02  0.58537058727E-02  0.13383749380E-01  0.00000000000E+00 0.  1.
     999901    1    3    3    0    0 -0.84885620037E-01 -0.98055742766E-01 -0.27256010378E-01  0.88992324797E+00  0.88000000000E+00 0.  1.
        -11    1    4    4    0    0  0.68375223386E-02  0.20840054865E-01 -0.11445989714E-01  0.24745330874E-01  0.51100000000E-03 0. -1.
         11    1    4    4    0    0  0.70081666830E-01  0.86237597579E-01  0.32848294220E-01  0.11587767178E+00  0.51100000000E-03 0.  1.
</event>
<event>
 8    1  0.2107254E+004  0.1043930E+01  0.7957747E-01            NaN
         13   -1    0    0    0    0  0.00000000000E+00  0.00000000000E+00  0.74505805969E-08  0.10566000000E+00  0.10566000000E+00 0.  1.
     999900   -1    0    0    0    0 -0.00000000000E+00 -0.00000000000E+00 -0.74505805969E-08  0.93827000000E+00  0.93827000000E+00 0. -1.
     999902    2    1    2    0    0 -0.30226201133E-02  0.74220459651E-02  0.97893554398E-02  0.10312787361E+01  0.10312011332E+01 0.  0.
     999903    2    3    3    0    0 -0.64190047925E-01  0.59480670553E-01 -0.10064457725E+00  0.14074675569E+00  0.44966719753E-01 0.  0.
         14    1    1    2    0    0  0.30226201133E-02 -0.74220459651E-02 -0.97893554398E-02  0.12651263913E-01  0.00000000000E+00 0. -1.
     999901    1    3    3    0    0  0.61167427811E-01 -0.52058624588E-01  0.11043393269E+00  0.89053198040E+00  0.88000000000E+00 0.  1.
        -11    1    4    4    0    0 -0.37417798455E-01  0.38076338780E-01 -0.27692569032E-01  0.60141821694E-01  0.51100000000E-03 0.  1.
         11    1    4    4    0    0 -0.26772249470E-01  0.21404331773E-01 -0.72952008220E-01  0.80604933997E-01  0.51100000000E-03 0. -1.
</event>
<event>
 7    1  0.2982115E+004  0.1043930E+01  0.7957747E-01            NaN
         13   -1    0    0    0    0  0.00000000000E+00  0.00000000000E+00  0.74505805969E-08  0.10566000000E+00  0.10566000000E+00 0.  1.
     999900   -1    0    0    0    0 -0.00000000000E+00 -0.00000000000E+00 -0.74505805969E-08  0.93827000000E+00  0.93827000000E+00 0.  1.
     999903    2    1    2    0    0  0.21973852070E-01 -0.16402065976E-02  0.84080285623E-01  0.96436706781E-01  0.41773239421E-01 0.  0.
         14    1    1    2    0    0 -0.50798892353E-01 -0.35129467975E-01 -0.14952575145E-01  0.63546726807E-01  0.00000000000E+00 0.  1.
     999901    1    1    2    0    0  0.28825040283E-01  0.36769674572E-01 -0.69127710478E-01  0.88394656641E+00  0.88000000000E+00 0.  1.
        -11    1    3    3    0    0  0.32921285432E-01 -0.61976562589E-02  0.48643330319E-01  0.59064851503E-01  0.51100000000E-03 0.  1.
         11    1    3    3    0    0 -0.10947433362E-01  0.45574496613E-02  0.35436955304E-01  0.37371855277E-01  0.51100000000E-03 0. -1.
</event>
<event>
 8    1  0.2107254E+004  0.1043930E+01  0.7957747E-01            NaN
         13   -1    0    0    0    0  0.00000000000E+00  0.00000000000E+00  0.74505805969E-08  0.10566000000E+00  0.10566000000E+00 0. -1.
     999900   -1    0    0    0    0 -0.00000000000E+00 -0.00000000000E+00 -0.74505805969E-08  0.93827000000E+00  0.93827000000E+00 0.  1.
     999902    2    1    2    0    0  0.79211772217E-02 -0.10696517081E-01  0.41437402884E-02  0.10299897306E+01  0.10298953899E+01 0.  0.
     999903    2    3    3    0    0 -0.12175513187E+00  0.25651006850E-01  0.52260341715E-01  0.13844483835E+00  0.30879502261E-01 0.  0.
         14    1    1    2    0    0 -0.79211772217E-02  0.10696517081E-01 -0.41437402884E-02  0.13940269359E-01  0.00000000000E+00 0.  1.
     999901    1    3    3    0    0  0.12967630909E+00 -0.36347523931E-01 -0.48116601426E-01  0.89154489229E+00  0.88000000000E+00 0.  1.
        -11    1    4    4    0    0 -0.31323422343E-01  0.12579313656E-01  0.28121354196E-01  0.43937086864E-01  0.51100000000E-03 0.  1.
         11    1    4    4    0    0 -0.90431709530E-01  0.13071693194E-01  0.24138987519E-01  0.94507751486E-01  0.51100000000E-03 0. -1.
</event>
<event>
 8    1  0.2107254E+004  0.1043930E+01  0.7957747E-01            NaN
         13   -1    0    0    0    0  0.00000000000E+00  0.00000000000E+00  0.74505805969E-08  0.10566000000E+00  0.10566000000E+00 0.  1.
     999900   -1    0    0    0    0 -0.00000000000E+00 -0.00000000000E+00 -0.74505805969E-08  0.93827000000E+00  0.93827000000E+00 0.  1.
     999902    2    1    2    0    0  0.13380303910E-01 -0.84693848409E-03 -0.39148080245E-02  0.10299630548E+01  0.10298683501E+01 0.  0.
     999903    2    3    3    0    0 -0.27623311288E-01  0.10642459704E+00 -0.73813455357E-01  0.13975279887E+00  0.44645004396E-01 0.  0.
         14    1    1    2    0    0 -0.13380303910E-01  0.84693848409E-03  0.39148080245E-02  0.13966945242E-01  0.00000000000E+00 0.  1.
     999901    1    3    3    0    0  0.41003615198E-01 -0.10727153553E+00  0.69898647332E-01  0.89021025589E+00  0.88000000000E+00 0. -1.
        -11    1    4    4    0    0 -0.13069186299E-01  0.35149255374E-02 -0.15475188357E-01  0.20564554644E-01  0.51100000000E-03 0.  1.
         11    1    4    4    0    0 -0.14554124989E-01  0.10290967151E+00 -0.58338267000E-01  0.11918824422E+00  0.51100000000E-03 0. -1.
</event>
<event>
 8    1  0.2107254E+004  0.1043930E+01  0.7957747E-01            NaN
         13   -1    0    0    0    0  0.00000000000E+00  0.00000000000E+00  0.74505805969E-08  0.10566000000E+00  0.10566000000E+00 0.  1.
     999900   -1    0    0    0    0 -0.00000000000E+00 -0.00000000000E+00 -0.74505805969E-08  0.93827000000E+00  0.93827000000E+00 0. -1.
     999902    2    1    2    0    0 -0.69151510685E-02  0.15081485271E-02  0.10476417836E-01  0.10312868534E+01  0.10312093506E+01 0.  0.
     999903    2    3    3    0    0 -0.71822348124E-01 -0.42865807801E-01 -0.10324476154E+00  0.14049254553E+00  0.45637127373E-01 0.  0.
         14    1    1    2    0    0  0.69151510685E-02 -0.15081485271E-02 -0.10476417836E-01  0.12643146640E-01  0.00000000000E+00 0. -1.
     999901    1    3    3    0    0  0.64907197056E-01  0.44373956328E-01  0.11372117938E+00  0.89079430783E+00  0.88000000000E+00 0.  1.
        -11    1    4    4    0    0 -0.28428048968E-01 -0.35899568542E-01 -0.28975414841E-01  0.54191962280E-01  0.51100000000E-03 0. -1.
         11    1    4    4    0    0 -0.43394299156E-01 -0.69662392592E-02 -0.74269346698E-01  0.86300583246E-01  0.51100000000E-03 0.  1.
</event>
<event>
 8    1  0.2107254E+004  0.1043930E+01  0.7957747E-01            NaN
         13   -1    0    0    0    0  0.00000000000E+00  0.00000000000E+00  0.74505805969E-08  0.10566000000E+00  0.10566000000E+00 0. -1.
     999900   -1    0    0    0    0 -0.00000000000E+00 -0.00000000000E+00 -0.74505805969E-08  0.93827000000E+00  0.93827000000E+00 0.  1.
     999902    2    1    2    0    0  0.71685764771E-02  0.52595435653E-03  0.10990704563E-01  0.10307975705E+01  0.10307139131E+01 0.  0.
     999903    2    3    3    0    0 -0.87409065075E-02 -0.11928529657E+00  0.60070522173E-01  0.14118154326E+00  0.44926329691E-01 0.  0.
         14    1    1    2    0    0 -0.71685764771E-02 -0.52595435653E-03 -0.10990704563E-01  0.13132429458E-01  0.00000000000E+00 0. -1.
     999901    1    3    3    0    0  0.15909482985E-01  0.11981125093E+00 -0.49079817610E-01  0.88961602728E+00  0.88000000000E+00 0. -1.
        -11    1    4    4    0    0  0.40920858978E-02 -0.62444522721E-01  0.53880823394E-01  0.82580069239E-01  0.51100000000E-03 0. -1.
         11    1    4    4    0    0 -0.12832992405E-01 -0.56840773847E-01  0.61896987787E-02  0.58601474023E-01  0.51100000000E-03 0.  1.
</event>
<event>
 8    1  0.2107254E+004  0.1043930E+01  0.7957747E-01            NaN
         13   -1    0    0    0    0  0.00000000000E+00  0.00000000000E+00  0.74505805969E-08  0.10566000000E+00  0.10566000000E+00 0.  1.
     999900   -1    0    0    0    0 -0.00000000000E+00 -0.00000000000E+00 -0.74505805969E-08  0.93827000000E+00  0.93827000000E+00 0. -1.
     999902    2    1    2    0    0 -0.96545860309E-03  0.73996194665E-02 -0.79218702034E-02  0.10330468706E+01  0.10329895422E+01 0.  0.
     999903    2    3    3    0    0 -0.85851473396E-01  0.11427940881E-01  0.10303018778E+00  0.14201812690E+00  0.45308447962E-01 0.  0.
         14    1    1    2    0    0  0.96545860309E-03 -0.73996194665E-02  0.79218702034E-02  0.10883129425E-01  0.00000000000E+00 0.  1.
     999901    1    3    3    0    0  0.84886014793E-01 -0.40283214148E-02 -0.11095205799E+00  0.89102874367E+00  0.88000000000E+00 0. -1.
        -11    1    4    4    0    0 -0.69738726193E-01 -0.95248772965E-02  0.83140171565E-01  0.10893467064E+00  0.51100000000E-03 0.  1.
         11    1    4    4    0    0 -0.16112747203E-01  0.20952818178E-01  0.19890016219E-01  0.33083456261E-01  0.51100000000E-03 0. -1.
</event>
<event>
 8    1  0.2107254E+004  0.1043930E+01  0.7957747E-01            NaN
         13   -1    0    0    0    0  0.00000000000E+00  0.00000000000E+00  0.74505805969E-08  0.10566000000E+00  0.10566000000E+00 0. -1.
     999900   -1    0    0    0    0 -0.00000000000E+00 -0.00000000000E+00 -0.74505805969E-08  0.93827000000E+00  0.93827000000E+00 0.  1.
     999902    2    1    2    0    0 -0.44186279804E-03  0.12960827660E-01 -0.47108662835E-02  0.10301325163E+01  0.10300401111E+01 0.  0.
     999903    2    3    3    0    0 -0.11314291131E-01 -0.12984416852E+00 -0.17031978892E-01  0.13846930268E+00  0.43544668984E-01 0.  0.
         14    1    1    2    0    0  0.44186279804E-03 -0.12960827660E-01  0.47108662835E-02  0.13797483738E-01  0.00000000000E+00 0.  1.
     999901    1    3    3    0    0  0.10872428333E-01  0.14280499618E+00  0.12321112608E-01  0.89166321358E+00  0.88000000000E+00 0. -1.
        -11    1    4    4    0    0  0.14177017081E-01 -0.79019800431E-01 -0.56615728138E-02  0.80482490029E-01  0.51100000000E-03 0.  1.
         11    1    4    4    0    0 -0.25491308212E-01 -0.50824368093E-01 -0.11370406078E-01  0.57986812655E-01  0.51100000000E-03 0. -1.
</event>
<event>
 8    1  0.2107254E+004  0.1043930E+01  0.7957747E-01            NaN
         13   -1    0    0    0    0  0.00000000000E+00  0.00000000000E+00  0.74505805969E-08  0.10566000000E+00  0.10566000000E+00 0.  1.
     999900   -1    0    0    0    0 -0.00000000000E+00 -0.00000000000E+00 -0.74505805969E-08  0.93827000000E+00  0.93827000000E+00 0. -1.
     999902    2    1    2    0    0  0.11791479444E-01 -0.43914718632E-02  0.53252638125E-02  0.10302668215E+01  0.10301762184E+01 0.  0.
     999903    2    3    3    0    0 -0.54476531291E-01 -0.12017910080E+00 -0.12421492742E-01  0.14003473285E+00  0.45218626590E-01 0.  0.
         14    1    1    2    0    0 -0.11791479444E-01  0.43914718632E-02 -0.53252638125E-02  0.13663178520E-01  0.00000000000E+00 0. -1.
     999901    1    3    3    0    0  0.66268010734E-01  0.11578762894E+00  0.17746756554E-01  0.89023208863E+00  0.88000000000E+00 0.  1.
        -11    1    4    4    0    0 -0.12338839890E-01 -0.81021969055E-01 -0.73110740962E-02  0.82283165743E-01  0.51100000000E-03 0.  1.
         11    1    4    4    0    0 -0.42137691401E-01 -0.39157131748E-01 -0.51104186455E-02  0.57751567105E-01  0.51100000000E-03 0. -1.
</event>
<event>
 7    1  0.2107254E+004  0.1043930E+01  0.7957747E-01            NaN
         13   -1    0    0    0    0  0.00000000000E+00  0.00000000000E+00  0.74505805969E-08  0.10566000000E+00  0.10566000000E+00 0.  1.
     999900   -1    0    0    0    0 -0.00000000000E+00 -0.00000000000E+00 -0.74505805969E-08  0.93827000000E+00  0.93827000000E+00 0. -1.
     999903    2    1    2    0    0 -0.12002033644E-01 -0.10362053392E+00 -0.44640062908E-01  0.12200485374E+00  0.44846240193E-01 0.  0.
         14    1    1    2    0    0  0.93937368446E-02  0.32108330851E-01 -0.15711816509E-01  0.36960091720E-01  0.00000000000E+00 0. -1.
     999901    1    1    2    0    0  0.26082967997E-02  0.71512203069E-01  0.60351879416E-01  0.88496505454E+00  0.88000000000E+00 0.  1.
        -11    1    3    3    0    0  0.43852142002E-02 -0.44792105394E-01 -0.40906045517E-01  0.60820461114E-01  0.51100000000E-03 0.  1.
         11    1    3    3    0    0 -0.16387247844E-01 -0.58828428526E-01 -0.37340173902E-02  0.61184392631E-01  0.51100000000E-03 0. -1.
</event>
<event>
 8    1  0.2107254E+004  0.1043930E+01  0.7957747E-01            NaN
         13   -1    0    0    0    0  0.00000000000E+00  0.00000000000E+00  0.74505805969E-08  0.10566000000E+00  0.10566000000E+00 0. -1.
     999900   -1    0    0    0    0 -0.00000000000E+00 -0.00000000000E+00 -0.74505805969E-08  0.93827000000E+00  0.93827000000E+00 0.  1.
     999902    2    1    2    0    0 -0.67005166514E-02  0.10155329043E-01 -0.18896377315E-02  0.10316174713E+01  0.10315439927E+01 0.  0.
     999903    2    3    3    0    0  0.52936002293E-01 -0.13321241204E-01 -0.12219294561E+00  0.14112291794E+00  0.44775955642E-01 0.  0.
         14    1    1    2    0    0  0.67005166514E-02 -0.10155329043E-01  0.18896377315E-02  0.12312528665E-01  0.00000000000E+00 0.  1.
     999901    1    3    3    0    0 -0.59636518945E-01  0.23476570248E-01  0.12030330788E+00  0.89049455340E+00  0.88000000000E+00 0. -1.
        -11    1    4    4    0    0  0.38999631635E-01  0.34984253098E-02 -0.39613451027E-01  0.55701856976E-01  0.51100000000E-03 0.  1.
         11    1    4    4    0    0  0.13936370659E-01 -0.16819666514E-01 -0.82579494586E-01  0.85421060962E-01  0.51100000000E-03 0. -1.
</event>
<event>
 8    1  0.2107254E+004  0.1043930E+01  0.7957747E-01            NaN
         13   -1    0    0    0    0  0.00000000000E+00  0.00000000000E+00  0.74505805969E-08  0.10566000000E+00  0.10566000000E+00 0. -1.
     999900   -1    0    0    0    0 -0.00000000000E+00 -0.00000000000E+00 -0.74505805969E-08  0.93827000000E+00  0.93827000000E+00 0. -1.
     999902    2    1    2    0    0  0.70239424230E-03 -0.84621134194E-02 -0.11763046049E-01  0.10294224167E+01  0.10293201844E+01 0.  0.
     999903    2    3    3    0    0 -0.12851018765E+00 -0.18306164876E-01  0.92983710555E-02  0.13968291551E+00  0.50743208192E-01 0.  0.
         14    1    1    2    0    0 -0.70239424230E-03  0.84621134194E-02  0.11763046049E-01  0.14507583311E-01  0.00000000000E+00 0. -1.
     999901    1    3    3    0    0  0.12921258190E+00  0.98440514563E-02 -0.21061417104E-01  0.88973950118E+00  0.88000000000E+00 0. -1.
        -11    1    4    4    0    0 -0.89123799458E-01 -0.24620119642E-01 -0.13951054977E-01  0.93509865666E-01  0.51100000000E-03 0.  1.
         11    1    4    4    0    0 -0.39386388196E-01  0.63139547661E-02  0.23249426033E-01  0.46173049842E-01  0.51100000000E-03 0. -1.
</event>
<event>
 8    1  0.2107254E+004  0.1043930E+01  0.7957747E-01            NaN
         13   -1    0    0    0    0  0.00000000000E+00  0.00000000000E+00  0.74505805969E-08  0.10566000000E+00  0.10566000000E+00 0.  1.
     999900   -1    0    0    0    0 -0.00000000000E+00 -0.00000000000E+00 -0.74505805969E-08  0.93827000000E+00  0.93827000000E+00 0.  1.
     999902    2    1    2    0    0  0.93559519519E-02 -0.65577048415E-03  0.10891574550E-01  0.10295567517E+01  0.10294564171E+01 0.  0.
     999903    2    3    3    0    0 -0.16415454694E-01 -0.10227383474E+00 -0.80480057205E-01  0.13863634473E+00  0.44873065950E-01 0.  0.
         14    1    1    2    0    0 -0.93559519519E-02  0.65577048415E-03 -0.10891574550E-01  0.14373248347E-01  0.00000000000E+00 0. -1.
     999901    1    3    3    0    0  0.25771406646E-01  0.10161806425E+00  0.91371631755E-01  0.89092040692E+00  0.88000000000E+00 0.  1.
        -11    1    4    4    0    0 -0.37021717083E-02 -0.11753053772E-01 -0.33834671943E-01  0.36012310323E-01  0.51100000000E-03 0. -1.
         11    1    4    4    0    0 -0.12713282986E-01 -0.90520780965E-01 -0.46645385262E-01  0.10262403441E+00  0.51100000000E-03 0.  1.
</event>
<event>
 8    1  0.2107254E+004  0.1043930E+01  0.7957747E-01            NaN
         13   -1    0    0    0    0  0.00000000000E+00  0.00000000000E+00  0.74505805969E-08  0.10566000000E+00  0.10566000000E+00 0.  1.
     999900   -1    0    0    0    0 -0.00000000000E+00 -0.00000000000E+00 -0.74505805969E-08  0.93827000000E+00  0.93827000000E+00 0. -1.
     999902    2    1    2    0    0  0.27539970244E-02  0.12836782810E-01  0.64591830202E-02  0.10292982353E+01  0.10291942327E+01 0.  0.
     999903    2    3    3    0    0 -0.32940132481E-01 -0.12419012503E+00  0.21742461572E-01  0.13784771905E+00  0.44955750793E-01 0.  0.
         14    1    1    2    0    0 -0.27539970244E-02 -0.12836782810E-01 -0.64591830202E-02  0.14631764685E-01  0.00000000000E+00 0. -1.
     999901    1    3    3    0    0  0.35694129505E-01  0.13702690784E+00 -0.15283278552E-01  0.89145051627E+00  0.88000000000E+00 0.  1.
        -11    1    4    4    0    0 -0.30816975591E-01 -0.86700698733E-01 -0.43515535795E-02  0.92118913828E-01  0.51100000000E-03 0. -1.
         11    1    4    4    0    0 -0.21231568896E-02 -0.37489426293E-01  0.26094015152E-01  0.45728805218E-01  0.51100000000E-03 0.  1.
</event>
<event>
 8    1  0.2107254E+004  0.1043930E+01  0.7957747E-01            NaN
         13   -1    0    0    0    0  0.00000000000E+00  0.00000000000E+00  0.74505805969E-08  0.10566000000E+00  0.10566000000E+00 0. -1.
     999900   -1    0    0    0    0 -0.00000000000E+00 -0.00000000000E+00 -0.74505805969E-08  0.93827000000E+00  0.93827000000E+00 0.  1.
     999902    2    1    2    0    0 -0.41911282682E-02 -0.10011790981E-02 -0.12618419485E-01  0.10305961174E+01  0.10305098567E+01 0.  0.
     999903    2    3    3    0    0  0.95053432326E-01  0.37404370637E-01  0.82824758558E-01  0.13906155870E+00  0.45209894262E-01 0.  0.
         14    1    1    2    0    0  0.41911282682E-02  0.10011790981E-02  0.12618419485E-01  0.13333882632E-01  0.00000000000E+00 0. -1.
     999901    1    3    3    0    0 -0.99244560595E-01 -0.38405549735E-01 -0.95443178043E-01  0.89153455866E+00  0.88000000000E+00 0.  1.
        -11    1    4    4    0    0  0.63682760626E-01  0.10485558080E-01  0.27891993199E-01  0.70311203481E-01  0.51100000000E-03 0.  1.
         11    1    4    4    0    0  0.31370671700E-01  0.26918812557E-01  0.54932765359E-01  0.68750355223E-01  0.51100000000E-03 0. -1.
</event>
<event>
 8    1  0.2107254E+004  0.1043930E+01  0.7957747E-01            NaN
         13   -1    0    0    0    0  0.00000000000E+00  0.00000000000E+00  0.74505805969E-08  0.10566000000E+00  0.10566000000E+00 0.  1.
     999900   -1    0    0    0    0 -0.00000000000E+00 -0.00000000000E+00 -0.74505805969E-08  0.93827000000E+00  0.93827000000E+00 0. -1.
     999902    2    1    2    0    0 -0.12172840967E-01 -0.58334663753E-02  0.28419396783E-02  0.10301356530E+01  0.10300432902E+01 0.  0.
     999903    2    3    3    0    0 -0.68163095907E-01  0.83089916039E-01  0.78820007973E-01  0.14063301478E+00  0.44887742194E-01 0.  0.
         14    1    1    2    0    0  0.12172840967E-01  0.58334663753E-02 -0.28419396783E-02  0.13794346969E-01  0.00000000000E+00 0. -1.
     999901    1    3    3    0    0  0.55990254939E-01 -0.88923382414E-01 -0.75978068294E-01  0.88950263825E+00  0.88000000000E+00 0. -1.
        -11    1    4    4    0    0 -0.31576624908E-01  0.71062944202E-01  0.56437514786E-01  0.96085792266E-01  0.51100000000E-03 0.  1.
         11    1    4    4    0    0 -0.36586470999E-01  0.12026971837E-01  0.22382493187E-01  0.44547222517E-01  0.51100000000E-03 0. -1.
</event>
<event>
 8    1  0.2107254E+004  0.1043930E+01  0.7957747E-01            NaN
         13   -1    0    0    0    0  0.00000000000E+00  0.00000000000E+00  0.74505805969E-08  0.10566000000E+00  0.10566000000E+00 0.  1.
     999900   -1    0    0    0    0 -0.00000000000E+00 -0.00000000000E+00 -0.74505805969E-08  0.93827000000E+00  0.93827000000E+00 0. -1.
     999902    2    1    2    0    0 -0.86091201395E-02 -0.10614725460E-01 -0.65651934672E-02  0.10287678395E+01  0.10286561021E+01 0.  0.
     999903    2    3    3    0    0  0.10020057998E+00  0.46855690472E-01  0.69360505614E-01  0.13696791163E+00  0.41397066542E-01 0.  0.
         14    1    1    2    0    0  0.86091201395E-02  0.10614725460E-01  0.65651934672E-02  0.15162160513E-01  0.00000000000E+00 0.  1.
     999901    1    3    3    0    0 -0.10880970012E+00 -0.57470415932E-01 -0.75925699082E-01  0.89179992786E+00  0.88000000000E+00 0. -1.
        -11    1    4    4    0    0  0.87970862150E-01  0.54229106280E-01  0.64750238620E-01  0.12195295436E+00  0.51100000000E-03 0.  1.
         11    1    4    4    0    0  0.12229717833E-01 -0.73734158080E-02  0.46102669948E-02  0.15014957266E-01  0.51100000000E-03 0. -1.
</event>
<event>
 8    1  0.2107254E+004  0.1043930E+01  0.7957747E-01            NaN
         13   -1    0    0    0    0  0.00000000000E+00  0.00000000000E+00  0.74505805969E-08  0.10566000000E+00  0.10566000000E+00 0. -1.
     999900   -1    0    0    0    0 -0.00000000000E+00 -0.00000000000E+00 -0.74505805969E-08  0.93827000000E+00  0.93827000000E+00 0.  1.
     999902    2    1    2    0    0  0.48139209073E-02  0.20115928214E-03  0.13771654476E-01  0.10293398401E+01  0.10292364323E+01 0.  0.
     999903    2    3    3    0    0 -0.23351161578E-01  0.20488206857E-01  0.13024790913E+00  0.14098655784E+00  0.44132168429E-01 0.  0.
         14    1    1    2    0    0 -0.48139209073E-02 -0.20115928214E-03 -0.13771654476E-01  0.14590159923E-01  0.00000000000E+00 0.  1.
     999901    1    3    3    0    0  0.28165082485E-01 -0.20287047575E-01 -0.11647625465E+00  0.88835328224E+00  0.88000000000E+00 0.  1.
        -11    1    4    4    0    0  0.10304024851E-01  0.13139831845E-01  0.23618643217E-01  0.28929734487E-01  0.51100000000E-03 0. -1.
         11    1    4    4    0    0 -0.33655186429E-01  0.73483750124E-02  0.10662926591E+00  0.11205682335E+00  0.51100000000E-03 0.  1.
</event>
<event>
 8    1  0.2107254E+004  0.1043930E+01  0.7957747E-01            NaN
         13   -1    0    0    0    0  0.00000000000E+00  0.00000000000E+00  0.74505805969E-08  0.10566000000E+00  0.10566000000E+00 0. -1.
     999900   -1    0    0    0    0 -0.00000000000E+00 -0.00000000000E+00 -0.74505805969E-08  0.93827000000E+00  0.93827000000E+00 0.  1.
     999902    2    1    2    0    0 -0.11271313508E-01  0.32808226890E-02 -0.76243622783E-02  0.10299322428E+01  0.10298371170E+01 0.  0.
     999903    2    3    3    0    0 -0.13108487134E+00  0.28393856929E-01 -0.10243346897E-02  0.14143378279E+00  0.44866591662E-01 0.  0.
         14    1    1    2    0    0  0.11271313508E-01 -0.32808226890E-02  0.76243622783E-02  0.13997757173E-01  0.00000000000E+00 0. -1.
     999901    1    3    3    0    0  0.11981355783E+00 -0.25113034240E-01 -0.66000275885E-02  0.88849846004E+00  0.88000000000E+00 0.  1.
        -11    1    4    4    0    0 -0.80723444635E-01  0.29011468120E-01 -0.19172070599E-01  0.87896354920E-01  0.51100000000E-03 0. -1.
         11    1    4    4    0    0 -0.50361426702E-01 -0.61761119091E-03  0.18147735909E-01  0.53537427867E-01  0.51100000000E-03 0.  1.
</event>
<event>
 8    1  0.2107254E+004  0.1043930E+01  0.7957747E-01            NaN
         13   -1    0    0    0    0  0.00000000000E+00  0.00000000000E+00  0.74505805969E-08  0.10566000000E+00  0.10566000000E+00 0.  1.
     999900   -1    0    0    0    0 -0.00000000000E+00 -0.00000000000E+00 -0.74505805969E-08  0.93827000000E+00  0.93827000000E+00 0. -1.
     999902    2    1    2    0    0 -0.11486203816E-01 -0.83810513130E-02  0.10425538059E-02  0.10296730081E+01  0.10295743013E+01 0.  0.
     999903    2    3    3    0    0  0.96463084206E-01 -0.83019188743E-01  0.34120977035E-01  0.13932583851E+00  0.45278426292E-01 0.  0.
         14    1    1    2    0    0  0.11486203816E-01  0.83810513130E-02 -0.10425538059E-02  0.14256991887E-01  0.00000000000E+00 0. -1.
     999901    1    3    3    0    0 -0.10794928802E+00  0.74638137430E-01 -0.33078423229E-01  0.89034716961E+00  0.88000000000E+00 0. -1.
        -11    1    4    4    0    0  0.66891413102E-01 -0.29475744306E-01  0.26167231564E-01  0.77641907356E-01  0.51100000000E-03 0. -1.
         11    1    4    4    0    0  0.29571671104E-01 -0.53543444438E-01  0.79537454712E-02  0.61683931151E-01  0.51100000000E-03 0.  1.
</event>
<event>
 8    1  0.2107254E+004  0.1043930E+01  0.7957747E-01            NaN
         13   -1    0    0    0    0  0.00000000000E+00  0.00000000000E+00  0.74505805969E-08  0.10566000000E+00  0.10566000000E+00 0.  1.
     999900   -1    0    0    0    0 -0.00000000000E+00 -0.00000000000E+00 -0.74505805969E-08  0.93827000000E+00  0.93827000000E+00 0. -1.
     999902    2    1    2    0    0  0.12320380497E-01 -0.76654260378E-02 -0.39585720061E-03  0.10294142418E+01  0.10293118935E+01 0.  0.
     999903    2    3    3    0    0 -0.22373637256E-01  0.12462616616E+00 -0.33387136005E-01  0.13823908245E+00  0.44306682691E-01 0.  0.
         14    1    1    2    0    0 -0.12320380497E-01  0.76654260378E-02  0.39585720061E-03  0.14515758157E-01  0.00000000000E+00 0. -1.
     999901    1    3    3    0    0  0.34694017753E-01 -0.13229159220E+00  0.32991278804E-01  0.89117515939E+00  0.88000000000E+00 0. -1.
        -11    1    4    4    0    0  0.54273537387E-02  0.20380791055E-01 -0.20784181562E-01  0.29615471241E-01  0.51100000000E-03 0.  1.
         11    1    4    4    0    0 -0.27800990995E-01  0.10424537511E+00 -0.12602954443E-01  0.10862361121E+00  0.51100000000E-03 0. -1.
</event>
<event>
 8    1  0.2107254E+004  0.1043930E+01  0.7957747E-01            NaN
         13   -1    0    0    0    0  0.00000000000E+00  0.00000000000E+00  0.74505805969E-08  0.10566000000E+00  0.10566000000E+00 0.  1.
     999900   -1    0    0    0    0 -0.00000000000E+00 -0.00000000000E+00 -0.74505805969E-08  0.93827000000E+00  0.93827000000E+00 0. -1.
     999902    2    1    2    0    0 -0.10173350159E-01 -0.75886617515E-02 -0.52656391740E-02  0.10301891195E+01  0.10300974761E+01 0.  0.
     999903    2    3    3    0    0 -0.12813566206E+00  0.38061741867E-01  0.56834443690E-02  0.14107779419E+00  0.44757104344E-01 0.  0.
         14    1    1    2    0    0  0.10173350159E-01  0.75886617515E-02  0.52656391740E-02  0.13740880487E-01  0.00000000000E+00 0. -1.
     999901    1    3    3    0    0  0.11796231190E+00 -0.45650403619E-01 -0.10949083543E-01  0.88911132532E+00  0.88000000000E+00 0.  1.
        -11    1    4    4    0    0 -0.65492494032E-01  0.21538651652E-01 -0.19370369332E-01  0.71614611767E-01  0.51100000000E-03 0. -1.
         11    1    4    4    0    0 -0.62643168029E-01  0.16523090215E-01  0.25053813701E-01  0.69463182427E-01  0.51100000000E-03 0.  1.
</event>
<event>
 8    1  0.2107254E+004  0.1043930E+01  0.7957747E-01            NaN
         13   -1    0    0    0    0  0.00000000000E+00  0.00000000000E+00  0.74505805969E-08  0.10566000000E+00  0.10566000000E+00 0. -1.
     999900   -1    0    0    0    0 -0.00000000000E+00 -0.00000000000E+00 -0.74505805969E-08  0.93827000000E+00  0.93827000000E+00 0.  1.
     999902    2    1    2    0    0  0.13766508017E-01 -0.82013568945E-03 -0.45768280375E-02  0.10293994556E+01  0.10292968971E+01 0.  0.
     999903    2    3    3    0    0 -0.61356995020E-01 -0.11592346556E+00  0.16346866500E-02  0.13870820710E+00  0.45103922323E-01 0.  0.
         14    1    1    2    0    0 -0.13766508017E-01  0.82013568945E-03  0.45768280375E-02  0.14530544395E-01  0.00000000000E+00 0.  1.
     999901    1    3    3    0    0  0.75123503037E-01  0.11510332987E+00 -0.62115146876E-02  0.89069124851E+00  0.88000000000E+00 0.  1.
        -11    1    4    4    0    0 -0.35184824826E-01 -0.82486619663E-01 -0.18728273586E-01  0.91613447015E-01  0.51100000000E-03 0. -1.
         11    1    4    4    0    0 -0.26172170195E-01 -0.33436845901E-01  0.20362960236E-01  0.47094760080E-01  0.51100000000E-03 0.  1.
</event>
<event>
 8    1  0.2107254E+004  0.1043930E+01  0.7957747E-01            NaN
         13   -1    0    0    0    0  0.00000000000E+00  0.00000000000E+00  0.74505805969E-08  0.10566000000E+00  0.10566000000E+00 0.  1.
     999900   -1    0    0    0    0 -0.00000000000E+00 -0.00000000000E+00 -0.74505805969E-08  0.93827000000E+00  0.93827000000E+00 0.  1.
     999902    2    1    2    0    0 -0.45166112496E-02 -0.13939788947E-01  0.55657869349E-03  0.10292661917E+01  0.10291617298E+01 0.  0.
     999903    2    3    3    0    0 -0.87148254219E-01 -0.88697797117E-01 -0.46891555317E-01  0.14097115424E+00  0.47031169900E-01 0.  0.
         14    1    1    2    0    0  0.45166112496E-02  0.13939788947E-01 -0.55657869349E-03  0.14663808268E-01  0.00000000000E+00 0.  1.
     999901    1    3    3    0    0  0.82631642969E-01  0.74758008170E-01  0.47448134011E-01  0.88829503749E+00  0.88000000000E+00 0. -1.
        -11    1    4    4    0    0 -0.53806160738E-01 -0.32416296660E-01 -0.44177125244E-02  0.62973776506E-01  0.51100000000E-03 0.  1.
         11    1    4    4    0    0 -0.33342093480E-01 -0.56281500457E-01 -0.42473842793E-01  0.77997377738E-01  0.51100000000E-03 0. -1.
</event>
<event>
 8    1  0.2107254E+004  0.1043930E+01  0.7957747E-01            NaN
         13   -1    0    0    0    0  0.00000000000E+00  0.00000000000E+00  0.74505805969E-08  0.10566000000E+00  0.10566000000E+00 0. -1.
     999900   -1    0    0    0    0 -0.00000000000E+00 -0.00000000000E+00 -0.74505805969E-08  0.93827000000E+00  0.93827000000E+00 0.  1.
     999902    2    1    2    0    0 -0.97509145977E-02  0.63142665714E-02 -0.42245377374E-02  0.10315688910E+01  0.10314948278E+01 0.  0.
     999903    2    3    3    0    0 -0.68175759064E-01 -0.25456698414E-01  0.11249292565E+00  0.14137462961E+00  0.45123718346E-01 0.  0.
         14    1    1    2    0    0  0.97509145977E-02 -0.63142665714E-02  0.42245377374E-02  0.12361109049E-01  0.00000000000E+00 0. -1.
     999901    1    3    3    0    0  0.58424844467E-01  0.31770964986E-01 -0.11671746339E+00  0.89019426134E+00  0.88000000000E+00 0.  1.
        -11    1    4    4    0    0 -0.35118021183E-01 -0.13903875645E-02  0.20471844644E-01  0.40676358410E-01  0.51100000000E-03 0.  1.
         11    1    4    4    0    0 -0.33057737882E-01 -0.24066310850E-01  0.92021081007E-01  0.10069827120E+00  0.51100000000E-03 0. -1.
</event>
<event>
 8    1  0.2107254E+004  0.1043930E+01  0.7957747E-01            NaN
         13   -1    0    0    0    0  0.00000000000E+00  0.00000000000E+00  0.74505805969E-08  0.10566000000E+00  0.10566000000E+00 0. -1.
     999900   -1    0    0    0    0 -0.00000000000E+00 -0.00000000000E+00 -0.74505805969E-08  0.93827000000E+00  0.93827000000E+00 0. -1.
     999902    2    1    2    0    0 -0.13109368091E-01  0.65511902859E-02 -0.57570292375E-02  0.10281846194E+01  0.10280640517E+01 0.  0.
     999903    2    3    3    0    0  0.46623501916E-01 -0.11677160570E+00 -0.31909813200E-01  0.13719612567E+00  0.44667458997E-01 0.  0.
         14    1    1    2    0    0  0.13109368091E-01 -0.65511902859E-02  0.57570292375E-02  0.15745380642E-01  0.00000000000E+00 0. -1.
     999901    1    3    3    0    0 -0.59732870007E-01  0.12332279598E+00  0.26152783963E-01  0.89098849368E+00  0.88000000000E+00 0.  1.
        -11    1    4    4    0    0  0.16642634957E-02 -0.57889861092E-01 -0.40925294624E-02  0.58060448747E-01  0.51100000000E-03 0.  1.
         11    1    4    4    0    0  0.44959238420E-01 -0.58881744606E-01 -0.27817283738E-01  0.79135676927E-01  0.51100000000E-03 0. -1.
</event>
<event>
 8    1  0.2107254E+004  0.1043930E+01  0.7957747E-01            NaN
         13   -1    0    0    0    0  0.00000000000E+00  0.00000000000E+00  0.74505805969E-08  0.10566000000E+00  0.10566000000E+00 0.  1.
     999900   -1    0    0    0    0 -0.00000000000E+00 -0.00000000000E+00 -0.74505805969E-08  0.93827000000E+00  0.93827000000E+00 0. -1.
     999902    2    1    2    0    0 -0.49313102500E-02 -0.10954578594E-01  0.88317330022E-02  0.10290195969E+01  0.10289115660E+01 0.  0.
     999903    2    3    3    0    0  0.31416152020E-02  0.65966761262E-01  0.11421040221E+00  0.13936419812E+00  0.44909691663E-01 0.  0.
         14    1    1    2    0    0  0.49313102500E-02  0.10954578594E-01 -0.88317330022E-02  0.14910403106E-01  0.00000000000E+00 0. -1.
     999901    1    3    3    0    0 -0.80729254520E-02 -0.76921339856E-01 -0.10537866921E+00  0.88965539878E+00  0.88000000000E+00 0. -1.
        -11    1    4    4    0    0 -0.20869299757E-01  0.29211888151E-01  0.53952415331E-01  0.64807301462E-01  0.51100000000E-03 0. -1.
         11    1    4    4    0    0  0.24010914959E-01  0.36754873111E-01  0.60257986883E-01  0.74556896654E-01  0.51100000000E-03 0.  1.
</event>
<event>
 8    1  0.2107254E+004  0.1043930E+01  0.7957747E-01            NaN
         13   -1    0    0    0    0  0.00000000000E+00  0.00000000000E+00  0.74505805969E-08  0.10566000000E+00  0.10566000000E+00 0. -1.
     999900   -1    0    0    0    0 -0.00000000000E+00 -0.00000000000E+00 -0.74505805969E-08  0.93827000000E+00  0.93827000000E+00 0.  1.
     999902    2    1    2    0    0  0.75911705118E-02  0.78111570502E-02 -0.73070763804E-02  0.10308138493E+01  0.10307304005E+01 0.  0.
     999903    2    3    3    0    0  0.19231606217E-01 -0.21023753340E-01  0.12848863546E+00  0.13985513692E+00  0.47310432228E-01 0.  0.
         14    1    1    2    0    0 -0.75911705118E-02 -0.78111570502E-02  0.73070763804E-02  0.13116150709E-01  0.00000000000E+00 0. -1.
     999901    1    3    3    0    0 -0.11640435705E-01  0.28834910390E-01 -0.13579571184E+00  0.89095871237E+00  0.88000000000E+00 0.  1.
        -11    1    4    4    0    0  0.32278778188E-01 -0.13435806507E-01  0.57658680007E-01  0.67433114410E-01  0.51100000000E-03 0.  1.
         11    1    4    4    0    0 -0.13047171972E-01 -0.75879468331E-02  0.70829955452E-01  0.72422022507E-01  0.51100000000E-03 0. -1.
</event>
<event>
 8    1  0.2107254E+004  0.1043930E+01  0.7957747E-01            NaN
         13   -1    0    0    0    0  0.00000000000E+00  0.00000000000E+00  0.74505805969E-08  0.10566000000E+00  0.10566000000E+00 0.  1.
     999900   -1    0    0    0    0 -0.00000000000E+00 -0.00000000000E+00 -0.74505805969E-08  0.93827000000E+00  0.93827000000E+00 0.  1.
     999902    2    1    2    0    0  0.84851944305E-02  0.80967519082E-02  0.14903058774E-01  0.10249653730E+01  0.10247899096E+01 0.  0.
     999903    2    3    3    0    0 -0.11933775012E+00  0.97968304845E-02 -0.41217813058E-01  0.13395967849E+00  0.43689939979E-01 0.  0.
         14    1    1    2    0    0 -0.84851944305E-02 -0.80967519082E-02 -0.14903058774E-01  0.18964626988E-01  0.00000000000E+00 0. -1.
     999901    1    3    3    0    0  0.12782294455E+00 -0.17000785762E-02  0.56120871832E-01  0.89100569453E+00  0.88000000000E+00 0.  1.
        -11    1    4    4    0    0 -0.46914430843E-01 -0.61197167707E-02 -0.36314844574E-01  0.59644310811E-01  0.51100000000E-03 0.  1.
         11    1    4    4    0    0 -0.72423319278E-01  0.15916547255E-01 -0.49029684837E-02  0.74315367675E-01  0.51100000000E-03 0. -1.
</event>
<event>
 8    1  0.2107254E+004  0.1043930E+01  0.7957747E-01            NaN
         13   -1    0    0    0    0  0.00000000000E+00  0.00000000000E+00  0.74505805969E-08  0.10566000000E+00  0.10566000000E+00 0.  1.
     999900   -1    0    0    0    0 -0.00000000000E+00 -0.00000000000E+00 -0.74505805969E-08  0.93827000000E+00  0.93827000000E+00 0.  1.
     999902    2    1    2    0    0  0.90341151226E-02 -0.98475169755E-02  0.97579975865E-03  0.10305307085E+01  0.10304435939E+01 0.  0.
     999903    2    3    3    0    0 -0.48126584328E-01 -0.12039159038E+00  0.32578961597E-01  0.14121293768E+00  0.45490678994E-01 0.  0.
         14    1    1    2    0    0 -0.90341151226E-02  0.98475169755E-02 -0.97579975865E-03  0.13399291466E-01  0.00000000000E+00 0.  1.
     999901    1    3    3    0    0  0.57160699450E-01  0.11054407340E+00 -0.31603161838E-01  0.88931777086E+00  0.88000000000E+00 0.  1.
        -11    1    4    4    0    0 -0.13871224153E-01 -0.77059306454E-02 -0.64498904373E-02  0.17136348336E-01  0.51100000000E-03 0. -1.
         11    1    4    4    0    0 -0.34255360174E-01 -0.11268565973E+00  0.39028852034E-01  0.12407658934E+00  0.51100000000E-03 0.  1.
</event>
<event>
 8    1  0.2107254E+004  0.1043930E+01  0.7957747E-01            NaN
         13   -1    0    0    0    0  0.00000000000E+00  0.00000000000E+00  0.74505805969E-08  0.10566000000E+00  0.10566000000E+00 0.  1.
     999900   -1    0    0    0    0 -0.00000000000E+00 -0.00000000000E+00 -0.74505805969E-08  0.93827000000E+00  0.93827000000E+00 0. -1.
     999902    2    1    2    0    0  0.18539095634E-02  0.39206074055E-02  0.11584621764E-01  0.10315602140E+01  0.10314860462E+01 0.  0.
     999903    2    3    3    0    0 -0.10063600627E+00 -0.64827643395E-01 -0.57548673573E-01  0.14026345238E+00  0.45075016763E-01 0.  0.
         14    1    1    2    0    0 -0.18539095634E-02 -0.39206074055E-02 -0.11584621764E-01  0.12369785953E-01  0.00000000000E+00 0. -1.
     999901    1    3    3    0    0  0.10248991584E+00  0.68748250801E-01  0.69133295337E-01  0.89129676167E+00  0.88000000000E+00 0.  1.
        -11    1    4    4    0    0 -0.56138657061E-01 -0.14893340848E-01 -0.11912117543E-01  0.59291821389E-01  0.51100000000E-03 0.  1.
         11    1    4    4    0    0 -0.44497349213E-01 -0.49934302547E-01 -0.45636556030E-01  0.80971630990E-01  0.51100000000E-03 0. -1.
</event>
<event>
 8    1  0.2107254E+004  0.1043930E+01  0.7957747E-01            NaN
         13   -1    0    0    0    0  0.00000000000E+00  0.00000000000E+00  0.74505805969E-08  0.10566000000E+00  0.10566000000E+00 0.  1.
     999900   -1    0    0    0    0 -0.00000000000E+00 -0.00000000000E+00 -0.74505805969E-08  0.93827000000E+00  0.93827000000E+00 0. -1.
     999902    2    1    2    0    0 -0.77092076897E-02 -0.11537408143E-01 -0.20905151457E-02  0.10298973978E+01  0.10298017946E+01 0.  0.
     999903    2    3    3    0    0 -0.11784954078E+00 -0.51183977765E-01  0.37359588005E-01  0.14126977386E+00  0.45311106242E-01 0.  0.
         14    1    1    2    0    0  0.77092076897E-02  0.11537408143E-01  0.20905151457E-02  0.14032602162E-01  0.00000000000E+00 0.  1.
     999901    1    3    3    0    0  0.11014033309E+00  0.39646569622E-01 -0.39450103150E-01  0.88862762398E+00  0.88000000000E+00 0. -1.
        -11    1    4    4    0    0 -0.30992338644E-01 -0.93646403471E-02  0.30729031624E-01  0.44640296247E-01  0.51100000000E-03 0. -1.
         11    1    4    4    0    0 -0.86857202137E-01 -0.41819337418E-01  0.66305563801E-02  0.96629477614E-01  0.51100000000E-03 0.  1.
</event>
<event>
 8    1  0.2107254E+004  0.1043930E+01  0.7957747E-01            NaN
         13   -1    0    0    0    0  0.00000000000E+00  0.00000000000E+00  0.74505805969E-08  0.10566000000E+00  0.10566000000E+00 0.  1.
     999900   -1    0    0    0    0 -0.00000000000E+00 -0.00000000000E+00 -0.74505805969E-08  0.93827000000E+00  0.93827000000E+00 0.  1.
     999902    2    1    2    0    0 -0.90399738586E-02 -0.17201052937E-03 -0.10773092188E-01  0.10298654975E+01  0.10297694561E+01 0.  0.
     999903    2    3    3    0    0 -0.99308405889E-01  0.75836186290E-01  0.45644344516E-01  0.14019782755E+00  0.44257632480E-01 0.  0.
         14    1    1    2    0    0  0.90399738586E-02  0.17201052937E-03  0.10773092188E-01  0.14064502489E-01  0.00000000000E+00 0.  1.
     999901    1    3    3    0    0  0.90268432031E-01 -0.76008196820E-01 -0.56417436704E-01  0.88966766996E+00  0.88000000000E+00 0.  1.
        -11    1    4    4    0    0 -0.16352590920E-01  0.19979385506E-01 -0.75726481783E-02  0.26910763580E-01  0.51100000000E-03 0.  1.
         11    1    4    4    0    0 -0.82955814969E-01  0.55856800784E-01  0.53216992695E-01  0.11328706397E+00  0.51100000000E-03 0. -1.
</event>
<event>
 8    1  0.2107254E+004  0.1043930E+01  0.7957747E-01            NaN
         13   -1    0    0    0    0  0.00000000000E+00  0.00000000000E+00  0.74505805969E-08  0.10566000000E+00  0.10566000000E+00 0.  1.
     999900   -1    0    0    0    0 -0.00000000000E+00 -0.00000000000E+00 -0.74505805969E-08  0.93827000000E+00  0.93827000000E+00 0. -1.
     999902    2    1    2    0    0  0.11224679400E-02  0.17246498027E-01 -0.13208280478E-02  0.10265966156E+01  0.10264502740E+01 0.  0.
     999903    2    3    3    0    0 -0.62021162058E-01 -0.64543158033E-01 -0.91954413971E-01  0.13592770250E+00  0.44813862424E-01 0.  0.
         14    1    1    2    0    0 -0.11224679400E-02 -0.17246498027E-01  0.13208280478E-02  0.17333384413E-01  0.00000000000E+00 0.  1.
     999901    1    3    3    0    0  0.63143629998E-01  0.81789656060E-01  0.90633585924E-01  0.89066891309E+00  0.88000000000E+00 0.  1.
        -11    1    4    4    0    0 -0.33973342483E-01 -0.26903385848E-01 -0.73823285164E-01  0.85604431678E-01  0.51100000000E-03 0. -1.
         11    1    4    4    0    0 -0.28047819575E-01 -0.37639772185E-01 -0.18131128807E-01  0.50323270818E-01  0.51100000000E-03 0.  1.
</event>
<event>
 8    1  0.2107254E+004  0.1043930E+01  0.7957747E-01            NaN
         13   -1    0    0    0    0  0.00000000000E+00  0.00000000000E+00  0.74505805969E-08  0.10566000000E+00  0.10566000000E+00 0. -1.
     999900   -1    0    0    0    0 -0.00000000000E+00 -0.00000000000E+00 -0.74505805969E-08  0.93827000000E+00  0.93827000000E+00 0. -1.
     999902    2    1    2    0    0  0.85673972642E-02 -0.61278924792E-02  0.93835881823E-02  0.10298231545E+01  0.10297265300E+01 0.  0.
     999903    2    3    3    0    0 -0.10097092087E+00  0.73872069531E-01  0.41011952541E-01  0.13886917676E+00  0.44163995353E-01 0.  0.
         14    1    1    2    0    0 -0.85673972642E-02  0.61278924792E-02 -0.93835881823E-02  0.14106845476E-01  0.00000000000E+00 0.  1.
     999901    1    3    3    0    0  0.10953831813E+00 -0.79999962011E-01 -0.31628364359E-01  0.89095397776E+00  0.88000000000E+00 0.  1.
        -11    1    4    4    0    0 -0.54545288829E-01  0.20797278287E-01  0.22942151309E-02  0.58422939516E-01  0.51100000000E-03 0. -1.
         11    1    4    4    0    0 -0.46425632037E-01  0.53074791244E-01  0.38717737410E-01  0.80446237244E-01  0.51100000000E-03 0.  1.
</event>
<event>
 8    1  0.2107254E+004  0.1043930E+01  0.7957747E-01            NaN
         13   -1    0    0    0    0  0.00000000000E+00  0.00000000000E+00  0.74505805969E-08  0.10566000000E+00  0.10566000000E+00 0.  1.
     999900   -1    0    0    0    0 -0.00000000000E+00 -0.00000000000E+00 -0.74505805969E-08  0.93827000000E+00  0.93827000000E+00 0. -1.
     999902    2    1    2    0    0 -0.37638365947E-02 -0.11377658828E-01  0.32176217334E-02  0.10315215079E+01  0.10314468724E+01 0.  0.
     999903    2    3    3    0    0 -0.12769589934E+00 -0.39489256225E-01  0.16106941299E-01  0.14229962748E+00  0.46088028332E-01 0.  0.
         14    1    1    2    0    0  0.37638365947E-02  0.11377658828E-01 -0.32176217334E-02  0.12408492090E-01  0.00000000000E+00 0.  1.
     999901    1    3    3    0    0  0.12393206275E+00  0.28111597396E-01 -0.12889319566E-01  0.88922188043E+00  0.88000000000E+00 0. -1.
        -11    1    4    4    0    0 -0.70710962995E-01  0.33820671524E-03 -0.92034342692E-03  0.70719607072E-01  0.51100000000E-03 0.  1.
         11    1    4    4    0    0 -0.56984936348E-01 -0.39827462940E-01  0.17027284726E-01  0.71580020403E-01  0.51100000000E-03 0. -1.
</event>
<event>
 8    1  0.2107254E+004  0.1043930E+01  0.7957747E-01            NaN
         13   -1    0    0    0    0  0.00000000000E+00  0.00000000000E+00  0.74505805969E-08  0.10566000000E+00  0.10566000000E+00 0.  1.
     999900   -1    0    0    0    0 -0.00000000000E+00 -0.00000000000E+00 -0.74505805969E-08  0.93827000000E+00  0.93827000000E+00 0.  1.
     999902    2    1    2    0    0  0.43015486256E-02  0.13216634100E-01 -0.29203368876E-02  0.10297274965E+01  0.10296295479E+01 0.  0.
     999903    2    3    3    0    0 -0.12863570420E+00  0.21857171591E-01  0.14861856973E-01  0.13952348704E+00  0.47127999100E-01 0.  0.
         14    1    1    2    0    0 -0.43015486256E-02 -0.13216634100E-01  0.29203368876E-02  0.14202503478E-01  0.00000000000E+00 0.  1.
     999901    1    3    3    0    0  0.13293725282E+00 -0.86405374910E-02 -0.17782193861E-01  0.89020400948E+00  0.88000000000E+00 0. -1.
        -11    1    4    4    0    0 -0.43998501222E-01  0.20965827276E-01  0.24106618769E-01  0.54376688136E-01  0.51100000000E-03 0.  1.
         11    1    4    4    0    0 -0.84637202976E-01  0.89134431439E-03 -0.92447617956E-02  0.85146798906E-01  0.51100000000E-03 0. -1.
</event>
<event>
 8    1  0.2107254E+004  0.1043930E+01  0.7957747E-01            NaN
         13   -1    0    0    0    0  0.00000000000E+00  0.00000000000E+00  0.74505805969E-08  0.10566000000E+00  0.10566000000E+00 0.  1.
     999900   -1    0    0    0    0 -0.00000000000E+00 -0.00000000000E+00 -0.74505805969E-08  0.93827000000E+00  0.93827000000E+00 0. -1.
     999902    2    1    2    0    0 -0.28300825163E-02  0.12395344946E-01 -0.38703899534E-02  0.10306396327E+01  0.10305539378E+01 0.  0.
     999903    2    3    3    0    0 -0.55723893714E-01  0.10091692734E+00  0.69144915194E-01  0.14161485210E+00  0.44546251068E-01 0.  0.
         14    1    1    2    0    0  0.28300825163E-02 -0.12395344946E-01  0.38703899534E-02  0.13290367255E-01  0.00000000000E+00 0.  1.
     999901    1    3    3    0    0  0.52893811197E-01 -0.88521582394E-01 -0.73015305148E-01  0.88902478064E+00  0.88000000000E+00 0.  1.
        -11    1    4    4    0    0 -0.42860121502E-01  0.38570963793E-01  0.19452316831E-01  0.60855262831E-01  0.51100000000E-03 0. -1.
         11    1    4    4    0    0 -0.12863772211E-01  0.62345963547E-01  0.49692598363E-01  0.80759589271E-01  0.51100000000E-03 0.  1.
</event>
<event>
 8    1  0.2107254E+004  0.1043930E+01  0.7957747E-01            NaN
         13   -1    0    0    0    0  0.00000000000E+00  0.00000000000E+00  0.74505805969E-08  0.10566000000E+00  0.10566000000E+00 0.  1.
     999900   -1    0    0    0    0 -0.00000000000E+00 -0.00000000000E+00 -0.74505805969E-08  0.93827000000E+00  0.93827000000E+00 0. -1.
     999902    2    1    2    0    0 -0.73120228783E-02  0.17315900798E-02 -0.11698687784E-01  0.10300259222E+01  0.10299320740E+01 0.  0.
     999903    2    3    3    0    0  0.10251817686E+00  0.52778706655E-01  0.62489883032E-01  0.13863800167E+00  0.44943759995E-01 0.  0.
         14    1    1    2    0    0  0.73120228783E-02 -0.17315900798E-02  0.11698687784E-01  0.13904077771E-01  0.00000000000E+00 0.  1.
     999901    1    3    3    0    0 -0.10983019974E+00 -0.51047116575E-01 -0.74188570817E-01  0.89138792056E+00  0.88000000000E+00 0. -1.
        -11    1    4    4    0    0  0.99259109795E-01  0.37390929994E-01  0.62068115983E-01  0.12289493344E+00  0.51100000000E-03 0. -1.
         11    1    4    4    0    0  0.32590670627E-02  0.15387776661E-01  0.42176704920E-03  0.15743068225E-01  0.51100000000E-03 0.  1.
</event>
<event>
 8    1  0.2107254E+004  0.1043930E+01  0.7957747E-01            NaN
         13   -1    0    0    0    0  0.00000000000E+00  0.00000000000E+00  0.74505805969E-08  0.10566000000E+00  0.10566000000E+00 0. -1.
     999900   -1    0    0    0    0 -0.00000000000E+00 -0.00000000000E+00 -0.74505805969E-08  0.93827000000E+00  0.93827000000E+00 0. -1.
     999902    2    1    2    0    0 -0.11053351292E-01 -0.24541570543E-03  0.97225680429E-02  0.10292070542E+01  0.10291017419E+01 0.  0.
     999903    2    3    3    0    0 -0.71178112159E-01 -0.41578038071E-01 -0.10269360203E+00  0.13906056747E+00  0.44685664684E-01 0.  0.
         14    1    1    2    0    0  0.11053351292E-01  0.24541570543E-03 -0.97225680429E-02  0.14722945799E-01  0.00000000000E+00 0.  1.
     999901    1    3    3    0    0  0.60124760867E-01  0.41332622366E-01  0.11241617007E+00  0.89014648673E+00  0.88000000000E+00 0.  1.
        -11    1    4    4    0    0 -0.10129141172E-01 -0.19271010404E-01 -0.52818091315E-01  0.57131280697E-01  0.51100000000E-03 0. -1.
         11    1    4    4    0    0 -0.61048970987E-01 -0.22307027667E-01 -0.49875510712E-01  0.81929286776E-01  0.51100000000E-03 0.  1.
</event>
<event>
 8    1  0.2107254E+004  0.1043930E+01  0.7957747E-01            NaN
         13   -1    0    0    0    0  0.00000000000E+00  0.00000000000E+00  0.74505805969E-08  0.10566000000E+00  0.10566000000E+00 0.  1.
     999900   -1    0    0    0    0 -0.00000000000E+00 -0.00000000000E+00 -0.74505805969E-08  0.93827000000E+00  0.93827000000E+00 0.  1.
     999902    2    1    2    0    0  0.14189144087E-03  0.98657069715E-02 -0.94095421236E-02  0.10302957860E+01  0.10302055693E+01 0.  0.
     999903    2    3    3    0    0 -0.28986569486E-01 -0.12888343576E+00 -0.70493043839E-02  0.13894548310E+00  0.42485213397E-01 0.  0.
         14    1    1    2    0    0 -0.14189144087E-03 -0.98657069715E-02  0.94095421236E-02  0.13634213956E-01  0.00000000000E+00 0.  1.
     999901    1    3    3    0    0  0.29128460927E-01  0.13874914273E+00 -0.23602377396E-02  0.89135030295E+00  0.88000000000E+00 0.  1.
        -11    1    4    4    0    0 -0.25417236922E-01 -0.11589710104E+00 -0.19915763677E-01  0.12031239639E+00  0.51100000000E-03 0.  1.
         11    1    4    4    0    0 -0.35693325640E-02 -0.12986334721E-01  0.12866459293E-01  0.18633086706E-01  0.51100000000E-03 0. -1.
</event>
<event>
 7    1  0.2107254E+004  0.1043930E+01  0.7957747E-01            NaN
         13   -1    0    0    0    0  0.00000000000E+00  0.00000000000E+00  0.74505805969E-08  0.10566000000E+00  0.10566000000E+00 0.  1.
     999900   -1    0    0    0    0 -0.00000000000E+00 -0.00000000000E+00 -0.74505805969E-08  0.93827000000E+00  0.93827000000E+00 0. -1.
     999902    2    1    2    0    0 -0.91463306904E-02  0.80889495038E-02  0.53249745390E-02  0.10306092709E+01  0.10305231814E+01 0.  0.
         14    1    1    2    0    0  0.91463306904E-02 -0.80889495038E-02 -0.53249745390E-02  0.13320729072E-01  0.00000000000E+00 0. -1.
     999901    1    3    3    0    0  0.35058159780E-01  0.58849172141E-01 -0.10394259035E+00  0.88876113873E+00  0.88000000000E+00 0. -1.
        -11    1    3    3    0    0 -0.59212286266E-01 -0.41719344306E-01  0.81770500200E-01  0.10923952745E+00  0.51100000000E-03 0.  1.
         11    1    3    3    0    0  0.15007795796E-01 -0.90408783304E-02  0.27497064693E-01  0.32608604744E-01  0.51100000000E-03 0. -1.
</event>
<event>
 8    1  0.2107254E+004  0.1043930E+01  0.7957747E-01            NaN
         13   -1    0    0    0    0  0.00000000000E+00  0.00000000000E+00  0.74505805969E-08  0.10566000000E+00  0.10566000000E+00 0.  1.
     999900   -1    0    0    0    0 -0.00000000000E+00 -0.00000000000E+00 -0.74505805969E-08  0.93827000000E+00  0.93827000000E+00 0. -1.
     999902    2    1    2    0    0 -0.31054156826E-02  0.12852740377E-01 -0.26878932903E-02  0.10304369903E+01  0.10303486447E+01 0.  0.
     999903    2    3    3    0    0 -0.70753158852E-01 -0.10783316178E+00  0.25671136132E-01  0.13917634449E+00  0.45574635124E-01 0.  0.
         14    1    1    2    0    0  0.31054156826E-02 -0.12852740377E-01  0.26878932903E-02  0.13493009749E-01  0.00000000000E+00 0. -1.
     999901    1    3    3    0    0  0.67647743169E-01  0.12068590216E+00 -0.28359029423E-01  0.89126064576E+00  0.88000000000E+00 0.  1.
        -11    1    4    4    0    0 -0.83922575021E-03 -0.81130770610E-02  0.14797064631E-01  0.16903862338E-01  0.51100000000E-03 0. -1.
         11    1    4    4    0    0 -0.69913933101E-01 -0.99720084724E-01  0.10874071502E-01  0.12227248215E+00  0.51100000000E-03 0.  1.
</event>
<event>
 8    1  0.2107254E+004  0.1043930E+01  0.7957747E-01            NaN
         13   -1    0    0    0    0  0.00000000000E+00  0.00000000000E+00  0.74505805969E-08  0.10566000000E+00  0.10566000000E+00 0. -1.
     999900   -1    0    0    0    0 -0.00000000000E+00 -0.00000000000E+00 -0.74505805969E-08  0.93827000000E+00  0.93827000000E+00 0. -1.
     999902    2    1    2    0    0 -0.95683735821E-03  0.70606173786E-02  0.11054245063E-01  0.10307784149E+01  0.10306945117E+01 0.  0.
     999903    2    3    3    0    0 -0.84957633974E-01 -0.28888963347E-01  0.99972257718E-01  0.14159062873E+00  0.44733455674E-01 0.  0.
         14    1    1    2    0    0  0.95683735821E-03 -0.70606173786E-02 -0.11054245063E-01  0.13151585054E-01  0.00000000000E+00 0.  1.
     999901    1    3    3    0    0  0.84000796615E-01  0.35949580725E-01 -0.88918012655E-01  0.88918778622E+00  0.88000000000E+00 0. -1.
        -11    1    4    4    0    0 -0.52821727316E-01 -0.31987978432E-01  0.40294929885E-01  0.73738105050E-01  0.51100000000E-03 0.  1.
         11    1    4    4    0    0 -0.32135906658E-01  0.30990150858E-02  0.59677327833E-01  0.67852523678E-01  0.51100000000E-03 0. -1.
</event>
<event>
 8    1  0.2107254E+004  0.1043930E+01  0.7957747E-01            NaN
         13   -1    0    0    0    0  0.00000000000E+00  0.00000000000E+00  0.74505805969E-08  0.10566000000E+00  0.10566000000E+00 0. -1.
     999900   -1    0    0    0    0 -0.00000000000E+00 -0.00000000000E+00 -0.74505805969E-08  0.93827000000E+00  0.93827000000E+00 0. -1.
     999902    2    1    2    0    0 -0.16535170804E-02 -0.20633361041E-02  0.73217796975E-02  0.10361454041E+01  0.10361161608E+01 0.  0.
     999903    2    3    3    0    0 -0.46933905435E-01 -0.12536908156E+00 -0.35484105579E-01  0.14536655155E+00  0.44182739495E-01 0.  0.
         14    1    1    2    0    0  0.16535170804E-02  0.20633361041E-02 -0.73217796975E-02  0.77845958503E-02  0.00000000000E+00 0.  1.
     999901    1    3    3    0    0  0.45280388354E-01  0.12330574546E+00  0.42805885276E-01  0.89077885260E+00  0.88000000000E+00 0.  1.
        -11    1    4    4    0    0 -0.17394358034E-01 -0.98185173778E-01 -0.16942879054E-01  0.10114452191E+00  0.51100000000E-03 0.  1.
         11    1    4    4    0    0 -0.29539547400E-01 -0.27183907781E-01 -0.18541226525E-01  0.44222029633E-01  0.51100000000E-03 0. -1.
</event>
<event>
 8    1  0.2107254E+004  0.1043930E+01  0.7957747E-01            NaN
         13   -1    0    0    0    0  0.00000000000E+00  0.00000000000E+00  0.74505805969E-08  0.10566000000E+00  0.10566000000E+00 0. -1.
     999900   -1    0    0    0    0 -0.00000000000E+00 -0.00000000000E+00 -0.74505805969E-08  0.93827000000E+00  0.93827000000E+00 0.  1.
     999902    2    1    2    0    0 -0.10126300968E-01 -0.41146882776E-02  0.69571474833E-02  0.10309733595E+01  0.10308919408E+01 0.  0.
     999903    2    3    3    0    0 -0.12643209036E+00  0.10218316171E-01 -0.41741067046E-01  0.14187044775E+00  0.47910539640E-01 0.  0.
         14    1    1    2    0    0  0.10126300968E-01  0.41146882776E-02 -0.69571474833E-02  0.12956640460E-01  0.00000000000E+00 0.  1.
     999901    1    3    3    0    0  0.11630578939E+00 -0.14333004449E-01  0.48698214530E-01  0.88910291179E+00  0.88000000000E+00 0. -1.
        -11    1    4    4    0    0 -0.66544927227E-01  0.92726544816E-02 -0.46613408886E-01  0.81775793911E-01  0.51100000000E-03 0.  1.
         11    1    4    4    0    0 -0.59887163128E-01  0.94566168951E-03  0.48723418400E-02  0.60094653835E-01  0.51100000000E-03 0. -1.
</event>
<event>
 8    1  0.2107254E+004  0.1043930E+01  0.7957747E-01            NaN
         13   -1    0    0    0    0  0.00000000000E+00  0.00000000000E+00  0.74505805969E-08  0.10566000000E+00  0.10566000000E+00 0. -1.
     999900   -1    0    0    0    0 -0.00000000000E+00 -0.00000000000E+00 -0.74505805969E-08  0.93827000000E+00  0.93827000000E+00 0. -1.
     999902    2    1    2    0    0  0.83774723711E-03 -0.11508266573E-01  0.18257821916E-02  0.10322477271E+01  0.10321816190E+01 0.  0.
     999903    2    3    3    0    0 -0.13533617414E-01 -0.13488487091E+00 -0.14783614394E-01  0.14336967320E+00  0.44263085480E-01 0.  0.
         14    1    1    2    0    0 -0.83774723711E-03  0.11508266573E-01 -0.18257821916E-02  0.11682272919E-01  0.00000000000E+00 0. -1.
     999901    1    3    3    0    0  0.14371364651E-01  0.12337660434E+00  0.16609396586E-01  0.88887805388E+00  0.88000000000E+00 0.  1.
        -11    1    4    4    0    0 -0.24926766104E-01 -0.43428276165E-01 -0.10108706615E-01  0.51086259498E-01  0.51100000000E-03 0. -1.
         11    1    4    4    0    0  0.11393148690E-01 -0.91456594749E-01 -0.46749077796E-02  0.92283413699E-01  0.51100000000E-03 0.  1.
</event>
<event>
 7    1  0.2107254E+004  0.1043930E+01  0.7957747E-01            NaN
         13   -1    0    0    0    0  0.00000000000E+00  0.00000000000E+00  0.74505805969E-08  0.10566000000E+00  0.10566000000E+00 0. -1.
     999900   -1    0    0    0    0 -0.00000000000E+00 -0.00000000000E+00 -0.74505805969E-08  0.93827000000E+00  0.93827000000E+00 0. -1.
     999903    2    1    2    0    0 -0.69348938433E-01 -0.76755654950E-01  0.46818596937E-01  0.12179106946E+00  0.44049719089E-01 0.  0.
         14    1    1    2    0    0  0.20425163108E-01 -0.21742663260E-01  0.14513511389E-01  0.33174880654E-01  0.00000000000E+00 0. -1.
     999901    1    1    2    0    0  0.48923775325E-01  0.98498318210E-01 -0.61332108326E-01  0.88896404989E+00  0.88000000000E+00 0.  1.
        -11    1    3    3    0    0 -0.30365871742E-01 -0.54752881587E-02  0.87984157834E-02  0.32089533938E-01  0.51100000000E-03 0.  1.
         11    1    3    3    0    0 -0.38983066691E-01 -0.71280366792E-01  0.38020181153E-01  0.89701535519E-01  0.51100000000E-03 0. -1.
</event>
<event>
 8    1  0.2107254E+004  0.1043930E+01  0.7957747E-01            NaN
         13   -1    0    0    0    0  0.00000000000E+00  0.00000000000E+00  0.74505805969E-08  0.10566000000E+00  0.10566000000E+00 0.  1.
     999900   -1    0    0    0    0 -0.00000000000E+00 -0.00000000000E+00 -0.74505805969E-08  0.93827000000E+00  0.93827000000E+00 0. -1.
     999902    2    1    2    0    0 -0.59771612736E-02  0.15107030917E-01  0.21183071518E-02  0.10275459814E+01  0.10274153531E+01 0.  0.
     999903    2    3    3    0    0  0.15291747084E-01  0.29902099733E-02 -0.12896624735E+00  0.13749972180E+00  0.45067745174E-01 0.  0.
         14    1    1    2    0    0  0.59771612736E-02 -0.15107030917E-01 -0.21183071518E-02  0.16384018591E-01  0.00000000000E+00 0.  1.
     999901    1    3    3    0    0 -0.21268908358E-01  0.12116820943E-01  0.13108455450E+00  0.89004625961E+00  0.88000000000E+00 0.  1.
        -11    1    4    4    0    0  0.28023373640E-01  0.13547585771E-01 -0.83046145336E-01  0.88689175927E-01  0.51100000000E-03 0. -1.
         11    1    4    4    0    0 -0.12731626556E-01 -0.10557375798E-01 -0.45920102015E-01  0.48810545874E-01  0.51100000000E-03 0.  1.
</event>
<event>
 8    1  0.2107254E+004  0.1043930E+01  0.7957747E-01            NaN
         13   -1    0    0    0    0  0.00000000000E+00  0.00000000000E+00  0.74505805969E-08  0.10566000000E+00  0.10566000000E+00 0.  1.
     999900   -1    0    0    0    0 -0.00000000000E+00 -0.00000000000E+00 -0.74505805969E-08  0.93827000000E+00  0.93827000000E+00 0.  1.
     999902    2    1    2    0    0 -0.57406090051E-02  0.10379849526E-01 -0.54659836333E-02  0.10308696461E+01  0.10307869102E+01 0.  0.
     999903    2    3    3    0    0  0.10598529373E+00 -0.29347895122E-01  0.72945625547E-01  0.13946101278E+00  0.45101312206E-01 0.  0.
         14    1    1    2    0    0  0.57406090051E-02 -0.10379849526E-01  0.54659836333E-02  0.13060353939E-01  0.00000000000E+00 0.  1.
     999901    1    3    3    0    0 -0.11172590274E+00  0.39727744648E-01 -0.78411609181E-01  0.89140863328E+00  0.88000000000E+00 0.  1.
        -11    1    4    4    0    0  0.10074131597E+00 -0.14360482323E-01  0.69429750342E-01  0.12319004647E+00  0.51100000000E-03 0.  1.
         11    1    4    4    0    0  0.52439777678E-02 -0.14987412798E-01  0.35158752052E-02  0.16270966311E-01  0.51100000000E-03 0. -1.
</event>
<event>
 8    1  0.2107254E+004  0.1043930E+01  0.7957747E-01            NaN
         13   -1    0    0    0    0  0.00000000000E+00  0.00000000000E+00  0.74505805969E-08  0.10566000000E+00  0.10566000000E+00 0. -1.
     999900   -1    0    0    0    0 -0.00000000000E+00 -0.00000000000E+00 -0.74505805969E-08  0.93827000000E+00  0.93827000000E+00 0.  1.
     999902    2    1    2    0    0 -0.53617735203E-02  0.78037263310E-02  0.10881870322E-01  0.10295056504E+01  0.10294045960E+01 0.  0.
     999903    2    3    3    0    0  0.21626642607E-01  0.72792066290E-01  0.11028441555E+00  0.14111793946E+00  0.44555851912E-01 0.  0.
         14    1    1    2    0    0  0.53617735203E-02 -0.78037263310E-02 -0.10881870322E-01  0.14424349609E-01  0.00000000000E+00 0.  1.
     999901    1    3    3    0    0 -0.26988416127E-01 -0.64988339959E-01 -0.99402545226E-01  0.88838771093E+00  0.88000000000E+00 0.  1.
        -11    1    4    4    0    0 -0.66829827145E-02  0.53149169683E-01  0.65949433771E-01  0.84965201298E-01  0.51100000000E-03 0. -1.
         11    1    4    4    0    0  0.28309625321E-01  0.19642896607E-01  0.44334981777E-01  0.56152738162E-01  0.51100000000E-03 0.  1.
</event>
<event>
 8    1  0.2107254E+004  0.1043930E+01  0.7957747E-01            NaN
         13   -1    0    0    0    0  0.00000000000E+00  0.00000000000E+00  0.74505805969E-08  0.10566000000E+00  0.10566000000E+00 0.  1.
     999900   -1    0    0    0    0 -0.00000000000E+00 -0.00000000000E+00 -0.74505805969E-08  0.93827000000E+00  0.93827000000E+00 0. -1.
     999902    2    1    2    0    0  0.10996671417E-02 -0.24917473388E-02 -0.13829505989E-01  0.10298348480E+01  0.10297383847E+01 0.  0.
     999903    2    3    3    0    0 -0.47565108906E-01  0.68466882051E-01 -0.10439708421E+00  0.14101210209E+00  0.45116606935E-01 0.  0.
         14    1    1    2    0    0 -0.10996671417E-02  0.24917473388E-02  0.13829505989E-01  0.14095151951E-01  0.00000000000E+00 0.  1.
     999901    1    3    3    0    0  0.48664776048E-01 -0.70958629390E-01  0.90567578218E-01  0.88882274596E+00  0.88000000000E+00 0.  1.
        -11    1    4    4    0    0 -0.67554742577E-02  0.41185440989E-01 -0.28207927053E-01  0.50376832488E-01  0.51100000000E-03 0.  1.
         11    1    4    4    0    0 -0.40809634649E-01  0.27281441061E-01 -0.76189157155E-01  0.90635269600E-01  0.51100000000E-03 0. -1.
</event>
<event>
 8    1  0.2107254E+004  0.1043930E+01  0.7957747E-01            NaN
         13   -1    0    0    0    0  0.00000000000E+00  0.00000000000E+00  0.74505805969E-08  0.10566000000E+00  0.10566000000E+00 0. -1.
     999900   -1    0    0    0    0 -0.00000000000E+00 -0.00000000000E+00 -0.74505805969E-08  0.93827000000E+00  0.93827000000E+00 0.  1.
     999902    2    1    2    0    0  0.14602123757E-02 -0.87585336505E-03 -0.13565329330E-01  0.10302582225E+01  0.10301675046E+01 0.  0.
     999903    2    3    3    0    0 -0.73945647477E-01 -0.69926559187E-01 -0.87103361111E-01  0.14129147074E+00  0.44928851825E-01 0.  0.
         14    1    1    2    0    0 -0.14602123757E-02  0.87585336505E-03  0.13565329330E-01  0.13671777468E-01  0.00000000000E+00 0. -1.
     999901    1    3    3    0    0  0.75405859853E-01  0.69050705822E-01  0.73538031781E-01  0.88896675179E+00  0.88000000000E+00 0. -1.
        -11    1    4    4    0    0 -0.47432914614E-01 -0.23526613965E-01 -0.22721926594E-01  0.57618833922E-01  0.51100000000E-03 0.  1.
         11    1    4    4    0    0 -0.26512732864E-01 -0.46399945222E-01 -0.64381434516E-01  0.83672636817E-01  0.51100000000E-03 0. -1.
</event>
<event>
 8    1  0.2107254E+004  0.1043930E+01  0.7957747E-01            NaN
         13   -1    0    0    0    0  0.00000000000E+00  0.00000000000E+00  0.74505805969E-08  0.10566000000E+00  0.10566000000E+00 0.  1.
     999900   -1    0    0    0    0 -0.00000000000E+00 -0.00000000000E+00 -0.74505805969E-08  0.93827000000E+00  0.93827000000E+00 0. -1.
     999902    2    1    2    0    0 -0.36062264417E-02  0.99114804084E-02 -0.75702623890E-02  0.10309472736E+01  0.10308655245E+01 0.  0.
     999903    2    3    3    0    0  0.95164653828E-01  0.16145396702E-01 -0.93341398360E-01  0.14125562121E+00  0.43858279758E-01 0.  0.
         14    1    1    2    0    0  0.36062264417E-02 -0.99114804084E-02  0.75702623890E-02  0.12982726434E-01  0.00000000000E+00 0.  1.
     999901    1    3    3    0    0 -0.98770880270E-01 -0.62339162937E-02  0.85771135971E-01  0.88969165235E+00  0.88000000000E+00 0. -1.
        -11    1    4    4    0    0  0.45559723608E-01  0.17222621810E-01 -0.19886906111E-01  0.52612330046E-01  0.51100000000E-03 0. -1.
         11    1    4    4    0    0  0.49604930220E-01 -0.10772251083E-02 -0.73454492249E-01  0.88643291166E-01  0.51100000000E-03 0.  1.
</event>
<event>
 8    1  0.2107254E+004  0.1043930E+01  0.7957747E-01            NaN
         13   -1    0    0    0    0  0.00000000000E+00  0.00000000000E+00  0.74505805969E-08  0.10566000000E+00  0.10566000000E+00 0.  1.
     999900   -1    0    0    0    0 -0.00000000000E+00 -0.00000000000E+00 -0.74505805969E-08  0.93827000000E+00  0.93827000000E+00 0. -1.
     999902    2    1    2    0    0  0.80427655238E-02  0.52174170618E-03  0.11506870876E-01  0.10298812859E+01  0.10297854614E+01 0.  0.
     999903    2    3    3    0    0 -0.94215520952E-01 -0.75616345183E-01 -0.51279272931E-01  0.13848021716E+00  0.44190617381E-01 0.  0.
         14    1    1    2    0    0 -0.80427655238E-02 -0.52174170618E-03 -0.11506870876E-01  0.14048714141E-01  0.00000000000E+00 0. -1.
     999901    1    3    3    0    0  0.10225828648E+00  0.76138086889E-01  0.62786143807E-01  0.89140106870E+00  0.88000000000E+00 0. -1.
        -11    1    4    4    0    0 -0.51423200781E-01 -0.64975466521E-01 -0.43881134446E-01  0.93765515566E-01  0.51100000000E-03 0.  1.
         11    1    4    4    0    0 -0.42792320171E-01 -0.10640878662E-01 -0.73981384851E-02  0.44714701591E-01  0.51100000000E-03 0. -1.
</event>
<event>
 8    1  0.2107254E+004  0.1043930E+01  0.7957747E-01            NaN
         13   -1    0    0    0    0  0.00000000000E+00  0.00000000000E+00  0.74505805969E-08  0.10566000000E+00  0.10566000000E+00 0. -1.
     999900   -1    0    0    0    0 -0.00000000000E+00 -0.00000000000E+00 -0.74505805969E-08  0.93827000000E+00  0.93827000000E+00 0.  1.
     999902    2    1    2    0    0  0.17865555127E-02  0.12422350647E-01 -0.96471763605E-02  0.10281004521E+01  0.10279785819E+01 0.  0.
     999903    2    3    3    0    0  0.61713828783E-01 -0.83200186062E-01  0.77012584281E-01  0.13667190096E+00  0.44915506788E-01 0.  0.
         14    1    1    2    0    0 -0.17865555127E-02 -0.12422350647E-01  0.96471763605E-02  0.15829547938E-01  0.00000000000E+00 0.  1.
     999901    1    3    3    0    0 -0.59927273270E-01  0.95622536710E-01 -0.86659760641E-01  0.89142855110E+00  0.88000000000E+00 0.  1.
        -11    1    4    4    0    0  0.18143377760E-01 -0.94169900422E-02  0.36614703483E-01  0.41937566574E-01  0.51100000000E-03 0.  1.
         11    1    4    4    0    0  0.43570451023E-01 -0.73783196020E-01  0.40397880798E-01  0.94734334384E-01  0.51100000000E-03 0. -1.
</event>
<event>
 7    1  0.2107254E+004  0.1043930E+01  0.7957747E-01            NaN
         13   -1    0    0    0    0  0.00000000000E+00  0.00000000000E+00  0.74505805969E-08  0.10566000000E+00  0.10566000000E+00 0. -1.
     999900   -1    0    0    0    0 -0.00000000000E+00 -0.00000000000E+00 -0.74505805969E-08  0.93827000000E+00  0.93827000000E+00 0.  1.
     999902    2    1    2    0    0  0.30930732305E-02  0.10864366065E-01 -0.83358723642E-02  0.10298911852E+01  0.10297954967E+01 0.  0.
         14    1    1    2    0    0 -0.30930732305E-02 -0.10864366065E-01  0.83358723642E-02  0.14038814768E-01  0.00000000000E+00 0. -1.
     999901    1    3    3    0    0  0.31590380590E-01  0.10049147946E+00  0.89934955715E-01  0.89083375882E+00  0.88000000000E+00 0. -1.
        -11    1    3    3    0    0 -0.11360409228E-01 -0.40702521720E-01 -0.64754340796E-01  0.77324898610E-01  0.51100000000E-03 0.  1.
         11    1    3    3    0    0 -0.17136898131E-01 -0.48924591676E-01 -0.33516487284E-01  0.61732527804E-01  0.51100000000E-03 0. -1.
</event>
<event>
 8    1  0.2107254E+004  0.1043930E+01  0.7957747E-01            NaN
         13   -1    0    0    0    0  0.00000000000E+00  0.00000000000E+00  0.74505805969E-08  0.10566000000E+00  0.10566000000E+00 0.  1.
     999900   -1    0    0    0    0 -0.00000000000E+00 -0.00000000000E+00 -0.74505805969E-08  0.93827000000E+00  0.93827000000E+00 0. -1.
     999902    2    1    2    0    0 -0.51670828794E-02 -0.10641384990E-01 -0.89179900892E-02  0.10291155352E+01  0.10290089001E+01 0.  0.
     999903    2    3    3    0    0  0.96302714078E-01  0.85650174044E-01  0.14883375216E-01  0.13774878183E+00  0.46293055460E-01 0.  0.
         14    1    1    2    0    0  0.51670828794E-02  0.10641384990E-01  0.89179900892E-02  0.14814464797E-01  0.00000000000E+00 0.  1.
     999901    1    3    3    0    0 -0.10146979696E+00 -0.96291559035E-01 -0.23801365305E-01  0.89136675338E+00  0.88000000000E+00 0.  1.
        -11    1    4    4    0    0  0.60068701482E-01  0.80341405778E-01  0.10557665699E-01  0.10086979630E+00  0.51100000000E-03 0.  1.
         11    1    4    4    0    0  0.36234012597E-01  0.53087682661E-02  0.43257095169E-02  0.36878985523E-01  0.51100000000E-03 0. -1.
</event>
<event>
 8    1  0.2107254E+004  0.1043930E+01  0.7957747E-01            NaN
         13   -1    0    0    0    0  0.00000000000E+00  0.00000000000E+00  0.74505805969E-08  0.10566000000E+00  0.10566000000E+00 0. -1.
     999900   -1    0    0    0    0 -0.00000000000E+00 -0.00000000000E+00 -0.74505805969E-08  0.93827000000E+00  0.93827000000E+00 0. -1.
     999902    2    1    2    0    0  0.13352843549E-01  0.31733405519E-02  0.13036817212E-02  0.10301434810E+01  0.10300512236E+01 0.  0.
     999903    2    3    3    0    0  0.86416529057E-01  0.45158077717E-01  0.92654268325E-01  0.14141070337E+00  0.43647509800E-01 0.  0.
         14    1    1    2    0    0 -0.13352843549E-01 -0.31733405519E-02 -0.13036817212E-02  0.13786519036E-01  0.00000000000E+00 0. -1.
     999901    1    3    3    0    0 -0.73063685508E-01 -0.41984737165E-01 -0.91350586604E-01  0.88873277759E+00  0.88000000000E+00 0. -1.
        -11    1    4    4    0    0  0.17996355527E-02 -0.24327048536E-02  0.19787379486E-01  0.20023941894E-01  0.51100000000E-03 0.  1.
         11    1    4    4    0    0  0.84616893504E-01  0.47590782570E-01  0.72866888839E-01  0.12138676148E+00  0.51100000000E-03 0. -1.
</event>
<event>
 8    1  0.2107254E+004  0.1043930E+01  0.7957747E-01            NaN
         13   -1    0    0    0    0  0.00000000000E+00  0.00000000000E+00  0.74505805969E-08  0.10566000000E+00  0.10566000000E+00 0.  1.
     999900   -1    0    0    0    0 -0.00000000000E+00 -0.00000000000E+00 -0.74505805969E-08  0.93827000000E+00  0.93827000000E+00 0. -1.
     999902    2    1    2    0    0 -0.52744559643E-02  0.33998512677E-02 -0.11722311758E-01  0.10306337048E+01  0.10305479329E+01 0.  0.
     999903    2    3    3    0    0 -0.54252332197E-01  0.12321436849E+00  0.13438811351E-01  0.14080932151E+00  0.39007271408E-01 0.  0.
         14    1    1    2    0    0  0.52744559643E-02 -0.33998512677E-02  0.11722311758E-01  0.13296295248E-01  0.00000000000E+00 0. -1.
     999901    1    3    3    0    0  0.48977876232E-01 -0.11981451722E+00 -0.25161123109E-01  0.88982438324E+00  0.88000000000E+00 0.  1.
        -11    1    4    4    0    0 -0.23205265647E-01  0.77569229773E-01  0.24321019651E-01  0.84541367857E-01  0.51100000000E-03 0.  1.
         11    1    4    4    0    0 -0.31047066550E-01  0.45645138715E-01 -0.10882208301E-01  0.56267953652E-01  0.51100000000E-03 0. -1.
</event>
<event>
 8    1  0.2107254E+004  0.1043930E+01  0.7957747E-01            NaN
         13   -1    0    0    0    0  0.00000000000E+00  0.00000000000E+00  0.74505805969E-08  0.10566000000E+00  0.10566000000E+00 0.  1.
     999900   -1    0    0    0    0 -0.00000000000E+00 -0.00000000000E+00 -0.74505805969E-08  0.93827000000E+00  0.93827000000E+00 0.  1.
     999902    2    1    2    0    0 -0.86787937920E-02 -0.41079773539E-02 -0.50898978911E-02  0.10330624336E+01  0.10330052699E+01 0.  0.
     999903    2    3    3    0    0  0.64601802497E-01  0.25093829909E-01 -0.11609151298E+00  0.14258831834E+00  0.45289026886E-01 0.  0.
         14    1    1    2    0    0  0.86787937920E-02  0.41079773539E-02  0.50898978911E-02  0.10867566433E-01  0.00000000000E+00 0.  1.
     999901    1    3    3    0    0 -0.73280596289E-01 -0.29201807263E-01  0.11100161509E+00  0.89047411523E+00  0.88000000000E+00 0.  1.
        -11    1    4    4    0    0  0.22944449112E-01  0.28512197189E-01 -0.31735880607E-01  0.48443992120E-01  0.51100000000E-03 0. -1.
         11    1    4    4    0    0  0.41657353385E-01 -0.34183672800E-02 -0.84355632369E-01  0.94144326219E-01  0.51100000000E-03 0.  1.
</event>
<event>
 8    1  0.2107254E+004  0.1043930E+01  0.7957747E-01            NaN
         13   -1    0    0    0    0  0.00000000000E+00  0.00000000000E+00  0.74505805969E-08  0.10566000000E+00  0.10566000000E+00 0. -1.
     999900   -1    0    0    0    0 -0.00000000000E+00 -0.00000000000E+00 -0.74505805969E-08  0.93827000000E+00  0.93827000000E+00 0.  1.
     999902    2    1    2    0    0  0.37332287512E-02 -0.35519318053E-02 -0.12774732645E-01  0.10301551312E+01  0.10300630307E+01 0.  0.
     999903    2    3    3    0    0  0.13667268544E-01  0.32836944865E-01  0.12574120302E+00  0.13852207891E+00  0.45961473337E-01 0.  0.
         14    1    1    2    0    0 -0.37332287512E-02  0.35519318053E-02  0.12774732645E-01  0.13774868806E-01  0.00000000000E+00 0. -1.
     999901    1    3    3    0    0 -0.99340397927E-02 -0.36388876670E-01 -0.13851593566E+00  0.89163305228E+00  0.88000000000E+00 0.  1.
        -11    1    4    4    0    0 -0.15629640788E-01  0.20050150212E-01  0.66673220422E-01  0.71357365682E-01  0.51100000000E-03 0.  1.
         11    1    4    4    0    0  0.29296909331E-01  0.12786794653E-01  0.59067982598E-01  0.67164713229E-01  0.51100000000E-03 0. -1.
</event>
<event>
 8    1  0.2107254E+004  0.1043930E+01  0.7957747E-01            NaN
         13   -1    0    0    0    0  0.00000000000E+00  0.00000000000E+00  0.74505805969E-08  0.10566000000E+00  0.10566000000E+00 0. -1.
     999900   -1    0    0    0    0 -0.00000000000E+00 -0.00000000000E+00 -0.74505805969E-08  0.93827000000E+00  0.93827000000E+00 0.  1.
     999902    2    1    2    0    0 -0.11093422039E-01 -0.68048543343E-02  0.50879667239E-02  0.10299565444E+01  0.10298617509E+01 0.  0.
     999903    2    3    3    0    0  0.52359976965E-01 -0.12022569401E+00 -0.20810013234E-01  0.14003445454E+00  0.44506259337E-01 0.  0.
         14    1    1    2    0    0  0.11093422039E-01  0.68048543343E-02 -0.50879667239E-02  0.13973455565E-01  0.00000000000E+00 0. -1.
     999901    1    3    3    0    0 -0.63453399004E-01  0.11342083967E+00  0.25897979958E-01  0.88992208990E+00  0.88000000000E+00 0. -1.
        -11    1    4    4    0    0  0.74450372423E-02 -0.72710851175E-01 -0.11274793598E-01  0.73957275165E-01  0.51100000000E-03 0. -1.
         11    1    4    4    0    0  0.44914939722E-01 -0.47514842832E-01 -0.95352196357E-02  0.66077179374E-01  0.51100000000E-03 0.  1.
</event>
<event>
 8    1  0.2107254E+004  0.1043930E+01  0.7957747E-01            NaN
         13   -1    0    0    0    0  0.00000000000E+00  0.00000000000E+00  0.74505805969E-08  0.10566000000E+00  0.10566000000E+00 0. -1.
     999900   -1    0    0    0    0 -0.00000000000E+00 -0.00000000000E+00 -0.74505805969E-08  0.93827000000E+00  0.93827000000E+00 0.  1.
     999902    2    1    2    0    0  0.85271822633E-02  0.78957689955E-02  0.77294134171E-02  0.10299729288E+01  0.10298783589E+01 0.  0.
     999903    2    3    3    0    0  0.34115404572E-01 -0.11194442821E+00 -0.59726623293E-01  0.13892481174E+00  0.45137766345E-01 0.  0.
         14    1    1    2    0    0 -0.85271822633E-02 -0.78957689955E-02 -0.77294134171E-02  0.13957071224E-01  0.00000000000E+00 0.  1.
     999901    1    3    3    0    0 -0.25588222309E-01  0.11984019720E+00  0.67456036711E-01  0.89104811704E+00  0.88000000000E+00 0. -1.
        -11    1    4    4    0    0 -0.14362431139E-02 -0.43925102707E-01 -0.41151583106E-02  0.44143777490E-01  0.51100000000E-03 0. -1.
         11    1    4    4    0    0  0.35551647686E-01 -0.68019325501E-01 -0.55611464983E-01  0.94781034249E-01  0.51100000000E-03 0.  1.
</event>
<event>
 8    1  0.2107254E+004  0.1043930E+01  0.7957747E-01            NaN
         13   -1    0    0    0    0  0.00000000000E+00  0.00000000000E+00  0.74505805969E-08  0.10566000000E+00  0.10566000000E+00 0.  1.
     999900   -1    0    0    0    0 -0.00000000000E+00 -0.00000000000E+00 -0.74505805969E-08  0.93827000000E+00  0.93827000000E+00 0. -1.
     999902    2    1    2    0    0 -0.54450861030E-02 -0.67515910934E-02  0.50930078945E-02  0.10338715869E+01  0.10338226572E+01 0.  0.
     999903    2    3    3    0    0 -0.29754294128E-01 -0.90457198372E-01  0.98741355738E-01  0.14462045288E+00  0.45797350367E-01 0.  0.
         14    1    1    2    0    0  0.54450861030E-02  0.67515910934E-02 -0.50930078945E-02  0.10058413114E-01  0.00000000000E+00 0. -1.
     999901    1    3    3    0    0  0.24309208025E-01  0.83705607278E-01 -0.93648347843E-01  0.88925113401E+00  0.88000000000E+00 0.  1.
        -11    1    4    4    0    0 -0.26672960640E-01 -0.26899308963E-01  0.18359770636E-01  0.42099429341E-01  0.51100000000E-03 0.  1.
         11    1    4    4    0    0 -0.30813334883E-02 -0.63557889408E-01  0.80381585102E-01  0.10252102354E+00  0.51100000000E-03 0. -1.
</event>
<event>
 8    1  0.2107254E+004  0.1043930E+01  0.7957747E-01            NaN
         13   -1    0    0    0    0  0.00000000000E+00  0.00000000000E+00  0.74505805969E-08  0.10566000000E+00  0.10566000000E+00 0.  1.
     999900   -1    0    0    0    0 -0.00000000000E+00 -0.00000000000E+00 -0.74505805969E-08  0.93827000000E+00  0.93827000000E+00 0. -1.
     999902    2    1    2    0    0 -0.12237239836E-01  0.25114436865E-02 -0.58990244432E-02  0.10301149402E+01  0.10300222979E+01 0.  0.
     999903    2    3    3    0    0 -0.25776696602E-01 -0.15363798295E-01 -0.13020099463E+00  0.14109648090E+00  0.45336889341E-01 0.  0.
         14    1    1    2    0    0  0.12237239836E-01 -0.25114436865E-02  0.58990244432E-02  0.13815059811E-01  0.00000000000E+00 0.  1.
     999901    1    3    3    0    0  0.13539456766E-01  0.17875241981E-01  0.12430197018E+00  0.88901845929E+00  0.88000000000E+00 0.  1.
        -11    1    4    4    0    0 -0.25722875733E-01 -0.29641784254E-01 -0.10545044842E+00  0.11251826475E+00  0.51100000000E-03 0.  1.
         11    1    4    4    0    0 -0.53820869125E-04  0.14277985959E-01 -0.24750546205E-01  0.28578216148E-01  0.51100000000E-03 0. -1.
</event>
<event>
 8    1  0.2107254E+004  0.1043930E+01  0.7957747E-01            NaN
         13   -1    0    0    0    0  0.00000000000E+00  0.00000000000E+00  0.74505805969E-08  0.10566000000E+00  0.10566000000E+00 0.  1.
     999900   -1    0    0    0    0 -0.00000000000E+00 -0.00000000000E+00 -0.74505805969E-08  0.93827000000E+00  0.93827000000E+00 0. -1.
     999902    2    1    2    0    0  0.42386747617E-02 -0.11307242988E-01  0.69487631708E-02  0.10299978280E+01  0.10299035975E+01 0.  0.
     999903    2    3    3    0    0 -0.39110318374E-01  0.47427626467E-01  0.11767958926E+00  0.14005949531E+00  0.44600221329E-01 0.  0.
         14    1    1    2    0    0 -0.42386747617E-02  0.11307242988E-01 -0.69487631708E-02  0.13932172025E-01  0.00000000000E+00 0. -1.
     999901    1    3    3    0    0  0.43348993135E-01 -0.58734869454E-01 -0.11073082609E+00  0.88993833266E+00  0.88000000000E+00 0. -1.
        -11    1    4    4    0    0 -0.90802084898E-02  0.94912605738E-02  0.73083923854E-01  0.74256684954E-01  0.51100000000E-03 0.  1.
         11    1    4    4    0    0 -0.30030109884E-01  0.37936365893E-01  0.44595665409E-01  0.65802810358E-01  0.51100000000E-03 0. -1.
</event>
<event>
 8    1  0.2107254E+004  0.1043930E+01  0.7957747E-01            NaN
         13   -1    0    0    0    0  0.00000000000E+00  0.00000000000E+00  0.74505805969E-08  0.10566000000E+00  0.10566000000E+00 0. -1.
     999900   -1    0    0    0    0 -0.00000000000E+00 -0.00000000000E+00 -0.74505805969E-08  0.93827000000E+00  0.93827000000E+00 0.  1.
     999902    2    1    2    0    0  0.12120422297E-01 -0.42616066076E-02 -0.52439177237E-02  0.10300532352E+01  0.10299597579E+01 0.  0.
     999903    2    3    3    0    0 -0.69414642476E-01  0.53964951277E-01 -0.98468676527E-01  0.13947524623E+00  0.45018390654E-01 0.  0.
         14    1    1    2    0    0 -0.12120422297E-01  0.42616066076E-02  0.52439177237E-02  0.13876764775E-01  0.00000000000E+00 0. -1.
     999901    1    3    3    0    0  0.81535064773E-01 -0.58226557885E-01  0.93224758804E-01  0.89057798900E+00  0.88000000000E+00 0. -1.
        -11    1    4    4    0    0 -0.56606928989E-01  0.60141085352E-01 -0.72661358462E-01  0.11000558482E+00  0.51100000000E-03 0.  1.
         11    1    4    4    0    0 -0.12807713486E-01 -0.61761340743E-02 -0.25807318065E-01  0.29469661409E-01  0.51100000000E-03 0. -1.
</event>
<event>
 8    1  0.2107254E+004  0.1043930E+01  0.7957747E-01            NaN
         13   -1    0    0    0    0  0.00000000000E+00  0.00000000000E+00  0.74505805969E-08  0.10566000000E+00  0.10566000000E+00 0. -1.
     999900   -1    0    0    0    0 -0.00000000000E+00 -0.00000000000E+00 -0.74505805969E-08  0.93827000000E+00  0.93827000000E+00 0. -1.
     999902    2    1    2    0    0  0.14345879586E-01 -0.79079878596E-02  0.29923746134E-02  0.10272778278E+01  0.10271428531E+01 0.  0.
     999903    2    3    3    0    0  0.56172086849E-01  0.10887855243E+00  0.45859516998E-01  0.13754409263E+00  0.42490464795E-01 0.  0.
         14    1    1    2    0    0 -0.14345879586E-01  0.79079878596E-02 -0.29923746134E-02  0.16652172198E-01  0.00000000000E+00 0.  1.
     999901    1    3    3    0    0 -0.41826207263E-01 -0.11678654029E+00 -0.42867142385E-01  0.88973373517E+00  0.88000000000E+00 0.  1.
        -11    1    4    4    0    0  0.24022280062E-01  0.16345864270E-01 -0.72926060579E-03  0.29069746475E-01  0.51100000000E-03 0. -1.
         11    1    4    4    0    0  0.32149806787E-01  0.92532688157E-01  0.46588777604E-01  0.10847434616E+00  0.51100000000E-03 0.  1.
</event>
<event>
 8    1  0.2107254E+004  0.1043930E+01  0.7957747E-01            NaN
         13   -1    0    0    0    0  0.00000000000E+00  0.00000000000E+00  0.74505805969E-08  0.10566000000E+00  0.10566000000E+00 0. -1.
     999900   -1    0    0    0    0 -0.00000000000E+00 -0.00000000000E+00 -0.74505805969E-08  0.93827000000E+00  0.93827000000E+00 0.  1.
     999902    2    1    2    0    0 -0.72629193488E-02 -0.58186189353E-02 -0.10282984872E-01  0.10300611103E+01  0.10299677397E+01 0.  0.
     999903    2    3    3    0    0  0.12550426785E+00  0.29379797173E-01  0.24573889359E-01  0.13872444204E+00  0.45012232220E-01 0.  0.
         14    1    1    2    0    0  0.72629193488E-02  0.58186189353E-02  0.10282984872E-01  0.13868889705E-01  0.00000000000E+00 0. -1.
     999901    1    3    3    0    0 -0.13276718720E+00 -0.35198416108E-01 -0.34856874231E-01  0.89133666825E+00  0.88000000000E+00 0.  1.
        -11    1    4    4    0    0  0.44905296548E-01  0.33186413186E-01  0.99031057154E-02  0.56711165585E-01  0.51100000000E-03 0.  1.
         11    1    4    4    0    0  0.80598971307E-01 -0.38066160129E-02  0.14670783644E-01  0.82013276455E-01  0.51100000000E-03 0. -1.
</event>
<event>
 8    1  0.2107254E+004  0.1043930E+01  0.7957747E-01            NaN
         13   -1    0    0    0    0  0.00000000000E+00  0.00000000000E+00  0.74505805969E-08  0.10566000000E+00  0.10566000000E+00 0. -1.
     999900   -1    0    0    0    0 -0.00000000000E+00 -0.00000000000E+00 -0.74505805969E-08  0.93827000000E+00  0.93827000000E+00 0.  1.
     999902    2    1    2    0    0 -0.64010613486E-02  0.10603859978E-01 -0.60439202148E-02  0.10301479681E+01  0.10300557712E+01 0.  0.
     999903    2    3    3    0    0  0.84359416087E-01 -0.66236226119E-01  0.74569403233E-01  0.13849760440E+00  0.46013495776E-01 0.  0.
         14    1    1    2    0    0  0.64010613486E-02 -0.10603859978E-01  0.60439202148E-02  0.13782031939E-01  0.00000000000E+00 0. -1.
     999901    1    3    3    0    0 -0.90760477435E-01  0.76840086097E-01 -0.80613323448E-01  0.89165036366E+00  0.88000000000E+00 0.  1.
        -11    1    4    4    0    0  0.58579457710E-01 -0.51674032713E-01  0.75816490751E-01  0.10885843979E+00  0.51100000000E-03 0. -1.
         11    1    4    4    0    0  0.25779958376E-01 -0.14562193406E-01 -0.12470875177E-02  0.29639164613E-01  0.51100000000E-03 0.  1.
</event>
<event>
 8    1  0.2107254E+004  0.1043930E+01  0.7957747E-01            NaN
         13   -1    0    0    0    0  0.00000000000E+00  0.00000000000E+00  0.74505805969E-08  0.10566000000E+00  0.10566000000E+00 0. -1.
     999900   -1    0    0    0    0 -0.00000000000E+00 -0.00000000000E+00 -0.74505805969E-08  0.93827000000E+00  0.93827000000E+00 0. -1.
     999902    2    1    2    0    0  0.34764795191E-02 -0.44881588048E-03  0.13217598662E-01  0.10302554887E+01  0.10301647342E+01 0.  0.
     999903    2    3    3    0    0 -0.26479652078E-01 -0.17662500694E-01  0.13064849598E+00  0.14178281245E+00  0.44946640568E-01 0.  0.
         14    1    1    2    0    0 -0.34764795191E-02  0.44881588048E-03 -0.13217598662E-01  0.13674511323E-01  0.00000000000E+00 0.  1.
     999901    1    3    3    0    0  0.29956131597E-01  0.17213684813E-01 -0.11743089732E+00  0.88847267623E+00  0.88000000000E+00 0. -1.
        -11    1    4    4    0    0 -0.12041494617E-01  0.13290579775E-01  0.25161572328E-01  0.30903121952E-01  0.51100000000E-03 0. -1.
         11    1    4    4    0    0 -0.14438157460E-01 -0.30953080469E-01  0.10548692365E+00  0.11087969049E+00  0.51100000000E-03 0.  1.
</event>
<event>
 8    1  0.2107254E+004  0.1043930E+01  0.7957747E-01            NaN
         13   -1    0    0    0    0  0.00000000000E+00  0.00000000000E+00  0.74505805969E-08  0.10566000000E+00  0.10566000000E+00 0. -1.
     999900   -1    0    0    0    0 -0.00000000000E+00 -0.00000000000E+00 -0.74505805969E-08  0.93827000000E+00  0.93827000000E+00 0. -1.
     999902    2    1    2    0    0 -0.13643410442E-01 -0.52833548917E-03 -0.20493730175E-02  0.10301234176E+01  0.10300308898E+01 0.  0.
     999903    2    3    3    0    0 -0.97863657757E-01 -0.40955870602E-01  0.82421298622E-01  0.14115619100E+00  0.43325753840E-01 0.  0.
         14    1    1    2    0    0  0.13643410442E-01  0.52833548917E-03  0.20493730175E-02  0.13806582367E-01  0.00000000000E+00 0. -1.
     999901    1    3    3    0    0  0.84220247315E-01  0.40427535113E-01 -0.84470671639E-01  0.88896722663E+00  0.88000000000E+00 0.  1.
        -11    1    4    4    0    0 -0.93089330455E-01 -0.38808533450E-01  0.87737122279E-01  0.13367793184E+00  0.51100000000E-03 0.  1.
         11    1    4    4    0    0 -0.47743273025E-02 -0.21473371520E-02 -0.53158236570E-02  0.74782591683E-02  0.51100000000E-03 0. -1.
</event>
<event>
 8    1  0.3090959E+004  0.1043930E+01  0.7957747E-01            NaN
         13   -1    0    0    0    0  0.00000000000E+00  0.00000000000E+00  0.74505805969E-08  0.10566000000E+00  0.10566000000E+00 0.  1.
     999900   -1    0    0    0    0 -0.00000000000E+00 -0.00000000000E+00 -0.74505805969E-08  0.93827000000E+00  0.93827000000E+00 0.  1.
     999902    2    1    2    0    0  0.19096413636E-03  0.23216356738E-02 -0.13174369317E-01  0.10305512681E+01  0.10304644224E+01 0.  0.
     999903    2    3    3    0    0 -0.61356788318E-01  0.51068509544E-01  0.10452776770E+00  0.13924987320E+00  0.45736471526E-01 0.  0.
         14    1    1    2    0    0 -0.19096413636E-03 -0.23216356738E-02  0.13174369317E-01  0.13378731868E-01  0.00000000000E+00 0.  1.
     999901    1    3    3    0    0  0.61547752454E-01 -0.48746873870E-01 -0.11770213701E+00  0.89130139493E+00  0.88000000000E+00 0.  1.
        -11    1    4    4    0    0 -0.78235337897E-02  0.12675253346E-01  0.54574836702E-01  0.56573347527E-01  0.51100000000E-03 0.  1.
         11    1    4    4    0    0 -0.53533254528E-01  0.38393256198E-01  0.49952930995E-01  0.82676525676E-01  0.51100000000E-03 0. -1.
</event>
<event>
 8    1  0.2107254E+004  0.1043930E+01  0.7957747E-01            NaN
         13   -1    0    0    0    0  0.00000000000E+00  0.00000000000E+00  0.74505805969E-08  0.10566000000E+00  0.10566000000E+00 0.  1.
     999900   -1    0    0    0    0 -0.00000000000E+00 -0.00000000000E+00 -0.74505805969E-08  0.93827000000E+00  0.93827000000E+00 0.  1.
     999902    2    1    2    0    0  0.58419852936E-02  0.11958043789E-01 -0.42017414901E-02  0.10299737027E+01  0.10298791434E+01 0.  0.
     999903    2    3    3    0    0  0.54428472082E-01  0.52469822139E-01 -0.10818988474E+00  0.14159575111E+00  0.51271481004E-01 0.  0.
         14    1    1    2    0    0 -0.58419852936E-02 -0.11958043789E-01  0.42017414901E-02  0.13956297323E-01  0.00000000000E+00 0.  1.
     999901    1    3    3    0    0 -0.48586486788E-01 -0.40511778350E-01  0.10398814325E+00  0.88837795156E+00  0.88000000000E+00 0. -1.
        -11    1    4    4    0    0  0.16949328844E-01  0.25300689284E-01 -0.84063893647E-02  0.31596410075E-01  0.51100000000E-03 0. -1.
         11    1    4    4    0    0  0.37479143238E-01  0.27169132855E-01 -0.99783495379E-01  0.10999934104E+00  0.51100000000E-03 0.  1.
</event>
<event>
 8    1  0.2107254E+004  0.1043930E+01  0.7957747E-01            NaN
         13   -1    0    0    0    0  0.00000000000E+00  0.00000000000E+00  0.74505805969E-08  0.10566000000E+00  0.10566000000E+00 0. -1.
     999900   -1    0    0    0    0 -0.00000000000E+00 -0.00000000000E+00 -0.74505805969E-08  0.93827000000E+00  0.93827000000E+00 0. -1.
     999902    2    1    2    0    0 -0.29049470706E-02  0.13192545726E-01 -0.15030677001E-02  0.10303380468E+01  0.10302483921E+01 0.  0.
     999903    2    3    3    0    0  0.10437452694E+00  0.63749132314E-01  0.53260205659E-01  0.14069549489E+00  0.44727832846E-01 0.  0.
         14    1    1    2    0    0  0.29049470706E-02 -0.13192545726E-01  0.15030677001E-02  0.13591953234E-01  0.00000000000E+00 0.  1.
     999901    1    3    3    0    0 -0.10727947401E+00 -0.50556586589E-01 -0.54763273359E-01  0.88964255187E+00  0.88000000000E+00 0. -1.
        -11    1    4    4    0    0  0.56933475522E-01  0.31487640496E-01  0.52030830558E-01  0.83308826594E-01  0.51100000000E-03 0. -1.
         11    1    4    4    0    0  0.47441051422E-01  0.32261491819E-01  0.12293751006E-02  0.57386668300E-01  0.51100000000E-03 0.  1.
</event>
<event>
 8    1  0.2107254E+004  0.1043930E+01  0.7957747E-01            NaN
         13   -1    0    0    0    0  0.00000000000E+00  0.00000000000E+00  0.74505805969E-08  0.10566000000E+00  0.10566000000E+00 0.  1.
     999900   -1    0    0    0    0 -0.00000000000E+00 -0.00000000000E+00 -0.74505805969E-08  0.93827000000E+00  0.93827000000E+00 0. -1.
     999902    2    1    2    0    0  0.11009991340E-01  0.81531421921E-02 -0.59944932199E-02  0.10289758171E+01  0.10288671462E+01 0.  0.
     999903    2    3    3    0    0  0.71920168582E-01 -0.27341464177E-01 -0.10851922518E+00  0.14022318705E+00  0.44340203450E-01 0.  0.
         14    1    1    2    0    0 -0.11009991340E-01 -0.81531421921E-02  0.59944932199E-02  0.14954182889E-01  0.00000000000E+00 0. -1.
     999901    1    3    3    0    0 -0.60910177242E-01  0.35494606369E-01  0.10252473196E+00  0.88875263006E+00  0.88000000000E+00 0.  1.
        -11    1    4    4    0    0  0.29829704713E-01 -0.57694018148E-02 -0.78565261447E-01  0.84236920099E-01  0.51100000000E-03 0.  1.
         11    1    4    4    0    0  0.42090463869E-01 -0.21572062363E-01 -0.29953963730E-01  0.55986266954E-01  0.51100000000E-03 0. -1.
</event>
<event>
 8    1  0.2107254E+004  0.1043930E+01  0.7957747E-01            NaN
         13   -1    0    0    0    0  0.00000000000E+00  0.00000000000E+00  0.74505805969E-08  0.10566000000E+00  0.10566000000E+00 0.  1.
     999900   -1    0    0    0    0 -0.00000000000E+00 -0.00000000000E+00 -0.74505805969E-08  0.93827000000E+00  0.93827000000E+00 0. -1.
     999902    2    1    2    0    0  0.96710911307E-02  0.77098809532E-02 -0.42862989939E-02  0.10308401327E+01  0.10307570201E+01 0.  0.
     999903    2    3    3    0    0 -0.23308157099E-01  0.13013451615E+00 -0.24016992923E-01  0.14153437961E+00  0.44462368164E-01 0.  0.
         14    1    1    2    0    0 -0.96710911307E-02 -0.77098809532E-02  0.42862989939E-02  0.13089867342E-01  0.00000000000E+00 0.  1.
     999901    1    3    3    0    0  0.32979248230E-01 -0.12242463519E+00  0.19730693929E-01  0.88930575305E+00  0.88000000000E+00 0.  1.
        -11    1    4    4    0    0  0.13136395650E-01  0.39933099738E-01 -0.42110157926E-02  0.42251758784E-01  0.51100000000E-03 0. -1.
         11    1    4    4    0    0 -0.36444552749E-01  0.90201416410E-01 -0.19805977130E-01  0.99282620828E-01  0.51100000000E-03 0.  1.
</event>
<event>
 8    1  0.2107254E+004  0.1043930E+01  0.7957747E-01            NaN
         13   -1    0    0    0    0  0.00000000000E+00  0.00000000000E+00  0.74505805969E-08  0.10566000000E+00  0.10566000000E+00 0.  1.
     999900   -1    0    0    0    0 -0.00000000000E+00 -0.00000000000E+00 -0.74505805969E-08  0.93827000000E+00  0.93827000000E+00 0.  1.
     999902    2    1    2    0    0 -0.78080996557E-02  0.76918026965E-02  0.90989172297E-02  0.10296849818E+01  0.10295864418E+01 0.  0.
     999903    2    3    3    0    0 -0.68764033488E-01 -0.10011920844E+00  0.51844316122E-01  0.13998502725E+00  0.46428725356E-01 0.  0.
         14    1    1    2    0    0  0.78080996557E-02 -0.76918026965E-02 -0.90989172297E-02  0.14245018207E-01  0.00000000000E+00 0. -1.
     999901    1    3    3    0    0  0.60955933832E-01  0.10781101114E+00 -0.42745398892E-01  0.88969995455E+00  0.88000000000E+00 0.  1.
        -11    1    4    4    0    0 -0.16997827757E-01 -0.45069691452E-01  0.41750931849E-01  0.63746409054E-01  0.51100000000E-03 0.  1.
         11    1    4    4    0    0 -0.51766205731E-01 -0.55049516992E-01  0.10093384273E-01  0.76238618193E-01  0.51100000000E-03 0. -1.
</event>
<event>
 8    1  0.2107254E+004  0.1043930E+01  0.7957747E-01            NaN
         13   -1    0    0    0    0  0.00000000000E+00  0.00000000000E+00  0.74505805969E-08  0.10566000000E+00  0.10566000000E+00 0. -1.
     999900   -1    0    0    0    0 -0.00000000000E+00 -0.00000000000E+00 -0.74505805969E-08  0.93827000000E+00  0.93827000000E+00 0.  1.
     999902    2    1    2    0    0 -0.29803322510E-02  0.11078372705E-01  0.71277570730E-02  0.10304237924E+01  0.10303352728E+01 0.  0.
     999903    2    3    3    0    0 -0.38763200322E-01 -0.35517491752E-01  0.12273977926E+00  0.14091958900E+00  0.45046633967E-01 0.  0.
         14    1    1    2    0    0  0.29803322510E-02 -0.11078372705E-01 -0.71277570730E-02  0.13506207573E-01  0.00000000000E+00 0.  1.
     999901    1    3    3    0    0  0.35782868071E-01  0.46595864457E-01 -0.11561202219E+00  0.88950420342E+00  0.88000000000E+00 0.  1.
        -11    1    4    4    0    0  0.27000770462E-02 -0.23817535895E-01  0.61794234610E-01  0.66282380647E-01  0.51100000000E-03 0.  1.
         11    1    4    4    0    0 -0.41463277369E-01 -0.11699955857E-01  0.60945544654E-01  0.74637208357E-01  0.51100000000E-03 0. -1.
</event>
<event>
 8    1  0.2107254E+004  0.1043930E+01  0.7957747E-01            NaN
         13   -1    0    0    0    0  0.00000000000E+00  0.00000000000E+00  0.74505805969E-08  0.10566000000E+00  0.10566000000E+00 0. -1.
     999900   -1    0    0    0    0 -0.00000000000E+00 -0.00000000000E+00 -0.74505805969E-08  0.93827000000E+00  0.93827000000E+00 0. -1.
     999902    2    1    2    0    0 -0.12896690197E-01 -0.44444950864E-02  0.10972220372E-02  0.10302448968E+01  0.10301540007E+01 0.  0.
     999903    2    3    3    0    0 -0.87947643829E-01 -0.12649867267E-01 -0.99128186342E-01  0.14134383012E+00  0.47506565754E-01 0.  0.
         14    1    1    2    0    0  0.12896690197E-01  0.44444950864E-02 -0.10972220372E-02  0.13685103245E-01  0.00000000000E+00 0.  1.
     999901    1    3    3    0    0  0.75050953632E-01  0.82053721809E-02  0.10022540838E+00  0.88890106663E+00  0.88000000000E+00 0. -1.
        -11    1    4    4    0    0 -0.10271473186E-01  0.13244250840E-01 -0.29176163971E-01  0.33651493381E-01  0.51100000000E-03 0.  1.
         11    1    4    4    0    0 -0.77676170643E-01 -0.25894118108E-01 -0.69952022371E-01  0.10769233674E+00  0.51100000000E-03 0. -1.
</event>
<event>
 8    1  0.2107254E+004  0.1043930E+01  0.7957747E-01            NaN
         13   -1    0    0    0    0  0.00000000000E+00  0.00000000000E+00  0.74505805969E-08  0.10566000000E+00  0.10566000000E+00 0. -1.
     999900   -1    0    0    0    0 -0.00000000000E+00 -0.00000000000E+00 -0.74505805969E-08  0.93827000000E+00  0.93827000000E+00 0.  1.
     999902    2    1    2    0    0  0.33265633403E-02 -0.11002449574E-01  0.52949476802E-02  0.10312747090E+01  0.10311970563E+01 0.  0.
     999903    2    3    3    0    0 -0.88874343754E-01  0.83650593716E-01 -0.52447844909E-01  0.13953795635E+00  0.42708242982E-01 0.  0.
         14    1    1    2    0    0 -0.33265633403E-02  0.11002449574E-01 -0.52949476802E-02  0.12655291037E-01  0.00000000000E+00 0.  1.
     999901    1    3    3    0    0  0.92200907095E-01 -0.94653043290E-01  0.57742792590E-01  0.89173675262E+00  0.88000000000E+00 0. -1.
        -11    1    4    4    0    0 -0.42119256468E-01  0.32336090416E-01 -0.45206033066E-01  0.69738805951E-01  0.51100000000E-03 0. -1.
         11    1    4    4    0    0 -0.46755087286E-01  0.51314503300E-01 -0.72418118429E-02  0.69799150395E-01  0.51100000000E-03 0.  1.
</event>
<event>
 7    1  0.2173013E+004  0.1043930E+01  0.7957747E-01            NaN
         13   -1    0    0    0    0  0.00000000000E+00  0.00000000000E+00  0.74505805969E-08  0.10566000000E+00  0.10566000000E+00 0. -1.
     999900   -1    0    0    0    0 -0.00000000000E+00 -0.00000000000E+00 -0.74505805969E-08  0.93827000000E+00  0.93827000000E+00 0. -1.
     999903    2    1    2    0    0  0.49161362883E-02  0.54085409248E-01 -0.93358728063E-01  0.11689005014E+00  0.44699349288E-01 0.  0.
         14    1    1    2    0    0  0.28498133184E-01  0.23525421296E-01  0.13696747709E-01  0.39410530825E-01  0.00000000000E+00 0. -1.
     999901    1    1    2    0    0 -0.33414269473E-01 -0.77610830544E-01  0.79661980354E-01  0.88762941903E+00  0.88000000000E+00 0.  1.
        -11    1    3    3    0    0 -0.15309620303E-01  0.25928635309E-01 -0.21185937963E-01  0.36820968091E-01  0.51100000000E-03 0. -1.
         11    1    3    3    0    0  0.20225756591E-01  0.28156773939E-01 -0.72172790100E-01  0.80069082049E-01  0.51100000000E-03 0.  1.
</event>
<event>
 8    1  0.2107254E+004  0.1043930E+01  0.7957747E-01            NaN
         13   -1    0    0    0    0  0.00000000000E+00  0.00000000000E+00  0.74505805969E-08  0.10566000000E+00  0.10566000000E+00 0.  1.
     999900   -1    0    0    0    0 -0.00000000000E+00 -0.00000000000E+00 -0.74505805969E-08  0.93827000000E+00  0.93827000000E+00 0. -1.
     999902    2    1    2    0    0 -0.11425502335E-01 -0.51099687807E-02 -0.59530484206E-02  0.10300702500E+01  0.10299770033E+01 0.  0.
     999903    2    3    3    0    0  0.46991242989E-01 -0.99876633450E-01  0.72614884942E-01  0.13958377789E+00  0.45024334606E-01 0.  0.
         14    1    1    2    0    0  0.11425502335E-01  0.51099687807E-02  0.59530484206E-02  0.13859749999E-01  0.00000000000E+00 0.  1.
     999901    1    3    3    0    0 -0.58416745324E-01  0.94766664669E-01 -0.78567933363E-01  0.89048647211E+00  0.88000000000E+00 0. -1.
        -11    1    4    4    0    0  0.19288179349E-01 -0.63257887244E-01  0.65562753012E-01  0.93125344910E-01  0.51100000000E-03 0. -1.
         11    1    4    4    0    0  0.27703063640E-01 -0.36618746206E-01  0.70521319299E-02  0.46458432975E-01  0.51100000000E-03 0.  1.
</event>
<event>
 8    1  0.2107254E+004  0.1043930E+01  0.7957747E-01            NaN
         13   -1    0    0    0    0  0.00000000000E+00  0.00000000000E+00  0.74505805969E-08  0.10566000000E+00  0.10566000000E+00 0. -1.
     999900   -1    0    0    0    0 -0.00000000000E+00 -0.00000000000E+00 -0.74505805969E-08  0.93827000000E+00  0.93827000000E+00 0.  1.
     999902    2    1    2    0    0 -0.10189214909E-01  0.79997372975E-02 -0.41605715444E-02  0.10303238891E+01  0.10302340464E+01 0.  0.
     999903    2    3    3    0    0  0.73118726205E-01 -0.17263558501E-01 -0.10854621651E+00  0.13988870899E+00  0.46283811543E-01 0.  0.
         14    1    1    2    0    0  0.10189214909E-01 -0.79997372975E-02  0.41605715444E-02  0.13606110865E-01  0.00000000000E+00 0.  1.
     999901    1    3    3    0    0 -0.83307941114E-01  0.25263295799E-01  0.10438564496E+00  0.89043518015E+00  0.88000000000E+00 0.  1.
        -11    1    4    4    0    0  0.39828711910E-02 -0.17609821160E-01 -0.14493411783E-01  0.23157918092E-01  0.51100000000E-03 0. -1.
         11    1    4    4    0    0  0.69135855014E-01  0.34626265936E-03 -0.94052804723E-01  0.11673079090E+00  0.51100000000E-03 0.  1.
</event>
<event>
 8    1  0.2107254E+004  0.1043930E+01  0.7957747E-01            NaN
         13   -1    0    0    0    0  0.00000000000E+00  0.00000000000E+00  0.74505805969E-08  0.10566000000E+00  0.10566000000E+00 0. -1.
     999900   -1    0    0    0    0 -0.00000000000E+00 -0.00000000000E+00 -0.74505805969E-08  0.93827000000E+00  0.93827000000E+00 0. -1.
     999902    2    1    2    0    0 -0.19752884579E-02  0.13431510431E-01  0.38569782093E-02  0.10298167609E+01  0.10297200481E+01 0.  0.
     999903    2    3    3    0    0 -0.57769189785E-02 -0.26806679022E-01 -0.12626720224E+00  0.13933045184E+00  0.52130582342E-01 0.  0.
         14    1    1    2    0    0  0.19752884579E-02 -0.13431510431E-01 -0.38569782093E-02  0.14113239099E-01  0.00000000000E+00 0.  1.
     999901    1    3    3    0    0  0.38016305206E-02  0.40238189454E-01  0.13012418045E+00  0.89048630906E+00  0.88000000000E+00 0.  1.
        -11    1    4    4    0    0  0.63034937354E-02 -0.37865427415E-01 -0.61301733039E-01  0.72330410072E-01  0.51100000000E-03 0.  1.
         11    1    4    4    0    0 -0.12080412714E-01  0.11058748393E-01 -0.64965469202E-01  0.67000041769E-01  0.51100000000E-03 0. -1.
</event>
<event>
 8    1  0.2107254E+004  0.1043930E+01  0.7957747E-01            NaN
         13   -1    0    0    0    0  0.00000000000E+00  0.00000000000E+00  0.74505805969E-08  0.10566000000E+00  0.10566000000E+00 0. -1.
     999900   -1    0    0    0    0 -0.00000000000E+00 -0.00000000000E+00 -0.74505805969E-08  0.93827000000E+00  0.93827000000E+00 0.  1.
     999902    2    1    2    0    0  0.70689453611E-02 -0.10325815457E-01 -0.61818819887E-02  0.10299726321E+01  0.10298780582E+01 0.  0.
     999903    2    3    3    0    0  0.45071816480E-01 -0.43754993748E-01 -0.11806866687E+00  0.14144554710E+00  0.46050674049E-01 0.  0.
         14    1    1    2    0    0 -0.70689453611E-02  0.10325815457E-01  0.61818819887E-02  0.13957367885E-01  0.00000000000E+00 0. -1.
     999901    1    3    3    0    0 -0.38002871119E-01  0.33429178291E-01  0.11188678488E+00  0.88852708501E+00  0.88000000000E+00 0. -1.
        -11    1    4    4    0    0  0.20651808582E-01 -0.18612428984E-01 -0.13021330870E-01  0.30704004446E-01  0.51100000000E-03 0.  1.
         11    1    4    4    0    0  0.24420007899E-01 -0.25142564763E-01 -0.10504733600E+00  0.11074154265E+00  0.51100000000E-03 0. -1.
</event>
<event>
 8    1  0.2107254E+004  0.1043930E+01  0.7957747E-01            NaN
         13   -1    0    0    0    0  0.00000000000E+00  0.00000000000E+00  0.74505805969E-08  0.10566000000E+00  0.10566000000E+00 0.  1.
     999900   -1    0    0    0    0 -0.00000000000E+00 -0.00000000000E+00 -0.74505805969E-08  0.93827000000E+00  0.93827000000E+00 0.  1.
     999902    2    1    2    0    0 -0.61068321854E-02 -0.95377077481E-02  0.97408589426E-02  0.10289919412E+01  0.10288835062E+01 0.  0.
     999903    2    3    3    0    0  0.88033175746E-01 -0.35878043944E-02 -0.95488884893E-01  0.13771698841E+00  0.45663216998E-01 0.  0.
         14    1    1    2    0    0  0.61068321854E-02  0.95377077481E-02 -0.97408589426E-02  0.14938058822E-01  0.00000000000E+00 0. -1.
     999901    1    3    3    0    0 -0.94140007931E-01 -0.59499033537E-02  0.10522974384E+00  0.89127495277E+00  0.88000000000E+00 0. -1.
        -11    1    4    4    0    0  0.54009965240E-01  0.24526693682E-02 -0.86500344264E-01  0.10200814973E+00  0.51100000000E-03 0. -1.
         11    1    4    4    0    0  0.34023210506E-01 -0.60404737626E-02 -0.89885406288E-02  0.35708838682E-01  0.51100000000E-03 0.  1.
</event>
<event>
 8    1  0.2107254E+004  0.1043930E+01  0.7957747E-01            NaN
         13   -1    0    0    0    0  0.00000000000E+00  0.00000000000E+00  0.74505805969E-08  0.10566000000E+00  0.10566000000E+00 0. -1.
     999900   -1    0    0    0    0 -0.00000000000E+00 -0.00000000000E+00 -0.74505805969E-08  0.93827000000E+00  0.93827000000E+00 0. -1.
     999902    2    1    2    0    0 -0.37629843511E-02  0.13145625428E-01 -0.48216649386E-02  0.10294311734E+01  0.10293290654E+01 0.  0.
     999903    2    3    3    0    0 -0.33596752887E-01  0.10198409502E+00  0.79718955635E-01  0.14042642431E+00  0.42836565192E-01 0.  0.
         14    1    1    2    0    0  0.37629843511E-02 -0.13145625428E-01  0.48216649386E-02  0.14498826570E-01  0.00000000000E+00 0. -1.
     999901    1    3    3    0    0  0.29833768536E-01 -0.88838469588E-01 -0.84540620573E-01  0.88900474912E+00  0.88000000000E+00 0. -1.
        -11    1    4    4    0    0 -0.26526351097E-01  0.10419692314E+00  0.70435644173E-01  0.12853827128E+00  0.51100000000E-03 0. -1.
         11    1    4    4    0    0 -0.70704017900E-02 -0.22128281213E-02  0.92833114614E-02  0.11888153030E-01  0.51100000000E-03 0.  1.
</event>
<event>
 8    1  0.2107254E+004  0.1043930E+01  0.7957747E-01            NaN
         13   -1    0    0    0    0  0.00000000000E+00  0.00000000000E+00  0.74505805969E-08  0.10566000000E+00  0.10566000000E+00 0. -1.
     999900   -1    0    0    0    0 -0.00000000000E+00 -0.00000000000E+00 -0.74505805969E-08  0.93827000000E+00  0.93827000000E+00 0. -1.
     999902    2    1    2    0    0 -0.12544132177E-01 -0.81707077493E-02  0.20348261637E-02  0.10288218487E+01  0.10287109119E+01 0.  0.
     999903    2    3    3    0    0 -0.11899258507E+00  0.57710616286E-01  0.14236586241E-01  0.13987837194E+00  0.43284269827E-01 0.  0.
         14    1    1    2    0    0  0.12544132177E-01  0.81707077493E-02 -0.20348261637E-02  0.15108151267E-01  0.00000000000E+00 0. -1.
     999901    1    3    3    0    0  0.10644845290E+00 -0.65881324036E-01 -0.12201760077E-01  0.88894347679E+00  0.88000000000E+00 0. -1.
        -11    1    4    4    0    0 -0.45743320492E-01  0.28560294862E-01  0.26505709301E-01  0.60091226970E-01  0.51100000000E-03 0.  1.
         11    1    4    4    0    0 -0.73249264582E-01  0.29150321424E-01 -0.12269123060E-01  0.79787144971E-01  0.51100000000E-03 0. -1.
</event>
<event>
 8    1  0.2107254E+004  0.1043930E+01  0.7957747E-01            NaN
         13   -1    0    0    0    0  0.00000000000E+00  0.00000000000E+00  0.74505805969E-08  0.10566000000E+00  0.10566000000E+00 0. -1.
     999900   -1    0    0    0    0 -0.00000000000E+00 -0.00000000000E+00 -0.74505805969E-08  0.93827000000E+00  0.93827000000E+00 0. -1.
     999902    2    1    2    0    0  0.96438758711E-02 -0.15210214043E-02 -0.15058656268E-01  0.10259833854E+01  0.10258264113E+01 0.  0.
     999903    2    3    3    0    0  0.12599159428E+00 -0.33093723785E-01  0.49181365048E-02  0.13753940888E+00  0.43861424346E-01 0.  0.
         14    1    1    2    0    0 -0.96438758711E-02  0.15210214043E-02  0.15058656268E-01  0.17946614626E-01  0.00000000000E+00 0. -1.
     999901    1    3    3    0    0 -0.11634771841E+00  0.31572702381E-01 -0.19976792773E-01  0.88844397649E+00  0.88000000000E+00 0. -1.
        -11    1    4    4    0    0  0.46184697775E-01  0.27514619913E-02 -0.13364408642E-01  0.48160828387E-01  0.51100000000E-03 0.  1.
         11    1    4    4    0    0  0.79806896506E-01 -0.35845185776E-01  0.18282545146E-01  0.89378580495E-01  0.51100000000E-03 0. -1.
</event>
<event>
 8    1  0.2107254E+004  0.1043930E+01  0.7957747E-01            NaN
         13   -1    0    0    0    0  0.00000000000E+00  0.00000000000E+00  0.74505805969E-08  0.10566000000E+00  0.10566000000E+00 0.  1.
     999900   -1    0    0    0    0 -0.00000000000E+00 -0.00000000000E+00 -0.74505805969E-08  0.93827000000E+00  0.93827000000E+00 0.  1.
     999902    2    1    2    0    0  0.12025779486E-01  0.77502054833E-02 -0.17538589905E-02  0.10295160804E+01  0.10294151731E+01 0.  0.
     999903    2    3    3    0    0 -0.55300518342E-01  0.31633072447E-01  0.11491901592E+00  0.13894559948E+00  0.45174116424E-01 0.  0.
         14    1    1    2    0    0 -0.12025779486E-01 -0.77502054833E-02  0.17538589905E-02  0.14413919614E-01  0.00000000000E+00 0.  1.
     999901    1    3    3    0    0  0.67326297828E-01 -0.23882866964E-01 -0.11667287491E+00  0.89057048090E+00  0.88000000000E+00 0.  1.
        -11    1    4    4    0    0 -0.27995506237E-01  0.17336693870E-01  0.98832688944E-01  0.10417519306E+00  0.51100000000E-03 0. -1.
         11    1    4    4    0    0 -0.27305012105E-01  0.14296378577E-01  0.16086326977E-01  0.34770406427E-01  0.51100000000E-03 0.  1.
</event>
<event>
 8    1  0.2107254E+004  0.1043930E+01  0.7957747E-01            NaN
         13   -1    0    0    0    0  0.00000000000E+00  0.00000000000E+00  0.74505805969E-08  0.10566000000E+00  0.10566000000E+00 0. -1.
     999900   -1    0    0    0    0 -0.00000000000E+00 -0.00000000000E+00 -0.74505805969E-08  0.93827000000E+00  0.93827000000E+00 0. -1.
     999902    2    1    2    0    0  0.12260517337E-01 -0.25493107580E-02  0.70350376228E-02  0.10295664689E+01  0.10294662709E+01 0.  0.
     999903    2    3    3    0    0 -0.79747366812E-01 -0.96356193785E-01  0.41850407882E-01  0.13912989507E+00  0.44288965525E-01 0.  0.
         14    1    1    2    0    0 -0.12260517337E-01  0.25493107580E-02 -0.70350376228E-02  0.14363531079E-01  0.00000000000E+00 0. -1.
     999901    1    3    3    0    0  0.92007884150E-01  0.93806883027E-01 -0.34815370259E-01  0.89043657385E+00  0.88000000000E+00 0. -1.
        -11    1    4    4    0    0 -0.43445398191E-01 -0.51204801191E-01  0.45437074812E-01  0.81081583467E-01  0.51100000000E-03 0.  1.
         11    1    4    4    0    0 -0.36301968621E-01 -0.45151392594E-01 -0.35866669306E-02  0.58048311600E-01  0.51100000000E-03 0. -1.
</event>
<event>
 8    1  0.2107254E+004  0.1043930E+01  0.7957747E-01            NaN
         13   -1    0    0    0    0  0.00000000000E+00  0.00000000000E+00  0.74505805969E-08  0.10566000000E+00  0.10566000000E+00 0.  1.
     999900   -1    0    0    0    0 -0.00000000000E+00 -0.00000000000E+00 -0.74505805969E-08  0.93827000000E+00  0.93827000000E+00 0.  1.
     999902    2    1    2    0    0 -0.99281096321E-02  0.73350442548E-02 -0.62182376055E-02  0.10301083968E+01  0.10300156662E+01 0.  0.
     999903    2    3    3    0    0 -0.13343075152E+00  0.33384233388E-02  0.13197588548E-01  0.14126316293E+00  0.44341789946E-01 0.  0.
         14    1    1    2    0    0  0.99281096321E-02 -0.73350442548E-02  0.62182376055E-02  0.13821603163E-01  0.00000000000E+00 0.  1.
     999901    1    3    3    0    0  0.12350264189E+00  0.39966209160E-02 -0.19415826154E-01  0.88884523391E+00  0.88000000000E+00 0. -1.
        -11    1    4    4    0    0 -0.77141525231E-01 -0.77473968910E-02  0.27274337380E-01  0.82188732038E-01  0.51100000000E-03 0.  1.
         11    1    4    4    0    0 -0.56289226291E-01  0.11085820230E-01 -0.14076748832E-01  0.59074430892E-01  0.51100000000E-03 0. -1.
</event>
<event>
 8    1  0.2107254E+004  0.1043930E+01  0.7957747E-01            NaN
         13   -1    0    0    0    0  0.00000000000E+00  0.00000000000E+00  0.74505805969E-08  0.10566000000E+00  0.10566000000E+00 0. -1.
     999900   -1    0    0    0    0 -0.00000000000E+00 -0.00000000000E+00 -0.74505805969E-08  0.93827000000E+00  0.93827000000E+00 0. -1.
     999902    2    1    2    0    0  0.87237496228E-02  0.36992846912E-02 -0.12840760809E-01  0.10279715022E+01  0.10278476228E+01 0.  0.
     999903    2    3    3    0    0 -0.10512073088E+00 -0.73949081197E-01  0.15795827559E-01  0.13678695975E+00  0.44071867654E-01 0.  0.
         14    1    1    2    0    0 -0.87237496228E-02 -0.36992846912E-02  0.12840760809E-01  0.15958497826E-01  0.00000000000E+00 0. -1.
     999901    1    3    3    0    0  0.11384448050E+00  0.77648365889E-01 -0.28636588368E-01  0.89118454243E+00  0.88000000000E+00 0. -1.
        -11    1    4    4    0    0 -0.57212912765E-01 -0.44321568325E-01  0.30546971658E-01  0.78556332681E-01  0.51100000000E-03 0.  1.
         11    1    4    4    0    0 -0.47907818113E-01 -0.29627512873E-01 -0.14751144099E-01  0.58230627067E-01  0.51100000000E-03 0. -1.
</event>
<event>
 8    1  0.2107254E+004  0.1043930E+01  0.7957747E-01            NaN
         13   -1    0    0    0    0  0.00000000000E+00  0.00000000000E+00  0.74505805969E-08  0.10566000000E+00  0.10566000000E+00 0.  1.
     999900   -1    0    0    0    0 -0.00000000000E+00 -0.00000000000E+00 -0.74505805969E-08  0.93827000000E+00  0.93827000000E+00 0.  1.
     999902    2    1    2    0    0 -0.86765623041E-02 -0.32749253980E-02 -0.10362761273E-01  0.10300233580E+01  0.10299294750E+01 0.  0.
     999903    2    3    3    0    0 -0.27495696684E-01 -0.26512183440E-01 -0.12838844928E+00  0.14164044902E+00  0.46038176391E-01 0.  0.
         14    1    1    2    0    0  0.86765623041E-02  0.32749253980E-02  0.10362761273E-01  0.13906641974E-01  0.00000000000E+00 0.  1.
     999901    1    3    3    0    0  0.18819134380E-01  0.23237258042E-01  0.11802568800E+00  0.88838290900E+00  0.88000000000E+00 0. -1.
        -11    1    4    4    0    0  0.47405280653E-02  0.10019212465E-01 -0.23576672401E-01  0.26057202983E-01  0.51100000000E-03 0.  1.
         11    1    4    4    0    0 -0.32236224750E-01 -0.36531395905E-01 -0.10481177687E+00  0.11558324604E+00  0.51100000000E-03 0. -1.
</event>
<event>
 8    1  0.2107254E+004  0.1043930E+01  0.7957747E-01            NaN
         13   -1    0    0    0    0  0.00000000000E+00  0.00000000000E+00  0.74505805969E-08  0.10566000000E+00  0.10566000000E+00 0.  1.
     999900   -1    0    0    0    0 -0.00000000000E+00 -0.00000000000E+00 -0.74505805969E-08  0.93827000000E+00  0.93827000000E+00 0. -1.
     999902    2    1    2    0    0 -0.28106374067E-02  0.10586968027E-01 -0.53892545280E-02  0.10317223123E+01  0.10316500870E+01 0.  0.
     999903    2    3    3    0    0 -0.13166910473E+00 -0.18774742905E-01 -0.17763055673E-01  0.14176741141E+00  0.45751816122E-01 0.  0.
         14    1    1    2    0    0  0.28106374067E-02 -0.10586968027E-01  0.53892545280E-02  0.12207687701E-01  0.00000000000E+00 0.  1.
     999901    1    3    3    0    0  0.12885846732E+00  0.29361710932E-01  0.12373801145E-01  0.88995490089E+00  0.88000000000E+00 0.  1.
        -11    1    4    4    0    0 -0.39906636958E-01 -0.65989984428E-02 -0.27159527632E-01  0.48723582750E-01  0.51100000000E-03 0.  1.
         11    1    4    4    0    0 -0.91762467771E-01 -0.12175744462E-01  0.93964719595E-02  0.93043828655E-01  0.51100000000E-03 0. -1.
</event>
<event>
 8    1  0.2107254E+004  0.1043930E+01  0.7957747E-01            NaN
         13   -1    0    0    0    0  0.00000000000E+00  0.00000000000E+00  0.74505805969E-08  0.10566000000E+00  0.10566000000E+00 0.  1.
     999900   -1    0    0    0    0 -0.00000000000E+00 -0.00000000000E+00 -0.74505805969E-08  0.93827000000E+00  0.93827000000E+00 0. -1.
     999902    2    1    2    0    0 -0.59519682646E-02  0.11849899541E-01 -0.18258516730E-02  0.10305441948E+01  0.10304572566E+01 0.  0.
     999903    2    3    3    0    0 -0.81964039886E-01 -0.10217438191E+00  0.21716629821E-01  0.13962690338E+00  0.43201296083E-01 0.  0.
         14    1    1    2    0    0  0.59519682646E-02 -0.11849899541E-01  0.18258516730E-02  0.13385805156E-01  0.00000000000E+00 0.  1.
     999901    1    3    3    0    0  0.76012071621E-01  0.11402428145E+00 -0.23542481494E-01  0.89091729146E+00  0.88000000000E+00 0.  1.
        -11    1    4    4    0    0 -0.23892869137E-01 -0.84543815136E-02  0.14344074501E-01  0.29126609083E-01  0.51100000000E-03 0.  1.
         11    1    4    4    0    0 -0.58071170748E-01 -0.93720000399E-01  0.73725553195E-02  0.11050029430E+00  0.51100000000E-03 0. -1.
</event>
<event>
 8    1  0.3112499E+004  0.1043930E+01  0.7957747E-01            NaN
         13   -1    0    0    0    0  0.00000000000E+00  0.00000000000E+00  0.74505805969E-08  0.10566000000E+00  0.10566000000E+00 0.  1.
     999900   -1    0    0    0    0 -0.00000000000E+00 -0.00000000000E+00 -0.74505805969E-08  0.93827000000E+00  0.93827000000E+00 0. -1.
     999902    2    1    2    0    0  0.11367317403E-01 -0.55783397870E-02 -0.35946200542E-02  0.10307673607E+01  0.10306833155E+01 0.  0.
     999903    2    3    3    0    0 -0.66483382406E-01  0.18300713259E-01  0.11265945843E+00  0.13939428988E+00  0.44538278326E-01 0.  0.
         14    1    1    2    0    0 -0.11367317403E-01  0.55783397870E-02  0.35946200542E-02  0.13162639289E-01  0.00000000000E+00 0. -1.
     999901    1    3    3    0    0  0.77850699809E-01 -0.23879053046E-01 -0.11625407848E+00  0.89137307083E+00  0.88000000000E+00 0. -1.
        -11    1    4    4    0    0 -0.19099313235E-01  0.11745699300E-01  0.75669742105E-01  0.78923483256E-01  0.51100000000E-03 0. -1.
         11    1    4    4    0    0 -0.47384069171E-01  0.65550139596E-02  0.36989716324E-01  0.60470806626E-01  0.51100000000E-03 0.  1.
</event>
<event>
 8    1  0.2107254E+004  0.1043930E+01  0.7957747E-01            NaN
         13   -1    0    0    0    0  0.00000000000E+00  0.00000000000E+00  0.74505805969E-08  0.10566000000E+00  0.10566000000E+00 0. -1.
     999900   -1    0    0    0    0 -0.00000000000E+00 -0.00000000000E+00 -0.74505805969E-08  0.93827000000E+00  0.93827000000E+00 0. -1.
     999902    2    1    2    0    0 -0.22739199897E-02  0.13287398316E-01  0.28965555357E-02  0.10301417550E+01  0.10300494744E+01 0.  0.
     999903    2    3    3    0    0 -0.25443509748E-01  0.12021088049E+00 -0.54194919183E-01  0.14153109931E+00  0.44675886435E-01 0.  0.
         14    1    1    2    0    0  0.22739199897E-02 -0.13287398316E-01 -0.28965555357E-02  0.13788244997E-01  0.00000000000E+00 0.  1.
     999901    1    3    3    0    0  0.23169589759E-01 -0.10692348218E+00  0.57091474719E-01  0.88861065570E+00  0.88000000000E+00 0.  1.
        -11    1    4    4    0    0 -0.11642311352E-01  0.60272856992E-01 -0.29284105359E-02  0.61458908328E-01  0.51100000000E-03 0. -1.
         11    1    4    4    0    0 -0.13801198397E-01  0.59938023500E-01 -0.51266508647E-01  0.80072190979E-01  0.51100000000E-03 0.  1.
</event>
<event>
 8    1  0.2107254E+004  0.1043930E+01  0.7957747E-01            NaN
         13   -1    0    0    0    0  0.00000000000E+00  0.00000000000E+00  0.74505805969E-08  0.10566000000E+00  0.10566000000E+00 0. -1.
     999900   -1    0    0    0    0 -0.00000000000E+00 -0.00000000000E+00 -0.74505805969E-08  0.93827000000E+00  0.93827000000E+00 0. -1.
     999902    2    1    2    0    0 -0.12408534548E-01  0.71744396226E-02  0.10229731674E-02  0.10295602127E+01  0.10294599267E+01 0.  0.
     999903    2    3    3    0    0 -0.86476108576E-01 -0.99523155350E-01 -0.24338619374E-01  0.13966494206E+00  0.39127379702E-01 0.  0.
         14    1    1    2    0    0  0.12408534548E-01 -0.71744396226E-02 -0.10229731674E-02  0.14369787320E-01  0.00000000000E+00 0. -1.
     999901    1    3    3    0    0  0.74067574029E-01  0.10669759497E+00  0.25361592542E-01  0.88989527062E+00  0.88000000000E+00 0. -1.
        -11    1    4    4    0    0 -0.16799235574E-01 -0.44991217298E-01 -0.16726501139E-01  0.50857260163E-01  0.51100000000E-03 0. -1.
         11    1    4    4    0    0 -0.69676873002E-01 -0.54531938051E-01 -0.76121182350E-02  0.88807681898E-01  0.51100000000E-03 0.  1.
</event>
<event>
 8    1  0.2107254E+004  0.1043930E+01  0.7957747E-01            NaN
         13   -1    0    0    0    0  0.00000000000E+00  0.00000000000E+00  0.74505805969E-08  0.10566000000E+00  0.10566000000E+00 0. -1.
     999900   -1    0    0    0    0 -0.00000000000E+00 -0.00000000000E+00 -0.74505805969E-08  0.93827000000E+00  0.93827000000E+00 0.  1.
     999902    2    1    2    0    0  0.10306476382E-01  0.90754984666E-02  0.11369983636E-02  0.10301502724E+01  0.10300581065E+01 0.  0.
     999903    2    3    3    0    0  0.34533209799E-01 -0.35486951729E-01  0.12350490531E+00  0.14023642755E+00  0.44282362779E-01 0.  0.
         14    1    1    2    0    0 -0.10306476382E-01 -0.90754984666E-02 -0.11369983636E-02  0.13779727614E-01  0.00000000000E+00 0. -1.
     999901    1    3    3    0    0 -0.24226733417E-01  0.44562450196E-01 -0.12236790695E+00  0.88991384484E+00  0.88000000000E+00 0.  1.
        -11    1    4    4    0    0  0.27788787908E-01  0.21553841865E-02  0.58806766992E-01  0.65079638747E-01  0.51100000000E-03 0.  1.
         11    1    4    4    0    0  0.67444218916E-02 -0.37642335916E-01  0.64698138322E-01  0.75156788803E-01  0.51100000000E-03 0. -1.
</event>
<event>
 8    1  0.2107254E+004  0.1043930E+01  0.7957747E-01            NaN
         13   -1    0    0    0    0  0.00000000000E+00  0.00000000000E+00  0.74505805969E-08  0.10566000000E+00  0.10566000000E+00 0. -1.
     999900   -1    0    0    0    0 -0.00000000000E+00 -0.00000000000E+00 -0.74505805969E-08  0.93827000000E+00  0.93827000000E+00 0.  1.
     999902    2    1    2    0    0 -0.28695331080E-02 -0.11520653207E-01  0.57071970917E-02  0.10307568542E+01  0.10306726739E+01 0.  0.
     999903    2    3    3    0    0 -0.45706720948E-01 -0.55138036498E-01 -0.11423457166E+00  0.14051894858E+00  0.39581942085E-01 0.  0.
         14    1    1    2    0    0  0.28695331080E-02  0.11520653207E-01 -0.57071970917E-02  0.13173145760E-01  0.00000000000E+00 0. -1.
     999901    1    3    3    0    0  0.42837187840E-01  0.43617383290E-01  0.11994176875E+00  0.89023790566E+00  0.88000000000E+00 0. -1.
        -11    1    4    4    0    0  0.19650799014E-03 -0.27129876325E-01 -0.28806783489E-01  0.39574748272E-01  0.51100000000E-03 0.  1.
         11    1    4    4    0    0 -0.45903228938E-01 -0.28008160173E-01 -0.85427788167E-01  0.10094420031E+00  0.51100000000E-03 0. -1.
</event>
<event>
 8    1  0.2107254E+004  0.1043930E+01  0.7957747E-01            NaN
         13   -1    0    0    0    0  0.00000000000E+00  0.00000000000E+00  0.74505805969E-08  0.10566000000E+00  0.10566000000E+00 0. -1.
     999900   -1    0    0    0    0 -0.00000000000E+00 -0.00000000000E+00 -0.74505805969E-08  0.93827000000E+00  0.93827000000E+00 0. -1.
     999902    2    1    2    0    0  0.95278641680E-02 -0.59755065414E-02  0.14143186293E-01  0.10258602299E+01  0.10257010747E+01 0.  0.
     999903    2    3    3    0    0  0.54445287808E-01  0.27508960299E-01 -0.11192759875E+00  0.13511187747E+00  0.44792854441E-01 0.  0.
         14    1    1    2    0    0 -0.95278641680E-02  0.59755065414E-02 -0.14143186293E-01  0.18069770130E-01  0.00000000000E+00 0.  1.
     999901    1    3    3    0    0 -0.44917423640E-01 -0.33484466841E-01  0.12607078505E+00  0.89074835240E+00  0.88000000000E+00 0.  1.
        -11    1    4    4    0    0  0.21770624270E-01 -0.88129687153E-02 -0.56699826061E-01  0.61373934981E-01  0.51100000000E-03 0. -1.
         11    1    4    4    0    0  0.32674663539E-01  0.36321929015E-01 -0.55227772691E-01  0.73737942486E-01  0.51100000000E-03 0.  1.
</event>
<event>
 8    1  0.2107254E+004  0.1043930E+01  0.7957747E-01            NaN
         13   -1    0    0    0    0  0.00000000000E+00  0.00000000000E+00  0.74505805969E-08  0.10566000000E+00  0.10566000000E+00 0.  1.
     999900   -1    0    0    0    0 -0.00000000000E+00 -0.00000000000E+00 -0.74505805969E-08  0.93827000000E+00  0.93827000000E+00 0.  1.
     999902    2    1    2    0    0  0.64866524686E-02 -0.34762953262E-02  0.97933280259E-02  0.10316796709E+01  0.10316069371E+01 0.  0.
     999903    2    3    3    0    0 -0.10187336444E+00  0.73148289406E-01  0.46923127387E-01  0.14095421249E+00  0.44016536753E-01 0.  0.
         14    1    1    2    0    0 -0.64866524686E-02  0.34762953262E-02 -0.97933280259E-02  0.12250329108E-01  0.00000000000E+00 0.  1.
     999901    1    3    3    0    0  0.10836001691E+00 -0.76624584732E-01 -0.37129799361E-01  0.89072545841E+00  0.88000000000E+00 0.  1.
        -11    1    4    4    0    0 -0.27128147812E-01 -0.11432756998E-02  0.54372498567E-02  0.27695997726E-01  0.51100000000E-03 0.  1.
         11    1    4    4    0    0 -0.74745216632E-01  0.74291565105E-01  0.41485877530E-01  0.11325821476E+00  0.51100000000E-03 0. -1.
</event>
<event>
 8    1  0.2107254E+004  0.1043930E+01  0.7957747E-01            NaN
         13   -1    0    0    0    0  0.00000000000E+00  0.00000000000E+00  0.74505805969E-08  0.10566000000E+00  0.10566000000E+00 0. -1.
     999900   -1    0    0    0    0 -0.00000000000E+00 -0.00000000000E+00 -0.74505805969E-08  0.93827000000E+00  0.93827000000E+00 0. -1.
     999902    2    1    2    0    0 -0.13394358930E-01 -0.45516097943E-02  0.27698430064E-02  0.10295147985E+01  0.10294138732E+01 0.  0.
     999903    2    3    3    0    0  0.76330530641E-01 -0.10584693702E+00  0.16338428222E-01  0.13906805357E+00  0.45200169274E-01 0.  0.
         14    1    1    2    0    0  0.13394358930E-01  0.45516097943E-02 -0.27698430064E-02  0.14415201460E-01  0.00000000000E+00 0.  1.
     999901    1    3    3    0    0 -0.89724889571E-01  0.10129532722E+00 -0.13568585216E-01  0.89044674497E+00  0.88000000000E+00 0. -1.
        -11    1    4    4    0    0  0.69418616118E-01 -0.61160480892E-01  0.15706021199E-01  0.93842894828E-01  0.51100000000E-03 0. -1.
         11    1    4    4    0    0  0.69119145231E-02 -0.44686456126E-01  0.63240702337E-03  0.45225158740E-01  0.51100000000E-03 0.  1.
</event>
<event>
 8    1  0.2107254E+004  0.1043930E+01  0.7957747E-01            NaN
         13   -1    0    0    0    0  0.00000000000E+00  0.00000000000E+00  0.74505805969E-08  0.10566000000E+00  0.10566000000E+00 0. -1.
     999900   -1    0    0    0    0 -0.00000000000E+00 -0.00000000000E+00 -0.74505805969E-08  0.93827000000E+00  0.93827000000E+00 0.  1.
     999902    2    1    2    0    0  0.98015534165E-02 -0.46278946793E-02  0.10238342967E-01  0.10290198851E+01  0.10289118585E+01 0.  0.
     999903    2    3    3    0    0  0.93359547527E-01 -0.42505647440E-01 -0.83474469930E-01  0.13930152867E+00  0.43751498038E-01 0.  0.
         14    1    1    2    0    0 -0.98015534165E-02  0.46278946793E-02 -0.10238342967E-01  0.14910114864E-01  0.00000000000E+00 0.  1.
     999901    1    3    3    0    0 -0.83557994111E-01  0.37877752761E-01  0.93712812897E-01  0.88971835647E+00  0.88000000000E+00 0. -1.
        -11    1    4    4    0    0  0.60979890454E-01 -0.45908232933E-01 -0.71558109430E-01  0.10462761126E+00  0.51100000000E-03 0.  1.
         11    1    4    4    0    0  0.32379657074E-01  0.34025854928E-02 -0.11916360500E-01  0.34673917414E-01  0.51100000000E-03 0. -1.
</event>
<event>
 8    1  0.2107254E+004  0.1043930E+01  0.7957747E-01            NaN
         13   -1    0    0    0    0  0.00000000000E+00  0.00000000000E+00  0.74505805969E-08  0.10566000000E+00  0.10566000000E+00 0. -1.
     999900   -1    0    0    0    0 -0.00000000000E+00 -0.00000000000E+00 -0.74505805969E-08  0.93827000000E+00  0.93827000000E+00 0.  1.
     999902    2    1    2    0    0  0.31005838782E-02  0.12527393768E-01 -0.64995735448E-02  0.10294803055E+01  0.10293788932E+01 0.  0.
     999903    2    3    3    0    0 -0.64095733864E-01  0.11323649417E+00  0.30080157989E-01  0.14043826781E+00  0.43443347576E-01 0.  0.
         14    1    1    2    0    0 -0.31005838782E-02 -0.12527393768E-01  0.64995735448E-02  0.14449694505E-01  0.00000000000E+00 0. -1.
     999901    1    3    3    0    0  0.67196317743E-01 -0.10070910040E+00 -0.36579731534E-01  0.88904203769E+00  0.88000000000E+00 0.  1.
        -11    1    4    4    0    0 -0.36886921680E-01  0.24398425440E-01  0.81700699221E-02  0.44977097711E-01  0.51100000000E-03 0. -1.
         11    1    4    4    0    0 -0.27208812184E-01  0.88838068727E-01  0.21910088067E-01  0.95461170094E-01  0.51100000000E-03 0.  1.
</event>
<event>
 8    1  0.2107254E+004  0.1043930E+01  0.7957747E-01            NaN
         13   -1    0    0    0    0  0.00000000000E+00  0.00000000000E+00  0.74505805969E-08  0.10566000000E+00  0.10566000000E+00 0. -1.
     999900   -1    0    0    0    0 -0.00000000000E+00 -0.00000000000E+00 -0.74505805969E-08  0.93827000000E+00  0.93827000000E+00 0. -1.
     999902    2    1    2    0    0  0.64118322488E-02  0.10279850542E-01  0.80512504223E-02  0.10293831944E+01  0.10292804046E+01 0.  0.
     999903    2    3    3    0    0 -0.90687187935E-01  0.94166612337E-01  0.21700952469E-01  0.13997242153E+00  0.45053640428E-01 0.  0.
         14    1    1    2    0    0 -0.64118322488E-02 -0.10279850542E-01 -0.80512504223E-02  0.14546805605E-01  0.00000000000E+00 0. -1.
     999901    1    3    3    0    0  0.97099020183E-01 -0.83886761795E-01 -0.13649702047E-01  0.88941077287E+00  0.88000000000E+00 0.  1.
        -11    1    4    4    0    0 -0.21549052081E-01  0.52130106140E-01  0.86755926435E-03  0.56417403271E-01  0.51100000000E-03 0.  1.
         11    1    4    4    0    0 -0.69138135853E-01  0.42036506198E-01  0.20833393205E-01  0.83555018257E-01  0.51100000000E-03 0. -1.
</event>
<event>
 8    1  0.2107254E+004  0.1043930E+01  0.7957747E-01            NaN
         13   -1    0    0    0    0  0.00000000000E+00  0.00000000000E+00  0.74505805969E-08  0.10566000000E+00  0.10566000000E+00 0.  1.
     999900   -1    0    0    0    0 -0.00000000000E+00 -0.00000000000E+00 -0.74505805969E-08  0.93827000000E+00  0.93827000000E+00 0. -1.
     999902    2    1    2    0    0  0.82663141591E-02  0.69335581198E-03  0.99161418038E-02  0.10310016374E+01  0.10309205758E+01 0.  0.
     999903    2    3    3    0    0 -0.20773845944E-01 -0.27637030299E-01 -0.12734994390E+00  0.13943676594E+00  0.45047146030E-01 0.  0.
         14    1    1    2    0    0 -0.82663141591E-02 -0.69335581198E-03 -0.99161418038E-02  0.12928362631E-01  0.00000000000E+00 0. -1.
     999901    1    3    3    0    0  0.29040160103E-01  0.28330386111E-01  0.13726608571E+00  0.89156487143E+00  0.88000000000E+00 0.  1.
        -11    1    4    4    0    0  0.82386502526E-02 -0.18616965870E-01 -0.84415321616E-01  0.86837056725E-01  0.51100000000E-03 0. -1.
         11    1    4    4    0    0 -0.29012496196E-01 -0.90200644291E-02 -0.42934622287E-01  0.52599709218E-01  0.51100000000E-03 0.  1.
</event>
<event>
 8    1  0.2107254E+004  0.1043930E+01  0.7957747E-01            NaN
         13   -1    0    0    0    0  0.00000000000E+00  0.00000000000E+00  0.74505805969E-08  0.10566000000E+00  0.10566000000E+00 0. -1.
     999900   -1    0    0    0    0 -0.00000000000E+00 -0.00000000000E+00 -0.74505805969E-08  0.93827000000E+00  0.93827000000E+00 0.  1.
     999902    2    1    2    0    0 -0.13590507080E-01 -0.49805487562E-03 -0.66671375296E-03  0.10303140370E+01  0.10302240632E+01 0.  0.
     999903    2    3    3    0    0 -0.46017477307E-01 -0.10711268909E+00  0.64266891488E-01  0.14091279924E+00  0.46210899880E-01 0.  0.
         14    1    1    2    0    0  0.13590507080E-01  0.49805487562E-03  0.66671375296E-03  0.13615963006E-01  0.00000000000E+00 0. -1.
     999901    1    3    3    0    0  0.32426970227E-01  0.10661463421E+00 -0.64933605241E-01  0.88940123775E+00  0.88000000000E+00 0.  1.
        -11    1    4    4    0    0 -0.17813384666E-01 -0.42562173956E-02  0.54497493124E-02  0.19115254336E-01  0.51100000000E-03 0.  1.
         11    1    4    4    0    0 -0.28204092641E-01 -0.10285647169E+00  0.58817142175E-01  0.12179754491E+00  0.51100000000E-03 0. -1.
</event>
<event>
 8    1  0.2107254E+004  0.1043930E+01  0.7957747E-01            NaN
         13   -1    0    0    0    0  0.00000000000E+00  0.00000000000E+00  0.74505805969E-08  0.10566000000E+00  0.10566000000E+00 0.  1.
     999900   -1    0    0    0    0 -0.00000000000E+00 -0.00000000000E+00 -0.74505805969E-08  0.93827000000E+00  0.93827000000E+00 0. -1.
     999902    2    1    2    0    0 -0.87658343448E-02 -0.86615339078E-02 -0.27904864386E-02  0.10312947780E+01  0.10312173729E+01 0.  0.
     999903    2    3    3    0    0  0.76570607964E-01  0.10573560020E+00  0.20660147557E-01  0.13948821546E+00  0.44576287441E-01 0.  0.
         14    1    1    2    0    0  0.87658343448E-02  0.86615339078E-02  0.27904864386E-02  0.12635222038E-01  0.00000000000E+00 0. -1.
     999901    1    3    3    0    0 -0.85336442309E-01 -0.11439713411E+00 -0.23450633996E-01  0.89180656250E+00  0.88000000000E+00 0. -1.
        -11    1    4    4    0    0  0.47463502439E-01  0.40780260182E-01  0.26732066873E-01  0.68049086729E-01  0.51100000000E-03 0.  1.
         11    1    4    4    0    0  0.29107105524E-01  0.64955340021E-01 -0.60719193161E-02  0.71439128735E-01  0.51100000000E-03 0. -1.
</event>
<event>
 8    1  0.2107254E+004  0.1043930E+01  0.7957747E-01            NaN
         13   -1    0    0    0    0  0.00000000000E+00  0.00000000000E+00  0.74505805969E-08  0.10566000000E+00  0.10566000000E+00 0. -1.
     999900   -1    0    0    0    0 -0.00000000000E+00 -0.00000000000E+00 -0.74505805969E-08  0.93827000000E+00  0.93827000000E+00 0.  1.
     999902    2    1    2    0    0 -0.17198781712E-02 -0.94517280072E-02  0.87727026053E-02  0.10309202554E+01  0.10308381636E+01 0.  0.
     999903    2    3    3    0    0  0.56050280180E-01  0.25968547764E-02 -0.11984278051E+00  0.13961531206E+00  0.44517027734E-01 0.  0.
         14    1    1    2    0    0  0.17198781712E-02  0.94517280072E-02 -0.87727026053E-02  0.13009744588E-01  0.00000000000E+00 0.  1.
     999901    1    3    3    0    0 -0.57770158351E-01 -0.12048582784E-01  0.12861548312E+00  0.89130494335E+00  0.88000000000E+00 0. -1.
        -11    1    4    4    0    0  0.56778420323E-01 -0.67784279888E-02 -0.77942155160E-01  0.96669420048E-01  0.51100000000E-03 0.  1.
         11    1    4    4    0    0 -0.72814014299E-03  0.93752827652E-02 -0.41900625352E-01  0.42945892014E-01  0.51100000000E-03 0. -1.
</event>
<event>
 8    1  0.2107254E+004  0.1043930E+01  0.7957747E-01            NaN
         13   -1    0    0    0    0  0.00000000000E+00  0.00000000000E+00  0.74505805969E-08  0.10566000000E+00  0.10566000000E+00 0. -1.
     999900   -1    0    0    0    0 -0.00000000000E+00 -0.00000000000E+00 -0.74505805969E-08  0.93827000000E+00  0.93827000000E+00 0.  1.
     999902    2    1    2    0    0 -0.70427961889E-02  0.21241595782E-02  0.11283432433E-01  0.10304604462E+01  0.10303724095E+01 0.  0.
     999903    2    3    3    0    0 -0.69778741280E-01  0.56958789206E-01 -0.97400782385E-01  0.13986800633E+00  0.44303164467E-01 0.  0.
         14    1    1    2    0    0  0.70427961889E-02 -0.21241595782E-02 -0.11283432433E-01  0.13469553799E-01  0.00000000000E+00 0.  1.
     999901    1    3    3    0    0  0.62735945092E-01 -0.54834629628E-01  0.10868421482E+00  0.89059243988E+00  0.88000000000E+00 0. -1.
        -11    1    4    4    0    0 -0.13179960795E-01  0.17632307221E-01 -0.54259440247E-01  0.58557301862E-01  0.51100000000E-03 0.  1.
         11    1    4    4    0    0 -0.56598780486E-01  0.39326481985E-01 -0.43141342137E-01  0.81310704463E-01  0.51100000000E-03 0. -1.
</event>
<event>
 8    1  0.2107254E+004  0.1043930E+01  0.7957747E-01            NaN
         13   -1    0    0    0    0  0.00000000000E+00  0.00000000000E+00  0.74505805969E-08  0.10566000000E+00  0.10566000000E+00 0. -1.
     999900   -1    0    0    0    0 -0.00000000000E+00 -0.00000000000E+00 -0.74505805969E-08  0.93827000000E+00  0.93827000000E+00 0. -1.
     999902    2    1    2    0    0 -0.80017012080E-02 -0.44470864073E-02  0.10044610945E-01  0.10303396354E+01  0.10302500019E+01 0.  0.
     999903    2    3    3    0    0  0.46562865383E-01  0.81082705962E-01 -0.91864699290E-01  0.13866809007E+00  0.45246111326E-01 0.  0.
         14    1    1    2    0    0  0.80017012080E-02  0.44470864073E-02 -0.10044610945E-01  0.13590364557E-01  0.00000000000E+00 0. -1.
     999901    1    3    3    0    0 -0.54564566591E-01 -0.85529792370E-01  0.10190931024E+00  0.89167154537E+00  0.88000000000E+00 0.  1.
        -11    1    4    4    0    0  0.38376893595E-01  0.35919965557E-01 -0.70755189807E-01  0.88145265858E-01  0.51100000000E-03 0. -1.
         11    1    4    4    0    0  0.81859717882E-02  0.45162740406E-01 -0.21109509482E-01  0.50522824215E-01  0.51100000000E-03 0.  1.
</event>
<event>
 8    1  0.2107254E+004  0.1043930E+01  0.7957747E-01            NaN
         13   -1    0    0    0    0  0.00000000000E+00  0.00000000000E+00  0.74505805969E-08  0.10566000000E+00  0.10566000000E+00 0.  1.
     999900   -1    0    0    0    0 -0.00000000000E+00 -0.00000000000E+00 -0.74505805969E-08  0.93827000000E+00  0.93827000000E+00 0. -1.
     999902    2    1    2    0    0  0.75594324743E-03 -0.13621397160E-01  0.64613092189E-02  0.10288348873E+01  0.10287241432E+01 0.  0.
     999903    2    3    3    0    0  0.21692818389E-01 -0.61801596166E-01 -0.11416410440E+00  0.13905391721E+00  0.44861269488E-01 0.  0.
         14    1    1    2    0    0 -0.75594324743E-03  0.13621397160E-01 -0.64613092189E-02  0.15095112706E-01  0.00000000000E+00 0. -1.
     999901    1    3    3    0    0 -0.20936875141E-01  0.48180199006E-01  0.12062541361E+00  0.88978097009E+00  0.88000000000E+00 0.  1.
        -11    1    4    4    0    0  0.19464066655E-01 -0.13598813965E-01 -0.68947230911E-01  0.72922968969E-01  0.51100000000E-03 0.  1.
         11    1    4    4    0    0  0.22287517333E-02 -0.48202782201E-01 -0.45216873485E-01  0.66130948239E-01  0.51100000000E-03 0. -1.
</event>
<event>
 8    1  0.2107254E+004  0.1043930E+01  0.7957747E-01            NaN
         13   -1    0    0    0    0  0.00000000000E+00  0.00000000000E+00  0.74505805969E-08  0.10566000000E+00  0.10566000000E+00 0. -1.
     999900   -1    0    0    0    0 -0.00000000000E+00 -0.00000000000E+00 -0.74505805969E-08  0.93827000000E+00  0.93827000000E+00 0. -1.
     999902    2    1    2    0    0  0.61850030305E-02 -0.75557493899E-02  0.88984350303E-02  0.10307191803E+01  0.10306345147E+01 0.  0.
     999903    2    3    3    0    0  0.25851317865E-01 -0.13160667728E+00 -0.22867532549E-02  0.14173070732E+00  0.45757578771E-01 0.  0.
         14    1    1    2    0    0 -0.61850030305E-02  0.75557493899E-02 -0.88984350303E-02  0.13210819707E-01  0.00000000000E+00 0.  1.
     999901    1    3    3    0    0 -0.19666314835E-01  0.12405092789E+00  0.11185188285E-01  0.88898847298E+00  0.88000000000E+00 0.  1.
        -11    1    4    4    0    0  0.43249391704E-02 -0.23160711038E-01  0.17574347242E-01  0.29398000554E-01  0.51100000000E-03 0.  1.
         11    1    4    4    0    0  0.21526378695E-01 -0.10844596624E+00 -0.19861100496E-01  0.11233270676E+00  0.51100000000E-03 0. -1.
</event>
<event>
 8    1  0.2107254E+004  0.1043930E+01  0.7957747E-01            NaN
         13   -1    0    0    0    0  0.00000000000E+00  0.00000000000E+00  0.74505805969E-08  0.10566000000E+00  0.10566000000E+00 0.  1.
     999900   -1    0    0    0    0 -0.00000000000E+00 -0.00000000000E+00 -0.74505805969E-08  0.93827000000E+00  0.93827000000E+00 0. -1.
     999902    2    1    2    0    0  0.91270616075E-02 -0.12916986430E-01  0.32995754475E-02  0.10277732989E+01  0.10276462986E+01 0.  0.
     999903    2    3    3    0    0  0.64929183418E-01  0.64228858616E-01 -0.92497344800E-01  0.13746862739E+00  0.44729403997E-01 0.  0.
         14    1    1    2    0    0 -0.91270616075E-02  0.12916986430E-01 -0.32995754475E-02  0.16156701091E-01  0.00000000000E+00 0. -1.
     999901    1    3    3    0    0 -0.55802121811E-01 -0.77145845046E-01  0.95796920247E-01  0.89030467152E+00  0.88000000000E+00 0.  1.
        -11    1    4    4    0    0  0.56747566983E-02  0.23267921801E-01 -0.45608186485E-01  0.51516665691E-01  0.51100000000E-03 0. -1.
         11    1    4    4    0    0  0.59254426720E-01  0.40960936815E-01 -0.46889158315E-01  0.85951961695E-01  0.51100000000E-03 0.  1.
</event>
<event>
 8    1  0.2107254E+004  0.1043930E+01  0.7957747E-01            NaN
         13   -1    0    0    0    0  0.00000000000E+00  0.00000000000E+00  0.74505805969E-08  0.10566000000E+00  0.10566000000E+00 0. -1.
     999900   -1    0    0    0    0 -0.00000000000E+00 -0.00000000000E+00 -0.74505805969E-08  0.93827000000E+00  0.93827000000E+00 0. -1.
     999902    2    1    2    0    0  0.55385207194E-02  0.21990464376E-02  0.12271702191E-01  0.10302879440E+01  0.10301976227E+01 0.  0.
     999903    2    3    3    0    0 -0.66333786001E-01  0.10027119626E-01 -0.11121224401E+00  0.13873021050E+00  0.48756474393E-01 0.  0.
         14    1    1    2    0    0 -0.55385207194E-02 -0.21990464376E-02 -0.12271702191E-01  0.13642055991E-01  0.00000000000E+00 0.  1.
     999901    1    3    3    0    0  0.71872306721E-01 -0.78280731885E-02  0.12348394620E+00  0.89155773351E+00  0.88000000000E+00 0.  1.
        -11    1    4    4    0    0 -0.10020364273E-01  0.15493577010E-01 -0.58709554301E-01  0.61542924174E-01  0.51100000000E-03 0.  1.
         11    1    4    4    0    0 -0.56313421728E-01 -0.54664573841E-02 -0.52502689710E-01  0.77187286329E-01  0.51100000000E-03 0. -1.
</event>
<event>
 8    1  0.2107254E+004  0.1043930E+01  0.7957747E-01            NaN
         13   -1    0    0    0    0  0.00000000000E+00  0.00000000000E+00  0.74505805969E-08  0.10566000000E+00  0.10566000000E+00 0. -1.
     999900   -1    0    0    0    0 -0.00000000000E+00 -0.00000000000E+00 -0.74505805969E-08  0.93827000000E+00  0.93827000000E+00 0.  1.
     999902    2    1    2    0    0  0.77579765246E-02  0.11264707606E-01 -0.18027664381E-02  0.10301339932E+01  0.10300416080E+01 0.  0.
     999903    2    3    3    0    0  0.55367705323E-02  0.12716667010E+00 -0.41339196279E-01  0.14165139462E+00  0.46413043808E-01 0.  0.
         14    1    1    2    0    0 -0.77579765246E-02 -0.11264707606E-01  0.18027664381E-02  0.13796006815E-01  0.00000000000E+00 0. -1.
     999901    1    3    3    0    0  0.22212059923E-02 -0.11590196250E+00  0.39536429840E-01  0.88848259856E+00  0.88000000000E+00 0.  1.
        -11    1    4    4    0    0  0.10274833144E-01  0.93751896303E-01 -0.50078685189E-01  0.10678542076E+00  0.51100000000E-03 0.  1.
         11    1    4    4    0    0 -0.47380626117E-02  0.33414773802E-01  0.87394889105E-02  0.34865973857E-01  0.51100000000E-03 0. -1.
</event>
<event>
 8    1  0.2107254E+004  0.1043930E+01  0.7957747E-01            NaN
         13   -1    0    0    0    0  0.00000000000E+00  0.00000000000E+00  0.74505805969E-08  0.10566000000E+00  0.10566000000E+00 0. -1.
     999900   -1    0    0    0    0 -0.00000000000E+00 -0.00000000000E+00 -0.74505805969E-08  0.93827000000E+00  0.93827000000E+00 0.  1.
     999902    2    1    2    0    0 -0.56233820043E-02 -0.79884050098E-03  0.11927355203E-01  0.10307193084E+01  0.10306346444E+01 0.  0.
     999903    2    3    3    0    0 -0.92862141370E-01  0.93528343773E-01 -0.19672326014E-01  0.14082787753E+00  0.45547363139E-01 0.  0.
         14    1    1    2    0    0  0.56233820043E-02  0.79884050098E-03 -0.11927355203E-01  0.13210691634E-01  0.00000000000E+00 0.  1.
     999901    1    3    3    0    0  0.87238759366E-01 -0.94327184274E-01  0.31599681217E-01  0.88989143084E+00  0.88000000000E+00 0. -1.
        -11    1    4    4    0    0 -0.13175299061E-01  0.42775227023E-01 -0.27459074492E-02  0.44845397544E-01  0.51100000000E-03 0.  1.
         11    1    4    4    0    0 -0.79686842309E-01  0.50753116751E-01 -0.16926418565E-01  0.95982479982E-01  0.51100000000E-03 0. -1.
</event>
<event>
 8    1  0.2107254E+004  0.1043930E+01  0.7957747E-01            NaN
         13   -1    0    0    0    0  0.00000000000E+00  0.00000000000E+00  0.74505805969E-08  0.10566000000E+00  0.10566000000E+00 0. -1.
     999900   -1    0    0    0    0 -0.00000000000E+00 -0.00000000000E+00 -0.74505805969E-08  0.93827000000E+00  0.93827000000E+00 0.  1.
     999902    2    1    2    0    0 -0.69449298048E-02 -0.11934622670E-01 -0.16915582570E-02  0.10300185429E+01  0.10299245944E+01 0.  0.
     999903    2    3    3    0    0 -0.88240532411E-01 -0.25055718043E-01 -0.10193427864E+00  0.14050758677E+00  0.30620323506E-01 0.  0.
         14    1    1    2    0    0  0.69449298048E-02  0.11934622670E-01  0.16915582570E-02  0.13911457063E-01  0.00000000000E+00 0. -1.
     999901    1    3    3    0    0  0.81295602606E-01  0.13121095373E-01  0.10024272038E+00  0.88951095616E+00  0.88000000000E+00 0. -1.
        -11    1    4    4    0    0 -0.55196464320E-02  0.12735680517E-02  0.10832679867E-02  0.57899104352E-02  0.51100000000E-03 0. -1.
         11    1    4    4    0    0 -0.82720885979E-01 -0.26329286095E-01 -0.10301754663E+00  0.13471767634E+00  0.51100000000E-03 0.  1.
</event>
<event>
 8    1  0.2107254E+004  0.1043930E+01  0.7957747E-01            NaN
         13   -1    0    0    0    0  0.00000000000E+00  0.00000000000E+00  0.74505805969E-08  0.10566000000E+00  0.10566000000E+00 0. -1.
     999900   -1    0    0    0    0 -0.00000000000E+00 -0.00000000000E+00 -0.74505805969E-08  0.93827000000E+00  0.93827000000E+00 0.  1.
     999902    2    1    2    0    0  0.88210079198E-02  0.76868277458E-02  0.72519186371E-02  0.10301645423E+01  0.10300725685E+01 0.  0.
     999903    2    3    3    0    0  0.91787840869E-01 -0.58216880684E-01 -0.76062153887E-01  0.13990164359E+00  0.44416277392E-01 0.  0.
         14    1    1    2    0    0 -0.88210079198E-02 -0.76868277458E-02 -0.72519186371E-02  0.13765457691E-01  0.00000000000E+00 0.  1.
     999901    1    3    3    0    0 -0.82966832949E-01  0.65903708430E-01  0.83314072524E-01  0.89026289872E+00  0.88000000000E+00 0. -1.
        -11    1    4    4    0    0  0.56877036410E-01 -0.21240551581E-01 -0.62787224834E-01  0.87342172091E-01  0.51100000000E-03 0. -1.
         11    1    4    4    0    0  0.34910804459E-01 -0.36976329103E-01 -0.13274929053E-01  0.52559471499E-01  0.51100000000E-03 0.  1.
</event>
<event>
 8    1  0.2107254E+004  0.1043930E+01  0.7957747E-01            NaN
         13   -1    0    0    0    0  0.00000000000E+00  0.00000000000E+00  0.74505805969E-08  0.10566000000E+00  0.10566000000E+00 0. -1.
     999900   -1    0    0    0    0 -0.00000000000E+00 -0.00000000000E+00 -0.74505805969E-08  0.93827000000E+00  0.93827000000E+00 0. -1.
     999902    2    1    2    0    0 -0.12489970229E-01  0.10442058247E-02 -0.17745286579E-02  0.10312714585E+01  0.10311937657E+01 0.  0.
     999903    2    3    3    0    0 -0.75552466017E-01  0.11002639518E+00 -0.16209530170E-01  0.14219195400E+00  0.46279802893E-01 0.  0.
         14    1    1    2    0    0  0.12489970229E-01 -0.10442058247E-02  0.17745286579E-02  0.12658541546E-01  0.00000000000E+00 0. -1.
     999901    1    3    3    0    0  0.63062495789E-01 -0.10898218936E+00  0.14435001512E-01  0.88907950445E+00  0.88000000000E+00 0.  1.
        -11    1    4    4    0    0 -0.71377900233E-01  0.66844362812E-01 -0.89237384042E-02  0.98198104409E-01  0.51100000000E-03 0. -1.
         11    1    4    4    0    0 -0.41745657839E-02  0.43182032370E-01 -0.72857917661E-02  0.43993849590E-01  0.51100000000E-03 0.  1.
</event>
<event>
 8    1  0.2107254E+004  0.1043930E+01  0.7957747E-01            NaN
         13   -1    0    0    0    0  0.00000000000E+00  0.00000000000E+00  0.74505805969E-08  0.10566000000E+00  0.10566000000E+00 0. -1.
     999900   -1    0    0    0    0 -0.00000000000E+00 -0.00000000000E+00 -0.74505805969E-08  0.93827000000E+00  0.93827000000E+00 0.  1.
     999902    2    1    2    0    0 -0.18519493576E-02  0.10523613736E-01  0.66801026855E-02  0.10313284154E+01  0.10312514245E+01 0.  0.
     999903    2    3    3    0    0  0.46371867332E-01 -0.69170133568E-02  0.12579305683E+00  0.14182427948E+00  0.45738801357E-01 0.  0.
         14    1    1    2    0    0  0.18519493576E-02 -0.10523613736E-01 -0.66801026855E-02  0.12601584598E-01  0.00000000000E+00 0.  1.
     999901    1    3    3    0    0 -0.48223816690E-01  0.17440627093E-01 -0.11911295415E+00  0.88950413592E+00  0.88000000000E+00 0.  1.
        -11    1    4    4    0    0  0.38299050767E-01  0.15616006447E-01  0.84853489796E-01  0.94398372860E-01  0.51100000000E-03 0. -1.
         11    1    4    4    0    0  0.80728165648E-02 -0.22533019804E-01  0.40939567038E-01  0.47425906624E-01  0.51100000000E-03 0.  1.
</event>
<event>
 8    1  0.2107254E+004  0.1043930E+01  0.7957747E-01            NaN
         13   -1    0    0    0    0  0.00000000000E+00  0.00000000000E+00  0.74505805969E-08  0.10566000000E+00  0.10566000000E+00 0. -1.
     999900   -1    0    0    0    0 -0.00000000000E+00 -0.00000000000E+00 -0.74505805969E-08  0.93827000000E+00  0.93827000000E+00 0.  1.
     999902    2    1    2    0    0  0.63315869309E-02  0.45703174948E-02 -0.14516871194E-01  0.10274461793E+01  0.10273139418E+01 0.  0.
     999903    2    3    3    0    0  0.59286116608E-01 -0.68545328182E-01 -0.95454570560E-01  0.13913261360E+00  0.45088839955E-01 0.  0.
         14    1    1    2    0    0 -0.63315869309E-02 -0.45703174948E-02  0.14516871194E-01  0.16483820684E-01  0.00000000000E+00 0. -1.
     999901    1    3    3    0    0 -0.52954529678E-01  0.73115645677E-01  0.80937699366E-01  0.88831356572E+00  0.88000000000E+00 0.  1.
        -11    1    4    4    0    0  0.56192678278E-01 -0.32351747298E-01 -0.59010613088E-01  0.87674205005E-01  0.51100000000E-03 0. -1.
         11    1    4    4    0    0  0.30934383299E-02 -0.36193580884E-01 -0.36443957472E-01  0.51458408595E-01  0.51100000000E-03 0.  1.
</event>
<event>
 8    1  0.2107254E+004  0.1043930E+01  0.7957747E-01            NaN
         13   -1    0    0    0    0  0.00000000000E+00  0.00000000000E+00  0.74505805969E-08  0.10566000000E+00  0.10566000000E+00 0.  1.
     999900   -1    0    0    0    0 -0.00000000000E+00 -0.00000000000E+00 -0.74505805969E-08  0.93827000000E+00  0.93827000000E+00 0. -1.
     999902    2    1    2    0    0 -0.29158881461E-02  0.81228205684E-02 -0.10678740663E-01  0.10301998099E+01  0.10301083099E+01 0.  0.
     999903    2    3    3    0    0  0.27348697354E-01  0.29404552250E-01 -0.12826315143E+00  0.14160825532E+00  0.44596894744E-01 0.  0.
         14    1    1    2    0    0  0.29158881461E-02 -0.81228205684E-02  0.10678740663E-01  0.13730190086E-01  0.00000000000E+00 0.  1.
     999901    1    3    3    0    0 -0.30264585501E-01 -0.21281731681E-01  0.11758441077E+00  0.88859155459E+00  0.88000000000E+00 0.  1.
        -11    1    4    4    0    0  0.37681169156E-01  0.30679554550E-01 -0.94338576051E-01  0.10611848863E+00  0.51100000000E-03 0. -1.
         11    1    4    4    0    0 -0.10332471802E-01 -0.12750023009E-02 -0.33924575377E-01  0.35489766693E-01  0.51100000000E-03 0.  1.
</event>
<event>
 8    1  0.2107254E+004  0.1043930E+01  0.7957747E-01            NaN
         13   -1    0    0    0    0  0.00000000000E+00  0.00000000000E+00  0.74505805969E-08  0.10566000000E+00  0.10566000000E+00 0. -1.
     999900   -1    0    0    0    0 -0.00000000000E+00 -0.00000000000E+00 -0.74505805969E-08  0.93827000000E+00  0.93827000000E+00 0. -1.
     999902    2    1    2    0    0  0.11720273331E-02 -0.10064727181E-02  0.12103189450E-01  0.10317286136E+01  0.10316564633E+01 0.  0.
     999903    2    3    3    0    0 -0.98110424773E-01 -0.28341322616E-01 -0.85758124382E-01  0.14033586286E+00  0.43712841251E-01 0.  0.
         14    1    1    2    0    0 -0.11720273331E-02  0.10064727181E-02 -0.12103189450E-01  0.12201386407E-01  0.00000000000E+00 0.  1.
     999901    1    3    3    0    0  0.99282452106E-01  0.27334849897E-01  0.97861313832E-01  0.89139275073E+00  0.88000000000E+00 0.  1.
        -11    1    4    4    0    0 -0.63199367718E-01 -0.27425113748E-01 -0.78892660962E-01  0.10474067987E+00  0.51100000000E-03 0.  1.
         11    1    4    4    0    0 -0.34911057055E-01 -0.91620886755E-03 -0.68654634198E-02  0.35595182994E-01  0.51100000000E-03 0. -1.
</event>
<event>
 8    1  0.2107254E+004  0.1043930E+01  0.7957747E-01            NaN
         13   -1    0    0    0    0  0.00000000000E+00  0.00000000000E+00  0.74505805969E-08  0.10566000000E+00  0.10566000000E+00 0.  1.
     999900   -1    0    0    0    0 -0.00000000000E+00 -0.00000000000E+00 -0.74505805969E-08  0.93827000000E+00  0.93827000000E+00 0.  1.
     999902    2    1    2    0    0  0.22046974054E-02  0.13178643016E-01  0.29164377035E-02  0.10302536360E+01  0.10301628569E+01 0.  0.
     999903    2    3    3    0    0  0.77989449241E-01 -0.96221522987E-01  0.44657755620E-01  0.13926875258E+00  0.45393112123E-01 0.  0.
         14    1    1    2    0    0 -0.22046974054E-02 -0.13178643016E-01 -0.29164377035E-02  0.13676363964E-01  0.00000000000E+00 0. -1.
     999901    1    3    3    0    0 -0.75784751836E-01  0.10940016600E+00 -0.41741317917E-01  0.89098488346E+00  0.88000000000E+00 0.  1.
        -11    1    4    4    0    0  0.11231671304E-01 -0.44586580479E-01  0.57714511821E-02  0.46343115657E-01  0.51100000000E-03 0.  1.
         11    1    4    4    0    0  0.66757777937E-01 -0.51634942508E-01  0.38886304438E-01  0.92925636919E-01  0.51100000000E-03 0. -1.
</event>
<event>
 8    1  0.2107254E+004  0.1043930E+01  0.7957747E-01            NaN
         13   -1    0    0    0    0  0.00000000000E+00  0.00000000000E+00  0.74505805969E-08  0.10566000000E+00  0.10566000000E+00 0. -1.
     999900   -1    0    0    0    0 -0.00000000000E+00 -0.00000000000E+00 -0.74505805969E-08  0.93827000000E+00  0.93827000000E+00 0.  1.
     999902    2    1    2    0    0  0.32302702852E-02 -0.53749030184E-02 -0.12956226317E-01  0.10295359725E+01  0.10294353455E+01 0.  0.
     999903    2    3    3    0    0  0.13314567771E-01  0.12457878242E+00 -0.46771420830E-01  0.13929267942E+00  0.38958105567E-01 0.  0.
         14    1    1    2    0    0 -0.32302702852E-02  0.53749030184E-02  0.12956226317E-01  0.14394027544E-01  0.00000000000E+00 0. -1.
     999901    1    3    3    0    0 -0.10084297486E-01 -0.12995368544E+00  0.33815194513E-01  0.89024329304E+00  0.88000000000E+00 0. -1.
        -11    1    4    4    0    0  0.21060814651E-01  0.63626057723E-01 -0.38498547488E-01  0.77293158913E-01  0.51100000000E-03 0.  1.
         11    1    4    4    0    0 -0.77462468793E-02  0.60952724697E-01 -0.82728733414E-02  0.61999520507E-01  0.51100000000E-03 0. -1.
</event>
<event>
 8    1  0.2107254E+004  0.1043930E+01  0.7957747E-01            NaN
         13   -1    0    0    0    0  0.00000000000E+00  0.00000000000E+00  0.74505805969E-08  0.10566000000E+00  0.10566000000E+00 0. -1.
     999900   -1    0    0    0    0 -0.00000000000E+00 -0.00000000000E+00 -0.74505805969E-08  0.93827000000E+00  0.93827000000E+00 0.  1.
     999902    2    1    2    0    0  0.18499156214E-02  0.98559103439E-02 -0.92202941188E-02  0.10303074092E+01  0.10302173472E+01 0.  0.
     999903    2    3    3    0    0 -0.10032608688E+00 -0.33307795698E-01 -0.81094673241E-01  0.14043721227E+00  0.44401932378E-01 0.  0.
         14    1    1    2    0    0 -0.18499156214E-02 -0.98559103439E-02  0.92202941188E-02  0.13622590802E-01  0.00000000000E+00 0. -1.
     999901    1    3    3    0    0  0.10217600250E+00  0.43163706042E-01  0.71874379123E-01  0.88987019693E+00  0.88000000000E+00 0.  1.
        -11    1    4    4    0    0 -0.73527009679E-01 -0.16475527603E-01 -0.31648345408E-01  0.81728471478E-01  0.51100000000E-03 0. -1.
         11    1    4    4    0    0 -0.26799077202E-01 -0.16832268095E-01 -0.49446327834E-01  0.58708740792E-01  0.51100000000E-03 0.  1.
</event>
<event>
 8    1  0.2107254E+004  0.1043930E+01  0.7957747E-01            NaN
         13   -1    0    0    0    0  0.00000000000E+00  0.00000000000E+00  0.74505805969E-08  0.10566000000E+00  0.10566000000E+00 0.  1.
     999900   -1    0    0    0    0 -0.00000000000E+00 -0.00000000000E+00 -0.74505805969E-08  0.93827000000E+00  0.93827000000E+00 0. -1.
     999902    2    1    2    0    0 -0.11225375840E-02  0.14229637920E-01  0.95547955029E-02  0.10267533646E+01  0.10266096799E+01 0.  0.
     999903    2    3    3    0    0  0.11664265061E+00 -0.41808894583E-01 -0.33318622869E-01  0.13610916704E+00  0.45410165323E-01 0.  0.
         14    1    1    2    0    0  0.11225375840E-02 -0.14229637920E-01 -0.95547955029E-02  0.17176635383E-01  0.00000000000E+00 0. -1.
     999901    1    3    3    0    0 -0.11776518819E+00  0.56038532503E-01  0.42873418372E-01  0.89064419758E+00  0.88000000000E+00 0.  1.
        -11    1    4    4    0    0  0.22530983341E-01 -0.11450144653E-01 -0.27048636729E-01  0.37022167586E-01  0.51100000000E-03 0.  1.
         11    1    4    4    0    0  0.94111667269E-01 -0.30358749930E-01 -0.62699861402E-02  0.99086999454E-01  0.51100000000E-03 0. -1.
</event>
<event>
 8    1  0.2107254E+004  0.1043930E+01  0.7957747E-01            NaN
         13   -1    0    0    0    0  0.00000000000E+00  0.00000000000E+00  0.74505805969E-08  0.10566000000E+00  0.10566000000E+00 0.  1.
     999900   -1    0    0    0    0 -0.00000000000E+00 -0.00000000000E+00 -0.74505805969E-08  0.93827000000E+00  0.93827000000E+00 0. -1.
     999902    2    1    2    0    0 -0.80840684392E-02  0.11382057678E-01 -0.21509662854E-02  0.10298044892E+01  0.10297076070E+01 0.  0.
     999903    2    3    3    0    0 -0.91057914240E-01  0.55504589990E-01 -0.81471047284E-01  0.14125334706E+00  0.44075767196E-01 0.  0.
         14    1    1    2    0    0  0.80840684392E-02 -0.11382057678E-01  0.21509662854E-02  0.14125510804E-01  0.00000000000E+00 0. -1.
     999901    1    3    3    0    0  0.82973845800E-01 -0.44122532312E-01  0.79320080999E-01  0.88855114214E+00  0.88000000000E+00 0.  1.
        -11    1    4    4    0    0 -0.86202616423E-01  0.32936893651E-01 -0.64141277475E-01  0.11238369383E+00  0.51100000000E-03 0. -1.
         11    1    4    4    0    0 -0.48552978170E-02  0.22567696339E-01 -0.17329769809E-01  0.28869653229E-01  0.51100000000E-03 0.  1.
</event>
<event>
 8    1  0.2107254E+004  0.1043930E+01  0.7957747E-01            NaN
         13   -1    0    0    0    0  0.00000000000E+00  0.00000000000E+00  0.74505805969E-08  0.10566000000E+00  0.10566000000E+00 0.  1.
     999900   -1    0    0    0    0 -0.00000000000E+00 -0.00000000000E+00 -0.74505805969E-08  0.93827000000E+00  0.93827000000E+00 0.  1.
     999902    2    1    2    0    0 -0.12519879547E-01 -0.28168327080E-02  0.61710086737E-02  0.10296905029E+01  0.10295920398E+01 0.  0.
     999903    2    3    3    0    0  0.76353939401E-01 -0.15083274588E-01  0.10635949279E+00  0.13947325206E+00  0.45640082156E-01 0.  0.
         14    1    1    2    0    0  0.12519879547E-01  0.28168327080E-02 -0.61710086737E-02  0.14239497127E-01  0.00000000000E+00 0. -1.
     999901    1    3    3    0    0 -0.88873818948E-01  0.12266441880E-01 -0.10018848412E+00  0.89021725081E+00  0.88000000000E+00 0.  1.
        -11    1    4    4    0    0  0.50168704819E-01  0.12362897849E-01  0.69255964908E-01  0.86408274967E-01  0.51100000000E-03 0.  1.
         11    1    4    4    0    0  0.26185234582E-01 -0.27446172437E-01  0.37103527885E-01  0.53064977095E-01  0.51100000000E-03 0. -1.
</event>
<event>
 8    1  0.2107254E+004  0.1043930E+01  0.7957747E-01            NaN
         13   -1    0    0    0    0  0.00000000000E+00  0.00000000000E+00  0.74505805969E-08  0.10566000000E+00  0.10566000000E+00 0. -1.
     999900   -1    0    0    0    0 -0.00000000000E+00 -0.00000000000E+00 -0.74505805969E-08  0.93827000000E+00  0.93827000000E+00 0. -1.
     999902    2    1    2    0    0  0.11216937468E-01  0.88750354671E-02  0.99473607060E-03  0.10295920978E+01  0.10294922595E+01 0.  0.
     999903    2    3    3    0    0  0.82115628912E-01 -0.14908769293E-01  0.10386125112E+00  0.14044991918E+00  0.44427158347E-01 0.  0.
         14    1    1    2    0    0 -0.11216937468E-01 -0.88750354671E-02 -0.99473607060E-03  0.14337902237E-01  0.00000000000E+00 0. -1.
     999901    1    3    3    0    0 -0.70898691443E-01  0.23783804760E-01 -0.10286651505E+00  0.88914217858E+00  0.88000000000E+00 0. -1.
        -11    1    4    4    0    0  0.82837977809E-01 -0.22486230406E-01  0.88448466738E-01  0.12325239760E+00  0.51100000000E-03 0.  1.
         11    1    4    4    0    0 -0.72234889671E-03  0.75774611131E-02  0.15412784387E-01  0.17197521578E-01  0.51100000000E-03 0. -1.
</event>
<event>
 8    1  0.2107254E+004  0.1043930E+01  0.7957747E-01            NaN
         13   -1    0    0    0    0  0.00000000000E+00  0.00000000000E+00  0.74505805969E-08  0.10566000000E+00  0.10566000000E+00 0. -1.
     999900   -1    0    0    0    0 -0.00000000000E+00 -0.00000000000E+00 -0.74505805969E-08  0.93827000000E+00  0.93827000000E+00 0. -1.
     999902    2    1    2    0    0 -0.35363943974E-02 -0.67095513191E-02 -0.11306313055E-01  0.10303154167E+01  0.10302254612E+01 0.  0.
     999903    2    3    3    0    0  0.34364932929E-03  0.13014001958E-01 -0.13349589435E+00  0.14164541770E+00  0.45527883834E-01 0.  0.
         14    1    1    2    0    0  0.35363943974E-02  0.67095513191E-02  0.11306313055E-01  0.13614583326E-01  0.00000000000E+00 0. -1.
     999901    1    3    3    0    0 -0.38800437267E-02 -0.19723553277E-01  0.12218958129E+00  0.88866999897E+00  0.88000000000E+00 0.  1.
        -11    1    4    4    0    0 -0.20181758154E-01  0.93355797764E-03 -0.87991825084E-01  0.90282873765E-01  0.51100000000E-03 0.  1.
         11    1    4    4    0    0  0.20525407483E-01  0.12080443980E-01 -0.45504069266E-01  0.51362543939E-01  0.51100000000E-03 0. -1.
</event>
<event>
 8    1  0.2107254E+004  0.1043930E+01  0.7957747E-01            NaN
         13   -1    0    0    0    0  0.00000000000E+00  0.00000000000E+00  0.74505805969E-08  0.10566000000E+00  0.10566000000E+00 0.  1.
     999900   -1    0    0    0    0 -0.00000000000E+00 -0.00000000000E+00 -0.74505805969E-08  0.93827000000E+00  0.93827000000E+00 0.  1.
     999902    2    1    2    0    0  0.76171313701E-02  0.84418353827E-02 -0.78754181209E-02  0.10300986051E+01  0.10300057421E+01 0.  0.
     999903    2    3    3    0    0  0.14124449174E-01  0.65506831224E-01  0.11107280588E+00  0.14024050463E+00  0.53287765309E-01 0.  0.
         14    1    1    2    0    0 -0.76171313701E-02 -0.84418353827E-02  0.78754181209E-02  0.13831394923E-01  0.00000000000E+00 0. -1.
     999901    1    3    3    0    0 -0.65073178038E-02 -0.57064995842E-01 -0.11894822400E+00  0.88985810045E+00  0.88000000000E+00 0. -1.
        -11    1    4    4    0    0 -0.77859873080E-02  0.56911103955E-01  0.55446917709E-01  0.79838068339E-01  0.51100000000E-03 0. -1.
         11    1    4    4    0    0  0.21910436482E-01  0.85957272691E-02  0.55625888172E-01  0.60402436292E-01  0.51100000000E-03 0.  1.
</event>
<event>
 8    1  0.2107254E+004  0.1043930E+01  0.7957747E-01            NaN
         13   -1    0    0    0    0  0.00000000000E+00  0.00000000000E+00  0.74505805969E-08  0.10566000000E+00  0.10566000000E+00 0.  1.
     999900   -1    0    0    0    0 -0.00000000000E+00 -0.00000000000E+00 -0.74505805969E-08  0.93827000000E+00  0.93827000000E+00 0. -1.
     999902    2    1    2    0    0  0.99357882225E-02 -0.62088334010E-02  0.72613886864E-02  0.10301460504E+01  0.10300538277E+01 0.  0.
     999903    2    3    3    0    0 -0.11960025952E+00  0.10561796580E-01 -0.52520344305E-01  0.13849886837E+00  0.44808217447E-01 0.  0.
         14    1    1    2    0    0 -0.99357882225E-02  0.62088334010E-02 -0.72613886864E-02  0.13783949559E-01  0.00000000000E+00 0. -1.
     999901    1    3    3    0    0  0.12953604774E+00 -0.16770629981E-01  0.59781732992E-01  0.89164718207E+00  0.88000000000E+00 0. -1.
        -11    1    4    4    0    0 -0.62286121851E-01  0.14174475816E-01 -0.52126994381E-02  0.64092980086E-01  0.51100000000E-03 0.  1.
         11    1    4    4    0    0 -0.57314137665E-01 -0.36126792366E-02 -0.47307644867E-01  0.74405888285E-01  0.51100000000E-03 0. -1.
</event>
<event>
 8    1  0.2107254E+004  0.1043930E+01  0.7957747E-01            NaN
         13   -1    0    0    0    0  0.00000000000E+00  0.00000000000E+00  0.74505805969E-08  0.10566000000E+00  0.10566000000E+00 0.  1.
     999900   -1    0    0    0    0 -0.00000000000E+00 -0.00000000000E+00 -0.74505805969E-08  0.93827000000E+00  0.93827000000E+00 0.  1.
     999902    2    1    2    0    0  0.31871593796E-02 -0.10192718562E-01 -0.59532292351E-02  0.10317033719E+01  0.10316309210E+01 0.  0.
     999903    2    3    3    0    0  0.34195734060E-01 -0.39923593304E-01 -0.12450221865E+00  0.14271556573E+00  0.45865986534E-01 0.  0.
         14    1    1    2    0    0 -0.31871593796E-02  0.10192718562E-01  0.59532292351E-02  0.12226628109E-01  0.00000000000E+00 0. -1.
     999901    1    3    3    0    0 -0.31008574681E-01  0.29730874742E-01  0.11854898942E+00  0.88898780616E+00  0.88000000000E+00 0. -1.
        -11    1    4    4    0    0  0.25586007104E-01 -0.43711919640E-01 -0.64664807578E-01  0.82141184179E-01  0.51100000000E-03 0. -1.
         11    1    4    4    0    0  0.86097269562E-02  0.37883263360E-02 -0.59837411076E-01  0.60574381548E-01  0.51100000000E-03 0.  1.
</event>
<event>
 8    1  0.2107254E+004  0.1043930E+01  0.7957747E-01            NaN
         13   -1    0    0    0    0  0.00000000000E+00  0.00000000000E+00  0.74505805969E-08  0.10566000000E+00  0.10566000000E+00 0. -1.
     999900   -1    0    0    0    0 -0.00000000000E+00 -0.00000000000E+00 -0.74505805969E-08  0.93827000000E+00  0.93827000000E+00 0.  1.
     999902    2    1    2    0    0  0.20815812340E-02  0.16869492466E-01 -0.12329853311E-02  0.10268879048E+01  0.10267464809E+01 0.  0.
     999903    2    3    3    0    0 -0.18543722663E-01 -0.10662282546E+00  0.67634848696E-01  0.13536194649E+00  0.45123023401E-01 0.  0.
         14    1    1    2    0    0 -0.20815812340E-02 -0.16869492466E-01  0.12329853311E-02  0.17042095215E-01  0.00000000000E+00 0. -1.
     999901    1    3    3    0    0  0.20625303897E-01  0.12349231793E+00 -0.68867834027E-01  0.89152595829E+00  0.88000000000E+00 0.  1.
        -11    1    4    4    0    0 -0.13763120968E-01 -0.64154243137E-01  0.14549721104E-01  0.67209715937E-01  0.51100000000E-03 0.  1.
         11    1    4    4    0    0 -0.47806016954E-02 -0.42468582323E-01  0.53085127592E-01  0.68152230555E-01  0.51100000000E-03 0. -1.
</event>
<event>
 8    1  0.2107254E+004  0.1043930E+01  0.7957747E-01            NaN
         13   -1    0    0    0    0  0.00000000000E+00  0.00000000000E+00  0.74505805969E-08  0.10566000000E+00  0.10566000000E+00 0.  1.
     999900   -1    0    0    0    0 -0.00000000000E+00 -0.00000000000E+00 -0.74505805969E-08  0.93827000000E+00  0.93827000000E+00 0.  1.
     999902    2    1    2    0    0  0.62475342561E-03 -0.12775036348E-01 -0.28032522330E-02  0.10308361047E+01  0.10307529407E+01 0.  0.
     999903    2    3    3    0    0 -0.69134165994E-01 -0.47023566786E-01  0.10466349487E+00  0.14089882018E+00  0.43672435594E-01 0.  0.
         14    1    1    2    0    0 -0.62475342561E-03  0.12775036348E-01  0.28032522330E-02  0.13093895280E-01  0.00000000000E+00 0.  1.
     999901    1    3    3    0    0  0.69758919419E-01  0.34248530438E-01 -0.10746674710E+00  0.88993728454E+00  0.88000000000E+00 0.  1.
        -11    1    4    4    0    0 -0.41778754664E-01 -0.50383998713E-01  0.62347956622E-01  0.90396573406E-01  0.51100000000E-03 0.  1.
         11    1    4    4    0    0 -0.27355411330E-01  0.33604319269E-02  0.42315538243E-01  0.50502246777E-01  0.51100000000E-03 0. -1.
</event>
<event>
 8    1  0.2107254E+004  0.1043930E+01  0.7957747E-01            NaN
         13   -1    0    0    0    0  0.00000000000E+00  0.00000000000E+00  0.74505805969E-08  0.10566000000E+00  0.10566000000E+00 0.  1.
     999900   -1    0    0    0    0 -0.00000000000E+00 -0.00000000000E+00 -0.74505805969E-08  0.93827000000E+00  0.93827000000E+00 0. -1.
     999902    2    1    2    0    0 -0.22704352552E-02 -0.64319474771E-03  0.15036378196E-01  0.10287095780E+01  0.10285969739E+01 0.  0.
     999903    2    3    3    0    0 -0.76433606699E-01 -0.10664582859E+00 -0.10247007342E-01  0.13889162813E+00  0.44389798563E-01 0.  0.
         14    1    1    2    0    0  0.22704352552E-02  0.64319474771E-03 -0.15036378196E-01  0.15220421972E-01  0.00000000000E+00 0. -1.
     999901    1    3    3    0    0  0.74163171444E-01  0.10600263384E+00  0.25283385539E-01  0.88981794990E+00  0.88000000000E+00 0.  1.
        -11    1    4    4    0    0 -0.70532036314E-02 -0.57259886032E-02 -0.13615430279E-01  0.16376070641E-01  0.51100000000E-03 0. -1.
         11    1    4    4    0    0 -0.69380403067E-01 -0.10091983999E+00  0.33684229369E-02  0.12251555749E+00  0.51100000000E-03 0.  1.
</event>
<event>
 8    1  0.2107254E+004  0.1043930E+01  0.7957747E-01            NaN
         13   -1    0    0    0    0  0.00000000000E+00  0.00000000000E+00  0.74505805969E-08  0.10566000000E+00  0.10566000000E+00 0. -1.
     999900   -1    0    0    0    0 -0.00000000000E+00 -0.00000000000E+00 -0.74505805969E-08  0.93827000000E+00  0.93827000000E+00 0. -1.
     999902    2    1    2    0    0  0.46654238379E-02  0.12705995576E-01  0.28430051783E-02  0.10300991945E+01  0.10300063394E+01 0.  0.
     999903    2    3    3    0    0 -0.22312550423E-01  0.15784185243E-02 -0.12977068982E+00  0.13968466956E+00  0.46594352260E-01 0.  0.
         14    1    1    2    0    0 -0.46654238379E-02 -0.12705995576E-01 -0.28430051783E-02  0.13830805530E-01  0.00000000000E+00 0. -1.
     999901    1    3    3    0    0  0.26977974261E-01  0.11127577052E-01  0.13261369500E+00  0.89041452491E+00  0.88000000000E+00 0.  1.
        -11    1    4    4    0    0 -0.18148999708E-01  0.23217729138E-01 -0.79774407982E-01  0.85045084670E-01  0.51100000000E-03 0. -1.
         11    1    4    4    0    0 -0.41635507151E-02 -0.21639310613E-01 -0.49996281839E-01  0.54639584891E-01  0.51100000000E-03 0.  1.
</event>
<event>
 8    1  0.2107254E+004  0.1043930E+01  0.7957747E-01            NaN
         13   -1    0    0    0    0  0.00000000000E+00  0.00000000000E+00  0.74505805969E-08  0.10566000000E+00  0.10566000000E+00 0. -1.
     999900   -1    0    0    0    0 -0.00000000000E+00 -0.00000000000E+00 -0.74505805969E-08  0.93827000000E+00  0.93827000000E+00 0.  1.
     999902    2    1    2    0    0 -0.21384065117E-02  0.15689025082E-01 -0.23339677451E-01  0.10157261202E+01  0.10153344732E+01 0.  0.
     999903    2    3    3    0    0  0.85293143958E-01  0.69638635765E-01 -0.51032284915E-01  0.12931666799E+00  0.44654748010E-01 0.  0.
         14    1    1    2    0    0  0.21384065117E-02 -0.15689025082E-01  0.23339677451E-01  0.28203879768E-01  0.00000000000E+00 0. -1.
     999901    1    3    3    0    0 -0.87431550469E-01 -0.53949610682E-01  0.27692607464E-01  0.88640945224E+00  0.88000000000E+00 0. -1.
        -11    1    4    4    0    0  0.76353841961E-01  0.51771751168E-01 -0.23327473169E-01  0.95155953711E-01  0.51100000000E-03 0. -1.
         11    1    4    4    0    0  0.89393019968E-02  0.17866884597E-01 -0.27704811746E-01  0.34160714283E-01  0.51100000000E-03 0.  1.
</event>
<event>
 8    1  0.2107254E+004  0.1043930E+01  0.7957747E-01            NaN
         13   -1    0    0    0    0  0.00000000000E+00  0.00000000000E+00  0.74505805969E-08  0.10566000000E+00  0.10566000000E+00 0. -1.
     999900   -1    0    0    0    0 -0.00000000000E+00 -0.00000000000E+00 -0.74505805969E-08  0.93827000000E+00  0.93827000000E+00 0.  1.
     999902    2    1    2    0    0  0.95951110459E-02 -0.10530002895E-01 -0.19765745173E-02  0.10295475814E+01  0.10294471179E+01 0.  0.
     999903    2    3    3    0    0 -0.69263093580E-01  0.52277853693E-01  0.98193522436E-01  0.13814560050E+00  0.43725152612E-01 0.  0.
         14    1    1    2    0    0 -0.95951110459E-02  0.10530002895E-01  0.19765745173E-02  0.14382418565E-01  0.00000000000E+00 0. -1.
     999901    1    3    3    0    0  0.78858204626E-01 -0.62807856588E-01 -0.10017009695E+00  0.89140198093E+00  0.88000000000E+00 0.  1.
        -11    1    4    4    0    0 -0.32424046865E-01  0.27106981975E-01  0.17113372431E-01  0.45598639496E-01  0.51100000000E-03 0.  1.
         11    1    4    4    0    0 -0.36839046715E-01  0.25170871718E-01  0.81080150004E-01  0.92546961007E-01  0.51100000000E-03 0. -1.
</event>
<event>
 8    1  0.2107254E+004  0.1043930E+01  0.7957747E-01            NaN
         13   -1    0    0    0    0  0.00000000000E+00  0.00000000000E+00  0.74505805969E-08  0.10566000000E+00  0.10566000000E+00 0.  1.
     999900   -1    0    0    0    0 -0.00000000000E+00 -0.00000000000E+00 -0.74505805969E-08  0.93827000000E+00  0.93827000000E+00 0. -1.
     999902    2    1    2    0    0 -0.19587095007E-02  0.15918594705E-02  0.13649254415E-01  0.10300493406E+01  0.10299558104E+01 0.  0.
     999903    2    3    3    0    0  0.67672638922E-01  0.93007610922E-01  0.68502021400E-01  0.14088445693E+00  0.43885094509E-01 0.  0.
         14    1    1    2    0    0  0.19587095007E-02 -0.15918594705E-02 -0.13649254415E-01  0.13880659407E-01  0.00000000000E+00 0. -1.
     999901    1    3    3    0    0 -0.69631348422E-01 -0.91415751452E-01 -0.54852766985E-01  0.88916488366E+00  0.88000000000E+00 0. -1.
        -11    1    4    4    0    0  0.17534635566E-01  0.60854027756E-01  0.39435636757E-01  0.74606344944E-01  0.51100000000E-03 0.  1.
         11    1    4    4    0    0  0.50138003356E-01  0.32153583167E-01  0.29066384643E-01  0.66278111984E-01  0.51100000000E-03 0. -1.
</event>
<event>
 8    1  0.2107254E+004  0.1043930E+01  0.7957747E-01            NaN
         13   -1    0    0    0    0  0.00000000000E+00  0.00000000000E+00  0.74505805969E-08  0.10566000000E+00  0.10566000000E+00 0.  1.
     999900   -1    0    0    0    0 -0.00000000000E+00 -0.00000000000E+00 -0.74505805969E-08  0.93827000000E+00  0.93827000000E+00 0.  1.
     999902    2    1    2    0    0 -0.66463018764E-02 -0.41756394851E-02 -0.12610640275E-01  0.10290761270E+01  0.10289689197E+01 0.  0.
     999903    2    3    3    0    0 -0.10115742136E+00 -0.25148619437E-01  0.78997855499E-01  0.13903998503E+00  0.47182404641E-01 0.  0.
         14    1    1    2    0    0  0.66463018764E-02  0.41756394851E-02  0.12610640275E-01  0.14853872959E-01  0.00000000000E+00 0.  1.
     999901    1    3    3    0    0  0.94511119480E-01  0.20972979951E-01 -0.91608495774E-01  0.89003614201E+00  0.88000000000E+00 0.  1.
        -11    1    4    4    0    0 -0.69742423027E-01 -0.24163400347E-01  0.78288311931E-01  0.10759738097E+00  0.51100000000E-03 0. -1.
         11    1    4    4    0    0 -0.31414998330E-01 -0.98521908973E-03  0.70954356873E-03  0.31442604055E-01  0.51100000000E-03 0.  1.
</event>
<event>
 8    1  0.2107254E+004  0.1043930E+01  0.7957747E-01            NaN
         13   -1    0    0    0    0  0.00000000000E+00  0.00000000000E+00  0.74505805969E-08  0.10566000000E+00  0.10566000000E+00 0.  1.
     999900   -1    0    0    0    0 -0.00000000000E+00 -0.00000000000E+00 -0.74505805969E-08  0.93827000000E+00  0.93827000000E+00 0. -1.
     999902    2    1    2    0    0  0.34586273073E-02 -0.11585078480E-01  0.68815032914E-02  0.10300184496E+01  0.10299244998E+01 0.  0.
     999903    2    3    3    0    0 -0.30986430511E-01 -0.11427339934E+00 -0.61290980594E-01  0.14076098364E+00  0.45149767899E-01 0.  0.
         14    1    1    2    0    0 -0.34586273073E-02  0.11585078480E-01 -0.68815032914E-02  0.13911550373E-01  0.00000000000E+00 0. -1.
     999901    1    3    3    0    0  0.34445057818E-01  0.10268832086E+00  0.68172483886E-01  0.88925746598E+00  0.88000000000E+00 0.  1.
        -11    1    4    4    0    0  0.73716967463E-02 -0.47443446546E-01 -0.12714852510E-01  0.49670425088E-01  0.51100000000E-03 0.  1.
         11    1    4    4    0    0 -0.38358127257E-01 -0.66829952794E-01 -0.48576128084E-01  0.91090558555E-01  0.51100000000E-03 0. -1.
</event>
<event>
 8    1  0.2107254E+004  0.1043930E+01  0.7957747E-01            NaN
         13   -1    0    0    0    0  0.00000000000E+00  0.00000000000E+00  0.74505805969E-08  0.10566000000E+00  0.10566000000E+00 0. -1.
     999900   -1    0    0    0    0 -0.00000000000E+00 -0.00000000000E+00 -0.74505805969E-08  0.93827000000E+00  0.93827000000E+00 0.  1.
     999902    2    1    2    0    0  0.40388812448E-02 -0.14194183752E-01 -0.12089111423E-02  0.10291229449E+01  0.10290164172E+01 0.  0.
     999903    2    3    3    0    0 -0.35632057434E-01  0.10388520531E+00 -0.69920096346E-01  0.13769838138E+00  0.44835755409E-01 0.  0.
         14    1    1    2    0    0 -0.40388812448E-02  0.14194183752E-01  0.12089111423E-02  0.14807055083E-01  0.00000000000E+00 0. -1.
     999901    1    3    3    0    0  0.39670938679E-01 -0.11807938906E+00  0.68711185204E-01  0.89142456353E+00  0.88000000000E+00 0. -1.
        -11    1    4    4    0    0 -0.38065341505E-01  0.43978720238E-01 -0.40753672380E-01  0.71022679414E-01  0.51100000000E-03 0. -1.
         11    1    4    4    0    0  0.24332840710E-02  0.59906485073E-01 -0.29166423967E-01  0.66675701970E-01  0.51100000000E-03 0.  1.
</event>
<event>
 8    1  0.2107254E+004  0.1043930E+01  0.7957747E-01            NaN
         13   -1    0    0    0    0  0.00000000000E+00  0.00000000000E+00  0.74505805969E-08  0.10566000000E+00  0.10566000000E+00 0. -1.
     999900   -1    0    0    0    0 -0.00000000000E+00 -0.00000000000E+00 -0.74505805969E-08  0.93827000000E+00  0.93827000000E+00 0.  1.
     999902    2    1    2    0    0 -0.10947078452E-01 -0.22352809820E-01 -0.41809412864E-02  0.10186917967E+01  0.10183791091E+01 0.  0.
     999903    2    3    3    0    0  0.54497652425E-01  0.68707883424E-01 -0.74466633242E-01  0.12879565609E+00  0.57898827257E-01 0.  0.
         14    1    1    2    0    0  0.10947078452E-01  0.22352809820E-01  0.41809412864E-02  0.25238203254E-01  0.00000000000E+00 0. -1.
     999901    1    3    3    0    0 -0.65444730877E-01 -0.91060693244E-01  0.70285691955E-01  0.88989614065E+00  0.88000000000E+00 0. -1.
        -11    1    4    4    0    0  0.23353120190E-01  0.43451852406E-01 -0.73700107085E-01  0.88687082518E-01  0.51100000000E-03 0.  1.
         11    1    4    4    0    0  0.31144532236E-01  0.25256031018E-01 -0.76652615654E-03  0.40108573576E-01  0.51100000000E-03 0. -1.
</event>
<event>
 7    1  0.2627217E+004  0.1043930E+01  0.7957747E-01            NaN
         13   -1    0    0    0    0  0.00000000000E+00  0.00000000000E+00  0.74505805969E-08  0.10566000000E+00  0.10566000000E+00 0.  1.
     999900   -1    0    0    0    0 -0.00000000000E+00 -0.00000000000E+00 -0.74505805969E-08  0.93827000000E+00  0.93827000000E+00 0.  1.
     999903    2    1    2    0    0  0.20991762746E-01  0.90813724794E-01  0.37225827106E-02  0.10369723744E+00  0.45293186203E-01 0.  0.
         14    1    1    2    0    0  0.28558464712E-01  0.32289234477E-01 -0.25374061676E-01  0.50020231664E-01  0.00000000000E+00 0. -1.
     999901    1    1    2    0    0 -0.49550227458E-01 -0.12310295927E+00  0.21651478966E-01  0.89021253090E+00  0.88000000000E+00 0.  1.
        -11    1    3    3    0    0  0.27918836241E-01  0.34043862721E-01  0.12649026581E-01  0.45811625168E-01  0.51100000000E-03 0. -1.
         11    1    3    3    0    0 -0.69270734951E-02  0.56769862073E-01 -0.89264438707E-02  0.57885612272E-01  0.51100000000E-03 0.  1.
</event>
<event>
 8    1  0.2107254E+004  0.1043930E+01  0.7957747E-01            NaN
         13   -1    0    0    0    0  0.00000000000E+00  0.00000000000E+00  0.74505805969E-08  0.10566000000E+00  0.10566000000E+00 0.  1.
     999900   -1    0    0    0    0 -0.00000000000E+00 -0.00000000000E+00 -0.74505805969E-08  0.93827000000E+00  0.93827000000E+00 0.  1.
     999902    2    1    2    0    0 -0.53375154797E-02  0.10891561818E-01 -0.76912105674E-02  0.10295679002E+01  0.10294677223E+01 0.  0.
     999903    2    3    3    0    0  0.55378727616E-01 -0.11771470725E+00 -0.11808784164E-01  0.13814039950E+00  0.44941815886E-01 0.  0.
         14    1    1    2    0    0  0.53375154797E-02 -0.10891561818E-01  0.76912105674E-02  0.14362099788E-01  0.00000000000E+00 0.  1.
     999901    1    3    3    0    0 -0.60716243096E-01  0.12860626906E+00  0.41175735962E-02  0.89142750071E+00  0.88000000000E+00 0.  1.
        -11    1    4    4    0    0  0.41467178994E-01 -0.65073199900E-01 -0.26762353634E-01  0.81673330849E-01  0.51100000000E-03 0. -1.
         11    1    4    4    0    0  0.13911548622E-01 -0.52641507347E-01  0.14953569470E-01  0.56467068648E-01  0.51100000000E-03 0.  1.
</event>
<event>
 8    1  0.2107254E+004  0.1043930E+01  0.7957747E-01            NaN
         13   -1    0    0    0    0  0.00000000000E+00  0.00000000000E+00  0.74505805969E-08  0.10566000000E+00  0.10566000000E+00 0. -1.
     999900   -1    0    0    0    0 -0.00000000000E+00 -0.00000000000E+00 -0.74505805969E-08  0.93827000000E+00  0.93827000000E+00 0.  1.
     999902    2    1    2    0    0  0.91081779111E-02 -0.21472661013E-03  0.11167514692E-01  0.10295175610E+01  0.10294166747E+01 0.  0.
     999903    2    3    3    0    0 -0.76088904948E-01 -0.76436548060E-01 -0.73821886915E-01  0.13806284689E+00  0.44492823785E-01 0.  0.
         14    1    1    2    0    0 -0.91081779111E-02  0.21472661013E-03 -0.11167514692E-01  0.14412438960E-01  0.00000000000E+00 0.  1.
     999901    1    3    3    0    0  0.85197082860E-01  0.76221821450E-01  0.84989401608E-01  0.89145471415E+00  0.88000000000E+00 0. -1.
        -11    1    4    4    0    0 -0.14341346155E-01 -0.21926498843E-01 -0.42523516247E-01  0.49949535694E-01  0.51100000000E-03 0.  1.
         11    1    4    4    0    0 -0.61747558794E-01 -0.54510049217E-01 -0.31298370669E-01  0.88113311197E-01  0.51100000000E-03 0. -1.
</event>
<event>
 8    1  0.2107254E+004  0.1043930E+01  0.7957747E-01            NaN
         13   -1    0    0    0    0  0.00000000000E+00  0.00000000000E+00  0.74505805969E-08  0.10566000000E+00  0.10566000000E+00 0. -1.
     999900   -1    0    0    0    0 -0.00000000000E+00 -0.00000000000E+00 -0.74505805969E-08  0.93827000000E+00  0.93827000000E+00 0. -1.
     999902    2    1    2    0    0  0.12873736052E-01 -0.27983487376E-02  0.48375925405E-02  0.10298955375E+01  0.10297999087E+01 0.  0.
     999903    2    3    3    0    0 -0.61627316273E-01  0.73326939887E-01  0.90870174935E-01  0.13930748932E+00  0.44434464806E-01 0.  0.
         14    1    1    2    0    0 -0.12873736052E-01  0.27983487376E-02 -0.48375925405E-02  0.14034462483E-01  0.00000000000E+00 0.  1.
     999901    1    3    3    0    0  0.74501052325E-01 -0.76125288625E-01 -0.86032582394E-01  0.89058804820E+00  0.88000000000E+00 0. -1.
        -11    1    4    4    0    0 -0.15352576197E-01  0.13283426366E-01 -0.83570187218E-03  0.20325120677E-01  0.51100000000E-03 0.  1.
         11    1    4    4    0    0 -0.46274740076E-01  0.60043513521E-01  0.91705876807E-01  0.11898236864E+00  0.51100000000E-03 0. -1.
</event>
<event>
 8    1  0.2107254E+004  0.1043930E+01  0.7957747E-01            NaN
         13   -1    0    0    0    0  0.00000000000E+00  0.00000000000E+00  0.74505805969E-08  0.10566000000E+00  0.10566000000E+00 0.  1.
     999900   -1    0    0    0    0 -0.00000000000E+00 -0.00000000000E+00 -0.74505805969E-08  0.93827000000E+00  0.93827000000E+00 0. -1.
     999902    2    1    2    0    0 -0.56007649680E-02  0.85216004200E-02  0.10714344151E-01  0.10291386710E+01  0.10290323711E+01 0.  0.
     999903    2    3    3    0    0 -0.89126900169E-01 -0.96785615731E-01 -0.44978342631E-02  0.13880298411E+00  0.43988386418E-01 0.  0.
         14    1    1    2    0    0  0.56007649680E-02 -0.85216004200E-02 -0.10714344151E-01  0.14791328964E-01  0.00000000000E+00 0. -1.
     999901    1    3    3    0    0  0.83526135201E-01  0.10530721615E+00  0.15212178414E-01  0.89033568692E+00  0.88000000000E+00 0.  1.
        -11    1    4    4    0    0 -0.68166793349E-01 -0.47895102933E-01 -0.14804295195E-01  0.84617261110E-01  0.51100000000E-03 0. -1.
         11    1    4    4    0    0 -0.20960106820E-01 -0.48890512798E-01  0.10306460931E-01  0.54185723004E-01  0.51100000000E-03 0.  1.
</event>
<event>
 8    1  0.2107254E+004  0.1043930E+01  0.7957747E-01            NaN
         13   -1    0    0    0    0  0.00000000000E+00  0.00000000000E+00  0.74505805969E-08  0.10566000000E+00  0.10566000000E+00 0.  1.
     999900   -1    0    0    0    0 -0.00000000000E+00 -0.00000000000E+00 -0.74505805969E-08  0.93827000000E+00  0.93827000000E+00 0. -1.
     999902    2    1    2    0    0  0.31273420332E-02 -0.46769956051E-02  0.11588047768E-01  0.10310483306E+01  0.10309678572E+01 0.  0.
     999903    2    3    3    0    0  0.11979917944E+00  0.54800968927E-01 -0.23052448295E-01  0.14068328753E+00  0.43650686462E-01 0.  0.
         14    1    1    2    0    0 -0.31273420332E-02  0.46769956051E-02 -0.11588047768E-01  0.12881669424E-01  0.00000000000E+00 0. -1.
     999901    1    3    3    0    0 -0.11667183741E+00 -0.59477964532E-01  0.34640496063E-01  0.89036504304E+00  0.88000000000E+00 0.  1.
        -11    1    4    4    0    0  0.48059823857E-01  0.33283982905E-01  0.91165044884E-02  0.59168758330E-01  0.51100000000E-03 0.  1.
         11    1    4    4    0    0  0.71739355581E-01  0.21516986023E-01 -0.32168952784E-01  0.81514529201E-01  0.51100000000E-03 0. -1.
</event>
<event>
 8    1  0.2107254E+004  0.1043930E+01  0.7957747E-01            NaN
         13   -1    0    0    0    0  0.00000000000E+00  0.00000000000E+00  0.74505805969E-08  0.10566000000E+00  0.10566000000E+00 0.  1.
     999900   -1    0    0    0    0 -0.00000000000E+00 -0.00000000000E+00 -0.74505805969E-08  0.93827000000E+00  0.93827000000E+00 0. -1.
     999902    2    1    2    0    0 -0.10072566373E-01 -0.77093308706E-02  0.32819268973E-02  0.10308280376E+01  0.10307447703E+01 0.  0.
     999903    2    3    3    0    0  0.12249537019E+00 -0.39269334919E-01  0.32671884379E-01  0.13985437842E+00  0.44097604853E-01 0.  0.
         14    1    1    2    0    0  0.10072566373E-01  0.77093308706E-02 -0.32819268973E-02  0.13101962448E-01  0.00000000000E+00 0.  1.
     999901    1    3    3    0    0 -0.13256793656E+00  0.31560004048E-01 -0.29389957482E-01  0.89097365913E+00  0.88000000000E+00 0. -1.
        -11    1    4    4    0    0  0.79962980078E-01 -0.43743800539E-01  0.10708112162E-01  0.91774304986E-01  0.51100000000E-03 0.  1.
         11    1    4    4    0    0  0.42532390108E-01  0.44744656204E-02  0.21963772217E-01  0.48080073439E-01  0.51100000000E-03 0. -1.
</event>
<event>
 8    1  0.2107254E+004  0.1043930E+01  0.7957747E-01            NaN
         13   -1    0    0    0    0  0.00000000000E+00  0.00000000000E+00  0.74505805969E-08  0.10566000000E+00  0.10566000000E+00 0.  1.
     999900   -1    0    0    0    0 -0.00000000000E+00 -0.00000000000E+00 -0.74505805969E-08  0.93827000000E+00  0.93827000000E+00 0.  1.
     999902    2    1    2    0    0 -0.54390876508E-02  0.11292722655E-01  0.35095914269E-02  0.10309136068E+01  0.10308314306E+01 0.  0.
     999903    2    3    3    0    0  0.12724813027E+00  0.39177351109E-01  0.75220733444E-03  0.14052545917E+00  0.44943157026E-01 0.  0.
         14    1    1    2    0    0  0.54390876508E-02 -0.11292722655E-01 -0.35095914269E-02  0.13016393180E-01  0.00000000000E+00 0. -1.
     999901    1    3    3    0    0 -0.13268721792E+00 -0.27884628454E-01  0.27573840925E-02  0.89038814765E+00  0.88000000000E+00 0. -1.
        -11    1    4    4    0    0  0.29354951445E-01 -0.95670128054E-02  0.38819119568E-02  0.31121877672E-01  0.51100000000E-03 0.  1.
         11    1    4    4    0    0  0.97893178822E-01  0.48744363915E-01 -0.31297046223E-02  0.10940358150E+00  0.51100000000E-03 0. -1.
</event>
<event>
 8    1  0.2107254E+004  0.1043930E+01  0.7957747E-01            NaN
         13   -1    0    0    0    0  0.00000000000E+00  0.00000000000E+00  0.74505805969E-08  0.10566000000E+00  0.10566000000E+00 0.  1.
     999900   -1    0    0    0    0 -0.00000000000E+00 -0.00000000000E+00 -0.74505805969E-08  0.93827000000E+00  0.93827000000E+00 0.  1.
     999902    2    1    2    0    0  0.97861883938E-02  0.40424022309E-02  0.17971761500E-02  0.10331903379E+01  0.10331345189E+01 0.  0.
     999903    2    3    3    0    0 -0.95228847186E-01 -0.91801144433E-01  0.23825123982E-01  0.14150688871E+00  0.44278432281E-01 0.  0.
         14    1    1    2    0    0 -0.97861883938E-02 -0.40424022309E-02 -0.17971761500E-02  0.10739662061E-01  0.00000000000E+00 0.  1.
     999901    1    3    3    0    0  0.10501503558E+00  0.95843546664E-01 -0.22027947832E-01  0.89168344922E+00  0.88000000000E+00 0. -1.
        -11    1    4    4    0    0 -0.17152635148E-01 -0.26918746860E-01 -0.11630027456E-01  0.33975733762E-01  0.51100000000E-03 0. -1.
         11    1    4    4    0    0 -0.78076212037E-01 -0.64882397573E-01  0.35455151437E-01  0.10753115495E+00  0.51100000000E-03 0.  1.
</event>
<event>
 8    1  0.2107254E+004  0.1043930E+01  0.7957747E-01            NaN
         13   -1    0    0    0    0  0.00000000000E+00  0.00000000000E+00  0.74505805969E-08  0.10566000000E+00  0.10566000000E+00 0.  1.
     999900   -1    0    0    0    0 -0.00000000000E+00 -0.00000000000E+00 -0.74505805969E-08  0.93827000000E+00  0.93827000000E+00 0.  1.
     999902    2    1    2    0    0 -0.87613620319E-02 -0.39261086943E-02 -0.10663708428E-01  0.10295811160E+01  0.10294811237E+01 0.  0.
     999903    2    3    3    0    0  0.21100448337E-01 -0.59034822504E-01  0.11491160206E+00  0.13845943148E+00  0.45122042165E-01 0.  0.
         14    1    1    2    0    0  0.87613620319E-02  0.39261086943E-02  0.10663708428E-01  0.14348883983E-01  0.00000000000E+00 0. -1.
     999901    1    3    3    0    0 -0.29861810369E-01  0.55108713810E-01 -0.12557531048E+00  0.89112168454E+00  0.88000000000E+00 0.  1.
        -11    1    4    4    0    0  0.93434483896E-02  0.59297355133E-02  0.13710305276E-01  0.17626553345E-01  0.51100000000E-03 0.  1.
         11    1    4    4    0    0  0.11756999947E-01 -0.64964558018E-01  0.10120129678E+00  0.12083287813E+00  0.51100000000E-03 0. -1.
</event>
<event>
 8    1  0.2107254E+004  0.1043930E+01  0.7957747E-01            NaN
         13   -1    0    0    0    0  0.00000000000E+00  0.00000000000E+00  0.74505805969E-08  0.10566000000E+00  0.10566000000E+00 0. -1.
     999900   -1    0    0    0    0 -0.00000000000E+00 -0.00000000000E+00 -0.74505805969E-08  0.93827000000E+00  0.93827000000E+00 0. -1.
     999902    2    1    2    0    0  0.46681706379E-02 -0.72249382729E-02  0.82110159475E-02  0.10320383082E+01  0.10319697948E+01 0.  0.
     999903    2    3    3    0    0 -0.43164561227E-01 -0.10465458864E+00  0.74794518274E-01  0.14287360482E+00  0.44753600102E-01 0.  0.
         14    1    1    2    0    0 -0.46681706379E-02  0.72249382729E-02 -0.82110159475E-02  0.11891691765E-01  0.00000000000E+00 0.  1.
     999901    1    3    3    0    0  0.47832731865E-01  0.97429650369E-01 -0.66583502326E-01  0.88916470341E+00  0.88000000000E+00 0.  1.
        -11    1    4    4    0    0 -0.17660088554E-01 -0.33179127607E-01  0.18890388157E-02  0.37637253156E-01  0.51100000000E-03 0.  1.
         11    1    4    4    0    0 -0.25504472673E-01 -0.71475461034E-01  0.72905479458E-01  0.10523635167E+00  0.51100000000E-03 0. -1.
</event>
<event>
 8    1  0.2107254E+004  0.1043930E+01  0.7957747E-01            NaN
         13   -1    0    0    0    0  0.00000000000E+00  0.00000000000E+00  0.74505805969E-08  0.10566000000E+00  0.10566000000E+00 0. -1.
     999900   -1    0    0    0    0 -0.00000000000E+00 -0.00000000000E+00 -0.74505805969E-08  0.93827000000E+00  0.93827000000E+00 0. -1.
     999902    2    1    2    0    0  0.46005205318E-02 -0.16547395941E-02 -0.12889475396E-01  0.10301444449E+01  0.10300522006E+01 0.  0.
     999903    2    3    3    0    0 -0.98633793433E-01 -0.87227423960E-01  0.11485105817E-01  0.13965349715E+00  0.45099256234E-01 0.  0.
         14    1    1    2    0    0 -0.46005205318E-02  0.16547395941E-02  0.12889475396E-01  0.13785555059E-01  0.00000000000E+00 0. -1.
     999901    1    3    3    0    0  0.10323431397E+00  0.85572684366E-01 -0.24374581213E-01  0.89049094779E+00  0.88000000000E+00 0.  1.
        -11    1    4    4    0    0 -0.77691689916E-01 -0.76485325364E-01 -0.76835957153E-02  0.10929456730E+00  0.51100000000E-03 0.  1.
         11    1    4    4    0    0 -0.20942103517E-01 -0.10742098596E-01  0.19168701532E-01  0.30358929846E-01  0.51100000000E-03 0. -1.
</event>
<event>
 8    1  0.2107254E+004  0.1043930E+01  0.7957747E-01            NaN
         13   -1    0    0    0    0  0.00000000000E+00  0.00000000000E+00  0.74505805969E-08  0.10566000000E+00  0.10566000000E+00 0. -1.
     999900   -1    0    0    0    0 -0.00000000000E+00 -0.00000000000E+00 -0.74505805969E-08  0.93827000000E+00  0.93827000000E+00 0. -1.
     999902    2    1    2    0    0  0.19532583836E-02 -0.60839757101E-02 -0.13689290690E-01  0.10288228276E+01  0.10287119052E+01 0.  0.
     999903    2    3    3    0    0 -0.61549634260E-01  0.79399288660E-01 -0.86069603297E-01  0.13945287334E+00  0.44119414707E-01 0.  0.
         14    1    1    2    0    0 -0.19532583836E-02  0.60839757101E-02  0.13689290690E-01  0.15107172414E-01  0.00000000000E+00 0. -1.
     999901    1    3    3    0    0  0.63502892644E-01 -0.85483264370E-01  0.72380312607E-01  0.88936995425E+00  0.88000000000E+00 0.  1.
        -11    1    4    4    0    0 -0.35061458800E-01  0.27389192700E-01 -0.13860586099E-01  0.46603119401E-01  0.51100000000E-03 0. -1.
         11    1    4    4    0    0 -0.26488175461E-01  0.52010095960E-01 -0.72209017198E-01  0.92849753939E-01  0.51100000000E-03 0.  1.
</event>
<event>
 8    1  0.2107254E+004  0.1043930E+01  0.7957747E-01            NaN
         13   -1    0    0    0    0  0.00000000000E+00  0.00000000000E+00  0.74505805969E-08  0.10566000000E+00  0.10566000000E+00 0.  1.
     999900   -1    0    0    0    0 -0.00000000000E+00 -0.00000000000E+00 -0.74505805969E-08  0.93827000000E+00  0.93827000000E+00 0. -1.
     999902    2    1    2    0    0  0.86007170245E-02  0.10559448029E-01  0.82899010326E-02  0.10279864516E+01  0.10278628060E+01 0.  0.
     999903    2    3    3    0    0 -0.14652705747E-01  0.94096191555E-01 -0.89288176713E-01  0.13835698355E+00  0.45841916906E-01 0.  0.
         14    1    1    2    0    0 -0.86007170245E-02 -0.10559448029E-01 -0.82899010326E-02  0.15943548386E-01  0.00000000000E+00 0. -1.
     999901    1    3    3    0    0  0.23253422772E-01 -0.83536743526E-01  0.97578077745E-01  0.88962946806E+00  0.88000000000E+00 0.  1.
        -11    1    4    4    0    0 -0.73878305295E-02  0.19877702962E-01 -0.49451060896E-01  0.53808657851E-01  0.51100000000E-03 0. -1.
         11    1    4    4    0    0 -0.72648752179E-02  0.74218488594E-01 -0.39837115817E-01  0.84548325700E-01  0.51100000000E-03 0.  1.
</event>
<event>
 8    1  0.2107254E+004  0.1043930E+01  0.7957747E-01            NaN
         13   -1    0    0    0    0  0.00000000000E+00  0.00000000000E+00  0.74505805969E-08  0.10566000000E+00  0.10566000000E+00 0. -1.
     999900   -1    0    0    0    0 -0.00000000000E+00 -0.00000000000E+00 -0.74505805969E-08  0.93827000000E+00  0.93827000000E+00 0.  1.
     999902    2    1    2    0    0 -0.40017200680E-03  0.47114981902E-02 -0.12340565731E-01  0.10307145577E+01  0.10306298324E+01 0.  0.
     999903    2    3    3    0    0  0.11458412310E+00 -0.40129597316E-01  0.52368570558E-01  0.13974913508E+00  0.45248731760E-01 0.  0.
         14    1    1    2    0    0  0.40017200680E-03 -0.47114981902E-02  0.12340565731E-01  0.13215442308E-01  0.00000000000E+00 0. -1.
     999901    1    3    3    0    0 -0.11498429511E+00  0.44841095506E-01 -0.64709136289E-01  0.89096542261E+00  0.88000000000E+00 0.  1.
        -11    1    4    4    0    0  0.50317060619E-01  0.54076718751E-02  0.24196011114E-01  0.56095967585E-01  0.51100000000E-03 0. -1.
         11    1    4    4    0    0  0.64267062483E-01 -0.45537269191E-01  0.28172559443E-01  0.83653167496E-01  0.51100000000E-03 0.  1.
</event>
<event>
 8    1  0.2107254E+004  0.1043930E+01  0.7957747E-01            NaN
         13   -1    0    0    0    0  0.00000000000E+00  0.00000000000E+00  0.74505805969E-08  0.10566000000E+00  0.10566000000E+00 0. -1.
     999900   -1    0    0    0    0 -0.00000000000E+00 -0.00000000000E+00 -0.74505805969E-08  0.93827000000E+00  0.93827000000E+00 0.  1.
     999902    2    1    2    0    0  0.34570074283E-02  0.10807674129E-01 -0.93077923722E-02  0.10292537703E+01  0.10291491300E+01 0.  0.
     999903    2    3    3    0    0 -0.29901573260E-01 -0.10125392256E+00  0.75494086419E-01  0.13747916028E+00  0.45328815446E-01 0.  0.
         14    1    1    2    0    0 -0.34570074283E-02 -0.10807674129E-01  0.93077923722E-02  0.14676229737E-01  0.00000000000E+00 0.  1.
     999901    1    3    3    0    0  0.33358580688E-01  0.11206159669E+00 -0.84801878791E-01  0.89177460998E+00  0.88000000000E+00 0.  1.
        -11    1    4    4    0    0 -0.21364765293E-01 -0.84523464853E-01  0.37129361057E-01  0.94760328620E-01  0.51100000000E-03 0.  1.
         11    1    4    4    0    0 -0.85368079666E-02 -0.16730457712E-01  0.38364725362E-01  0.42718831663E-01  0.51100000000E-03 0. -1.
</event>
<event>
 8    1  0.2107254E+004  0.1043930E+01  0.7957747E-01            NaN
         13   -1    0    0    0    0  0.00000000000E+00  0.00000000000E+00  0.74505805969E-08  0.10566000000E+00  0.10566000000E+00 0.  1.
     999900   -1    0    0    0    0 -0.00000000000E+00 -0.00000000000E+00 -0.74505805969E-08  0.93827000000E+00  0.93827000000E+00 0. -1.
     999902    2    1    2    0    0 -0.12108330226E-01 -0.40077572937E-02 -0.71106113611E-02  0.10293274463E+01  0.10292238616E+01 0.  0.
     999903    2    3    3    0    0 -0.11156995889E+00 -0.51234207890E-01 -0.50474651502E-01  0.14140662037E+00  0.48737481025E-01 0.  0.
         14    1    1    2    0    0  0.12108330226E-01  0.40077572937E-02  0.71106113611E-02  0.14602553657E-01  0.00000000000E+00 0.  1.
     999901    1    3    3    0    0  0.99461628662E-01  0.47226450597E-01  0.43364040141E-01  0.88792082597E+00  0.88000000000E+00 0.  1.
        -11    1    4    4    0    0 -0.79921045338E-01 -0.38913843612E-01 -0.58615223448E-01  0.10647847789E+00  0.51100000000E-03 0.  1.
         11    1    4    4    0    0 -0.31648913551E-01 -0.12320364278E-01  0.81405719455E-02  0.34928142486E-01  0.51100000000E-03 0. -1.
</event>
<event>
 8    1  0.2107254E+004  0.1043930E+01  0.7957747E-01            NaN
         13   -1    0    0    0    0  0.00000000000E+00  0.00000000000E+00  0.74505805969E-08  0.10566000000E+00  0.10566000000E+00 0.  1.
     999900   -1    0    0    0    0 -0.00000000000E+00 -0.00000000000E+00 -0.74505805969E-08  0.93827000000E+00  0.93827000000E+00 0.  1.
     999902    2    1    2    0    0  0.11614840293E-01  0.15802688173E-02 -0.48313566558E-02  0.10312515233E+01  0.10311735841E+01 0.  0.
     999903    2    3    3    0    0 -0.59393622196E-01  0.11144232525E+00  0.41497261933E-01  0.14037655221E+00  0.45128255555E-01 0.  0.
         14    1    1    2    0    0 -0.11614840293E-01 -0.15802688173E-02  0.48313566558E-02  0.12678476711E-01  0.00000000000E+00 0. -1.
     999901    1    3    3    0    0  0.71008462490E-01 -0.10986205643E+00 -0.46328618589E-01  0.89087497108E+00  0.88000000000E+00 0. -1.
        -11    1    4    4    0    0 -0.39523458094E-01  0.89845790985E-01  0.12209679926E-01  0.98912624585E-01  0.51100000000E-03 0.  1.
         11    1    4    4    0    0 -0.19870164103E-01  0.21596534262E-01  0.29287582007E-01  0.41463927628E-01  0.51100000000E-03 0. -1.
</event>
<event>
 8    1  0.2107254E+004  0.1043930E+01  0.7957747E-01            NaN
         13   -1    0    0    0    0  0.00000000000E+00  0.00000000000E+00  0.74505805969E-08  0.10566000000E+00  0.10566000000E+00 0.  1.
     999900   -1    0    0    0    0 -0.00000000000E+00 -0.00000000000E+00 -0.74505805969E-08  0.93827000000E+00  0.93827000000E+00 0.  1.
     999902    2    1    2    0    0  0.59269758815E-03  0.99999240511E-03 -0.14247298877E-01  0.10296353576E+01  0.10295361251E+01 0.  0.
     999903    2    3    3    0    0 -0.92047957421E-01 -0.26722706798E-01 -0.95151213303E-01  0.14064925966E+00  0.39262339792E-01 0.  0.
         14    1    1    2    0    0 -0.59269758815E-03 -0.99999240511E-03  0.14247298877E-01  0.14294642371E-01  0.00000000000E+00 0.  1.
     999901    1    3    3    0    0  0.92640655009E-01  0.27722699203E-01  0.80903914426E-01  0.88898609797E+00  0.88000000000E+00 0.  1.
        -11    1    4    4    0    0 -0.98794116180E-02  0.70592473633E-02 -0.27400979846E-02  0.12458130085E-01  0.51100000000E-03 0.  1.
         11    1    4    4    0    0 -0.82168545803E-01 -0.33781954161E-01 -0.92411115318E-01  0.12819112957E+00  0.51100000000E-03 0. -1.
</event>
<event>
 8    1  0.2107254E+004  0.1043930E+01  0.7957747E-01            NaN
         13   -1    0    0    0    0  0.00000000000E+00  0.00000000000E+00  0.74505805969E-08  0.10566000000E+00  0.10566000000E+00 0. -1.
     999900   -1    0    0    0    0 -0.00000000000E+00 -0.00000000000E+00 -0.74505805969E-08  0.93827000000E+00  0.93827000000E+00 0. -1.
     999902    2    1    2    0    0  0.18994528296E-03 -0.12391803701E-01  0.67286474957E-02  0.10298279585E+01  0.10297314002E+01 0.  0.
     999903    2    3    3    0    0  0.98887696111E-01 -0.75388713930E-01  0.49187624866E-01  0.14105767236E+00  0.44895543887E-01 0.  0.
         14    1    1    2    0    0 -0.18994528296E-03  0.12391803701E-01 -0.67286474957E-02  0.14102041530E-01  0.00000000000E+00 0.  1.
     999901    1    3    3    0    0 -0.98697750828E-01  0.62996910229E-01 -0.42458977370E-01  0.88877028611E+00  0.88000000000E+00 0. -1.
        -11    1    4    4    0    0  0.77483670325E-01 -0.39442070652E-01  0.17790588718E-01  0.88747745168E-01  0.51100000000E-03 0. -1.
         11    1    4    4    0    0  0.21404025786E-01 -0.35946643278E-01  0.31397036148E-01  0.52309927190E-01  0.51100000000E-03 0.  1.
</event>
<event>
 8    1  0.2107254E+004  0.1043930E+01  0.7957747E-01            NaN
         13   -1    0    0    0    0  0.00000000000E+00  0.00000000000E+00  0.74505805969E-08  0.10566000000E+00  0.10566000000E+00 0. -1.
     999900   -1    0    0    0    0 -0.00000000000E+00 -0.00000000000E+00 -0.74505805969E-08  0.93827000000E+00  0.93827000000E+00 0. -1.
     999902    2    1    2    0    0 -0.11367187749E-01 -0.13006196231E-02  0.84693178183E-02  0.10296950461E+01  0.10295966463E+01 0.  0.
     999903    2    3    3    0    0 -0.47183038232E-01 -0.82785523207E-01  0.93897383484E-01  0.14108910470E+00  0.44830066812E-01 0.  0.
         14    1    1    2    0    0  0.11367187749E-01  0.13006196231E-02 -0.84693178183E-02  0.14234953917E-01  0.00000000000E+00 0.  1.
     999901    1    3    3    0    0  0.35815850484E-01  0.81484903584E-01 -0.85428065665E-01  0.88860594138E+00  0.88000000000E+00 0. -1.
        -11    1    4    4    0    0 -0.46742683727E-01 -0.50828252213E-01  0.44166345722E-01  0.81971439663E-01  0.51100000000E-03 0.  1.
         11    1    4    4    0    0 -0.44035450503E-03 -0.31957270995E-01  0.49731037762E-01  0.59117665037E-01  0.51100000000E-03 0. -1.
</event>
<event>
 8    1  0.2107254E+004  0.1043930E+01  0.7957747E-01            NaN
         13   -1    0    0    0    0  0.00000000000E+00  0.00000000000E+00  0.74505805969E-08  0.10566000000E+00  0.10566000000E+00 0. -1.
     999900   -1    0    0    0    0 -0.00000000000E+00 -0.00000000000E+00 -0.74505805969E-08  0.93827000000E+00  0.93827000000E+00 0.  1.
     999902    2    1    2    0    0  0.14375272054E-01 -0.27218205591E-02 -0.17923823237E-01  0.10207930124E+01  0.10205307708E+01 0.  0.
     999903    2    3    3    0    0  0.20128969166E-01 -0.37495333468E-01  0.11458120671E+00  0.13017531377E+00  0.44784862994E-01 0.  0.
         14    1    1    2    0    0 -0.14375272054E-01  0.27218205591E-02  0.17923823237E-01  0.23136987557E-01  0.00000000000E+00 0. -1.
     999901    1    3    3    0    0 -0.57536971120E-02  0.34773512909E-01 -0.13250502994E+00  0.89061769867E+00  0.88000000000E+00 0.  1.
        -11    1    4    4    0    0  0.27242267066E-01 -0.19215899338E-01  0.10087128122E+00  0.10623873304E+00  0.51100000000E-03 0.  1.
         11    1    4    4    0    0 -0.71132979000E-02 -0.18279434130E-01  0.13709925485E-01  0.23936580728E-01  0.51100000000E-03 0. -1.
</event>
<event>
 7    1  0.2107254E+004  0.1043930E+01  0.7957747E-01            NaN
         13   -1    0    0    0    0  0.00000000000E+00  0.00000000000E+00  0.74505805969E-08  0.10566000000E+00  0.10566000000E+00 0. -1.
     999900   -1    0    0    0    0 -0.00000000000E+00 -0.00000000000E+00 -0.74505805969E-08  0.93827000000E+00  0.93827000000E+00 0.  1.
     999903    2    1    2    0    0 -0.11484766058E+00  0.19648201293E-01  0.28827003289E-01  0.12824728483E+00  0.45170045300E-01 0.  0.
         14    1    1    2    0    0  0.14063636492E-01 -0.24561327057E-01  0.71303380380E-02  0.29187092673E-01  0.00000000000E+00 0.  1.
     999901    1    1    2    0    0  0.10078402409E+00  0.49131257644E-02 -0.35957341327E-01  0.88649562250E+00  0.88000000000E+00 0. -1.
        -11    1    3    3    0    0 -0.72418751687E-02  0.91798243048E-02 -0.78363672188E-02  0.14084874952E-01  0.51100000000E-03 0. -1.
         11    1    3    3    0    0 -0.10760578541E+00  0.10468376988E-01  0.36663370508E-01  0.11416240988E+00  0.51100000000E-03 0.  1.
</event>
<event>
 8    1  0.2107254E+004  0.1043930E+01  0.7957747E-01            NaN
         13   -1    0    0    0    0  0.00000000000E+00  0.00000000000E+00  0.74505805969E-08  0.10566000000E+00  0.10566000000E+00 0.  1.
     999900   -1    0    0    0    0 -0.00000000000E+00 -0.00000000000E+00 -0.74505805969E-08  0.93827000000E+00  0.93827000000E+00 0. -1.
     999902    2    1    2    0    0 -0.63978292255E-02  0.51062080715E-03 -0.10223789608E-01  0.10318585947E+01  0.10317879824E+01 0.  0.
     999903    2    3    3    0    0  0.70251588697E-01 -0.81642105082E-01  0.78204264399E-01  0.14031850900E+00  0.44414614280E-01 0.  0.
         14    1    1    2    0    0  0.63978292255E-02 -0.51062080715E-03  0.10223789608E-01  0.12071405318E-01  0.00000000000E+00 0.  1.
     999901    1    3    3    0    0 -0.76649417922E-01  0.82152725889E-01 -0.88428054007E-01  0.89154008568E+00  0.88000000000E+00 0.  1.
        -11    1    4    4    0    0  0.23390725235E-01 -0.39799966546E-02  0.27786675444E-01  0.36542124372E-01  0.51100000000E-03 0. -1.
         11    1    4    4    0    0  0.46860863461E-01 -0.77662108428E-01  0.50417588956E-01  0.10377638463E+00  0.51100000000E-03 0.  1.
</event>
<event>
 8    1  0.2107254E+004  0.1043930E+01  0.7957747E-01            NaN
         13   -1    0    0    0    0  0.00000000000E+00  0.00000000000E+00  0.74505805969E-08  0.10566000000E+00  0.10566000000E+00 0. -1.
     999900   -1    0    0    0    0 -0.00000000000E+00 -0.00000000000E+00 -0.74505805969E-08  0.93827000000E+00  0.93827000000E+00 0. -1.
     999902    2    1    2    0    0  0.12334634419E-01  0.26753123272E-02  0.41236801586E-02  0.10306520016E+01  0.10305664672E+01 0.  0.
     999903    2    3    3    0    0  0.90539180481E-01 -0.75439727269E-01 -0.63720097342E-01  0.14114613399E+00  0.44423920177E-01 0.  0.
         14    1    1    2    0    0 -0.12334634419E-01 -0.26753123272E-02 -0.41236801586E-02  0.13277998356E-01  0.00000000000E+00 0.  1.
     999901    1    3    3    0    0 -0.78204546062E-01  0.78115039596E-01  0.67843777501E-01  0.88950586765E+00  0.88000000000E+00 0. -1.
        -11    1    4    4    0    0  0.54748190388E-01 -0.27529581207E-01 -0.12810490397E-01  0.62606804562E-01  0.51100000000E-03 0. -1.
         11    1    4    4    0    0  0.35790990093E-01 -0.47910146062E-01 -0.50909606946E-01  0.78539329433E-01  0.51100000000E-03 0.  1.
</event>
<event>
 8    1  0.2107254E+004  0.1043930E+01  0.7957747E-01            NaN
         13   -1    0    0    0    0  0.00000000000E+00  0.00000000000E+00  0.74505805969E-08  0.10566000000E+00  0.10566000000E+00 0. -1.
     999900   -1    0    0    0    0 -0.00000000000E+00 -0.00000000000E+00 -0.74505805969E-08  0.93827000000E+00  0.93827000000E+00 0. -1.
     999902    2    1    2    0    0 -0.13029848838E-01 -0.34085280697E-02 -0.93396136589E-03  0.10304293590E+01  0.10303409128E+01 0.  0.
     999903    2    3    3    0    0 -0.76133062756E-01  0.88647511231E-01 -0.64914465579E-01  0.14107575388E+00  0.45098292630E-01 0.  0.
         14    1    1    2    0    0  0.13029848838E-01  0.34085280697E-02  0.93396136589E-03  0.13500641028E-01  0.00000000000E+00 0.  1.
     999901    1    3    3    0    0  0.63103213918E-01 -0.92056039301E-01  0.63980504214E-01  0.88935360510E+00  0.88000000000E+00 0.  1.
        -11    1    4    4    0    0 -0.47274123299E-01  0.41844457145E-01 -0.57859504488E-01  0.85637519278E-01  0.51100000000E-03 0. -1.
         11    1    4    4    0    0 -0.28858939456E-01  0.46803054085E-01 -0.70549610912E-02  0.55438234597E-01  0.51100000000E-03 0.  1.
</event>
<event>
 8    1  0.2107254E+004  0.1043930E+01  0.7957747E-01            NaN
         13   -1    0    0    0    0  0.00000000000E+00  0.00000000000E+00  0.74505805969E-08  0.10566000000E+00  0.10566000000E+00 0. -1.
     999900   -1    0    0    0    0 -0.00000000000E+00 -0.00000000000E+00 -0.74505805969E-08  0.93827000000E+00  0.93827000000E+00 0.  1.
     999902    2    1    2    0    0  0.47356650973E-02 -0.78101155573E-02  0.10364765179E-01  0.10301150521E+01  0.10300224113E+01 0.  0.
     999903    2    3    3    0    0  0.33000515753E-01 -0.11962705021E+00  0.52262209711E-01  0.14160094160E+00  0.43815783878E-01 0.  0.
         14    1    1    2    0    0 -0.47356650973E-02  0.78101155573E-02 -0.10364765179E-01  0.13814947924E-01  0.00000000000E+00 0.  1.
     999901    1    3    3    0    0 -0.28264850656E-01  0.11181693465E+00 -0.41897444532E-01  0.88851411048E+00  0.88000000000E+00 0.  1.
        -11    1    4    4    0    0 -0.50859064550E-03 -0.71332621665E-01  0.18041437543E-01  0.73582308795E-01  0.51100000000E-03 0. -1.
         11    1    4    4    0    0  0.33509106398E-01 -0.48294428542E-01  0.34220772168E-01  0.68018632804E-01  0.51100000000E-03 0.  1.
</event>
<event>
 8    1  0.2107254E+004  0.1043930E+01  0.7957747E-01            NaN
         13   -1    0    0    0    0  0.00000000000E+00  0.00000000000E+00  0.74505805969E-08  0.10566000000E+00  0.10566000000E+00 0. -1.
     999900   -1    0    0    0    0 -0.00000000000E+00 -0.00000000000E+00 -0.74505805969E-08  0.93827000000E+00  0.93827000000E+00 0. -1.
     999902    2    1    2    0    0  0.72174849533E-02 -0.10060322836E-01  0.69226329276E-02  0.10297446191E+01  0.10296469082E+01 0.  0.
     999903    2    3    3    0    0 -0.12566380152E+00  0.19744756034E-01  0.27951369875E-01  0.13902132492E+00  0.48625130341E-01 0.  0.
         14    1    1    2    0    0 -0.72174849533E-02  0.10060322836E-01 -0.69226329276E-02  0.14185380900E-01  0.00000000000E+00 0.  1.
     999901    1    3    3    0    0  0.13288128647E+00 -0.29805078871E-01 -0.21028736947E-01  0.89072329418E+00  0.88000000000E+00 0. -1.
        -11    1    4    4    0    0 -0.18810507129E-01 -0.77717248042E-02 -0.95424056535E-02  0.22484517152E-01  0.51100000000E-03 0. -1.
         11    1    4    4    0    0 -0.10685329439E+00  0.27516480838E-01  0.37493775528E-01  0.11653680777E+00  0.51100000000E-03 0.  1.
</event>
<event>
 8    1  0.2107254E+004  0.1043930E+01  0.7957747E-01            NaN
         13   -1    0    0    0    0  0.00000000000E+00  0.00000000000E+00  0.74505805969E-08  0.10566000000E+00  0.10566000000E+00 0.  1.
     999900   -1    0    0    0    0 -0.00000000000E+00 -0.00000000000E+00 -0.74505805969E-08  0.93827000000E+00  0.93827000000E+00 0. -1.
     999902    2    1    2    0    0  0.81967290869E-02 -0.52493265361E-02 -0.94165921458E-02  0.10303869573E+01  0.10302979510E+01 0.  0.
     999903    2    3    3    0    0 -0.11114097346E+00  0.33625639196E-01 -0.63542811720E-01  0.13983521945E+00  0.45091019999E-01 0.  0.
         14    1    1    2    0    0 -0.81967290869E-02  0.52493265361E-02  0.94165921458E-02  0.13543042658E-01  0.00000000000E+00 0.  1.
     999901    1    3    3    0    0  0.11933770255E+00 -0.38874965732E-01  0.54126219575E-01  0.89055173789E+00  0.88000000000E+00 0. -1.
        -11    1    4    4    0    0 -0.12521259061E-01  0.15930105751E-01 -0.25700541549E-01  0.32731164883E-01  0.51100000000E-03 0. -1.
         11    1    4    4    0    0 -0.98619714402E-01  0.17695533445E-01 -0.37842270172E-01  0.10710405457E+00  0.51100000000E-03 0.  1.
</event>
<event>
 8    1  0.2107254E+004  0.1043930E+01  0.7957747E-01            NaN
         13   -1    0    0    0    0  0.00000000000E+00  0.00000000000E+00  0.74505805969E-08  0.10566000000E+00  0.10566000000E+00 0. -1.
     999900   -1    0    0    0    0 -0.00000000000E+00 -0.00000000000E+00 -0.74505805969E-08  0.93827000000E+00  0.93827000000E+00 0.  1.
     999902    2    1    2    0    0 -0.12588440958E-01 -0.35268752875E-02 -0.99992898434E-02  0.10274711576E+01  0.10273393238E+01 0.  0.
     999903    2    3    3    0    0  0.40425775947E-01  0.10510637634E+00 -0.65670923785E-01  0.13746496586E+00  0.43615970691E-01 0.  0.
         14    1    1    2    0    0  0.12588440958E-01  0.35268752875E-02  0.99992898434E-02  0.16458842378E-01  0.00000000000E+00 0. -1.
     999901    1    3    3    0    0 -0.53014216905E-01 -0.10863325163E+00  0.55671633941E-01  0.89000619176E+00  0.88000000000E+00 0. -1.
        -11    1    4    4    0    0 -0.64861003927E-02  0.36665844560E-02 -0.10340518558E-01  0.12755421786E-01  0.51100000000E-03 0. -1.
         11    1    4    4    0    0  0.46911876340E-01  0.10143979188E+00 -0.55330405226E-01  0.12470954407E+00  0.51100000000E-03 0.  1.
</event>
<event>
 8    1  0.2107254E+004  0.1043930E+01  0.7957747E-01            NaN
         13   -1    0    0    0    0  0.00000000000E+00  0.00000000000E+00  0.74505805969E-08  0.10566000000E+00  0.10566000000E+00 0. -1.
     999900   -1    0    0    0    0 -0.00000000000E+00 -0.00000000000E+00 -0.74505805969E-08  0.93827000000E+00  0.93827000000E+00 0. -1.
     999902    2    1    2    0    0 -0.12662828935E-01  0.55337787167E-02  0.12096496798E-02  0.10300579707E+01  0.10299645576E+01 0.  0.
     999903    2    3    3    0    0 -0.40384989938E-01 -0.41147580910E-01  0.12001074990E+00  0.14041682457E+00  0.44612035397E-01 0.  0.
         14    1    1    2    0    0  0.12662828935E-01 -0.55337787167E-02 -0.12096496798E-02  0.13872029263E-01  0.00000000000E+00 0.  1.
     999901    1    3    3    0    0  0.27722161004E-01  0.46681359627E-01 -0.11880110022E+00  0.88964114617E+00  0.88000000000E+00 0. -1.
        -11    1    4    4    0    0 -0.25059574521E-01  0.33752999559E-02  0.50168825213E-01  0.56183156455E-01  0.51100000000E-03 0.  1.
         11    1    4    4    0    0 -0.15325415418E-01 -0.44522880866E-01  0.69841924688E-01  0.84233668111E-01  0.51100000000E-03 0. -1.
</event>
<event>
 8    1  0.2107254E+004  0.1043930E+01  0.7957747E-01            NaN
         13   -1    0    0    0    0  0.00000000000E+00  0.00000000000E+00  0.74505805969E-08  0.10566000000E+00  0.10566000000E+00 0.  1.
     999900   -1    0    0    0    0 -0.00000000000E+00 -0.00000000000E+00 -0.74505805969E-08  0.93827000000E+00  0.93827000000E+00 0.  1.
     999902    2    1    2    0    0 -0.23293710962E-02 -0.85200437116E-02  0.92042916118E-02  0.10311731940E+01  0.10310942828E+01 0.  0.
     999903    2    3    3    0    0  0.12225606828E-01  0.13113299098E+00 -0.13400263417E-01  0.13975534398E+00  0.44795784667E-01 0.  0.
         14    1    1    2    0    0  0.23293710962E-02  0.85200437116E-02 -0.92042916118E-02  0.12756805973E-01  0.00000000000E+00 0. -1.
     999901    1    3    3    0    0 -0.14554977924E-01 -0.13965303469E+00  0.22604555029E-01  0.89141785005E+00  0.88000000000E+00 0.  1.
        -11    1    4    4    0    0  0.27846799995E-02  0.64306932642E-02 -0.12905382837E-01  0.14694158217E-01  0.51100000000E-03 0.  1.
         11    1    4    4    0    0  0.94409268286E-02  0.12470229772E+00 -0.49488058023E-03  0.12506118576E+00  0.51100000000E-03 0. -1.
</event>
<event>
 8    1  0.2107254E+004  0.1043930E+01  0.7957747E-01            NaN
         13   -1    0    0    0    0  0.00000000000E+00  0.00000000000E+00  0.74505805969E-08  0.10566000000E+00  0.10566000000E+00 0. -1.
     999900   -1    0    0    0    0 -0.00000000000E+00 -0.00000000000E+00 -0.74505805969E-08  0.93827000000E+00  0.93827000000E+00 0. -1.
     999902    2    1    2    0    0  0.31132460396E-02 -0.13485798552E-01  0.64373160229E-03  0.10300745515E+01  0.10299813630E+01 0.  0.
     999903    2    3    3    0    0 -0.18712492432E-01 -0.11808947405E-01  0.13122605153E+00  0.14016954701E+00  0.44018367737E-01 0.  0.
         14    1    1    2    0    0 -0.31132460396E-02  0.13485798552E-01 -0.64373160229E-03  0.13855448527E-01  0.00000000000E+00 0. -1.
     999901    1    3    3    0    0  0.21825738472E-01 -0.16768511476E-02 -0.13058231992E+00  0.88990500446E+00  0.88000000000E+00 0. -1.
        -11    1    4    4    0    0 -0.21219785801E-01 -0.21947622828E-01  0.52349294052E-01  0.60602699329E-01  0.51100000000E-03 0.  1.
         11    1    4    4    0    0  0.25072933681E-02  0.10138675423E-01  0.78876757475E-01  0.79566847682E-01  0.51100000000E-03 0. -1.
</event>
<event>
 8    1  0.2107254E+004  0.1043930E+01  0.7957747E-01            NaN
         13   -1    0    0    0    0  0.00000000000E+00  0.00000000000E+00  0.74505805969E-08  0.10566000000E+00  0.10566000000E+00 0.  1.
     999900   -1    0    0    0    0 -0.00000000000E+00 -0.00000000000E+00 -0.74505805969E-08  0.93827000000E+00  0.93827000000E+00 0.  1.
     999902    2    1    2    0    0 -0.44371036737E-02  0.88934363526E-02 -0.75144110918E-02  0.10314701656E+01  0.10313949074E+01 0.  0.
     999903    2    3    3    0    0 -0.25701741674E-01 -0.12888229246E+00  0.17213901630E-01  0.14015326027E+00  0.45556482735E-01 0.  0.
         14    1    1    2    0    0  0.44371036737E-02 -0.88934363526E-02  0.75144110918E-02  0.12459834398E-01  0.00000000000E+00 0. -1.
     999901    1    3    3    0    0  0.21264638001E-01  0.13777572882E+00 -0.24728312721E-01  0.89131690533E+00  0.88000000000E+00 0.  1.
        -11    1    4    4    0    0 -0.17054696788E-01 -0.21227282114E-01 -0.95904864247E-02  0.28873841784E-01  0.51100000000E-03 0. -1.
         11    1    4    4    0    0 -0.86470448858E-02 -0.10765501035E+00  0.26804388054E-01  0.11127941849E+00  0.51100000000E-03 0.  1.
</event>
<event>
 8    1  0.2107254E+004  0.1043930E+01  0.7957747E-01            NaN
         13   -1    0    0    0    0  0.00000000000E+00  0.00000000000E+00  0.74505805969E-08  0.10566000000E+00  0.10566000000E+00 0.  1.
     999900   -1    0    0    0    0 -0.00000000000E+00 -0.00000000000E+00 -0.74505805969E-08  0.93827000000E+00  0.93827000000E+00 0. -1.
     999902    2    1    2    0    0  0.12744523634E-01  0.26551300838E-02 -0.28239347469E-02  0.10306090689E+01  0.10305229768E+01 0.  0.
     999903    2    3    3    0    0 -0.79000890130E-01 -0.22037931496E-01 -0.10388830361E+00  0.13974377329E+00  0.44818874139E-01 0.  0.
         14    1    1    2    0    0 -0.12744523634E-01 -0.26551300838E-02  0.28239347469E-02  0.13320931119E-01  0.00000000000E+00 0. -1.
     999901    1    3    3    0    0  0.91745413764E-01  0.24693061580E-01  0.10106436887E+00  0.89086529559E+00  0.88000000000E+00 0.  1.
        -11    1    4    4    0    0 -0.81409207459E-01 -0.17129249371E-01 -0.80661753830E-01  0.11587687386E+00  0.51100000000E-03 0.  1.
         11    1    4    4    0    0  0.24083173289E-02 -0.49086821245E-02 -0.23226549784E-01  0.23866899431E-01  0.51100000000E-03 0. -1.
</event>
<event>
 8    1  0.2107254E+004  0.1043930E+01  0.7957747E-01            NaN
         13   -1    0    0    0    0  0.00000000000E+00  0.00000000000E+00  0.74505805969E-08  0.10566000000E+00  0.10566000000E+00 0.  1.
     999900   -1    0    0    0    0 -0.00000000000E+00 -0.00000000000E+00 -0.74505805969E-08  0.93827000000E+00  0.93827000000E+00 0.  1.
     999902    2    1    2    0    0  0.92035565561E-02  0.96807363735E-02  0.54968788657E-02  0.10294857005E+01  0.10293843645E+01 0.  0.
     999903    2    3    3    0    0 -0.45676136035E-01  0.12479746419E+00 -0.15647817687E-02  0.14026496936E+00  0.44845251875E-01 0.  0.
         14    1    1    2    0    0 -0.92035565561E-02 -0.96807363735E-02 -0.54968788657E-02  0.14444299473E-01  0.00000000000E+00 0. -1.
     999901    1    3    3    0    0  0.54879692591E-01 -0.11511672782E+00  0.70616606344E-02  0.88922073117E+00  0.88000000000E+00 0.  1.
        -11    1    4    4    0    0 -0.39736584868E-01  0.76030783017E-01 -0.19474438108E-01  0.87972671914E-01  0.51100000000E-03 0.  1.
         11    1    4    4    0    0 -0.59395511667E-02  0.48766681177E-01  0.17909656340E-01  0.52292297447E-01  0.51100000000E-03 0. -1.
</event>
<event>
 8    1  0.2107254E+004  0.1043930E+01  0.7957747E-01            NaN
         13   -1    0    0    0    0  0.00000000000E+00  0.00000000000E+00  0.74505805969E-08  0.10566000000E+00  0.10566000000E+00 0.  1.
     999900   -1    0    0    0    0 -0.00000000000E+00 -0.00000000000E+00 -0.74505805969E-08  0.93827000000E+00  0.93827000000E+00 0. -1.
     999902    2    1    2    0    0  0.10191551340E-01  0.89795010001E-02  0.21801131541E-02  0.10301731090E+01  0.10300812504E+01 0.  0.
     999903    2    3    3    0    0 -0.10118760435E+00  0.80973742547E-01 -0.25971020970E-01  0.13979062180E+00  0.45510941072E-01 0.  0.
         14    1    1    2    0    0 -0.10191551340E-01 -0.89795010001E-02 -0.21801131541E-02  0.13756891011E-01  0.00000000000E+00 0.  1.
     999901    1    3    3    0    0  0.11137915569E+00 -0.71994241547E-01  0.28151134124E-01  0.89038248719E+00  0.88000000000E+00 0. -1.
        -11    1    4    4    0    0 -0.61422215359E-01  0.59418815592E-01 -0.37164116659E-01  0.93191828364E-01  0.51100000000E-03 0. -1.
         11    1    4    4    0    0 -0.39765388991E-01  0.21554926956E-01  0.11193095689E-01  0.46598793437E-01  0.51100000000E-03 0.  1.
</event>
<event>
 8    1  0.2107254E+004  0.1043930E+01  0.7957747E-01            NaN
         13   -1    0    0    0    0  0.00000000000E+00  0.00000000000E+00  0.74505805969E-08  0.10566000000E+00  0.10566000000E+00 0. -1.
     999900   -1    0    0    0    0 -0.00000000000E+00 -0.00000000000E+00 -0.74505805969E-08  0.93827000000E+00  0.93827000000E+00 0.  1.
     999902    2    1    2    0    0 -0.14605925786E-01  0.31237513099E-02  0.63630101671E-02  0.10276948902E+01  0.10275666444E+01 0.  0.
     999903    2    3    3    0    0 -0.91201076102E-01 -0.95767147150E-01  0.46046541412E-02  0.13884770503E+00  0.42053532517E-01 0.  0.
         14    1    1    2    0    0  0.14605925786E-01 -0.31237513099E-02 -0.63630101671E-02  0.16235109753E-01  0.00000000000E+00 0. -1.
     999901    1    3    3    0    0  0.76595150317E-01  0.98890898460E-01  0.17583560259E-02  0.88884718522E+00  0.88000000000E+00 0.  1.
        -11    1    4    4    0    0 -0.75179678765E-01 -0.64854752902E-01  0.19134901979E-01  0.10111641147E+00  0.51100000000E-03 0. -1.
         11    1    4    4    0    0 -0.16021397337E-01 -0.30912394249E-01 -0.14530247838E-01  0.37731293564E-01  0.51100000000E-03 0.  1.
</event>
<event>
 8    1  0.2107254E+004  0.1043930E+01  0.7957747E-01            NaN
         13   -1    0    0    0    0  0.00000000000E+00  0.00000000000E+00  0.74505805969E-08  0.10566000000E+00  0.10566000000E+00 0. -1.
     999900   -1    0    0    0    0 -0.00000000000E+00 -0.00000000000E+00 -0.74505805969E-08  0.93827000000E+00  0.93827000000E+00 0.  1.
     999902    2    1    2    0    0  0.88313188440E-02 -0.11929188645E-02 -0.10078108194E-01  0.10304769887E+01  0.10303891696E+01 0.  0.
     999903    2    3    3    0    0  0.56835566182E-01 -0.11154909658E+00  0.45412184136E-01  0.14055448295E+00  0.44942337256E-01 0.  0.
         14    1    1    2    0    0 -0.88313188440E-02  0.11929188645E-02  0.10078108194E-01  0.13453011288E-01  0.00000000000E+00 0. -1.
     999901    1    3    3    0    0 -0.48004247338E-01  0.11035617771E+00 -0.55490292330E-01  0.88992250576E+00  0.88000000000E+00 0.  1.
        -11    1    4    4    0    0  0.33016593437E-01 -0.26520363646E-01  0.26311013144E-02  0.42433582752E-01  0.51100000000E-03 0.  1.
         11    1    4    4    0    0  0.23818972745E-01 -0.85028732933E-01  0.42781082821E-01  0.98120900196E-01  0.51100000000E-03 0. -1.
</event>
<event>
 8    1  0.2107254E+004  0.1043930E+01  0.7957747E-01            NaN
         13   -1    0    0    0    0  0.00000000000E+00  0.00000000000E+00  0.74505805969E-08  0.10566000000E+00  0.10566000000E+00 0.  1.
     999900   -1    0    0    0    0 -0.00000000000E+00 -0.00000000000E+00 -0.74505805969E-08  0.93827000000E+00  0.93827000000E+00 0. -1.
     999902    2    1    2    0    0  0.41479724112E-02 -0.11679904976E-01 -0.72073387853E-02  0.10295922321E+01  0.10294923957E+01 0.  0.
     999903    2    3    3    0    0  0.39491109962E-02  0.11932616889E+00 -0.53662609760E-01  0.13868217878E+00  0.45812017706E-01 0.  0.
         14    1    1    2    0    0 -0.41479724112E-02  0.11679904976E-01  0.72073387853E-02  0.14337767879E-01  0.00000000000E+00 0.  1.
     999901    1    3    3    0    0  0.19886141499E-03 -0.13100607387E+00  0.46455270974E-01  0.89091005334E+00  0.88000000000E+00 0.  1.
        -11    1    4    4    0    0  0.23369809995E-01  0.77889791740E-01 -0.26840442325E-01  0.85636663537E-01  0.51100000000E-03 0.  1.
         11    1    4    4    0    0 -0.19420698998E-01  0.41436377150E-01 -0.26822167435E-01  0.53045515247E-01  0.51100000000E-03 0. -1.
</event>
<event>
 8    1  0.2107254E+004  0.1043930E+01  0.7957747E-01            NaN
         13   -1    0    0    0    0  0.00000000000E+00  0.00000000000E+00  0.74505805969E-08  0.10566000000E+00  0.10566000000E+00 0.  1.
     999900   -1    0    0    0    0 -0.00000000000E+00 -0.00000000000E+00 -0.74505805969E-08  0.93827000000E+00  0.93827000000E+00 0.  1.
     999902    2    1    2    0    0  0.48116540071E-02 -0.84639406035E-02 -0.79121076264E-02  0.10313844131E+01  0.10313081090E+01 0.  0.
     999903    2    3    3    0    0  0.40291201023E-01 -0.34609195851E-01  0.12212646174E+00  0.14073723142E+00  0.45507343705E-01 0.  0.
         14    1    1    2    0    0 -0.48116540071E-02  0.84639406035E-02  0.79121076264E-02  0.12545586950E-01  0.00000000000E+00 0.  1.
     999901    1    3    3    0    0 -0.35479547016E-01  0.26145255247E-01 -0.13003856937E+00  0.89064718163E+00  0.88000000000E+00 0.  1.
        -11    1    4    4    0    0  0.13793495971E-01 -0.40415895963E-01  0.78386974068E-01  0.89266365458E-01  0.51100000000E-03 0.  1.
         11    1    4    4    0    0  0.26497705053E-01  0.58067001121E-02  0.43739487677E-01  0.51470865958E-01  0.51100000000E-03 0. -1.
</event>
<event>
 8    1  0.2107254E+004  0.1043930E+01  0.7957747E-01            NaN
         13   -1    0    0    0    0  0.00000000000E+00  0.00000000000E+00  0.74505805969E-08  0.10566000000E+00  0.10566000000E+00 0. -1.
     999900   -1    0    0    0    0 -0.00000000000E+00 -0.00000000000E+00 -0.74505805969E-08  0.93827000000E+00  0.93827000000E+00 0.  1.
     999902    2    1    2    0    0  0.17538736466E-01  0.66307616780E-04 -0.55254229689E-02  0.10255413630E+01  0.10253764895E+01 0.  0.
     999903    2    3    3    0    0 -0.77493180773E-01  0.52481820254E-01  0.86051340393E-01  0.13415774472E+00  0.42824441177E-01 0.  0.
         14    1    1    2    0    0 -0.17538736466E-01 -0.66307616780E-04  0.55254229689E-02  0.18388637049E-01  0.00000000000E+00 0.  1.
     999901    1    3    3    0    0  0.95031917239E-01 -0.52415512637E-01 -0.91576763361E-01  0.89138361823E+00  0.88000000000E+00 0.  1.
        -11    1    4    4    0    0 -0.10082892311E-02  0.17220666391E-01  0.23926466860E-01  0.29500931096E-01  0.51100000000E-03 0. -1.
         11    1    4    4    0    0 -0.76484891542E-01  0.35261153863E-01  0.62124873532E-01  0.10465681363E+00  0.51100000000E-03 0.  1.
</event>
<event>
 8    1  0.2107254E+004  0.1043930E+01  0.7957747E-01            NaN
         13   -1    0    0    0    0  0.00000000000E+00  0.00000000000E+00  0.74505805969E-08  0.10566000000E+00  0.10566000000E+00 0.  1.
     999900   -1    0    0    0    0 -0.00000000000E+00 -0.00000000000E+00 -0.74505805969E-08  0.93827000000E+00  0.93827000000E+00 0.  1.
     999902    2    1    2    0    0  0.10324770716E-01  0.26435685618E-02  0.74252789676E-02  0.10309406154E+01  0.10308587820E+01 0.  0.
     999903    2    3    3    0    0  0.95431804675E-01  0.54388738250E-01  0.78639664048E-01  0.14246312075E+00  0.45234719200E-01 0.  0.
         14    1    1    2    0    0 -0.10324770716E-01 -0.26435685618E-02 -0.74252789676E-02  0.12989384621E-01  0.00000000000E+00 0. -1.
     999901    1    3    3    0    0 -0.85107033959E-01 -0.51745169689E-01 -0.71214385080E-01  0.88847749463E+00  0.88000000000E+00 0.  1.
        -11    1    4    4    0    0  0.74100133073E-01  0.48810485361E-01  0.81176316201E-01  0.12026283148E+00  0.51100000000E-03 0.  1.
         11    1    4    4    0    0  0.21331671602E-01  0.55782528890E-02 -0.25366521535E-02  0.22200289273E-01  0.51100000000E-03 0. -1.
</event>
<event>
 8    1  0.2107254E+004  0.1043930E+01  0.7957747E-01            NaN
         13   -1    0    0    0    0  0.00000000000E+00  0.00000000000E+00  0.74505805969E-08  0.10566000000E+00  0.10566000000E+00 0. -1.
     999900   -1    0    0    0    0 -0.00000000000E+00 -0.00000000000E+00 -0.74505805969E-08  0.93827000000E+00  0.93827000000E+00 0. -1.
     999902    2    1    2    0    0 -0.65301184380E-02 -0.10515950729E-01 -0.11502203056E-02  0.10314981589E+01  0.10314232405E+01 0.  0.
     999903    2    3    3    0    0  0.26329643208E-01  0.12019416391E+00  0.48725086437E-01  0.13984102511E+00  0.45182862954E-01 0.  0.
         14    1    1    2    0    0  0.65301184380E-02  0.10515950729E-01  0.11502203056E-02  0.12431841107E-01  0.00000000000E+00 0.  1.
     999901    1    3    3    0    0 -0.32859761646E-01 -0.13071011464E+00 -0.49875306742E-01  0.89165713378E+00  0.88000000000E+00 0.  1.
        -11    1    4    4    0    0  0.26134537517E-01  0.30893844715E-01  0.24517704265E-01  0.47316198452E-01  0.51100000000E-03 0.  1.
         11    1    4    4    0    0  0.19510569121E-03  0.89300319199E-01  0.24207382172E-01  0.92524826657E-01  0.51100000000E-03 0. -1.
</event>
<event>
 8    1  0.2107254E+004  0.1043930E+01  0.7957747E-01            NaN
         13   -1    0    0    0    0  0.00000000000E+00  0.00000000000E+00  0.74505805969E-08  0.10566000000E+00  0.10566000000E+00 0.  1.
     999900   -1    0    0    0    0 -0.00000000000E+00 -0.00000000000E+00 -0.74505805969E-08  0.93827000000E+00  0.93827000000E+00 0.  1.
     999902    2    1    2    0    0  0.20392654589E-02  0.13309716885E-01 -0.77511393592E-03  0.10304426738E+01  0.10303544031E+01 0.  0.
     999903    2    3    3    0    0 -0.10513129462E+00 -0.71001889680E-01 -0.35393797998E-01  0.13926792703E+00  0.45265628408E-01 0.  0.
         14    1    1    2    0    0 -0.20392654589E-02 -0.13309716885E-01  0.77511393592E-03  0.13487326228E-01  0.00000000000E+00 0. -1.
     999901    1    3    3    0    0  0.10717056008E+00  0.84311606564E-01  0.34618684062E-01  0.89117474674E+00  0.88000000000E+00 0. -1.
        -11    1    4    4    0    0 -0.46343409889E-02  0.61108155393E-02 -0.44032049012E-02  0.88582457269E-02  0.51100000000E-03 0. -1.
         11    1    4    4    0    0 -0.10049695363E+00 -0.77112705219E-01 -0.30990593097E-01  0.13040968130E+00  0.51100000000E-03 0.  1.
</event>
<event>
 8    1  0.2107254E+004  0.1043930E+01  0.7957747E-01            NaN
         13   -1    0    0    0    0  0.00000000000E+00  0.00000000000E+00  0.74505805969E-08  0.10566000000E+00  0.10566000000E+00 0. -1.
     999900   -1    0    0    0    0 -0.00000000000E+00 -0.00000000000E+00 -0.74505805969E-08  0.93827000000E+00  0.93827000000E+00 0. -1.
     999902    2    1    2    0    0  0.11504419779E-01 -0.27780871134E-02  0.85254125730E-02  0.10293439758E+01  0.10292406271E+01 0.  0.
     999903    2    3    3    0    0  0.85982604597E-01  0.77050981499E-01  0.66485298816E-01  0.14070511292E+00  0.45252312639E-01 0.  0.
         14    1    1    2    0    0 -0.11504419779E-01  0.27780871134E-02 -0.85254125730E-02  0.14586024202E-01  0.00000000000E+00 0. -1.
     999901    1    3    3    0    0 -0.74478184818E-01 -0.79829068612E-01 -0.57959886243E-01  0.88863886288E+00  0.88000000000E+00 0. -1.
        -11    1    4    4    0    0  0.90358949746E-01  0.67467857025E-01  0.64687999692E-01  0.13000557663E+00  0.51100000000E-03 0.  1.
         11    1    4    4    0    0 -0.43763451490E-02  0.95831244736E-02  0.17972991240E-02  0.10699536283E-01  0.51100000000E-03 0. -1.
</event>
<event>
 8    1  0.2107254E+004  0.1043930E+01  0.7957747E-01            NaN
         13   -1    0    0    0    0  0.00000000000E+00  0.00000000000E+00  0.74505805969E-08  0.10566000000E+00  0.10566000000E+00 0. -1.
     999900   -1    0    0    0    0 -0.00000000000E+00 -0.00000000000E+00 -0.74505805969E-08  0.93827000000E+00  0.93827000000E+00 0.  1.
     999902    2    1    2    0    0 -0.69417129425E-02  0.10107205212E-01 -0.87354359500E-02  0.10288750733E+01  0.10287649225E+01 0.  0.
     999903    2    3    3    0    0  0.70039064604E-01  0.91301182754E-01  0.63378249425E-01  0.13886446344E+00  0.45001779557E-01 0.  0.
         14    1    1    2    0    0  0.69417129425E-02 -0.10107205212E-01  0.87354359500E-02  0.15054926669E-01  0.00000000000E+00 0.  1.
     999901    1    3    3    0    0 -0.76980777546E-01 -0.81193977542E-01 -0.72113685375E-01  0.89001060989E+00  0.88000000000E+00 0.  1.
        -11    1    4    4    0    0  0.71684080023E-02  0.55017436305E-02  0.23641517659E-01  0.25314773049E-01  0.51100000000E-03 0. -1.
         11    1    4    4    0    0  0.62870656602E-01  0.85799439124E-01  0.39736731765E-01  0.11354969039E+00  0.51100000000E-03 0.  1.
</event>
<event>
 8    1  0.2107254E+004  0.1043930E+01  0.7957747E-01            NaN
         13   -1    0    0    0    0  0.00000000000E+00  0.00000000000E+00  0.74505805969E-08  0.10566000000E+00  0.10566000000E+00 0.  1.
     999900   -1    0    0    0    0 -0.00000000000E+00 -0.00000000000E+00 -0.74505805969E-08  0.93827000000E+00  0.93827000000E+00 0.  1.
     999902    2    1    2    0    0  0.63551445105E-02  0.99481364603E-02 -0.72618002231E-02  0.10300704537E+01  0.10299772097E+01 0.  0.
     999903    2    3    3    0    0  0.63994116548E-01 -0.11039107197E+00 -0.33613124352E-01  0.13962215737E+00  0.45640650487E-01 0.  0.
         14    1    1    2    0    0 -0.63551445105E-02 -0.99481364603E-02  0.72618002231E-02  0.13859546286E-01  0.00000000000E+00 0.  1.
     999901    1    3    3    0    0 -0.57638972037E-01  0.12033920843E+00  0.26351324129E-01  0.89044829635E+00  0.88000000000E+00 0.  1.
        -11    1    4    4    0    0  0.61026600445E-01 -0.62003096364E-01 -0.23097877960E-01  0.90013349053E-01  0.51100000000E-03 0. -1.
         11    1    4    4    0    0  0.29675161027E-02 -0.48387975602E-01 -0.10515246392E-01  0.49608808314E-01  0.51100000000E-03 0.  1.
</event>
<event>
 8    1  0.2107254E+004  0.1043930E+01  0.7957747E-01            NaN
         13   -1    0    0    0    0  0.00000000000E+00  0.00000000000E+00  0.74505805969E-08  0.10566000000E+00  0.10566000000E+00 0.  1.
     999900   -1    0    0    0    0 -0.00000000000E+00 -0.00000000000E+00 -0.74505805969E-08  0.93827000000E+00  0.93827000000E+00 0. -1.
     999902    2    1    2    0    0  0.42080652076E-02  0.14435208232E-01 -0.80184275495E-02  0.10268895120E+01  0.10267481150E+01 0.  0.
     999903    2    3    3    0    0  0.11675239845E+00 -0.34387237501E-01 -0.47853187659E-01  0.13748709116E+00  0.42416600775E-01 0.  0.
         14    1    1    2    0    0 -0.42080652076E-02 -0.14435208232E-01  0.80184275495E-02  0.17040487958E-01  0.00000000000E+00 0. -1.
     999901    1    3    3    0    0 -0.11254433324E+00  0.48822445733E-01  0.39834760109E-01  0.88940242088E+00  0.88000000000E+00 0.  1.
        -11    1    4    4    0    0  0.10730177953E+00 -0.26591099749E-01 -0.54808804396E-01  0.12338972662E+00  0.51100000000E-03 0. -1.
         11    1    4    4    0    0  0.94506189203E-02 -0.77961377517E-02  0.69556167370E-02  0.14097364541E-01  0.51100000000E-03 0.  1.
</event>
<event>
 8    1  0.2107254E+004  0.1043930E+01  0.7957747E-01            NaN
         13   -1    0    0    0    0  0.00000000000E+00  0.00000000000E+00  0.74505805969E-08  0.10566000000E+00  0.10566000000E+00 0.  1.
     999900   -1    0    0    0    0 -0.00000000000E+00 -0.00000000000E+00 -0.74505805969E-08  0.93827000000E+00  0.93827000000E+00 0. -1.
     999902    2    1    2    0    0  0.99858952622E-02  0.50332543364E-02  0.79860642466E-02  0.10301884944E+01  0.10300968426E+01 0.  0.
     999903    2    3    3    0    0  0.33453830808E-02  0.12014367773E+00  0.58625143612E-01  0.14122346567E+00  0.45403357878E-01 0.  0.
         14    1    1    2    0    0 -0.99858952622E-02 -0.50332543364E-02 -0.79860642466E-02  0.13741505578E-01  0.00000000000E+00 0. -1.
     999901    1    3    3    0    0  0.66405121814E-02 -0.11511042340E+00 -0.50639079365E-01  0.88896502875E+00  0.88000000000E+00 0. -1.
        -11    1    4    4    0    0 -0.64185702313E-02  0.72887458958E-01  0.57318579505E-01  0.92948697649E-01  0.51100000000E-03 0. -1.
         11    1    4    4    0    0  0.97639533121E-02  0.47256218775E-01  0.13065641063E-02  0.48274768026E-01  0.51100000000E-03 0.  1.
</event>
<event>
 8    1  0.2107254E+004  0.1043930E+01  0.7957747E-01            NaN
         13   -1    0    0    0    0  0.00000000000E+00  0.00000000000E+00  0.74505805969E-08  0.10566000000E+00  0.10566000000E+00 0. -1.
     999900   -1    0    0    0    0 -0.00000000000E+00 -0.00000000000E+00 -0.74505805969E-08  0.93827000000E+00  0.93827000000E+00 0. -1.
     999902    2    1    2    0    0 -0.34599974924E-02 -0.67363315654E-02 -0.11785730175E-01  0.10299209607E+01  0.10298256805E+01 0.  0.
     999903    2    3    3    0    0 -0.20861739275E-02  0.12708181557E+00 -0.35253654787E-01  0.13949413758E+00  0.45405443224E-01 0.  0.
         14    1    1    2    0    0  0.34599974924E-02  0.67363315654E-02  0.11785730175E-01  0.14009039274E-01  0.00000000000E+00 0.  1.
     999901    1    3    3    0    0 -0.13738235649E-02 -0.13381814713E+00  0.23467924611E-01  0.89042682315E+00  0.88000000000E+00 0.  1.
        -11    1    4    4    0    0 -0.15644963523E-01  0.81701986622E-01 -0.50972824656E-02  0.83344003451E-01  0.51100000000E-03 0. -1.
         11    1    4    4    0    0  0.13558789595E-01  0.45379828943E-01 -0.30156372321E-01  0.56150134129E-01  0.51100000000E-03 0.  1.
</event>
<event>
 8    1  0.2107254E+004  0.1043930E+01  0.7957747E-01            NaN
         13   -1    0    0    0    0  0.00000000000E+00  0.00000000000E+00  0.74505805969E-08  0.10566000000E+00  0.10566000000E+00 0. -1.
     999900   -1    0    0    0    0 -0.00000000000E+00 -0.00000000000E+00 -0.74505805969E-08  0.93827000000E+00  0.93827000000E+00 0. -1.
     999902    2    1    2    0    0 -0.15436847717E-01  0.11785241643E-01 -0.36006086832E-02  0.10241777199E+01  0.10239872310E+01 0.  0.
     999903    2    3    3    0    0  0.36833703167E-01 -0.11563932479E+00  0.30231165398E-01  0.13282267300E+00  0.44707538222E-01 0.  0.
         14    1    1    2    0    0  0.15436847717E-01 -0.11785241643E-01  0.36006086832E-02  0.19752280145E-01  0.00000000000E+00 0.  1.
     999901    1    3    3    0    0 -0.52270550884E-01  0.12742456643E+00 -0.33831774081E-01  0.89135504686E+00  0.88000000000E+00 0.  1.
        -11    1    4    4    0    0  0.16527564548E-01 -0.23934375322E-01  0.25649024337E-01  0.38783350582E-01  0.51100000000E-03 0.  1.
         11    1    4    4    0    0  0.20306138618E-01 -0.91704949469E-01  0.45821410617E-02  0.94039322416E-01  0.51100000000E-03 0. -1.
</event>
<event>
 8    1  0.2107254E+004  0.1043930E+01  0.7957747E-01            NaN
         13   -1    0    0    0    0  0.00000000000E+00  0.00000000000E+00  0.74505805969E-08  0.10566000000E+00  0.10566000000E+00 0. -1.
     999900   -1    0    0    0    0 -0.00000000000E+00 -0.00000000000E+00 -0.74505805969E-08  0.93827000000E+00  0.93827000000E+00 0. -1.
     999902    2    1    2    0    0 -0.34813982013E-02 -0.13695440269E-01  0.17980204616E-02  0.10296850677E+01  0.10295865290E+01 0.  0.
     999903    2    3    3    0    0  0.86422120924E-01 -0.70735287855E-01  0.72248660517E-01  0.14047222502E+00  0.45169825361E-01 0.  0.
         14    1    1    2    0    0  0.34813982013E-02  0.13695440269E-01 -0.17980204616E-02  0.14244932263E-01  0.00000000000E+00 0.  1.
     999901    1    3    3    0    0 -0.89903519126E-01  0.57039847586E-01 -0.70450640056E-01  0.88921284271E+00  0.88000000000E+00 0. -1.
        -11    1    4    4    0    0  0.79292253629E-01 -0.76843483112E-01  0.62294730203E-01  0.12677963919E+00  0.51100000000E-03 0.  1.
         11    1    4    4    0    0  0.71298672949E-02  0.61081952565E-02  0.99539303144E-02  0.13692585827E-01  0.51100000000E-03 0. -1.
</event>
<event>
 8    1  0.2107254E+004  0.1043930E+01  0.7957747E-01            NaN
         13   -1    0    0    0    0  0.00000000000E+00  0.00000000000E+00  0.74505805969E-08  0.10566000000E+00  0.10566000000E+00 0.  1.
     999900   -1    0    0    0    0 -0.00000000000E+00 -0.00000000000E+00 -0.74505805969E-08  0.93827000000E+00  0.93827000000E+00 0. -1.
     999902    2    1    2    0    0 -0.95235398633E-02 -0.31946996075E-03 -0.19791572901E-01  0.10219639755E+01  0.10217278801E+01 0.  0.
     999903    2    3    3    0    0  0.95553155275E-01  0.79415702969E-01  0.95842965748E-03  0.13189129746E+00  0.44239534324E-01 0.  0.
         14    1    1    2    0    0  0.95235398633E-02  0.31946996075E-03  0.19791572901E-01  0.21966024458E-01  0.00000000000E+00 0.  1.
     999901    1    3    3    0    0 -0.10507669514E+00 -0.79735172929E-01 -0.20750002558E-01  0.89007267808E+00  0.88000000000E+00 0.  1.
        -11    1    4    4    0    0 -0.87900030818E-03  0.95599035444E-02 -0.79594933754E-02  0.12481147908E-01  0.51100000000E-03 0. -1.
         11    1    4    4    0    0  0.96432155583E-01  0.69855799424E-01  0.89179230328E-02  0.11941014955E+00  0.51100000000E-03 0.  1.
</event>
<event>
 8    1  0.2107254E+004  0.1043930E+01  0.7957747E-01            NaN
         13   -1    0    0    0    0  0.00000000000E+00  0.00000000000E+00  0.74505805969E-08  0.10566000000E+00  0.10566000000E+00 0.  1.
     999900   -1    0    0    0    0 -0.00000000000E+00 -0.00000000000E+00 -0.74505805969E-08  0.93827000000E+00  0.93827000000E+00 0.  1.
     999902    2    1    2    0    0  0.73662146733E-02  0.78267644114E-02  0.84872951718E-02  0.10302349812E+01  0.10301439526E+01 0.  0.
     999903    2    3    3    0    0  0.71600379566E-01  0.11122626664E+00  0.28379875923E-01  0.14163315827E+00  0.41912258591E-01 0.  0.
         14    1    1    2    0    0 -0.73662146733E-02 -0.78267644114E-02 -0.84872951718E-02  0.13695018770E-01  0.00000000000E+00 0.  1.
     999901    1    3    3    0    0 -0.64234164892E-01 -0.10339950223E+00 -0.19892580751E-01  0.88860182296E+00  0.88000000000E+00 0.  1.
        -11    1    4    4    0    0  0.50985279939E-01  0.10568965877E+00  0.25543222801E-01  0.12009379706E+00  0.51100000000E-03 0.  1.
         11    1    4    4    0    0  0.20615099627E-01  0.55366078707E-02  0.28366531223E-02  0.21539361209E-01  0.51100000000E-03 0. -1.
</event>
<event>
 8    1  0.2107254E+004  0.1043930E+01  0.7957747E-01            NaN
         13   -1    0    0    0    0  0.00000000000E+00  0.00000000000E+00  0.74505805969E-08  0.10566000000E+00  0.10566000000E+00 0. -1.
     999900   -1    0    0    0    0 -0.00000000000E+00 -0.00000000000E+00 -0.74505805969E-08  0.93827000000E+00  0.93827000000E+00 0.  1.
     999902    2    1    2    0    0  0.15956153790E-01  0.87788325790E-02 -0.79149814959E-04  0.10257181080E+01  0.10255564168E+01 0.  0.
     999903    2    3    3    0    0  0.70223876745E-01  0.29243825193E-01 -0.10536925746E+00  0.13754593526E+00  0.45051189904E-01 0.  0.
         14    1    1    2    0    0 -0.15956153790E-01 -0.87788325790E-02  0.79149814959E-04  0.18211891991E-01  0.00000000000E+00 0.  1.
     999901    1    3    3    0    0 -0.54267722955E-01 -0.20464992614E-01  0.10529010765E+00  0.88817217275E+00  0.88000000000E+00 0. -1.
        -11    1    4    4    0    0  0.97977397096E-03  0.27511806610E-02 -0.35651167635E-01  0.35774234119E-01  0.51100000000E-03 0.  1.
         11    1    4    4    0    0  0.69244102774E-01  0.26492644532E-01 -0.69718089826E-01  0.10177170114E+00  0.51100000000E-03 0. -1.
</event>
<event>
 8    1  0.2107254E+004  0.1043930E+01  0.7957747E-01            NaN
         13   -1    0    0    0    0  0.00000000000E+00  0.00000000000E+00  0.74505805969E-08  0.10566000000E+00  0.10566000000E+00 0. -1.
     999900   -1    0    0    0    0 -0.00000000000E+00 -0.00000000000E+00 -0.74505805969E-08  0.93827000000E+00  0.93827000000E+00 0. -1.
     999902    2    1    2    0    0 -0.15882935375E-02  0.13863275032E-01  0.15287115492E-02  0.10298925490E+01  0.10297968792E+01 0.  0.
     999903    2    3    3    0    0  0.30596075722E-01  0.71841712623E-01 -0.10785723939E+00  0.14064420401E+00  0.45279758277E-01 0.  0.
         14    1    1    2    0    0  0.15882935375E-02 -0.13863275032E-01 -0.15287115492E-02  0.14037450978E-01  0.00000000000E+00 0.  1.
     999901    1    3    3    0    0 -0.32184369259E-01 -0.57978437591E-01  0.10938595094E+00  0.88924834502E+00  0.88000000000E+00 0. -1.
        -11    1    4    4    0    0  0.95552072147E-02  0.59208329307E-01 -0.51053312159E-01  0.78763126192E-01  0.51100000000E-03 0. -1.
         11    1    4    4    0    0  0.21040868507E-01  0.12633383316E-01 -0.56803927231E-01  0.61881077814E-01  0.51100000000E-03 0.  1.
</event>
<event>
 8    1  0.2107254E+004  0.1043930E+01  0.7957747E-01            NaN
         13   -1    0    0    0    0  0.00000000000E+00  0.00000000000E+00  0.74505805969E-08  0.10566000000E+00  0.10566000000E+00 0. -1.
     999900   -1    0    0    0    0 -0.00000000000E+00 -0.00000000000E+00 -0.74505805969E-08  0.93827000000E+00  0.93827000000E+00 0.  1.
     999902    2    1    2    0    0  0.31785945139E-02 -0.56298779538E-02  0.12160434532E-01  0.10301577396E+01  0.10300656743E+01 0.  0.
     999903    2    3    3    0    0  0.12979567705E+00  0.21382572629E-01 -0.15682060175E-01  0.14024945072E+00  0.46041820367E-01 0.  0.
         14    1    1    2    0    0 -0.31785945139E-02  0.56298779538E-02 -0.12160434532E-01  0.13772260412E-01  0.00000000000E+00 0.  1.
     999901    1    3    3    0    0 -0.12661708254E+00 -0.27012450583E-01  0.27842494707E-01  0.88990828886E+00  0.88000000000E+00 0. -1.
        -11    1    4    4    0    0  0.27312435173E-01 -0.69728876304E-02 -0.18769868077E-01  0.33869740856E-01  0.51100000000E-03 0.  1.
         11    1    4    4    0    0  0.10248324188E+00  0.28355460260E-01  0.30878079016E-02  0.10637970987E+00  0.51100000000E-03 0. -1.
</event>
<event>
 8    1  0.2107254E+004  0.1043930E+01  0.7957747E-01            NaN
         13   -1    0    0    0    0  0.00000000000E+00  0.00000000000E+00  0.74505805969E-08  0.10566000000E+00  0.10566000000E+00 0. -1.
     999900   -1    0    0    0    0 -0.00000000000E+00 -0.00000000000E+00 -0.74505805969E-08  0.93827000000E+00  0.93827000000E+00 0.  1.
     999902    2    1    2    0    0 -0.17003714611E-02  0.50861332584E-02 -0.11522347902E-01  0.10312207704E+01  0.10311424503E+01 0.  0.
     999903    2    3    3    0    0  0.12021296889E+00 -0.47063862916E-01 -0.34692189811E-01  0.14098522508E+00  0.44800899282E-01 0.  0.
         14    1    1    2    0    0  0.17003714611E-02 -0.50861332584E-02  0.11522347902E-01  0.12709229551E-01  0.00000000000E+00 0. -1.
     999901    1    3    3    0    0 -0.12191334035E+00  0.52149996174E-01  0.23169841910E-01  0.89023554536E+00  0.88000000000E+00 0.  1.
        -11    1    4    4    0    0  0.62984787478E-01 -0.47174216235E-01 -0.12891285655E-01  0.79742940113E-01  0.51100000000E-03 0.  1.
         11    1    4    4    0    0  0.57228181411E-01  0.11035331923E-03 -0.21800904156E-01  0.61242284971E-01  0.51100000000E-03 0. -1.
</event>
<event>
 7    1  0.2107254E+004  0.1043930E+01  0.7957747E-01            NaN
         13   -1    0    0    0    0  0.00000000000E+00  0.00000000000E+00  0.74505805969E-08  0.10566000000E+00  0.10566000000E+00 0. -1.
     999900   -1    0    0    0    0 -0.00000000000E+00 -0.00000000000E+00 -0.74505805969E-08  0.93827000000E+00  0.93827000000E+00 0. -1.
     999903    2    1    2    0    0  0.17013702262E-01 -0.19189232191E-01  0.49405839939E-01  0.70762165834E-01  0.43688149385E-01 0.  0.
         14    1    1    2    0    0  0.12230146089E-01 -0.32298552690E-01  0.74883115673E-01  0.82463652552E-01  0.00000000000E+00 0. -1.
     999901    1    1    2    0    0 -0.29243848351E-01  0.51487784882E-01 -0.12428895561E+00  0.89070418161E+00  0.88000000000E+00 0. -1.
        -11    1    3    3    0    0 -0.14100081459E-01 -0.25362231366E-03  0.16042175287E-01  0.21365606248E-01  0.51100000000E-03 0. -1.
         11    1    3    3    0    0  0.31113783721E-01 -0.18935609878E-01  0.33363664652E-01  0.49396559586E-01  0.51100000000E-03 0.  1.
</event>
<event>
 8    1  0.2107254E+004  0.1043930E+01  0.7957747E-01            NaN
         13   -1    0    0    0    0  0.00000000000E+00  0.00000000000E+00  0.74505805969E-08  0.10566000000E+00  0.10566000000E+00 0. -1.
     999900   -1    0    0    0    0 -0.00000000000E+00 -0.00000000000E+00 -0.74505805969E-08  0.93827000000E+00  0.93827000000E+00 0. -1.
     999902    2    1    2    0    0 -0.60338088628E-02 -0.23733272963E-02 -0.12196989279E-01  0.10301167426E+01  0.10300241246E+01 0.  0.
     999903    2    3    3    0    0 -0.20090218098E-01 -0.94877276841E-01 -0.92698099230E-01  0.14150265764E+00  0.44997222085E-01 0.  0.
         14    1    1    2    0    0  0.60338088628E-02  0.23733272963E-02  0.12196989279E-01  0.13813257376E-01  0.00000000000E+00 0. -1.
     999901    1    3    3    0    0  0.14056409235E-01  0.92503949545E-01  0.80501109951E-01  0.88861408498E+00  0.88000000000E+00 0. -1.
        -11    1    4    4    0    0 -0.43141928938E-03 -0.63427634227E-01 -0.33737473229E-01  0.71845174696E-01  0.51100000000E-03 0. -1.
         11    1    4    4    0    0 -0.19658798808E-01 -0.31449642614E-01 -0.58960626002E-01  0.69657482948E-01  0.51100000000E-03 0.  1.
</event>
<event>
 8    1  0.2107254E+004  0.1043930E+01  0.7957747E-01            NaN
         13   -1    0    0    0    0  0.00000000000E+00  0.00000000000E+00  0.74505805969E-08  0.10566000000E+00  0.10566000000E+00 0.  1.
     999900   -1    0    0    0    0 -0.00000000000E+00 -0.00000000000E+00 -0.74505805969E-08  0.93827000000E+00  0.93827000000E+00 0.  1.
     999902    2    1    2    0    0  0.11607283932E-01  0.19618737588E-02 -0.79668775727E-02  0.10297156014E+01  0.10296174875E+01 0.  0.
     999903    2    3    3    0    0 -0.10184155949E-01 -0.13167982766E+00 -0.53728022095E-02  0.13935516853E+00  0.44132776338E-01 0.  0.
         14    1    1    2    0    0 -0.11607283932E-01 -0.19618737588E-02  0.79668775727E-02  0.14214398587E-01  0.00000000000E+00 0.  1.
     999901    1    3    3    0    0  0.21791439882E-01  0.13364170142E+00 -0.25940753631E-02  0.89036043288E+00  0.88000000000E+00 0.  1.
        -11    1    4    4    0    0  0.14025857409E-01 -0.87234796864E-01 -0.76733690227E-02  0.88689211143E-01  0.51100000000E-03 0. -1.
         11    1    4    4    0    0 -0.24210013359E-01 -0.44445030799E-01  0.23005668131E-02  0.50665957390E-01  0.51100000000E-03 0.  1.
</event>
<event>
 8    1  0.2107254E+004  0.1043930E+01  0.7957747E-01            NaN
         13   -1    0    0    0    0  0.00000000000E+00  0.00000000000E+00  0.74505805969E-08  0.10566000000E+00  0.10566000000E+00 0.  1.
     999900   -1    0    0    0    0 -0.00000000000E+00 -0.00000000000E+00 -0.74505805969E-08  0.93827000000E+00  0.93827000000E+00 0.  1.
     999902    2    1    2    0    0  0.16229320177E-01 -0.38332586804E-03  0.30989017236E-03  0.10276931960E+01  0.10275649232E+01 0.  0.
     999903    2    3    3    0    0  0.23847235820E-01 -0.11485495988E+00  0.57871540193E-01  0.13838159078E+00  0.45166326365E-01 0.  0.
         14    1    1    2    0    0 -0.16229320177E-01  0.38332586804E-03 -0.30989017236E-03  0.16236803997E-01  0.00000000000E+00 0.  1.
     999901    1    3    3    0    0 -0.76179156436E-02  0.11447163401E+00 -0.57561650021E-01  0.88931160522E+00  0.88000000000E+00 0. -1.
        -11    1    4    4    0    0  0.11484208784E-01 -0.18585513538E-01 -0.54102891804E-02  0.22513123170E-01  0.51100000000E-03 0.  1.
         11    1    4    4    0    0  0.12363027037E-01 -0.96269446341E-01  0.63281829374E-01  0.11586846761E+00  0.51100000000E-03 0. -1.
</event>
<event>
 8    1  0.2107254E+004  0.1043930E+01  0.7957747E-01            NaN
         13   -1    0    0    0    0  0.00000000000E+00  0.00000000000E+00  0.74505805969E-08  0.10566000000E+00  0.10566000000E+00 0. -1.
     999900   -1    0    0    0    0 -0.00000000000E+00 -0.00000000000E+00 -0.74505805969E-08  0.93827000000E+00  0.93827000000E+00 0. -1.
     999902    2    1    2    0    0  0.49024145707E-03  0.51695420224E-02 -0.12077793427E-01  0.10307832287E+01  0.10306993873E+01 0.  0.
     999903    2    3    3    0    0  0.35554825636E-01 -0.12045344747E+00 -0.44753820198E-01  0.14057067921E+00  0.44542483069E-01 0.  0.
         14    1    1    2    0    0 -0.49024145707E-03 -0.51695420224E-02  0.12077793427E-01  0.13146771295E-01  0.00000000000E+00 0. -1.
     999901    1    3    3    0    0 -0.35064584179E-01  0.12562298949E+00  0.32676026771E-01  0.89021254949E+00  0.88000000000E+00 0. -1.
        -11    1    4    4    0    0  0.11308549944E-01 -0.92025848295E-01 -0.17588425020E-01  0.94372950955E-01  0.51100000000E-03 0. -1.
         11    1    4    4    0    0  0.24246275692E-01 -0.28427599175E-01 -0.27165395179E-01  0.46197728255E-01  0.51100000000E-03 0.  1.
</event>
<event>
 8    1  0.2107254E+004  0.1043930E+01  0.7957747E-01            NaN
         13   -1    0    0    0    0  0.00000000000E+00  0.00000000000E+00  0.74505805969E-08  0.10566000000E+00  0.10566000000E+00 0.  1.
     999900   -1    0    0    0    0 -0.00000000000E+00 -0.00000000000E+00 -0.74505805969E-08  0.93827000000E+00  0.93827000000E+00 0.  1.
     999902    2    1    2    0    0  0.11034606565E-01 -0.20405443129E-03 -0.28078024515E-02  0.10325419389E+01  0.10324791367E+01 0.  0.
     999903    2    3    3    0    0  0.10420496279E+00  0.85576579322E-01 -0.20987096823E-01  0.14328971422E+00  0.43697354267E-01 0.  0.
         14    1    1    2    0    0 -0.11034606565E-01  0.20405443129E-03  0.28078024515E-02  0.11388061066E-01  0.00000000000E+00 0. -1.
     999901    1    3    3    0    0 -0.93170356230E-01 -0.85780633753E-01  0.18179294371E-01  0.88925222471E+00  0.88000000000E+00 0. -1.
        -11    1    4    4    0    0  0.10495665820E+00  0.71179465093E-01 -0.22452416449E-01  0.12878970641E+00  0.51100000000E-03 0.  1.
         11    1    4    4    0    0 -0.75169540315E-03  0.14397114228E-01  0.14653196265E-02  0.14500007817E-01  0.51100000000E-03 0. -1.
</event>
<event>
 8    1  0.2332273E+004  0.1043930E+01  0.7957747E-01            NaN
         13   -1    0    0    0    0  0.00000000000E+00  0.00000000000E+00  0.74505805969E-08  0.10566000000E+00  0.10566000000E+00 0. -1.
     999900   -1    0    0    0    0 -0.00000000000E+00 -0.00000000000E+00 -0.74505805969E-08  0.93827000000E+00  0.93827000000E+00 0.  1.
     999902    2    1    2    0    0  0.14977292685E-02  0.12817499134E-01  0.38872895269E-02  0.10304525189E+01  0.10303643779E+01 0.  0.
     999903    2    3    3    0    0 -0.11201623144E+00 -0.67600271876E-01  0.17917488560E-01  0.13941420117E+00  0.44697317909E-01 0.  0.
         14    1    1    2    0    0 -0.14977292685E-02 -0.12817499134E-01 -0.38872895269E-02  0.13477481103E-01  0.00000000000E+00 0.  1.
     999901    1    3    3    0    0  0.11351396071E+00  0.80417771010E-01 -0.14030199033E-01  0.89103831773E+00  0.88000000000E+00 0.  1.
        -11    1    4    4    0    0 -0.34197452924E-01 -0.42618049340E-01  0.18465872792E-01  0.57680269547E-01  0.51100000000E-03 0.  1.
         11    1    4    4    0    0 -0.77818778516E-01 -0.24982222536E-01 -0.54838423167E-03  0.81733931624E-01  0.51100000000E-03 0. -1.
</event>
<event>
 8    1  0.2107254E+004  0.1043930E+01  0.7957747E-01            NaN
         13   -1    0    0    0    0  0.00000000000E+00  0.00000000000E+00  0.74505805969E-08  0.10566000000E+00  0.10566000000E+00 0.  1.
     999900   -1    0    0    0    0 -0.00000000000E+00 -0.00000000000E+00 -0.74505805969E-08  0.93827000000E+00  0.93827000000E+00 0. -1.
     999902    2    1    2    0    0 -0.11126606924E-01 -0.47739493675E-02  0.39489056666E-02  0.10311947799E+01  0.10311161372E+01 0.  0.
     999903    2    3    3    0    0  0.11296340938E+00  0.64627540607E-01  0.25300756071E-01  0.13952735288E+00  0.43477615841E-01 0.  0.
         14    1    1    2    0    0  0.11126606924E-01  0.47739493675E-02 -0.39489056666E-02  0.12735220068E-01  0.00000000000E+00 0. -1.
     999901    1    3    3    0    0 -0.12409001630E+00 -0.69401489974E-01 -0.21351850404E-01  0.89166742706E+00  0.88000000000E+00 0. -1.
        -11    1    4    4    0    0  0.10514294232E-01  0.15219293052E-01 -0.92028112548E-02  0.20667126559E-01  0.51100000000E-03 0.  1.
         11    1    4    4    0    0  0.10244911515E+00  0.49408247555E-01  0.34503567326E-01  0.11886022632E+00  0.51100000000E-03 0. -1.
</event>
<event>
 8    1  0.2107254E+004  0.1043930E+01  0.7957747E-01            NaN
         13   -1    0    0    0    0  0.00000000000E+00  0.00000000000E+00  0.74505805969E-08  0.10566000000E+00  0.10566000000E+00 0.  1.
     999900   -1    0    0    0    0 -0.00000000000E+00 -0.00000000000E+00 -0.74505805969E-08  0.93827000000E+00  0.93827000000E+00 0. -1.
     999902    2    1    2    0    0  0.26096879667E-02  0.11849976510E-01 -0.59402746784E-02  0.10304200304E+01  0.10303314611E+01 0.  0.
     999903    2    3    3    0    0  0.20136385128E-01  0.11624132963E+00  0.63269437861E-01  0.14137856681E+00  0.45468193998E-01 0.  0.
         14    1    1    2    0    0 -0.26096879667E-02 -0.11849976510E-01  0.59402746784E-02  0.13509969571E-01  0.00000000000E+00 0.  1.
     999901    1    3    3    0    0 -0.17526697161E-01 -0.10439135312E+00 -0.69209712540E-01  0.88904146362E+00  0.88000000000E+00 0.  1.
        -11    1    4    4    0    0 -0.11906255416E-01  0.37033668450E-01  0.83014653826E-02  0.39779730585E-01  0.51100000000E-03 0. -1.
         11    1    4    4    0    0  0.32042640544E-01  0.79207661183E-01  0.54967972479E-01  0.10159883623E+00  0.51100000000E-03 0.  1.
</event>
<event>
 8    1  0.2107254E+004  0.1043930E+01  0.7957747E-01            NaN
         13   -1    0    0    0    0  0.00000000000E+00  0.00000000000E+00  0.74505805969E-08  0.10566000000E+00  0.10566000000E+00 0.  1.
     999900   -1    0    0    0    0 -0.00000000000E+00 -0.00000000000E+00 -0.74505805969E-08  0.93827000000E+00  0.93827000000E+00 0. -1.
     999902    2    1    2    0    0 -0.12291937722E-01  0.64607274548E-02 -0.31383141599E-02  0.10296933660E+01  0.10295949428E+01 0.  0.
     999903    2    3    3    0    0  0.65990989316E-01 -0.22308625424E-01  0.11273593125E+00  0.13818748655E+00  0.39165109523E-01 0.  0.
         14    1    1    2    0    0  0.12291937722E-01 -0.64607274548E-02  0.31383141599E-02  0.14236634011E-01  0.00000000000E+00 0.  1.
     999901    1    3    3    0    0 -0.78282927038E-01  0.28769352879E-01 -0.11587424541E+00  0.89150587944E+00  0.88000000000E+00 0. -1.
        -11    1    4    4    0    0  0.42166419451E-02  0.88654621859E-02  0.21835456085E-01  0.23946288909E-01  0.51100000000E-03 0.  1.
         11    1    4    4    0    0  0.61774347371E-01 -0.31174087610E-01  0.90900475165E-01  0.11424119764E+00  0.51100000000E-03 0. -1.
</event>
<event>
 8    1  0.2107254E+004  0.1043930E+01  0.7957747E-01            NaN
         13   -1    0    0    0    0  0.00000000000E+00  0.00000000000E+00  0.74505805969E-08  0.10566000000E+00  0.10566000000E+00 0.  1.
     999900   -1    0    0    0    0 -0.00000000000E+00 -0.00000000000E+00 -0.74505805969E-08  0.93827000000E+00  0.93827000000E+00 0. -1.
     999902    2    1    2    0    0 -0.87945229451E-03  0.12744225567E-02  0.13632415304E-01  0.10302099294E+01  0.10301185652E+01 0.  0.
     999903    2    3    3    0    0 -0.94575197326E-01 -0.72080019361E-01 -0.61778836015E-01  0.13900477707E+00  0.36955464114E-01 0.  0.
         14    1    1    2    0    0  0.87945229451E-03 -0.12744225567E-02 -0.13632415304E-01  0.13720070562E-01  0.00000000000E+00 0. -1.
     999901    1    3    3    0    0  0.93695745032E-01  0.73354441918E-01  0.75411251319E-01  0.89120515237E+00  0.88000000000E+00 0. -1.
        -11    1    4    4    0    0 -0.56340750334E-01 -0.64099444751E-01 -0.39551031945E-01  0.94061491666E-01  0.51100000000E-03 0. -1.
         11    1    4    4    0    0 -0.38234446992E-01 -0.79805746103E-02 -0.22227804071E-01  0.44943285402E-01  0.51100000000E-03 0.  1.
</event>
<event>
 8    1  0.2107254E+004  0.1043930E+01  0.7957747E-01            NaN
         13   -1    0    0    0    0  0.00000000000E+00  0.00000000000E+00  0.74505805969E-08  0.10566000000E+00  0.10566000000E+00 0.  1.
     999900   -1    0    0    0    0 -0.00000000000E+00 -0.00000000000E+00 -0.74505805969E-08  0.93827000000E+00  0.93827000000E+00 0. -1.
     999902    2    1    2    0    0 -0.11149523314E-01  0.58937731331E-02 -0.55266897375E-02  0.10301607324E+01  0.10300687073E+01 0.  0.
     999903    2    3    3    0    0  0.22810317248E-01 -0.12662701356E+00  0.27396307393E-01  0.13898232518E+00  0.44842144451E-01 0.  0.
         14    1    1    2    0    0  0.11149523314E-01 -0.58937731331E-02  0.55266897375E-02  0.13769267639E-01  0.00000000000E+00 0.  1.
     999901    1    3    3    0    0 -0.33959840561E-01  0.13252078669E+00 -0.32922997131E-01  0.89117840718E+00  0.88000000000E+00 0.  1.
        -11    1    4    4    0    0  0.52608985809E-02 -0.30397861282E-01  0.27249828928E-01  0.41164563911E-01  0.51100000000E-03 0.  1.
         11    1    4    4    0    0  0.17549418667E-01 -0.96229152278E-01  0.14647846551E-03  0.97817761273E-01  0.51100000000E-03 0. -1.
</event>
<event>
 8    1  0.2107254E+004  0.1043930E+01  0.7957747E-01            NaN
         13   -1    0    0    0    0  0.00000000000E+00  0.00000000000E+00  0.74505805969E-08  0.10566000000E+00  0.10566000000E+00 0. -1.
     999900   -1    0    0    0    0 -0.00000000000E+00 -0.00000000000E+00 -0.74505805969E-08  0.93827000000E+00  0.93827000000E+00 0. -1.
     999902    2    1    2    0    0  0.49345858003E-02 -0.54415749590E-02 -0.14309913274E-01  0.10278447741E+01  0.10277189037E+01 0.  0.
     999903    2    3    3    0    0  0.99219655241E-01 -0.16777192761E-01 -0.85046013893E-01  0.13991360192E+00  0.47084788855E-01 0.  0.
         14    1    1    2    0    0 -0.49345858003E-02  0.54415749590E-02  0.14309913274E-01  0.16085225922E-01  0.00000000000E+00 0. -1.
     999901    1    3    3    0    0 -0.94285069441E-01  0.11335617802E-01  0.70736100619E-01  0.88793117215E+00  0.88000000000E+00 0.  1.
        -11    1    4    4    0    0  0.11553488557E-01 -0.18380857833E-01 -0.78504992503E-02  0.23091784080E-01  0.51100000000E-03 0.  1.
         11    1    4    4    0    0  0.87666166685E-01  0.16036650719E-02 -0.77195514642E-01  0.11682181785E+00  0.51100000000E-03 0. -1.
</event>
<event>
 8    1  0.2107254E+004  0.1043930E+01  0.7957747E-01            NaN
         13   -1    0    0    0    0  0.00000000000E+00  0.00000000000E+00  0.74505805969E-08  0.10566000000E+00  0.10566000000E+00 0. -1.
     999900   -1    0    0    0    0 -0.00000000000E+00 -0.00000000000E+00 -0.74505805969E-08  0.93827000000E+00  0.93827000000E+00 0.  1.
     999902    2    1    2    0    0 -0.32487975357E-02  0.11155109005E-01 -0.76091669207E-02  0.10300414953E+01  0.10299478586E+01 0.  0.
     999903    2    3    3    0    0  0.61603886868E-02 -0.12667909742E+00  0.32057098141E-01  0.13838000467E+00  0.45120106804E-01 0.  0.
         14    1    1    2    0    0  0.32487975357E-02 -0.11155109005E-01  0.76091669207E-02  0.13888504728E-01  0.00000000000E+00 0.  1.
     999901    1    3    3    0    0 -0.94091862224E-02  0.13783420643E+00 -0.39666265062E-01  0.89166149061E+00  0.88000000000E+00 0. -1.
        -11    1    4    4    0    0  0.22022175147E-01 -0.73640159981E-01  0.57324619714E-02  0.77077698471E-01  0.51100000000E-03 0.  1.
         11    1    4    4    0    0 -0.15861786460E-01 -0.53038937439E-01  0.26324636170E-01  0.61302306195E-01  0.51100000000E-03 0. -1.
</event>
<event>
 8    1  0.2107254E+004  0.1043930E+01  0.7957747E-01            NaN
         13   -1    0    0    0    0  0.00000000000E+00  0.00000000000E+00  0.74505805969E-08  0.10566000000E+00  0.10566000000E+00 0. -1.
     999900   -1    0    0    0    0 -0.00000000000E+00 -0.00000000000E+00 -0.74505805969E-08  0.93827000000E+00  0.93827000000E+00 0.  1.
     999902    2    1    2    0    0  0.16721611077E-01  0.36905519243E-02 -0.38223523327E-02  0.10263845497E+01  0.10262345740E+01 0.  0.
     999903    2    3    3    0    0  0.79069607805E-01 -0.12926449248E-01 -0.10332407302E+00  0.13842960156E+00  0.45473009071E-01 0.  0.
         14    1    1    2    0    0 -0.16721611077E-01 -0.36905519243E-02  0.38223523327E-02  0.17545450346E-01  0.00000000000E+00 0. -1.
     999901    1    3    3    0    0 -0.62347996728E-01  0.16617001172E-01  0.99501720688E-01  0.88795494809E+00  0.88000000000E+00 0. -1.
        -11    1    4    4    0    0  0.61697368015E-01  0.74694178062E-02 -0.54161056057E-01  0.82438089112E-01  0.51100000000E-03 0.  1.
         11    1    4    4    0    0  0.17372239790E-01 -0.20395867054E-01 -0.49163016964E-01  0.55991512448E-01  0.51100000000E-03 0. -1.
</event>
<event>
 8    1  0.2107254E+004  0.1043930E+01  0.7957747E-01            NaN
         13   -1    0    0    0    0  0.00000000000E+00  0.00000000000E+00  0.74505805969E-08  0.10566000000E+00  0.10566000000E+00 0.  1.
     999900   -1    0    0    0    0 -0.00000000000E+00 -0.00000000000E+00 -0.74505805969E-08  0.93827000000E+00  0.93827000000E+00 0.  1.
     999902    2    1    2    0    0 -0.58517967886E-02 -0.91298404642E-02  0.88211414463E-02  0.10299510856E+01  0.10298562174E+01 0.  0.
     999903    2    3    3    0    0  0.74080064892E-01  0.57364486338E-01 -0.90633089528E-01  0.13826630826E+00  0.46094194590E-01 0.  0.
         14    1    1    2    0    0  0.58517967886E-02  0.91298404642E-02 -0.88211414463E-02  0.13978914442E-01  0.00000000000E+00 0.  1.
     999901    1    3    3    0    0 -0.79931861681E-01 -0.66494326802E-01  0.99454230974E-01  0.89168477730E+00  0.88000000000E+00 0. -1.
        -11    1    4    4    0    0  0.56520494251E-01  0.40505283003E-01 -0.90227897487E-01  0.11391478757E+00  0.51100000000E-03 0.  1.
         11    1    4    4    0    0  0.17559570641E-01  0.16859203335E-01 -0.40519204068E-03  0.24351520687E-01  0.51100000000E-03 0. -1.
</event>
<event>
 8    1  0.2107254E+004  0.1043930E+01  0.7957747E-01            NaN
         13   -1    0    0    0    0  0.00000000000E+00  0.00000000000E+00  0.74505805969E-08  0.10566000000E+00  0.10566000000E+00 0. -1.
     999900   -1    0    0    0    0 -0.00000000000E+00 -0.00000000000E+00 -0.74505805969E-08  0.93827000000E+00  0.93827000000E+00 0. -1.
     999902    2    1    2    0    0 -0.95400298225E-02 -0.46059174687E-02 -0.92141693876E-02  0.10298897877E+01  0.10297940800E+01 0.  0.
     999903    2    3    3    0    0 -0.25760386170E-01  0.10580472044E+00 -0.76301035018E-01  0.14030884337E+00  0.44793830154E-01 0.  0.
         14    1    1    2    0    0  0.95400298225E-02  0.46059174687E-02  0.92141693876E-02  0.14040212329E-01  0.00000000000E+00 0. -1.
     999901    1    3    3    0    0  0.16220356348E-01 -0.11041063791E+00  0.67086865630E-01  0.88958094430E+00  0.88000000000E+00 0.  1.
        -11    1    4    4    0    0 -0.21004019625E-01  0.65087427723E-01 -0.21151965769E-01  0.71590564077E-01  0.51100000000E-03 0.  1.
         11    1    4    4    0    0 -0.47563665457E-02  0.40717292718E-01 -0.55149069249E-01  0.68718279293E-01  0.51100000000E-03 0. -1.
</event>
<event>
 8    1  0.2107254E+004  0.1043930E+01  0.7957747E-01            NaN
         13   -1    0    0    0    0  0.00000000000E+00  0.00000000000E+00  0.74505805969E-08  0.10566000000E+00  0.10566000000E+00 0.  1.
     999900   -1    0    0    0    0 -0.00000000000E+00 -0.00000000000E+00 -0.74505805969E-08  0.93827000000E+00  0.93827000000E+00 0. -1.
     999902    2    1    2    0    0  0.96756432681E-02 -0.53739842103E-02 -0.84040149081E-02  0.10300330491E+01  0.10299392977E+01 0.  0.
     999903    2    3    3    0    0  0.80234094647E-02 -0.75333616352E-01 -0.11073540539E+00  0.14134368067E+00  0.44454214706E-01 0.  0.
         14    1    1    2    0    0 -0.96756432681E-02  0.53739842103E-02  0.84040149081E-02  0.13896950943E-01  0.00000000000E+00 0.  1.
     999901    1    3    3    0    0  0.16522338034E-02  0.69959632142E-01  0.10233139049E+00  0.88868936839E+00  0.88000000000E+00 0.  1.
        -11    1    4    4    0    0 -0.16189456630E-01 -0.50714355190E-01 -0.69832517098E-01  0.87811650101E-01  0.51100000000E-03 0. -1.
         11    1    4    4    0    0  0.24212866095E-01 -0.24619261163E-01 -0.40902888296E-01  0.53532030568E-01  0.51100000000E-03 0.  1.
</event>
<event>
 8    1  0.2107254E+004  0.1043930E+01  0.7957747E-01            NaN
         13   -1    0    0    0    0  0.00000000000E+00  0.00000000000E+00  0.74505805969E-08  0.10566000000E+00  0.10566000000E+00 0.  1.
     999900   -1    0    0    0    0 -0.00000000000E+00 -0.00000000000E+00 -0.74505805969E-08  0.93827000000E+00  0.93827000000E+00 0. -1.
     999902    2    1    2    0    0 -0.16047688534E-01 -0.24928998040E-02 -0.52849176391E-02  0.10268515571E+01  0.10267095242E+01 0.  0.
     999903    2    3    3    0    0 -0.68315610358E-01  0.11067207933E+00 -0.12914566066E-01  0.13803410697E+00  0.44399289502E-01 0.  0.
         14    1    1    2    0    0  0.16047688534E-01  0.24928998040E-02  0.52849176391E-02  0.17078442879E-01  0.00000000000E+00 0.  1.
     999901    1    3    3    0    0  0.52267921824E-01 -0.11316497914E+00  0.76296484271E-02  0.88881745015E+00  0.88000000000E+00 0.  1.
        -11    1    4    4    0    0 -0.93113760102E-02  0.25326153995E-01 -0.20658774439E-01  0.33987672496E-01  0.51100000000E-03 0.  1.
         11    1    4    4    0    0 -0.59004234348E-01  0.85345925338E-01  0.77442083726E-02  0.10404643448E+00  0.51100000000E-03 0. -1.
</event>
<event>
 8    1  0.2107254E+004  0.1043930E+01  0.7957747E-01            NaN
         13   -1    0    0    0    0  0.00000000000E+00  0.00000000000E+00  0.74505805969E-08  0.10566000000E+00  0.10566000000E+00 0. -1.
     999900   -1    0    0    0    0 -0.00000000000E+00 -0.00000000000E+00 -0.74505805969E-08  0.93827000000E+00  0.93827000000E+00 0. -1.
     999902    2    1    2    0    0  0.33450218396E-03 -0.11231256928E-01 -0.83843564576E-02  0.10299103546E+01  0.10298149290E+01 0.  0.
     999903    2    3    3    0    0  0.14312656269E-02 -0.12895857946E+00 -0.36656649442E-01  0.14161972203E+00  0.45607806142E-01 0.  0.
         14    1    1    2    0    0 -0.33450218396E-03  0.11231256928E-01  0.83843564576E-02  0.14019645399E-01  0.00000000000E+00 0. -1.
     999901    1    3    3    0    0 -0.10967634430E-02  0.11772732254E+00  0.28272292984E-01  0.88829063257E+00  0.88000000000E+00 0. -1.
        -11    1    4    4    0    0  0.21977124484E-01 -0.84575827205E-01 -0.29251819348E-01  0.92152018991E-01  0.51100000000E-03 0. -1.
         11    1    4    4    0    0 -0.20545858857E-01 -0.44382752260E-01 -0.74048300935E-02  0.49467703040E-01  0.51100000000E-03 0.  1.
</event>
<event>
 8    1  0.2107254E+004  0.1043930E+01  0.7957747E-01            NaN
         13   -1    0    0    0    0  0.00000000000E+00  0.00000000000E+00  0.74505805969E-08  0.10566000000E+00  0.10566000000E+00 0. -1.
     999900   -1    0    0    0    0 -0.00000000000E+00 -0.00000000000E+00 -0.74505805969E-08  0.93827000000E+00  0.93827000000E+00 0.  1.
     999902    2    1    2    0    0  0.12253323159E-01  0.67507000713E-02  0.14388153717E-01  0.10238617453E+01  0.10236650520E+01 0.  0.
     999903    2    3    3    0    0  0.10035873372E+00  0.80123861836E-01  0.10495357271E-01  0.13641521839E+00  0.44802350535E-01 0.  0.
         14    1    1    2    0    0 -0.12253323159E-01 -0.67507000713E-02 -0.14388153717E-01  0.20068254714E-01  0.00000000000E+00 0.  1.
     999901    1    3    3    0    0 -0.88105410566E-01 -0.73373161764E-01  0.38927964453E-02  0.88744652690E+00  0.88000000000E+00 0. -1.
        -11    1    4    4    0    0 -0.18326995612E-02  0.10683299287E-01  0.68020134547E-02  0.12807036323E-01  0.51100000000E-03 0.  1.
         11    1    4    4    0    0  0.10219143329E+00  0.69440562549E-01  0.36933438166E-02  0.12360818207E+00  0.51100000000E-03 0. -1.
</event>
<event>
 7    1  0.2107254E+004  0.1043930E+01  0.7957747E-01            NaN
         13   -1    0    0    0    0  0.00000000000E+00  0.00000000000E+00  0.74505805969E-08  0.10566000000E+00  0.10566000000E+00 0. -1.
     999900   -1    0    0    0    0 -0.00000000000E+00 -0.00000000000E+00 -0.74505805969E-08  0.93827000000E+00  0.93827000000E+00 0.  1.
     999903    2    1    2    0    0 -0.71731580148E-01  0.46806236662E-02 -0.72357058623E-01  0.11204320367E+00  0.46376801602E-01 0.  0.
         14    1    1    2    0    0 -0.34380691228E-01  0.16722493881E-01  0.21346948077E-01  0.43787737132E-01  0.00000000000E+00 0. -1.
     999901    1    1    2    0    0  0.10611227138E+00 -0.21403117547E-01  0.51010110546E-01  0.88809905920E+00  0.88000000000E+00 0. -1.
        -11    1    3    3    0    0 -0.28116835171E-01  0.11350793137E-02 -0.78832901400E-03  0.28155415264E-01  0.51100000000E-03 0.  1.
         11    1    3    3    0    0 -0.43614744977E-01  0.35455443525E-02 -0.71568729609E-01  0.83887788402E-01  0.51100000000E-03 0. -1.
</event>
<event>
 8    1  0.2107254E+004  0.1043930E+01  0.7957747E-01            NaN
         13   -1    0    0    0    0  0.00000000000E+00  0.00000000000E+00  0.74505805969E-08  0.10566000000E+00  0.10566000000E+00 0. -1.
     999900   -1    0    0    0    0 -0.00000000000E+00 -0.00000000000E+00 -0.74505805969E-08  0.93827000000E+00  0.93827000000E+00 0.  1.
     999902    2    1    2    0    0 -0.14130119985E-01 -0.30454805375E-02  0.23207064775E-02  0.10292902964E+01  0.10291861801E+01 0.  0.
     999903    2    3    3    0    0  0.38859412342E-01  0.79927020062E-02 -0.12474767149E+00  0.13851753937E+00  0.45290064668E-01 0.  0.
         14    1    1    2    0    0  0.14130119985E-01  0.30454805375E-02 -0.23207064775E-02  0.14639703585E-01  0.00000000000E+00 0.  1.
     999901    1    3    3    0    0 -0.52989532327E-01 -0.11038182544E-01  0.12706837797E+00  0.89077275704E+00  0.88000000000E+00 0. -1.
        -11    1    4    4    0    0  0.31263346883E-01 -0.76032796888E-02 -0.11316814401E+00  0.11765414000E+00  0.51100000000E-03 0.  1.
         11    1    4    4    0    0  0.75960654588E-02  0.15595981695E-01 -0.11579527486E-01  0.20863399370E-01  0.51100000000E-03 0. -1.
</event>
<event>
 8    1  0.2107254E+004  0.1043930E+01  0.7957747E-01            NaN
         13   -1    0    0    0    0  0.00000000000E+00  0.00000000000E+00  0.74505805969E-08  0.10566000000E+00  0.10566000000E+00 0.  1.
     999900   -1    0    0    0    0 -0.00000000000E+00 -0.00000000000E+00 -0.74505805969E-08  0.93827000000E+00  0.93827000000E+00 0.  1.
     999902    2    1    2    0    0  0.14832973832E-02  0.88365558301E-02  0.10471748530E-01  0.10301480405E+01  0.10300558446E+01 0.  0.
     999903    2    3    3    0    0  0.64483355978E-01 -0.95043878930E-01 -0.63550141446E-01  0.13872255720E+00  0.44876333147E-01 0.  0.
         14    1    1    2    0    0 -0.14832973832E-02 -0.88365558301E-02 -0.10471748530E-01  0.13781959489E-01  0.00000000000E+00 0. -1.
     999901    1    3    3    0    0 -0.63000058595E-01  0.10388043476E+00  0.74021889977E-01  0.89142548332E+00  0.88000000000E+00 0. -1.
        -11    1    4    4    0    0  0.24217087783E-01 -0.67239517092E-01 -0.52158797610E-01  0.88478366218E-01  0.51100000000E-03 0. -1.
         11    1    4    4    0    0  0.40266268196E-01 -0.27804361838E-01 -0.11391343837E-01  0.50244190978E-01  0.51100000000E-03 0.  1.
</event>
<event>
 8    1  0.2155694E+004  0.1043930E+01  0.7957747E-01            NaN
         13   -1    0    0    0    0  0.00000000000E+00  0.00000000000E+00  0.74505805969E-08  0.10566000000E+00  0.10566000000E+00 0. -1.
     999900   -1    0    0    0    0 -0.00000000000E+00 -0.00000000000E+00 -0.74505805969E-08  0.93827000000E+00  0.93827000000E+00 0. -1.
     999902    2    1    2    0    0 -0.22516030306E-02 -0.46158005422E-02 -0.13085974298E-01  0.10298723311E+01  0.10297763837E+01 0.  0.
     999903    2    3    3    0    0  0.10965422647E+00 -0.13836486470E-01 -0.74422520086E-01  0.14061977556E+00  0.44941206515E-01 0.  0.
         14    1    1    2    0    0  0.22516030306E-02  0.46158005422E-02  0.13085974298E-01  0.14057668874E-01  0.00000000000E+00 0. -1.
     999901    1    3    3    0    0 -0.11190582950E+00  0.92206859273E-02  0.61336545788E-01  0.88925255556E+00  0.88000000000E+00 0.  1.
        -11    1    4    4    0    0  0.60140286240E-01 -0.28996879391E-01 -0.49705702347E-01  0.83238158378E-01  0.51100000000E-03 0. -1.
         11    1    4    4    0    0  0.49513940230E-01  0.15160392921E-01 -0.24716817739E-01  0.57381617185E-01  0.51100000000E-03 0.  1.
</event>
<event>
 8    1  0.2107254E+004  0.1043930E+01  0.7957747E-01            NaN
         13   -1    0    0    0    0  0.00000000000E+00  0.00000000000E+00  0.74505805969E-08  0.10566000000E+00  0.10566000000E+00 0. -1.
     999900   -1    0    0    0    0 -0.00000000000E+00 -0.00000000000E+00 -0.74505805969E-08  0.93827000000E+00  0.93827000000E+00 0.  1.
     999902    2    1    2    0    0 -0.64340727977E-02  0.15008178742E-01 -0.28980434277E-03  0.10275982301E+01  0.10274684403E+01 0.  0.
     999903    2    3    3    0    0  0.38374969527E-01 -0.96487019412E-01  0.69910400058E-01  0.13666215035E+00  0.54833348431E-01 0.  0.
         14    1    1    2    0    0  0.64340727977E-02 -0.15008178742E-01  0.28980434277E-03  0.16331769912E-01  0.00000000000E+00 0.  1.
     999901    1    3    3    0    0 -0.44809042324E-01  0.11149519815E+00 -0.70200204401E-01  0.89093607974E+00  0.88000000000E+00 0.  1.
        -11    1    4    4    0    0 -0.67435532010E-02 -0.50374297039E-01  0.43683086729E-01  0.67018792135E-01  0.51100000000E-03 0.  1.
         11    1    4    4    0    0  0.45118522728E-01 -0.46112722372E-01  0.26227313329E-01  0.69643358213E-01  0.51100000000E-03 0. -1.
</event>
<event>
 8    1  0.2107254E+004  0.1043930E+01  0.7957747E-01            NaN
         13   -1    0    0    0    0  0.00000000000E+00  0.00000000000E+00  0.74505805969E-08  0.10566000000E+00  0.10566000000E+00 0. -1.
     999900   -1    0    0    0    0 -0.00000000000E+00 -0.00000000000E+00 -0.74505805969E-08  0.93827000000E+00  0.93827000000E+00 0. -1.
     999902    2    1    2    0    0 -0.14120308276E-01  0.57474586142E-02 -0.74043042298E-02  0.10269818406E+01  0.10268419843E+01 0.  0.
     999903    2    3    3    0    0  0.10682470559E-01  0.54648421759E-02 -0.13004388226E+00  0.13813105232E+00  0.44997740212E-01 0.  0.
         14    1    1    2    0    0  0.14120308276E-01 -0.57474586142E-02  0.74043042298E-02  0.16948159412E-01  0.00000000000E+00 0.  1.
     999901    1    3    3    0    0 -0.24802778835E-01  0.28261643835E-03  0.12263957803E+00  0.88885078827E+00  0.88000000000E+00 0.  1.
        -11    1    4    4    0    0 -0.15613119147E-01 -0.73998568050E-02 -0.49378166317E-01  0.52316267070E-01  0.51100000000E-03 0. -1.
         11    1    4    4    0    0  0.26295589706E-01  0.12864698981E-01 -0.80665715941E-01  0.85814785248E-01  0.51100000000E-03 0.  1.
</event>
<event>
 8    1  0.2107254E+004  0.1043930E+01  0.7957747E-01            NaN
         13   -1    0    0    0    0  0.00000000000E+00  0.00000000000E+00  0.74505805969E-08  0.10566000000E+00  0.10566000000E+00 0. -1.
     999900   -1    0    0    0    0 -0.00000000000E+00 -0.00000000000E+00 -0.74505805969E-08  0.93827000000E+00  0.93827000000E+00 0.  1.
     999902    2    1    2    0    0 -0.99401069919E-02  0.30761154072E-02  0.85151677609E-02  0.10304846925E+01  0.10303969745E+01 0.  0.
     999903    2    3    3    0    0 -0.39207264466E-01  0.75445660940E-01  0.10429970318E+00  0.14185170024E+00  0.44880056091E-01 0.  0.
         14    1    1    2    0    0  0.99401069919E-02 -0.30761154072E-02 -0.85151677609E-02  0.13445307546E-01  0.00000000000E+00 0.  1.
     999901    1    3    3    0    0  0.29267157475E-01 -0.72369545533E-01 -0.95784535423E-01  0.88863299222E+00  0.88000000000E+00 0.  1.
        -11    1    4    4    0    0 -0.40496035810E-01  0.76140444760E-01  0.80412039465E-01  0.11791375431E+00  0.51100000000E-03 0. -1.
         11    1    4    4    0    0  0.12887713438E-02 -0.69478381954E-03  0.23887663719E-01  0.23937945925E-01  0.51100000000E-03 0.  1.
</event>
<event>
 8    1  0.2107254E+004  0.1043930E+01  0.7957747E-01            NaN
         13   -1    0    0    0    0  0.00000000000E+00  0.00000000000E+00  0.74505805969E-08  0.10566000000E+00  0.10566000000E+00 0.  1.
     999900   -1    0    0    0    0 -0.00000000000E+00 -0.00000000000E+00 -0.74505805969E-08  0.93827000000E+00  0.93827000000E+00 0. -1.
     999902    2    1    2    0    0  0.62482628591E-02  0.14584382925E-02  0.12379096004E-01  0.10299869068E+01  0.10298925275E+01 0.  0.
     999903    2    3    3    0    0  0.13033172476E+00 -0.25716752915E-01 -0.15604163315E-01  0.14042619533E+00  0.42758818547E-01 0.  0.
         14    1    1    2    0    0 -0.62482628591E-02 -0.14584382925E-02 -0.12379096004E-01  0.13943093232E-01  0.00000000000E+00 0. -1.
     999901    1    3    3    0    0 -0.12408346190E+00  0.27175191207E-01  0.27983259318E-01  0.88956071144E+00  0.88000000000E+00 0. -1.
        -11    1    4    4    0    0  0.83904098967E-01  0.37797170188E-02 -0.15553160101E-01  0.85418651326E-01  0.51100000000E-03 0. -1.
         11    1    4    4    0    0  0.46427625789E-01 -0.29496469933E-01 -0.51003213691E-04  0.55007544003E-01  0.51100000000E-03 0.  1.
</event>
<event>
 8    1  0.2107254E+004  0.1043930E+01  0.7957747E-01            NaN
         13   -1    0    0    0    0  0.00000000000E+00  0.00000000000E+00  0.74505805969E-08  0.10566000000E+00  0.10566000000E+00 0. -1.
     999900   -1    0    0    0    0 -0.00000000000E+00 -0.00000000000E+00 -0.74505805969E-08  0.93827000000E+00  0.93827000000E+00 0.  1.
     999902    2    1    2    0    0  0.65716738395E-02 -0.11419825776E-01 -0.47013802487E-02  0.10299406364E+01  0.10298456254E+01 0.  0.
     999903    2    3    3    0    0 -0.11156766971E+00 -0.22201345331E-01  0.66121688134E-01  0.13916061154E+00  0.45313943818E-01 0.  0.
         14    1    1    2    0    0 -0.65716738395E-02  0.11419825776E-01  0.47013802487E-02  0.13989363604E-01  0.00000000000E+00 0. -1.
     999901    1    3    3    0    0  0.11813934355E+00  0.10781519556E-01 -0.70823068383E-01  0.89078002485E+00  0.88000000000E+00 0.  1.
        -11    1    4    4    0    0 -0.16345383186E-01 -0.49895846761E-02  0.32493485839E-01  0.36717233689E-01  0.51100000000E-03 0.  1.
         11    1    4    4    0    0 -0.95222286526E-01 -0.17211760655E-01  0.33628202295E-01  0.10244337786E+00  0.51100000000E-03 0. -1.
</event>
<event>
 8    1  0.2107254E+004  0.1043930E+01  0.7957747E-01            NaN
         13   -1    0    0    0    0  0.00000000000E+00  0.00000000000E+00  0.74505805969E-08  0.10566000000E+00  0.10566000000E+00 0.  1.
     999900   -1    0    0    0    0 -0.00000000000E+00 -0.00000000000E+00 -0.74505805969E-08  0.93827000000E+00  0.93827000000E+00 0.  1.
     999902    2    1    2    0    0 -0.78593060180E-02  0.23957962587E-02 -0.83828757876E-02  0.10321919790E+01  0.10321252348E+01 0.  0.
     999903    2    3    3    0    0 -0.25658096957E-01  0.79082425369E-01  0.10517568309E+00  0.14140963614E+00  0.44971023314E-01 0.  0.
         14    1    1    2    0    0  0.78593060180E-02 -0.23957962587E-02  0.83828757876E-02  0.11738021012E-01  0.00000000000E+00 0. -1.
     999901    1    3    3    0    0  0.17798790939E-01 -0.76686629110E-01 -0.11355855887E+00  0.89078234285E+00  0.88000000000E+00 0.  1.
        -11    1    4    4    0    0 -0.16662235168E-01  0.66353476229E-01  0.51830781592E-01  0.85831841003E-01  0.51100000000E-03 0.  1.
         11    1    4    4    0    0 -0.89958617892E-02  0.12728949140E-01  0.53344901494E-01  0.55577795134E-01  0.51100000000E-03 0. -1.
</event>
<event>
 8    1  0.2107254E+004  0.1043930E+01  0.7957747E-01            NaN
         13   -1    0    0    0    0  0.00000000000E+00  0.00000000000E+00  0.74505805969E-08  0.10566000000E+00  0.10566000000E+00 0. -1.
     999900   -1    0    0    0    0 -0.00000000000E+00 -0.00000000000E+00 -0.74505805969E-08  0.93827000000E+00  0.93827000000E+00 0. -1.
     999902    2    1    2    0    0  0.75038529367E-02 -0.10812781551E-01  0.34565818980E-02  0.10303222077E+01  0.10302323425E+01 0.  0.
     999903    2    3    3    0    0 -0.19558739343E-01 -0.13197654958E-01 -0.13034348392E+00  0.13979397727E+00  0.44678964852E-01 0.  0.
         14    1    1    2    0    0 -0.75038529367E-02  0.10812781551E-01 -0.34565818980E-02  0.13607792333E-01  0.00000000000E+00 0. -1.
     999901    1    3    3    0    0  0.27062592280E-01  0.23848734073E-02  0.13380006581E+00  0.89052823040E+00  0.88000000000E+00 0.  1.
        -11    1    4    4    0    0 -0.22119263053E-01 -0.15839632079E-01 -0.34785730199E-01  0.44164056526E-01  0.51100000000E-03 0. -1.
         11    1    4    4    0    0  0.25605237092E-02  0.26419771211E-02 -0.95557753718E-01  0.95629920743E-01  0.51100000000E-03 0.  1.
</event>
<event>
 8    1  0.2107254E+004  0.1043930E+01  0.7957747E-01            NaN
         13   -1    0    0    0    0  0.00000000000E+00  0.00000000000E+00  0.74505805969E-08  0.10566000000E+00  0.10566000000E+00 0.  1.
     999900   -1    0    0    0    0 -0.00000000000E+00 -0.00000000000E+00 -0.74505805969E-08  0.93827000000E+00  0.93827000000E+00 0. -1.
     999902    2    1    2    0    0  0.37353669795E-02 -0.17130278681E-01 -0.56618571387E-02  0.10255056672E+01  0.10253401471E+01 0.  0.
     999903    2    3    3    0    0 -0.16968366695E-01 -0.11851761118E+00  0.50307187135E-01  0.13767653400E+00  0.45712857147E-01 0.  0.
         14    1    1    2    0    0 -0.37353669795E-02  0.17130278681E-01  0.56618571387E-02  0.18424332835E-01  0.00000000000E+00 0. -1.
     999901    1    3    3    0    0  0.20703733675E-01  0.10138733250E+00 -0.55969044274E-01  0.88782913316E+00  0.88000000000E+00 0. -1.
        -11    1    4    4    0    0 -0.25817194906E-01 -0.11192151206E+00  0.52695775086E-01  0.12637269581E+00  0.51100000000E-03 0.  1.
         11    1    4    4    0    0  0.88488282109E-02 -0.65960991207E-02 -0.23885879512E-02  0.11303838185E-01  0.51100000000E-03 0. -1.
</event>
<event>
 8    1  0.2107254E+004  0.1043930E+01  0.7957747E-01            NaN
         13   -1    0    0    0    0  0.00000000000E+00  0.00000000000E+00  0.74505805969E-08  0.10566000000E+00  0.10566000000E+00 0. -1.
     999900   -1    0    0    0    0 -0.00000000000E+00 -0.00000000000E+00 -0.74505805969E-08  0.93827000000E+00  0.93827000000E+00 0.  1.
     999902    2    1    2    0    0 -0.10044470620E-01  0.70155863057E-02  0.78924087177E-02  0.10293560521E+01  0.10292528757E+01 0.  0.
     999903    2    3    3    0    0 -0.10694546810E+00 -0.66395289216E-01 -0.40539751117E-01  0.13967935014E+00  0.44957556175E-01 0.  0.
         14    1    1    2    0    0  0.10044470620E-01 -0.70155863057E-02 -0.78924087177E-02  0.14573947874E-01  0.00000000000E+00 0. -1.
     999901    1    3    3    0    0  0.96900997478E-01  0.73410875522E-01  0.48432159835E-01  0.88967670199E+00  0.88000000000E+00 0. -1.
        -11    1    4    4    0    0 -0.83742893258E-01 -0.27267877482E-01 -0.29312582448E-01  0.92821861242E-01  0.51100000000E-03 0.  1.
         11    1    4    4    0    0 -0.23202574840E-01 -0.39127411734E-01 -0.11227168670E-01  0.46857488895E-01  0.51100000000E-03 0. -1.
</event>
<event>
 8    1  0.2107254E+004  0.1043930E+01  0.7957747E-01            NaN
         13   -1    0    0    0    0  0.00000000000E+00  0.00000000000E+00  0.74505805969E-08  0.10566000000E+00  0.10566000000E+00 0. -1.
     999900   -1    0    0    0    0 -0.00000000000E+00 -0.00000000000E+00 -0.74505805969E-08  0.93827000000E+00  0.93827000000E+00 0.  1.
     999902    2    1    2    0    0 -0.10970868273E-02  0.55281011649E-02  0.13602151141E-01  0.10292064808E+01  0.10291011603E+01 0.  0.
     999903    2    3    3    0    0  0.62245183696E-01  0.85912385905E-01 -0.77173341152E-01  0.13863696276E+00  0.44822783407E-01 0.  0.
         14    1    1    2    0    0  0.10970868273E-02 -0.55281011649E-02 -0.13602151141E-01  0.14723519200E-01  0.00000000000E+00 0.  1.
     999901    1    3    3    0    0 -0.63342270523E-01 -0.80384284740E-01  0.90775492293E-01  0.89056951804E+00  0.88000000000E+00 0. -1.
        -11    1    4    4    0    0  0.53673087989E-02  0.36467628059E-01 -0.11347283213E-01  0.38570945767E-01  0.51100000000E-03 0. -1.
         11    1    4    4    0    0  0.56877874897E-01  0.49444757845E-01 -0.65826057939E-01  0.10006601699E+00  0.51100000000E-03 0.  1.
</event>
<event>
 8    1  0.2107254E+004  0.1043930E+01  0.7957747E-01            NaN
         13   -1    0    0    0    0  0.00000000000E+00  0.00000000000E+00  0.74505805969E-08  0.10566000000E+00  0.10566000000E+00 0.  1.
     999900   -1    0    0    0    0 -0.00000000000E+00 -0.00000000000E+00 -0.74505805969E-08  0.93827000000E+00  0.93827000000E+00 0. -1.
     999902    2    1    2    0    0  0.64819223845E-03  0.57147854202E-02 -0.12846599091E-01  0.10298547013E+01  0.10297585114E+01 0.  0.
     999903    2    3    3    0    0 -0.89784557012E-01  0.20928178211E-01  0.93358268952E-01  0.13873798421E+00  0.45091091812E-01 0.  0.
         14    1    1    2    0    0 -0.64819223845E-03 -0.57147854202E-02  0.12846599091E-01  0.14075298710E-01  0.00000000000E+00 0.  1.
     999901    1    3    3    0    0  0.90432749250E-01 -0.15213392790E-01 -0.10620486804E+00  0.89111671708E+00  0.88000000000E+00 0. -1.
        -11    1    4    4    0    0 -0.29466928421E-01 -0.13946102522E-01  0.24555218148E-01  0.40816828704E-01  0.51100000000E-03 0. -1.
         11    1    4    4    0    0 -0.60317628591E-01  0.34874280733E-01  0.68803050804E-01  0.97921155510E-01  0.51100000000E-03 0.  1.
</event>
<event>
 8    1  0.2107254E+004  0.1043930E+01  0.7957747E-01            NaN
         13   -1    0    0    0    0  0.00000000000E+00  0.00000000000E+00  0.74505805969E-08  0.10566000000E+00  0.10566000000E+00 0.  1.
     999900   -1    0    0    0    0 -0.00000000000E+00 -0.00000000000E+00 -0.74505805969E-08  0.93827000000E+00  0.93827000000E+00 0.  1.
     999902    2    1    2    0    0 -0.32216424260E-02 -0.11802820612E-01 -0.27408948709E-03  0.10316923254E+01  0.10316197427E+01 0.  0.
     999903    2    3    3    0    0  0.88944850227E-01 -0.10026106674E+00  0.14985833168E-01  0.14233728443E+00  0.45517682921E-01 0.  0.
         14    1    1    2    0    0  0.32216424260E-02  0.11802820612E-01  0.27408948709E-03  0.12237674590E-01  0.00000000000E+00 0. -1.
     999901    1    3    3    0    0 -0.92166492653E-01  0.88458246125E-01 -0.15259922655E-01  0.88935504098E+00  0.88000000000E+00 0.  1.
        -11    1    4    4    0    0  0.37503238750E-01 -0.35918841201E-01  0.27899266611E-01  0.58951558659E-01  0.51100000000E-03 0.  1.
         11    1    4    4    0    0  0.51441611477E-01 -0.64342225536E-01 -0.12913433443E-01  0.83385725772E-01  0.51100000000E-03 0. -1.
</event>
<event>
 8    1  0.2107254E+004  0.1043930E+01  0.7957747E-01            NaN
         13   -1    0    0    0    0  0.00000000000E+00  0.00000000000E+00  0.74505805969E-08  0.10566000000E+00  0.10566000000E+00 0.  1.
     999900   -1    0    0    0    0 -0.00000000000E+00 -0.00000000000E+00 -0.74505805969E-08  0.93827000000E+00  0.93827000000E+00 0. -1.
     999902    2    1    2    0    0 -0.15334349435E-01 -0.25697093770E-02  0.30884022932E-02  0.10280780630E+01  0.10279558452E+01 0.  0.
     999903    2    3    3    0    0 -0.97363843730E-01  0.64310529863E-02  0.89930490080E-01  0.13996129144E+00  0.44503859921E-01 0.  0.
         14    1    1    2    0    0  0.15334349435E-01  0.25697093770E-02 -0.30884022932E-02  0.15851937030E-01  0.00000000000E+00 0. -1.
     999901    1    3    3    0    0  0.82029494294E-01 -0.90007623633E-02 -0.86842087787E-01  0.88811677153E+00  0.88000000000E+00 0. -1.
        -11    1    4    4    0    0 -0.18856457911E-04 -0.38709865917E-02  0.18172603530E-01  0.18587348730E-01  0.51100000000E-03 0.  1.
         11    1    4    4    0    0 -0.97344987272E-01  0.10302039578E-01  0.71757886550E-01  0.12137394271E+00  0.51100000000E-03 0. -1.
</event>
<event>
 8    1  0.2107254E+004  0.1043930E+01  0.7957747E-01            NaN
         13   -1    0    0    0    0  0.00000000000E+00  0.00000000000E+00  0.74505805969E-08  0.10566000000E+00  0.10566000000E+00 0.  1.
     999900   -1    0    0    0    0 -0.00000000000E+00 -0.00000000000E+00 -0.74505805969E-08  0.93827000000E+00  0.93827000000E+00 0.  1.
     999902    2    1    2    0    0 -0.13500934001E-01  0.27075873351E-02 -0.75808154835E-04  0.10301600329E+01  0.10300679984E+01 0.  0.
     999903    2    3    3    0    0 -0.28077769252E-01  0.24453464645E-01  0.12837998778E+00  0.14044869832E+00  0.43105481520E-01 0.  0.
         14    1    1    2    0    0  0.13500934001E-01 -0.27075873351E-02  0.75808154835E-04  0.13769967137E-01  0.00000000000E+00 0.  1.
     999901    1    3    3    0    0  0.14576835251E-01 -0.21745877310E-01 -0.12845579594E+00  0.88971133454E+00  0.88000000000E+00 0.  1.
        -11    1    4    4    0    0 -0.31699771565E-01  0.34148983624E-01  0.10512000809E+00  0.11498480692E+00  0.51100000000E-03 0. -1.
         11    1    4    4    0    0  0.36220023133E-02 -0.96955189791E-02  0.23259979693E-01  0.25463891402E-01  0.51100000000E-03 0.  1.
</event>
<event>
 8    1  0.2107254E+004  0.1043930E+01  0.7957747E-01            NaN
         13   -1    0    0    0    0  0.00000000000E+00  0.00000000000E+00  0.74505805969E-08  0.10566000000E+00  0.10566000000E+00 0.  1.
     999900   -1    0    0    0    0 -0.00000000000E+00 -0.00000000000E+00 -0.74505805969E-08  0.93827000000E+00  0.93827000000E+00 0.  1.
     999902    2    1    2    0    0  0.13892440290E-01  0.41185568898E-02 -0.23055222340E-02  0.10292576505E+01  0.10291530660E+01 0.  0.
     999903    2    3    3    0    0 -0.36745166299E-01 -0.31226871805E-01 -0.12241306416E+00  0.13895473114E+00  0.44700495089E-01 0.  0.
         14    1    1    2    0    0 -0.13892440290E-01 -0.41185568898E-02  0.23055222340E-02  0.14672349534E-01  0.00000000000E+00 0. -1.
     999901    1    3    3    0    0  0.50637606589E-01  0.35345428695E-01  0.12010754192E+00  0.89030291932E+00  0.88000000000E+00 0. -1.
        -11    1    4    4    0    0  0.66644239077E-02  0.17363492015E-02 -0.36938936037E-01  0.37578924560E-01  0.51100000000E-03 0.  1.
         11    1    4    4    0    0 -0.43409590207E-01 -0.32963221007E-01 -0.85474128121E-01  0.10137580658E+00  0.51100000000E-03 0. -1.
</event>
<event>
 8    1  0.2191964E+004  0.1043930E+01  0.7957747E-01            NaN
         13   -1    0    0    0    0  0.00000000000E+00  0.00000000000E+00  0.74505805969E-08  0.10566000000E+00  0.10566000000E+00 0. -1.
     999900   -1    0    0    0    0 -0.00000000000E+00 -0.00000000000E+00 -0.74505805969E-08  0.93827000000E+00  0.93827000000E+00 0. -1.
     999902    2    1    2    0    0 -0.41002628871E-02 -0.96040455580E-02  0.70681997496E-02  0.10313201112E+01  0.10312430182E+01 0.  0.
     999903    2    3    3    0    0  0.12786686704E+00 -0.35530608206E-01 -0.12626353162E-01  0.14088460799E+00  0.45570694173E-01 0.  0.
         14    1    1    2    0    0  0.41002628871E-02  0.96040455580E-02 -0.70681997496E-02  0.12609888759E-01  0.00000000000E+00 0. -1.
     999901    1    3    3    0    0 -0.13196712993E+00  0.25926562648E-01  0.19694552911E-01  0.89043550325E+00  0.88000000000E+00 0. -1.
        -11    1    4    4    0    0  0.67720621351E-01 -0.32471843560E-02  0.10918185393E-01  0.68673828025E-01  0.51100000000E-03 0.  1.
         11    1    4    4    0    0  0.60146245694E-01 -0.32283423850E-01 -0.23544538555E-01  0.72210779966E-01  0.51100000000E-03 0. -1.
</event>
<event>
 8    1  0.2107254E+004  0.1043930E+01  0.7957747E-01            NaN
         13   -1    0    0    0    0  0.00000000000E+00  0.00000000000E+00  0.74505805969E-08  0.10566000000E+00  0.10566000000E+00 0. -1.
     999900   -1    0    0    0    0 -0.00000000000E+00 -0.00000000000E+00 -0.74505805969E-08  0.93827000000E+00  0.93827000000E+00 0. -1.
     999902    2    1    2    0    0 -0.19684060455E-02  0.12730414444E-01 -0.34672761843E-02  0.10305898321E+01  0.10305034896E+01 0.  0.
     999903    2    3    3    0    0  0.49970662872E-01  0.70667483182E-01 -0.10269812816E+00  0.14160100612E+00  0.44866235401E-01 0.  0.
         14    1    1    2    0    0  0.19684060455E-02 -0.12730414444E-01  0.34672761843E-02  0.13340167856E-01  0.00000000000E+00 0. -1.
     999901    1    3    3    0    0 -0.51939068918E-01 -0.57937068737E-01  0.99230851976E-01  0.88898882603E+00  0.88000000000E+00 0.  1.
        -11    1    4    4    0    0  0.27593145777E-01  0.30583781125E-01 -0.80888164437E-01  0.90773925930E-01  0.51100000000E-03 0. -1.
         11    1    4    4    0    0  0.22377517096E-01  0.40083702056E-01 -0.21809963724E-01  0.50827080189E-01  0.51100000000E-03 0.  1.
</event>
<event>
 8    1  0.2107254E+004  0.1043930E+01  0.7957747E-01            NaN
         13   -1    0    0    0    0  0.00000000000E+00  0.00000000000E+00  0.74505805969E-08  0.10566000000E+00  0.10566000000E+00 0.  1.
     999900   -1    0    0    0    0 -0.00000000000E+00 -0.00000000000E+00 -0.74505805969E-08  0.93827000000E+00  0.93827000000E+00 0.  1.
     999902    2    1    2    0    0  0.11350472087E-01 -0.22435949022E-02  0.70376154084E-02  0.10303876603E+01  0.10302986632E+01 0.  0.
     999903    2    3    3    0    0  0.11879089598E+00  0.38703931086E-01  0.50078366033E-01  0.14186492517E+00  0.44816771412E-01 0.  0.
         14    1    1    2    0    0 -0.11350472087E-01  0.22435949022E-02 -0.70376154084E-02  0.13542339728E-01  0.00000000000E+00 0.  1.
     999901    1    3    3    0    0 -0.10744042390E+00 -0.40947525989E-01 -0.43040750624E-01  0.88852273510E+00  0.88000000000E+00 0.  1.
        -11    1    4    4    0    0  0.37924605946E-01  0.34873045472E-01  0.23740593707E-01  0.56729903466E-01  0.51100000000E-03 0. -1.
         11    1    4    4    0    0  0.80866290038E-01  0.38308856140E-02  0.26337772325E-01  0.85135021708E-01  0.51100000000E-03 0.  1.
</event>
<event>
 8    1  0.2107254E+004  0.1043930E+01  0.7957747E-01            NaN
         13   -1    0    0    0    0  0.00000000000E+00  0.00000000000E+00  0.74505805969E-08  0.10566000000E+00  0.10566000000E+00 0. -1.
     999900   -1    0    0    0    0 -0.00000000000E+00 -0.00000000000E+00 -0.74505805969E-08  0.93827000000E+00  0.93827000000E+00 0.  1.
     999902    2    1    2    0    0  0.72818040536E-02 -0.10175929550E-01  0.19648922211E-02  0.10312637056E+01  0.10311859170E+01 0.  0.
     999903    2    3    3    0    0 -0.35675717590E-01 -0.38255061748E-01 -0.12337233660E+00  0.14090242653E+00  0.43549440760E-01 0.  0.
         14    1    1    2    0    0 -0.72818040536E-02  0.10175929550E-01 -0.19648922211E-02  0.12666294404E-01  0.00000000000E+00 0.  1.
     999901    1    3    3    0    0  0.42957521644E-01  0.28079132198E-01  0.12533722882E+00  0.89036127906E+00  0.88000000000E+00 0. -1.
        -11    1    4    4    0    0 -0.37112994914E-01 -0.85595406276E-02 -0.63378280505E-01  0.73943949638E-01  0.51100000000E-03 0. -1.
         11    1    4    4    0    0  0.14372773245E-02 -0.29695521120E-01 -0.59994056090E-01  0.66958476893E-01  0.51100000000E-03 0.  1.
</event>
<event>
 8    1  0.2107254E+004  0.1043930E+01  0.7957747E-01            NaN
         13   -1    0    0    0    0  0.00000000000E+00  0.00000000000E+00  0.74505805969E-08  0.10566000000E+00  0.10566000000E+00 0.  1.
     999900   -1    0    0    0    0 -0.00000000000E+00 -0.00000000000E+00 -0.74505805969E-08  0.93827000000E+00  0.93827000000E+00 0. -1.
     999902    2    1    2    0    0  0.77058550882E-02  0.74890267483E-02  0.11471756665E-01  0.10282116373E+01  0.10280914863E+01 0.  0.
     999903    2    3    3    0    0 -0.12056775609E+00  0.44643599718E-01  0.23821419897E-01  0.13805036216E+00  0.44281007694E-01 0.  0.
         14    1    1    2    0    0 -0.77058550882E-02 -0.74890267483E-02 -0.11471756665E-01  0.15718362677E-01  0.00000000000E+00 0. -1.
     999901    1    3    3    0    0  0.12827361118E+00 -0.37154572969E-01 -0.12349663232E-01  0.89016127516E+00  0.88000000000E+00 0.  1.
        -11    1    4    4    0    0 -0.69991067280E-01  0.32089804749E-01  0.35272699974E-01  0.84693149382E-01  0.51100000000E-03 0.  1.
         11    1    4    4    0    0 -0.50576688810E-01  0.12553794969E-01 -0.11451280077E-01  0.53357212778E-01  0.51100000000E-03 0. -1.
</event>
<event>
 8    1  0.2107254E+004  0.1043930E+01  0.7957747E-01            NaN
         13   -1    0    0    0    0  0.00000000000E+00  0.00000000000E+00  0.74505805969E-08  0.10566000000E+00  0.10566000000E+00 0.  1.
     999900   -1    0    0    0    0 -0.00000000000E+00 -0.00000000000E+00 -0.74505805969E-08  0.93827000000E+00  0.93827000000E+00 0. -1.
     999902    2    1    2    0    0  0.57386216345E-02  0.88679837373E-02 -0.98627846649E-02  0.10294784452E+01  0.10293770066E+01 0.  0.
     999903    2    3    3    0    0 -0.10169296505E+00 -0.57009251354E-01  0.57761379519E-01  0.13793238164E+00  0.45797937310E-01 0.  0.
         14    1    1    2    0    0 -0.57386216345E-02 -0.88679837373E-02  0.98627846649E-02  0.14451554767E-01  0.00000000000E+00 0. -1.
     999901    1    3    3    0    0  0.10743158668E+00  0.65877235092E-01 -0.67624164184E-01  0.89154606359E+00  0.88000000000E+00 0.  1.
        -11    1    4    4    0    0 -0.24996084956E-01 -0.61762458612E-02 -0.54166671802E-02  0.26316376658E-01  0.51100000000E-03 0. -1.
         11    1    4    4    0    0 -0.76696880091E-01 -0.50833005493E-01  0.63178046699E-01  0.11161600499E+00  0.51100000000E-03 0.  1.
</event>
<event>
 8    1  0.2107254E+004  0.1043930E+01  0.7957747E-01            NaN
         13   -1    0    0    0    0  0.00000000000E+00  0.00000000000E+00  0.74505805969E-08  0.10566000000E+00  0.10566000000E+00 0. -1.
     999900   -1    0    0    0    0 -0.00000000000E+00 -0.00000000000E+00 -0.74505805969E-08  0.93827000000E+00  0.93827000000E+00 0. -1.
     999902    2    1    2    0    0 -0.75853729023E-02  0.39873916438E-02 -0.12977055715E-01  0.10283787573E+01  0.10282611669E+01 0.  0.
     999903    2    3    3    0    0 -0.27495651425E-01 -0.11436694867E+00 -0.55611627625E-01  0.13920955194E+00  0.49505923153E-01 0.  0.
         14    1    1    2    0    0  0.75853729023E-02 -0.39873916438E-02  0.12977055715E-01  0.15551242690E-01  0.00000000000E+00 0. -1.
     999901    1    3    3    0    0  0.19910278522E-01  0.11835434032E+00  0.42634571911E-01  0.88916920537E+00  0.88000000000E+00 0.  1.
        -11    1    4    4    0    0  0.17897597090E-02 -0.94681003352E-02 -0.23901656121E-01  0.25775927726E-01  0.51100000000E-03 0.  1.
         11    1    4    4    0    0 -0.29285411134E-01 -0.10489884834E+00 -0.31709971504E-01  0.11343362421E+00  0.51100000000E-03 0. -1.
</event>
<event>
 8    1  0.2107254E+004  0.1043930E+01  0.7957747E-01            NaN
         13   -1    0    0    0    0  0.00000000000E+00  0.00000000000E+00  0.74505805969E-08  0.10566000000E+00  0.10566000000E+00 0.  1.
     999900   -1    0    0    0    0 -0.00000000000E+00 -0.00000000000E+00 -0.74505805969E-08  0.93827000000E+00  0.93827000000E+00 0.  1.
     999902    2    1    2    0    0 -0.57407968269E-02  0.11917255546E-01  0.28516760041E-02  0.10303981936E+01  0.10303093359E+01 0.  0.
     999903    2    3    3    0    0 -0.59997790133E-01  0.84758299171E-01  0.85718979481E-01  0.14185071096E+00  0.44611396034E-01 0.  0.
         14    1    1    2    0    0  0.57407968269E-02 -0.11917255546E-01 -0.28516760041E-02  0.13531806383E-01  0.00000000000E+00 0. -1.
     999901    1    3    3    0    0  0.54256993306E-01 -0.72841043625E-01 -0.82867303477E-01  0.88854748266E+00  0.88000000000E+00 0.  1.
        -11    1    4    4    0    0 -0.27425272231E-01  0.55291669985E-01  0.74051748864E-01  0.96401436491E-01  0.51100000000E-03 0.  1.
         11    1    4    4    0    0 -0.32572517902E-01  0.29466629186E-01  0.11667230617E-01  0.45449274464E-01  0.51100000000E-03 0. -1.
</event>
<event>
 8    1  0.2107254E+004  0.1043930E+01  0.7957747E-01            NaN
         13   -1    0    0    0    0  0.00000000000E+00  0.00000000000E+00  0.74505805969E-08  0.10566000000E+00  0.10566000000E+00 0.  1.
     999900   -1    0    0    0    0 -0.00000000000E+00 -0.00000000000E+00 -0.74505805969E-08  0.93827000000E+00  0.93827000000E+00 0. -1.
     999902    2    1    2    0    0 -0.13471444966E-02 -0.88213315895E-02  0.10837199031E-01  0.10298916393E+01  0.10297959570E+01 0.  0.
     999903    2    3    3    0    0 -0.88459657401E-02  0.66507901785E-01 -0.11215241535E+00  0.13811971160E+00  0.44691591550E-01 0.  0.
         14    1    1    2    0    0  0.13471444966E-02  0.88213315895E-02 -0.10837199031E-01  0.14038360736E-01  0.00000000000E+00 0. -1.
     999901    1    3    3    0    0  0.74988212435E-02 -0.75329233374E-01  0.12298961438E+00  0.89177192766E+00  0.88000000000E+00 0.  1.
        -11    1    4    4    0    0 -0.26622859942E-01  0.42123086726E-01 -0.61481818918E-01  0.79141684878E-01  0.51100000000E-03 0. -1.
         11    1    4    4    0    0  0.17776894201E-01  0.24384815058E-01 -0.50670596429E-01  0.58978026724E-01  0.51100000000E-03 0.  1.
</event>
<event>
 8    1  0.2107254E+004  0.1043930E+01  0.7957747E-01            NaN
         13   -1    0    0    0    0  0.00000000000E+00  0.00000000000E+00  0.74505805969E-08  0.10566000000E+00  0.10566000000E+00 0.  1.
     999900   -1    0    0    0    0 -0.00000000000E+00 -0.00000000000E+00 -0.74505805969E-08  0.93827000000E+00  0.93827000000E+00 0. -1.
     999902    2    1    2    0    0  0.31237429391E-02 -0.15040052251E-01  0.14917625014E-02  0.10284967146E+01  0.10283809147E+01 0.  0.
     999903    2    3    3    0    0 -0.46450048361E-01  0.12001789128E+00 -0.59509914611E-02  0.13678285724E+00  0.45959052593E-01 0.  0.
         14    1    1    2    0    0 -0.31237429391E-02  0.15040052251E-01 -0.14917625014E-02  0.15433285361E-01  0.00000000000E+00 0.  1.
     999901    1    3    3    0    0  0.49573791300E-01 -0.13505794353E+00  0.74427539625E-02  0.89171385740E+00  0.88000000000E+00 0.  1.
        -11    1    4    4    0    0 -0.40336593923E-01  0.61450128106E-01 -0.20124590460E-01  0.76212986530E-01  0.51100000000E-03 0.  1.
         11    1    4    4    0    0 -0.61134544384E-02  0.58567763172E-01  0.14173598998E-01  0.60569870709E-01  0.51100000000E-03 0. -1.
</event>
<event>
 8    1  0.2107254E+004  0.1043930E+01  0.7957747E-01            NaN
         13   -1    0    0    0    0  0.00000000000E+00  0.00000000000E+00  0.74505805969E-08  0.10566000000E+00  0.10566000000E+00 0.  1.
     999900   -1    0    0    0    0 -0.00000000000E+00 -0.00000000000E+00 -0.74505805969E-08  0.93827000000E+00  0.93827000000E+00 0. -1.
     999902    2    1    2    0    0  0.10487130849E-02  0.97702131591E-02  0.99039044994E-02  0.10299785059E+01  0.10298840121E+01 0.  0.
     999903    2    3    3    0    0 -0.65132401546E-01  0.79998666193E-01 -0.83202153494E-01  0.13982081557E+00  0.44556097198E-01 0.  0.
         14    1    1    2    0    0 -0.10487130849E-02 -0.97702131591E-02 -0.99039044994E-02  0.13951494136E-01  0.00000000000E+00 0. -1.
     999901    1    3    3    0    0  0.66181114631E-01 -0.70228453034E-01  0.93106057993E-01  0.89015769029E+00  0.88000000000E+00 0.  1.
        -11    1    4    4    0    0 -0.31660214858E-01  0.15751251991E-01 -0.47039250976E-01  0.58850857237E-01  0.51100000000E-03 0.  1.
         11    1    4    4    0    0 -0.33472186688E-01  0.64247414202E-01 -0.36162902518E-01  0.80969958336E-01  0.51100000000E-03 0. -1.
</event>
<event>
 8    1  0.2107254E+004  0.1043930E+01  0.7957747E-01            NaN
         13   -1    0    0    0    0  0.00000000000E+00  0.00000000000E+00  0.74505805969E-08  0.10566000000E+00  0.10566000000E+00 0. -1.
     999900   -1    0    0    0    0 -0.00000000000E+00 -0.00000000000E+00 -0.74505805969E-08  0.93827000000E+00  0.93827000000E+00 0.  1.
     999902    2    1    2    0    0 -0.41319953418E-02  0.11525092087E-01  0.63257394196E-02  0.10301489945E+01  0.10300568114E+01 0.  0.
     999903    2    3    3    0    0  0.40409814402E-01 -0.12443328381E+00 -0.63152136780E-02  0.13850531765E+00  0.45024947230E-01 0.  0.
         14    1    1    2    0    0  0.41319953418E-02 -0.11525092087E-01 -0.63257394196E-02  0.13781005491E-01  0.00000000000E+00 0.  1.
     999901    1    3    3    0    0 -0.44541809744E-01  0.13595837590E+00  0.12640953098E-01  0.89164367686E+00  0.88000000000E+00 0. -1.
        -11    1    4    4    0    0  0.36931984535E-01 -0.78102431435E-01 -0.22544128287E-01  0.89288633761E-01  0.51100000000E-03 0. -1.
         11    1    4    4    0    0  0.34778298673E-02 -0.46330852376E-01  0.16228914609E-01  0.49216683887E-01  0.51100000000E-03 0.  1.
</event>
<event>
 8    1  0.2107254E+004  0.1043930E+01  0.7957747E-01            NaN
         13   -1    0    0    0    0  0.00000000000E+00  0.00000000000E+00  0.74505805969E-08  0.10566000000E+00  0.10566000000E+00 0. -1.
     999900   -1    0    0    0    0 -0.00000000000E+00 -0.00000000000E+00 -0.74505805969E-08  0.93827000000E+00  0.93827000000E+00 0. -1.
     999902    2    1    2    0    0 -0.74148212927E-02  0.10265365500E-02 -0.11208335734E-01  0.10304518643E+01  0.10303637147E+01 0.  0.
     999903    2    3    3    0    0 -0.40412776294E-01  0.27219244641E-02  0.12567390944E+00  0.13925688652E+00  0.44248701326E-01 0.  0.
         14    1    1    2    0    0  0.74148212927E-02 -0.10265365500E-02  0.11208335734E-01  0.13478135703E-01  0.00000000000E+00 0. -1.
     999901    1    3    3    0    0  0.32997955001E-01 -0.16953879141E-02 -0.13688224517E+00  0.89119497778E+00  0.88000000000E+00 0. -1.
        -11    1    4    4    0    0 -0.49950576625E-02  0.18888171951E-01  0.28355439367E-01  0.34438433522E-01  0.51100000000E-03 0. -1.
         11    1    4    4    0    0 -0.35417718631E-01 -0.16166247487E-01  0.97318470070E-01  0.10481845300E+00  0.51100000000E-03 0.  1.
</event>
<event>
 8    1  0.2107254E+004  0.1043930E+01  0.7957747E-01            NaN
         13   -1    0    0    0    0  0.00000000000E+00  0.00000000000E+00  0.74505805969E-08  0.10566000000E+00  0.10566000000E+00 0. -1.
     999900   -1    0    0    0    0 -0.00000000000E+00 -0.00000000000E+00 -0.74505805969E-08  0.93827000000E+00  0.93827000000E+00 0. -1.
     999902    2    1    2    0    0 -0.38131842456E-02 -0.16342023645E-01 -0.10097220212E-01  0.10243454151E+01  0.10241581779E+01 0.  0.
     999903    2    3    3    0    0 -0.17922482750E-01 -0.10065498715E+00 -0.77922419621E-01  0.13760531459E+00  0.49098648641E-01 0.  0.
         14    1    1    2    0    0  0.38131842456E-02  0.16342023645E-01  0.10097220212E-01  0.19584584931E-01  0.00000000000E+00 0.  1.
     999901    1    3    3    0    0  0.14109298504E-01  0.84312963505E-01  0.67825199410E-01  0.88674010048E+00  0.88000000000E+00 0. -1.
        -11    1    4    4    0    0 -0.24782853170E-01 -0.85124402870E-01 -0.81293296289E-01  0.12028804977E+00  0.51100000000E-03 0.  1.
         11    1    4    4    0    0  0.68603704208E-02 -0.15530584279E-01  0.33708766676E-02  0.17317264821E-01  0.51100000000E-03 0. -1.
</event>
<event>
 8    1  0.2107254E+004  0.1043930E+01  0.7957747E-01            NaN
         13   -1    0    0    0    0  0.00000000000E+00  0.00000000000E+00  0.74505805969E-08  0.10566000000E+00  0.10566000000E+00 0.  1.
     999900   -1    0    0    0    0 -0.00000000000E+00 -0.00000000000E+00 -0.74505805969E-08  0.93827000000E+00  0.93827000000E+00 0. -1.
     999902    2    1    2    0    0  0.11129240320E-02  0.90294164230E-02 -0.10621076653E-01  0.10299451428E+01  0.10298501935E+01 0.  0.
     999903    2    3    3    0    0  0.58547817642E-01 -0.10903814765E+00 -0.45944127559E-01  0.13950343524E+00  0.45090808288E-01 0.  0.
         14    1    1    2    0    0 -0.11129240320E-02 -0.90294164230E-02  0.10621076653E-01  0.13984857172E-01  0.00000000000E+00 0.  1.
     999901    1    3    3    0    0 -0.57434893610E-01  0.11806756408E+00  0.35323050906E-01  0.89044170759E+00  0.88000000000E+00 0. -1.
        -11    1    4    4    0    0  0.45959014654E-01 -0.60212711752E-01 -0.46855832611E-01  0.89070375857E-01  0.51100000000E-03 0.  1.
         11    1    4    4    0    0  0.12588802988E-01 -0.48825435900E-01  0.91170505253E-03  0.50433059382E-01  0.51100000000E-03 0. -1.
</event>
<event>
 8    1  0.2107254E+004  0.1043930E+01  0.7957747E-01            NaN
         13   -1    0    0    0    0  0.00000000000E+00  0.00000000000E+00  0.74505805969E-08  0.10566000000E+00  0.10566000000E+00 0.  1.
     999900   -1    0    0    0    0 -0.00000000000E+00 -0.00000000000E+00 -0.74505805969E-08  0.93827000000E+00  0.93827000000E+00 0.  1.
     999902    2    1    2    0    0  0.12491816949E-01 -0.66618735084E-02 -0.37729515697E-03  0.10297677826E+01  0.10296703928E+01 0.  0.
     999903    2    3    3    0    0 -0.11528414641E+00  0.38831027578E-02 -0.61305484692E-01  0.13839236361E+00  0.45700885692E-01 0.  0.
         14    1    1    2    0    0 -0.12491816949E-01  0.66618735084E-02  0.37729515697E-03  0.14162217374E-01  0.00000000000E+00 0. -1.
     999901    1    3    3    0    0  0.12777596336E+00 -0.10544976266E-01  0.60928189535E-01  0.89137541901E+00  0.88000000000E+00 0.  1.
        -11    1    4    4    0    0 -0.57517554698E-01  0.50602029671E-03 -0.56004546725E-01  0.80282597927E-01  0.51100000000E-03 0. -1.
         11    1    4    4    0    0 -0.57766591712E-01  0.33770824611E-02 -0.53009379664E-02  0.58109765688E-01  0.51100000000E-03 0.  1.
</event>
<event>
 8    1  0.2107254E+004  0.1043930E+01  0.7957747E-01            NaN
         13   -1    0    0    0    0  0.00000000000E+00  0.00000000000E+00  0.74505805969E-08  0.10566000000E+00  0.10566000000E+00 0.  1.
     999900   -1    0    0    0    0 -0.00000000000E+00 -0.00000000000E+00 -0.74505805969E-08  0.93827000000E+00  0.93827000000E+00 0.  1.
     999902    2    1    2    0    0 -0.94327094757E-02 -0.77795392507E-03 -0.79792331089E-02  0.10315506066E+01  0.10314763228E+01 0.  0.
     999903    2    3    3    0    0  0.47869952090E-01 -0.11015341076E+00 -0.58896712647E-01  0.14147242165E+00  0.46046901204E-01 0.  0.
         14    1    1    2    0    0  0.94327094757E-02  0.77795392507E-03  0.79792331089E-02  0.12379393417E-01  0.00000000000E+00 0.  1.
     999901    1    3    3    0    0 -0.57302661566E-01  0.10937545683E+00  0.50917479538E-01  0.89007818494E+00  0.88000000000E+00 0. -1.
        -11    1    4    4    0    0  0.23988686367E-01 -0.25353915688E-01 -0.36636604385E-01  0.50604150187E-01  0.51100000000E-03 0. -1.
         11    1    4    4    0    0  0.23881265723E-01 -0.84799495071E-01 -0.22260108262E-01  0.90868271458E-01  0.51100000000E-03 0.  1.
</event>
<event>
 8    1  0.2107254E+004  0.1043930E+01  0.7957747E-01            NaN
         13   -1    0    0    0    0  0.00000000000E+00  0.00000000000E+00  0.74505805969E-08  0.10566000000E+00  0.10566000000E+00 0.  1.
     999900   -1    0    0    0    0 -0.00000000000E+00 -0.00000000000E+00 -0.74505805969E-08  0.93827000000E+00  0.93827000000E+00 0.  1.
     999902    2    1    2    0    0  0.20050282118E-02 -0.10553189486E-01 -0.74824056662E-02  0.10308389213E+01  0.10307557933E+01 0.  0.
     999903    2    3    3    0    0  0.93620487150E-01  0.93098973170E-01 -0.12381292612E-01  0.14001842187E+00  0.44940489962E-01 0.  0.
         14    1    1    2    0    0 -0.20050282118E-02  0.10553189486E-01  0.74824056662E-02  0.13091078680E-01  0.00000000000E+00 0.  1.
     999901    1    3    3    0    0 -0.91615458938E-01 -0.10365216266E+00  0.48988869459E-02  0.89082049945E+00  0.88000000000E+00 0.  1.
        -11    1    4    4    0    0  0.54727893280E-01  0.23712980799E-01 -0.96899944128E-02  0.60428510440E-01  0.51100000000E-03 0. -1.
         11    1    4    4    0    0  0.38892593870E-01  0.69385992370E-01 -0.26912981994E-02  0.79589911435E-01  0.51100000000E-03 0.  1.
</event>
<event>
 8    1  0.2107254E+004  0.1043930E+01  0.7957747E-01            NaN
         13   -1    0    0    0    0  0.00000000000E+00  0.00000000000E+00  0.74505805969E-08  0.10566000000E+00  0.10566000000E+00 0. -1.
     999900   -1    0    0    0    0 -0.00000000000E+00 -0.00000000000E+00 -0.74505805969E-08  0.93827000000E+00  0.93827000000E+00 0.  1.
     999902    2    1    2    0    0 -0.12530323522E-01  0.52213432145E-02  0.18923442172E-02  0.10302240743E+01  0.10301328996E+01 0.  0.
     999903    2    3    3    0    0 -0.11038804794E+00  0.43945478007E-01 -0.62384041448E-01  0.14162565736E+00  0.45269548589E-01 0.  0.
         14    1    1    2    0    0  0.12530323522E-01 -0.52213432145E-02 -0.18923442172E-02  0.13705925695E-01  0.00000000000E+00 0. -1.
     999901    1    3    3    0    0  0.97857724420E-01 -0.38724134793E-01  0.64276385666E-01  0.88859841695E+00  0.88000000000E+00 0. -1.
        -11    1    4    4    0    0 -0.18635700351E-01 -0.78067944293E-02 -0.22715521684E-02  0.20338545600E-01  0.51100000000E-03 0.  1.
         11    1    4    4    0    0 -0.91752347590E-01  0.51752272437E-01 -0.60112489280E-01  0.12128711176E+00  0.51100000000E-03 0. -1.
</event>
<event>
 8    1  0.2107254E+004  0.1043930E+01  0.7957747E-01            NaN
         13   -1    0    0    0    0  0.00000000000E+00  0.00000000000E+00  0.74505805969E-08  0.10566000000E+00  0.10566000000E+00 0. -1.
     999900   -1    0    0    0    0 -0.00000000000E+00 -0.00000000000E+00 -0.74505805969E-08  0.93827000000E+00  0.93827000000E+00 0. -1.
     999902    2    1    2    0    0 -0.28130380045E-02  0.38690053581E-02  0.12993453536E-01  0.10300839818E+01  0.10299909210E+01 0.  0.
     999903    2    3    3    0    0 -0.11110236394E+00  0.73791445138E-01 -0.71903198784E-03  0.14058763107E+00  0.44446061189E-01 0.  0.
         14    1    1    2    0    0  0.28130380045E-02 -0.38690053581E-02 -0.12993453536E-01  0.13846018203E-01  0.00000000000E+00 0.  1.
     999901    1    3    3    0    0  0.10828932593E+00 -0.69922439780E-01  0.13712485524E-01  0.88949635073E+00  0.88000000000E+00 0.  1.
        -11    1    4    4    0    0 -0.92490479963E-01  0.40897666941E-01  0.90892615203E-02  0.10153809059E+00  0.51100000000E-03 0. -1.
         11    1    4    4    0    0 -0.18611883974E-01  0.32893778197E-01 -0.98082935081E-02  0.39049540480E-01  0.51100000000E-03 0.  1.
</event>
<event>
 8    1  0.2107254E+004  0.1043930E+01  0.7957747E-01            NaN
         13   -1    0    0    0    0  0.00000000000E+00  0.00000000000E+00  0.74505805969E-08  0.10566000000E+00  0.10566000000E+00 0. -1.
     999900   -1    0    0    0    0 -0.00000000000E+00 -0.00000000000E+00 -0.74505805969E-08  0.93827000000E+00  0.93827000000E+00 0.  1.
     999902    2    1    2    0    0  0.70471221296E-03  0.14551034025E-01  0.52351188533E-02  0.10284498295E+01  0.10283333195E+01 0.  0.
     999903    2    3    3    0    0 -0.84141518415E-01 -0.78467400227E-01  0.60807265308E-01  0.13775371101E+00  0.45184437180E-01 0.  0.
         14    1    1    2    0    0 -0.70471221296E-03 -0.14551034025E-01 -0.52351188533E-02  0.15480170539E-01  0.00000000000E+00 0. -1.
     999901    1    3    3    0    0  0.84846230628E-01  0.93018434252E-01 -0.55572146454E-01  0.89069611845E+00  0.88000000000E+00 0.  1.
        -11    1    4    4    0    0 -0.51283954644E-01 -0.38819848550E-01  0.94261399865E-02  0.65008752345E-01  0.51100000000E-03 0.  1.
         11    1    4    4    0    0 -0.32857563771E-01 -0.39647551677E-01  0.51381125321E-01  0.72744958665E-01  0.51100000000E-03 0. -1.
</event>
<event>
 8    1  0.2107254E+004  0.1043930E+01  0.7957747E-01            NaN
         13   -1    0    0    0    0  0.00000000000E+00  0.00000000000E+00  0.74505805969E-08  0.10566000000E+00  0.10566000000E+00 0. -1.
     999900   -1    0    0    0    0 -0.00000000000E+00 -0.00000000000E+00 -0.74505805969E-08  0.93827000000E+00  0.93827000000E+00 0. -1.
     999902    2    1    2    0    0  0.62008929910E-02 -0.67841806515E-02 -0.10431986775E-01  0.10300266720E+01  0.10299328340E+01 0.  0.
     999903    2    3    3    0    0  0.20974922959E-01  0.86687770453E-01 -0.98831108896E-01  0.14054947591E+00  0.45076048547E-01 0.  0.
         14    1    1    2    0    0 -0.62008929910E-02  0.67841806515E-02  0.10431986775E-01  0.13903327986E-01  0.00000000000E+00 0. -1.
     999901    1    3    3    0    0 -0.14774029968E-01 -0.93471951105E-01  0.88399122120E-01  0.88947719611E+00  0.88000000000E+00 0.  1.
        -11    1    4    4    0    0  0.32291951214E-01  0.39492664136E-01 -0.56761909461E-01  0.76319172692E-01  0.51100000000E-03 0.  1.
         11    1    4    4    0    0 -0.11317028255E-01  0.47195106318E-01 -0.42069199434E-01  0.64230303214E-01  0.51100000000E-03 0. -1.
</event>
<event>
 7    1  0.2107254E+004  0.1043930E+01  0.7957747E-01            NaN
         13   -1    0    0    0    0  0.00000000000E+00  0.00000000000E+00  0.74505805969E-08  0.10566000000E+00  0.10566000000E+00 0.  1.
     999900   -1    0    0    0    0 -0.00000000000E+00 -0.00000000000E+00 -0.74505805969E-08  0.93827000000E+00  0.93827000000E+00 0.  1.
     999903    2    1    2    0    0 -0.42778271662E-01  0.33440654257E-01  0.29222319838E-01  0.76469870935E-01  0.45226533148E-01 0.  0.
         14    1    1    2    0    0  0.78292223568E-01  0.28685473304E-01  0.80458428765E-02  0.83769112669E-01  0.00000000000E+00 0.  1.
     999901    1    1    2    0    0 -0.35513951906E-01 -0.62126127561E-01 -0.37268162714E-01  0.88369101640E+00  0.88000000000E+00 0.  1.
        -11    1    3    3    0    0 -0.33968481467E-01  0.72549431434E-02  0.33790831021E-01  0.48462081211E-01  0.51100000000E-03 0.  1.
         11    1    3    3    0    0 -0.88097901948E-02  0.26185711114E-01 -0.45685111834E-02  0.28007789724E-01  0.51100000000E-03 0. -1.
</event>
<event>
 8    1  0.2107254E+004  0.1043930E+01  0.7957747E-01            NaN
         13   -1    0    0    0    0  0.00000000000E+00  0.00000000000E+00  0.74505805969E-08  0.10566000000E+00  0.10566000000E+00 0.  1.
     999900   -1    0    0    0    0 -0.00000000000E+00 -0.00000000000E+00 -0.74505805969E-08  0.93827000000E+00  0.93827000000E+00 0. -1.
     999902    2    1    2    0    0  0.11382869683E-01 -0.68986607400E-02  0.32209107268E-02  0.10302356395E+01  0.10301446197E+01 0.  0.
     999903    2    3    3    0    0 -0.11602117239E+00  0.58049326025E-01  0.17444567055E-01  0.13857856235E+00  0.45487012734E-01 0.  0.
         14    1    1    2    0    0 -0.11382869683E-01  0.68986607400E-02 -0.32209107268E-02  0.13694360450E-01  0.00000000000E+00 0. -1.
     999901    1    3    3    0    0  0.12740404208E+00 -0.64947986765E-01 -0.14223656328E-01  0.89165707720E+00  0.88000000000E+00 0.  1.
        -11    1    4    4    0    0 -0.78530995729E-01  0.52591895348E-01  0.29173316402E-01  0.98915965634E-01  0.51100000000E-03 0.  1.
         11    1    4    4    0    0 -0.37490176665E-01  0.54574306771E-02 -0.11728749347E-01  0.39662596716E-01  0.51100000000E-03 0. -1.
</event>
<event>
 8    1  0.2107254E+004  0.1043930E+01  0.7957747E-01            NaN
         13   -1    0    0    0    0  0.00000000000E+00  0.00000000000E+00  0.74505805969E-08  0.10566000000E+00  0.10566000000E+00 0. -1.
     999900   -1    0    0    0    0 -0.00000000000E+00 -0.00000000000E+00 -0.74505805969E-08  0.93827000000E+00  0.93827000000E+00 0.  1.
     999902    2    1    2    0    0  0.13190526676E-02  0.42303365438E-02 -0.13136029251E-01  0.10300667063E+01  0.10299734116E+01 0.  0.
     999903    2    3    3    0    0 -0.70975213889E-01  0.49738959162E-01  0.99252791902E-01  0.13881548313E+00  0.43671233231E-01 0.  0.
         14    1    1    2    0    0 -0.13190526676E-02 -0.42303365438E-02  0.13136029251E-01  0.13863293682E-01  0.00000000000E+00 0. -1.
     999901    1    3    3    0    0  0.72294266557E-01 -0.45508622618E-01 -0.11238882115E+00  0.89125122319E+00  0.88000000000E+00 0.  1.
        -11    1    4    4    0    0 -0.26187192379E-01  0.25063692946E-02  0.52330767630E-01  0.58573213105E-01  0.51100000000E-03 0.  1.
         11    1    4    4    0    0 -0.44788021510E-01  0.47232589867E-01  0.46922024272E-01  0.80242270027E-01  0.51100000000E-03 0. -1.
</event>
<event>
 8    1  0.2107254E+004  0.1043930E+01  0.7957747E-01            NaN
         13   -1    0    0    0    0  0.00000000000E+00  0.00000000000E+00  0.74505805969E-08  0.10566000000E+00  0.10566000000E+00 0. -1.
     999900   -1    0    0    0    0 -0.00000000000E+00 -0.00000000000E+00 -0.74505805969E-08  0.93827000000E+00  0.93827000000E+00 0. -1.
     999902    2    1    2    0    0 -0.11259400836E-01  0.54956124709E-02 -0.56641758141E-02  0.10301801363E+01  0.10300883722E+01 0.  0.
     999903    2    3    3    0    0 -0.10407091198E+00  0.42609000871E-01 -0.74045392255E-01  0.14188549434E+00  0.44749209099E-01 0.  0.
         14    1    1    2    0    0  0.11259400836E-01 -0.54956124709E-02  0.56641758141E-02  0.13749863682E-01  0.00000000000E+00 0.  1.
     999901    1    3    3    0    0  0.92811511144E-01 -0.37113388401E-01  0.68381216441E-01  0.88829464197E+00  0.88000000000E+00 0.  1.
        -11    1    4    4    0    0 -0.85101136943E-01  0.49953845656E-01 -0.50788832196E-01  0.11098358798E+00  0.51100000000E-03 0. -1.
         11    1    4    4    0    0 -0.18969775038E-01 -0.73448447842E-02 -0.23256560059E-01  0.30901906360E-01  0.51100000000E-03 0.  1.
</event>
<event>
 8    1  0.2107254E+004  0.1043930E+01  0.7957747E-01            NaN
         13   -1    0    0    0    0  0.00000000000E+00  0.00000000000E+00  0.74505805969E-08  0.10566000000E+00  0.10566000000E+00 0. -1.
     999900   -1    0    0    0    0 -0.00000000000E+00 -0.00000000000E+00 -0.74505805969E-08  0.93827000000E+00  0.93827000000E+00 0.  1.
     999902    2    1    2    0    0 -0.80780321836E-02 -0.11003192970E-01  0.83064057473E-03  0.10302546637E+01  0.10301638982E+01 0.  0.
     999903    2    3    3    0    0 -0.95478640662E-01 -0.84198982831E-01 -0.45178430555E-01  0.14170904041E+00  0.42833655164E-01 0.  0.
         14    1    1    2    0    0  0.80780321836E-02  0.11003192970E-01 -0.83064057473E-03  0.13675336312E-01  0.00000000000E+00 0.  1.
     999901    1    3    3    0    0  0.87400608478E-01  0.73195789861E-01  0.46009071130E-01  0.88854562328E+00  0.88000000000E+00 0. -1.
        -11    1    4    4    0    0 -0.10164523256E-01  0.16322117551E-02  0.40303007869E-02  0.11067343569E-01  0.51100000000E-03 0.  1.
         11    1    4    4    0    0 -0.85314117406E-01 -0.85831194586E-01 -0.49208731342E-01  0.13064169684E+00  0.51100000000E-03 0. -1.
</event>
<event>
 8    1  0.2107254E+004  0.1043930E+01  0.7957747E-01            NaN
         13   -1    0    0    0    0  0.00000000000E+00  0.00000000000E+00  0.74505805969E-08  0.10566000000E+00  0.10566000000E+00 0. -1.
     999900   -1    0    0    0    0 -0.00000000000E+00 -0.00000000000E+00 -0.74505805969E-08  0.93827000000E+00  0.93827000000E+00 0.  1.
     999902    2    1    2    0    0  0.65277797315E-02 -0.85310904646E-02  0.82446658463E-02  0.10303887324E+01  0.10302997496E+01 0.  0.
     999903    2    3    3    0    0  0.40123318758E-01  0.10463620330E-01  0.12681028169E+00  0.14159895720E+00  0.47434682245E-01 0.  0.
         14    1    1    2    0    0 -0.65277797315E-02  0.85310904646E-02 -0.82446658463E-02  0.13541267579E-01  0.00000000000E+00 0.  1.
     999901    1    3    3    0    0 -0.33595539027E-01 -0.18994710794E-01 -0.11856561584E+00  0.88878977522E+00  0.88000000000E+00 0.  1.
        -11    1    4    4    0    0  0.36045997949E-01 -0.12260756655E-01  0.61580319776E-01  0.72401913142E-01  0.51100000000E-03 0.  1.
         11    1    4    4    0    0  0.40773208099E-02  0.22724376985E-01  0.65229961910E-01  0.69197044056E-01  0.51100000000E-03 0. -1.
</event>
<event>
 8    1  0.2107254E+004  0.1043930E+01  0.7957747E-01            NaN
         13   -1    0    0    0    0  0.00000000000E+00  0.00000000000E+00  0.74505805969E-08  0.10566000000E+00  0.10566000000E+00 0. -1.
     999900   -1    0    0    0    0 -0.00000000000E+00 -0.00000000000E+00 -0.74505805969E-08  0.93827000000E+00  0.93827000000E+00 0. -1.
     999902    2    1    2    0    0  0.92026682006E-02 -0.90822260461E-02  0.45876500861E-02  0.10302105807E+01  0.10301192252E+01 0.  0.
     999903    2    3    3    0    0 -0.43240130601E-01 -0.23238987698E-02  0.12575068454E+00  0.14033620585E+00  0.44787348777E-01 0.  0.
         14    1    1    2    0    0 -0.92026682006E-02  0.90822260461E-02 -0.45876500861E-02  0.13719419276E-01  0.00000000000E+00 0.  1.
     999901    1    3    3    0    0  0.52442798802E-01 -0.67583272763E-02 -0.12116303446E+00  0.88987437487E+00  0.88000000000E+00 0. -1.
        -11    1    4    4    0    0 -0.19778501862E-01 -0.21599300214E-01  0.82033513817E-01  0.87106127315E-01  0.51100000000E-03 0. -1.
         11    1    4    4    0    0 -0.23461628739E-01  0.19275401444E-01  0.43717170725E-01  0.53230078538E-01  0.51100000000E-03 0.  1.
</event>
<event>
 8    1  0.2107254E+004  0.1043930E+01  0.7957747E-01            NaN
         13   -1    0    0    0    0  0.00000000000E+00  0.00000000000E+00  0.74505805969E-08  0.10566000000E+00  0.10566000000E+00 0.  1.
     999900   -1    0    0    0    0 -0.00000000000E+00 -0.00000000000E+00 -0.74505805969E-08  0.93827000000E+00  0.93827000000E+00 0.  1.
     999902    2    1    2    0    0  0.21092677031E-02 -0.17172049690E-02 -0.15541619171E-01  0.10281521760E+01  0.10280311072E+01 0.  0.
     999903    2    3    3    0    0 -0.11909006849E+00 -0.37362930652E-01 -0.40766802522E-01  0.13877250078E+00  0.44915941306E-01 0.  0.
         14    1    1    2    0    0 -0.21092677031E-02  0.17172049690E-02  0.15541619171E-01  0.15777823982E-01  0.00000000000E+00 0.  1.
     999901    1    3    3    0    0  0.12119933620E+00  0.35645725683E-01  0.25225183351E-01  0.88937967524E+00  0.88000000000E+00 0. -1.
        -11    1    4    4    0    0 -0.66903655820E-01 -0.38468793103E-01 -0.39169515212E-01  0.86547439291E-01  0.51100000000E-03 0.  1.
         11    1    4    4    0    0 -0.52186412675E-01  0.11058624502E-02 -0.15972873099E-02  0.52225061488E-01  0.51100000000E-03 0. -1.
</event>
<event>
 8    1  0.2107254E+004  0.1043930E+01  0.7957747E-01            NaN
         13   -1    0    0    0    0  0.00000000000E+00  0.00000000000E+00  0.74505805969E-08  0.10566000000E+00  0.10566000000E+00 0.  1.
     999900   -1    0    0    0    0 -0.00000000000E+00 -0.00000000000E+00 -0.74505805969E-08  0.93827000000E+00  0.93827000000E+00 0.  1.
     999902    2    1    2    0    0 -0.78240656064E-02  0.45961552052E-02 -0.66607344346E-02  0.10326736228E+01  0.10326122724E+01 0.  0.
     999903    2    3    3    0    0 -0.52173099289E-01 -0.10382370710E+00 -0.69237029937E-01  0.14270873801E+00  0.45504100318E-01 0.  0.
         14    1    1    2    0    0  0.78240656064E-02 -0.45961552052E-02  0.66607344346E-02  0.11256377237E-01  0.00000000000E+00 0.  1.
     999901    1    3    3    0    0  0.44349033683E-01  0.10841986230E+00  0.62576295502E-01  0.88996488475E+00  0.88000000000E+00 0. -1.
        -11    1    4    4    0    0 -0.65773068114E-02 -0.59118776609E-01 -0.44239574626E-01  0.74132933281E-01  0.51100000000E-03 0. -1.
         11    1    4    4    0    0 -0.45595792478E-01 -0.44704930488E-01 -0.24997455311E-01  0.68575804732E-01  0.51100000000E-03 0.  1.
</event>
<event>
 8    1  0.2107254E+004  0.1043930E+01  0.7957747E-01            NaN
         13   -1    0    0    0    0  0.00000000000E+00  0.00000000000E+00  0.74505805969E-08  0.10566000000E+00  0.10566000000E+00 0. -1.
     999900   -1    0    0    0    0 -0.00000000000E+00 -0.00000000000E+00 -0.74505805969E-08  0.93827000000E+00  0.93827000000E+00 0. -1.
     999902    2    1    2    0    0  0.10163970056E-01  0.80767599120E-02  0.51590811711E-02  0.10299601590E+01  0.10298654149E+01 0.  0.
     999903    2    3    3    0    0 -0.74260667219E-01  0.99338205315E-01 -0.40869010653E-01  0.14003052360E+00  0.50552406240E-01 0.  0.
         14    1    1    2    0    0 -0.10163970056E-01 -0.80767599120E-02 -0.51590811711E-02  0.13969840962E-01  0.00000000000E+00 0. -1.
     999901    1    3    3    0    0  0.84424637274E-01 -0.91261445403E-01  0.46028091824E-01  0.88992963544E+00  0.88000000000E+00 0.  1.
        -11    1    4    4    0    0 -0.16758724063E-01  0.30576437060E-02 -0.19444797947E-01  0.25856629816E-01  0.51100000000E-03 0.  1.
         11    1    4    4    0    0 -0.57501943155E-01  0.96280561609E-01 -0.21424212705E-01  0.11417389378E+00  0.51100000000E-03 0. -1.
</event>
<event>
 8    1  0.2107254E+004  0.1043930E+01  0.7957747E-01            NaN
         13   -1    0    0    0    0  0.00000000000E+00  0.00000000000E+00  0.74505805969E-08  0.10566000000E+00  0.10566000000E+00 0. -1.
     999900   -1    0    0    0    0 -0.00000000000E+00 -0.00000000000E+00 -0.74505805969E-08  0.93827000000E+00  0.93827000000E+00 0.  1.
     999902    2    1    2    0    0 -0.98750191311E-02 -0.10133229658E-01 -0.16413328246E-02  0.10296859725E+01  0.10295874463E+01 0.  0.
     999903    2    3    3    0    0  0.86222684744E-01 -0.47203102511E-01 -0.87975310195E-01  0.13948234421E+00  0.45312083279E-01 0.  0.
         14    1    1    2    0    0  0.98750191311E-02  0.10133229658E-01  0.16413328246E-02  0.14244027506E-01  0.00000000000E+00 0. -1.
     999901    1    3    3    0    0 -0.96097703875E-01  0.37069872853E-01  0.86333977371E-01  0.89020362829E+00  0.88000000000E+00 0. -1.
        -11    1    4    4    0    0  0.90069542679E-02 -0.76166598171E-02 -0.37012918387E-01  0.38850430892E-01  0.51100000000E-03 0.  1.
         11    1    4    4    0    0  0.77215730476E-01 -0.39586442694E-01 -0.50962391808E-01  0.10063191332E+00  0.51100000000E-03 0. -1.
</event>
<event>
 8    1  0.2325281E+004  0.1043930E+01  0.7957747E-01            NaN
         13   -1    0    0    0    0  0.00000000000E+00  0.00000000000E+00  0.74505805969E-08  0.10566000000E+00  0.10566000000E+00 0. -1.
     999900   -1    0    0    0    0 -0.00000000000E+00 -0.00000000000E+00 -0.74505805969E-08  0.93827000000E+00  0.93827000000E+00 0. -1.
     999902    2    1    2    0    0 -0.12117666827E-01 -0.65238320982E-02  0.42756257128E-02  0.10295189206E+01  0.10294180534E+01 0.  0.
     999903    2    3    3    0    0  0.64473260853E-02 -0.13274686415E+00  0.36989045835E-04  0.14030866490E+00  0.44980241478E-01 0.  0.
         14    1    1    2    0    0  0.12117666827E-01  0.65238320982E-02 -0.42756257128E-02  0.14411079412E-01  0.00000000000E+00 0. -1.
     999901    1    3    3    0    0 -0.18564992912E-01  0.12622303205E+00  0.42386366670E-02  0.88921025569E+00  0.88000000000E+00 0. -1.
        -11    1    4    4    0    0  0.54803465709E-02 -0.51290122815E-01  0.21778062487E-01  0.55993356959E-01  0.51100000000E-03 0.  1.
         11    1    4    4    0    0  0.96697951438E-03 -0.81456741331E-01 -0.21741073441E-01  0.84315307940E-01  0.51100000000E-03 0. -1.
</event>
<event>
 8    1  0.2107254E+004  0.1043930E+01  0.7957747E-01            NaN
         13   -1    0    0    0    0  0.00000000000E+00  0.00000000000E+00  0.74505805969E-08  0.10566000000E+00  0.10566000000E+00 0. -1.
     999900   -1    0    0    0    0 -0.00000000000E+00 -0.00000000000E+00 -0.74505805969E-08  0.93827000000E+00  0.93827000000E+00 0. -1.
     999902    2    1    2    0    0  0.63455170684E-02  0.86658974012E-02 -0.35487587547E-02  0.10326181897E+01  0.10325562302E+01 0.  0.
     999903    2    3    3    0    0 -0.72483873798E-01 -0.94040850694E-01  0.59553299425E-01  0.14090937019E+00  0.47024053140E-01 0.  0.
         14    1    1    2    0    0 -0.63455170684E-02 -0.86658974012E-02  0.35487587547E-02  0.11311810347E-01  0.00000000000E+00 0.  1.
     999901    1    3    3    0    0  0.78829390867E-01  0.10270674810E+00 -0.63102058179E-01  0.89170881947E+00  0.88000000000E+00 0.  1.
        -11    1    4    4    0    0 -0.40415400601E-01 -0.17132368367E-01  0.14822847211E-01  0.46334658432E-01  0.51100000000E-03 0.  1.
         11    1    4    4    0    0 -0.32068473198E-01 -0.76908482327E-01  0.44730452213E-01  0.94574711754E-01  0.51100000000E-03 0. -1.
</event>
<event>
 8    1  0.2107254E+004  0.1043930E+01  0.7957747E-01            NaN
         13   -1    0    0    0    0  0.00000000000E+00  0.00000000000E+00  0.74505805969E-08  0.10566000000E+00  0.10566000000E+00 0. -1.
     999900   -1    0    0    0    0 -0.00000000000E+00 -0.00000000000E+00 -0.74505805969E-08  0.93827000000E+00  0.93827000000E+00 0. -1.
     999902    2    1    2    0    0 -0.84526923666E-02  0.54078153291E-02  0.13826538268E-01  0.10268459245E+01  0.10267037971E+01 0.  0.
     999903    2    3    3    0    0  0.63576979922E-01  0.11248576928E+00  0.73230093537E-02  0.13741000338E+00  0.46182268190E-01 0.  0.
         14    1    1    2    0    0  0.84526923666E-02 -0.54078153291E-02 -0.13826538268E-01  0.17084075490E-01  0.00000000000E+00 0.  1.
     999901    1    3    3    0    0 -0.72029672288E-01 -0.10707795395E+00  0.65035289141E-02  0.88943592113E+00  0.88000000000E+00 0.  1.
        -11    1    4    4    0    0  0.62894242759E-01  0.11573767151E+00  0.11293955513E-01  0.13220706838E+00  0.51100000000E-03 0.  1.
         11    1    4    4    0    0  0.68273716324E-03 -0.32519022279E-02 -0.39709461597E-02  0.52029349926E-02  0.51100000000E-03 0. -1.
</event>
<event>
 8    1  0.2107254E+004  0.1043930E+01  0.7957747E-01            NaN
         13   -1    0    0    0    0  0.00000000000E+00  0.00000000000E+00  0.74505805969E-08  0.10566000000E+00  0.10566000000E+00 0.  1.
     999900   -1    0    0    0    0 -0.00000000000E+00 -0.00000000000E+00 -0.74505805969E-08  0.93827000000E+00  0.93827000000E+00 0.  1.
     999902    2    1    2    0    0 -0.44161052393E-02 -0.58440474093E-02  0.98619245602E-02  0.10316453579E+01  0.10315722137E+01 0.  0.
     999903    2    3    3    0    0  0.39686523501E-01  0.33220271128E-01 -0.12209540046E+00  0.13985850081E+00  0.44435423630E-01 0.  0.
         14    1    1    2    0    0  0.44161052393E-02  0.58440474093E-02 -0.98619245602E-02  0.12284642105E-01  0.00000000000E+00 0. -1.
     999901    1    3    3    0    0 -0.44102628740E-01 -0.39064318537E-01  0.13195732502E+00  0.89178685709E+00  0.88000000000E+00 0. -1.
        -11    1    4    4    0    0  0.28019343308E-01  0.21238864877E-01 -0.29898556865E-01  0.46155799249E-01  0.51100000000E-03 0. -1.
         11    1    4    4    0    0  0.11667180193E-01  0.11981406251E-01 -0.92196843597E-01  0.93702701560E-01  0.51100000000E-03 0.  1.
</event>
<event>
 8    1  0.2107254E+004  0.1043930E+01  0.7957747E-01            NaN
         13   -1    0    0    0    0  0.00000000000E+00  0.00000000000E+00  0.74505805969E-08  0.10566000000E+00  0.10566000000E+00 0.  1.
     999900   -1    0    0    0    0 -0.00000000000E+00 -0.00000000000E+00 -0.74505805969E-08  0.93827000000E+00  0.93827000000E+00 0.  1.
     999902    2    1    2    0    0  0.58689322976E-02 -0.39219087579E-02 -0.13882222664E-01  0.10283562451E+01  0.10282383114E+01 0.  0.
     999903    2    3    3    0    0  0.85700191700E-01  0.16259305123E-01 -0.99795950684E-01  0.14034640282E+00  0.46141013779E-01 0.  0.
         14    1    1    2    0    0 -0.58689322976E-02  0.39219087579E-02  0.13882222664E-01  0.15573754868E-01  0.00000000000E+00 0.  1.
     999901    1    3    3    0    0 -0.79831259402E-01 -0.20181213881E-01  0.85913728020E-01  0.88800984231E+00  0.88000000000E+00 0. -1.
        -11    1    4    4    0    0  0.28717580619E-01  0.28369363586E-01 -0.38603533886E-01  0.55857087074E-01  0.51100000000E-03 0.  1.
         11    1    4    4    0    0  0.56982611080E-01 -0.12110058463E-01 -0.61192416797E-01  0.84489315751E-01  0.51100000000E-03 0. -1.
</event>
<event>
 8    1  0.2107254E+004  0.1043930E+01  0.7957747E-01            NaN
         13   -1    0    0    0    0  0.00000000000E+00  0.00000000000E+00  0.74505805969E-08  0.10566000000E+00  0.10566000000E+00 0.  1.
     999900   -1    0    0    0    0 -0.00000000000E+00 -0.00000000000E+00 -0.74505805969E-08  0.93827000000E+00  0.93827000000E+00 0.  1.
     999902    2    1    2    0    0 -0.57030953569E-02  0.89855695150E-02  0.86612265534E-02  0.10302083893E+01  0.10301170044E+01 0.  0.
     999903    2    3    3    0    0 -0.29253586914E-01  0.12607645786E+00  0.36487501508E-01  0.14170447628E+00  0.44696479254E-01 0.  0.
         14    1    1    2    0    0  0.57030953569E-02 -0.89855695150E-02 -0.86612265534E-02  0.13721610750E-01  0.00000000000E+00 0. -1.
     999901    1    3    3    0    0  0.23550491557E-01 -0.11709088834E+00 -0.27826274954E-01  0.88850391297E+00  0.88000000000E+00 0.  1.
        -11    1    4    4    0    0 -0.92722309253E-02  0.10380459566E+00  0.16006320522E-01  0.10544112938E+00  0.51100000000E-03 0.  1.
         11    1    4    4    0    0 -0.19981355989E-01  0.22271862195E-01  0.20481180985E-01  0.36263346900E-01  0.51100000000E-03 0. -1.
</event>
<event>
 8    1  0.2107254E+004  0.1043930E+01  0.7957747E-01            NaN
         13   -1    0    0    0    0  0.00000000000E+00  0.00000000000E+00  0.74505805969E-08  0.10566000000E+00  0.10566000000E+00 0. -1.
     999900   -1    0    0    0    0 -0.00000000000E+00 -0.00000000000E+00 -0.74505805969E-08  0.93827000000E+00  0.93827000000E+00 0. -1.
     999902    2    1    2    0    0  0.12160042523E-01 -0.19535039405E-03 -0.66907890230E-02  0.10300493857E+01  0.10299558561E+01 0.  0.
     999903    2    3    3    0    0 -0.11907601509E-01 -0.14343519617E-01 -0.13235281122E+00  0.14068423795E+00  0.43900576776E-01 0.  0.
         14    1    1    2    0    0 -0.12160042523E-01  0.19535039405E-03  0.66907890230E-02  0.13880614312E-01  0.00000000000E+00 0. -1.
     999901    1    3    3    0    0  0.24067644032E-01  0.14148169223E-01  0.12566202220E+00  0.88936514773E+00  0.88000000000E+00 0.  1.
        -11    1    4    4    0    0  0.14894702957E-01 -0.13457770503E-01 -0.69619585841E-01  0.72457653955E-01  0.51100000000E-03 0.  1.
         11    1    4    4    0    0 -0.26802304466E-01 -0.88574911443E-03 -0.62733225382E-01  0.68226583998E-01  0.51100000000E-03 0. -1.
</event>
<event>
 8    1  0.2107254E+004  0.1043930E+01  0.7957747E-01            NaN
         13   -1    0    0    0    0  0.00000000000E+00  0.00000000000E+00  0.74505805969E-08  0.10566000000E+00  0.10566000000E+00 0. -1.
     999900   -1    0    0    0    0 -0.00000000000E+00 -0.00000000000E+00 -0.74505805969E-08  0.93827000000E+00  0.93827000000E+00 0. -1.
     999902    2    1    2    0    0 -0.10047059829E-01 -0.25767475848E-02  0.85697134556E-02  0.10304755202E+01  0.10303876817E+01 0.  0.
     999903    2    3    3    0    0  0.12921171892E+00 -0.18001359336E-01  0.19390951936E-01  0.13932568690E+00  0.44899006317E-01 0.  0.
         14    1    1    2    0    0  0.10047059829E-01  0.25767475848E-02 -0.85697134556E-02  0.13454479850E-01  0.00000000000E+00 0.  1.
     999901    1    3    3    0    0 -0.13925877875E+00  0.15424611752E-01 -0.10821238480E-01  0.89114983325E+00  0.88000000000E+00 0. -1.
        -11    1    4    4    0    0  0.39180017853E-01 -0.26242426543E-01  0.11704026626E-01  0.48589958943E-01  0.51100000000E-03 0. -1.
         11    1    4    4    0    0  0.90031701066E-01  0.82410672065E-02  0.76869253100E-02  0.90735727953E-01  0.51100000000E-03 0.  1.
</event>
<event>
 8    1  0.2107254E+004  0.1043930E+01  0.7957747E-01            NaN
         13   -1    0    0    0    0  0.00000000000E+00  0.00000000000E+00  0.74505805969E-08  0.10566000000E+00  0.10566000000E+00 0. -1.
     999900   -1    0    0    0    0 -0.00000000000E+00 -0.00000000000E+00 -0.74505805969E-08  0.93827000000E+00  0.93827000000E+00 0. -1.
     999902    2    1    2    0    0 -0.58048814710E-02 -0.92941142812E-02 -0.10513014771E-01  0.10287444579E+01  0.10286323731E+01 0.  0.
     999903    2    3    3    0    0 -0.11849716690E+00  0.56952254302E-01  0.86113874951E-03  0.13901556441E+00  0.45160245299E-01 0.  0.
         14    1    1    2    0    0  0.58048814710E-02  0.92941142812E-02  0.10513014771E-01  0.15185542096E-01  0.00000000000E+00 0. -1.
     999901    1    3    3    0    0  0.11269228543E+00 -0.66246368583E-01 -0.11374153520E-01  0.88972889349E+00  0.88000000000E+00 0. -1.
        -11    1    4    4    0    0 -0.99250472685E-01  0.61596690859E-01  0.99277291050E-02  0.11723322728E+00  0.51100000000E-03 0.  1.
         11    1    4    4    0    0 -0.19246694216E-01 -0.46444365567E-02 -0.90665903555E-02  0.21782337130E-01  0.51100000000E-03 0. -1.
</event>
<event>
 8    1  0.2226786E+004  0.1043930E+01  0.7957747E-01            NaN
         13   -1    0    0    0    0  0.00000000000E+00  0.00000000000E+00  0.74505805969E-08  0.10566000000E+00  0.10566000000E+00 0. -1.
     999900   -1    0    0    0    0 -0.00000000000E+00 -0.00000000000E+00 -0.74505805969E-08  0.93827000000E+00  0.93827000000E+00 0.  1.
     999902    2    1    2    0    0 -0.13882191800E-02 -0.49785518633E-02 -0.11849370619E-01  0.10310024822E+01  0.10309214314E+01 0.  0.
     999903    2    3    3    0    0 -0.67349256933E-01  0.11371519454E+00 -0.14724143733E-01  0.14058273390E+00  0.45603034804E-01 0.  0.
         14    1    1    2    0    0  0.13882191800E-02  0.49785518633E-02  0.11849370619E-01  0.12927517751E-01  0.00000000000E+00 0. -1.
     999901    1    3    3    0    0  0.65961037753E-01 -0.11869374640E+00  0.28747731141E-02  0.89041974835E+00  0.88000000000E+00 0. -1.
        -11    1    4    4    0    0 -0.23485131645E-01  0.58543193136E-01  0.13752090925E-01  0.64561892760E-01  0.51100000000E-03 0.  1.
         11    1    4    4    0    0 -0.43864125288E-01  0.55172001399E-01 -0.28476234658E-01  0.76020841136E-01  0.51100000000E-03 0. -1.
</event>
<event>
 8    1  0.2107254E+004  0.1043930E+01  0.7957747E-01            NaN
         13   -1    0    0    0    0  0.00000000000E+00  0.00000000000E+00  0.74505805969E-08  0.10566000000E+00  0.10566000000E+00 0. -1.
     999900   -1    0    0    0    0 -0.00000000000E+00 -0.00000000000E+00 -0.74505805969E-08  0.93827000000E+00  0.93827000000E+00 0. -1.
     999902    2    1    2    0    0 -0.37331649075E-03 -0.49142009529E-02  0.12911872540E-01  0.10301095373E+01  0.10300168220E+01 0.  0.
     999903    2    3    3    0    0 -0.13133549671E+00 -0.68993134815E-02  0.16629842742E-01  0.14040798252E+00  0.46273498488E-01 0.  0.
         14    1    1    2    0    0  0.37331649075E-03  0.49142009529E-02 -0.12911872540E-01  0.13820462680E-01  0.00000000000E+00 0.  1.
     999901    1    3    3    0    0  0.13096218022E+00  0.19851125287E-02 -0.37179702016E-02  0.88970155480E+00  0.88000000000E+00 0. -1.
        -11    1    4    4    0    0 -0.10057010495E+00 -0.20050059818E-01 -0.10635541668E-02  0.10255604895E+00  0.51100000000E-03 0.  1.
         11    1    4    4    0    0 -0.30765391757E-01  0.13150746337E-01  0.17693396909E-01  0.37851933562E-01  0.51100000000E-03 0. -1.
</event>
<event>
 8    1  0.2107254E+004  0.1043930E+01  0.7957747E-01            NaN
         13   -1    0    0    0    0  0.00000000000E+00  0.00000000000E+00  0.74505805969E-08  0.10566000000E+00  0.10566000000E+00 0.  1.
     999900   -1    0    0    0    0 -0.00000000000E+00 -0.00000000000E+00 -0.74505805969E-08  0.93827000000E+00  0.93827000000E+00 0. -1.
     999902    2    1    2    0    0  0.10707742498E-01 -0.38651784799E-04 -0.88010517409E-02  0.10300694172E+01  0.10299761592E+01 0.  0.
     999903    2    3    3    0    0 -0.91441875528E-01  0.17523946384E-01  0.91802905077E-01  0.13829357910E+00  0.45040374590E-01 0.  0.
         14    1    1    2    0    0 -0.10707742498E-01  0.38651784799E-04  0.88010517409E-02  0.13860582784E-01  0.00000000000E+00 0.  1.
     999901    1    3    3    0    0  0.10214961803E+00 -0.17562598169E-01 -0.10060395682E+00  0.89177583811E+00  0.88000000000E+00 0. -1.
        -11    1    4    4    0    0 -0.34864416613E-01  0.29061993962E-01  0.35277821973E-01  0.57488371720E-01  0.51100000000E-03 0.  1.
         11    1    4    4    0    0 -0.56577458915E-01 -0.11538047578E-01  0.56525083104E-01  0.80805207382E-01  0.51100000000E-03 0. -1.
</event>
<event>
 8    1  0.2107254E+004  0.1043930E+01  0.7957747E-01            NaN
         13   -1    0    0    0    0  0.00000000000E+00  0.00000000000E+00  0.74505805969E-08  0.10566000000E+00  0.10566000000E+00 0. -1.
     999900   -1    0    0    0    0 -0.00000000000E+00 -0.00000000000E+00 -0.74505805969E-08  0.93827000000E+00  0.93827000000E+00 0.  1.
     999902    2    1    2    0    0 -0.61246889199E-02  0.71182736309E-02  0.76484256838E-02  0.10318188461E+01  0.10317477652E+01 0.  0.
     999903    2    3    3    0    0  0.11838735245E+00 -0.28566782900E-02 -0.60668910051E-01  0.14037619146E+00  0.44732903467E-01 0.  0.
         14    1    1    2    0    0  0.61246889199E-02 -0.71182736309E-02 -0.76484256838E-02  0.12111153921E-01  0.00000000000E+00 0. -1.
     999901    1    3    3    0    0 -0.12451204137E+00  0.99749519209E-02  0.68317335734E-01  0.89144265462E+00  0.88000000000E+00 0. -1.
        -11    1    4    4    0    0  0.97015943287E-02 -0.98147363990E-02 -0.19608967163E-01  0.23983800726E-01  0.51100000000E-03 0.  1.
         11    1    4    4    0    0  0.10868575812E+00  0.69580581090E-02 -0.41059942888E-01  0.11639239073E+00  0.51100000000E-03 0. -1.
</event>
<event>
 8    1  0.2107254E+004  0.1043930E+01  0.7957747E-01            NaN
         13   -1    0    0    0    0  0.00000000000E+00  0.00000000000E+00  0.74505805969E-08  0.10566000000E+00  0.10566000000E+00 0.  1.
     999900   -1    0    0    0    0 -0.00000000000E+00 -0.00000000000E+00 -0.74505805969E-08  0.93827000000E+00  0.93827000000E+00 0. -1.
     999902    2    1    2    0    0 -0.98645792674E-02  0.83973594395E-02  0.41222426113E-02  0.10303352049E+01  0.10302455125E+01 0.  0.
     999903    2    3    3    0    0 -0.23042934076E-01 -0.31330597252E-01 -0.12669915198E+00  0.13968026787E+00  0.44105770415E-01 0.  0.
         14    1    1    2    0    0  0.98645792674E-02 -0.83973594395E-02 -0.41222426113E-02  0.13594795101E-01  0.00000000000E+00 0. -1.
     999901    1    3    3    0    0  0.13178354809E-01  0.39727956691E-01  0.13082139459E+00  0.89065493703E+00  0.88000000000E+00 0.  1.
        -11    1    4    4    0    0 -0.35770778347E-01 -0.18144107463E-01 -0.93808248781E-01  0.10202453567E+00  0.51100000000E-03 0. -1.
         11    1    4    4    0    0  0.12727844271E-01 -0.13186489789E-01 -0.32890903198E-01  0.37655732192E-01  0.51100000000E-03 0.  1.
</event>
<event>
 8    1  0.2107254E+004  0.1043930E+01  0.7957747E-01            NaN
         13   -1    0    0    0    0  0.00000000000E+00  0.00000000000E+00  0.74505805969E-08  0.10566000000E+00  0.10566000000E+00 0.  1.
     999900   -1    0    0    0    0 -0.00000000000E+00 -0.00000000000E+00 -0.74505805969E-08  0.93827000000E+00  0.93827000000E+00 0.  1.
     999902    2    1    2    0    0 -0.13430218828E-01 -0.11121359109E-01 -0.38510015366E-03  0.10264885635E+01  0.10263403759E+01 0.  0.
     999903    2    3    3    0    0  0.11124116517E+00  0.41366510581E-01  0.45828589999E-01  0.13495413586E+00  0.45017486589E-01 0.  0.
         14    1    1    2    0    0  0.13430218828E-01  0.11121359109E-01  0.38510015366E-03  0.17441436533E-01  0.00000000000E+00 0. -1.
     999901    1    3    3    0    0 -0.12467138400E+00 -0.52487869691E-01 -0.46213690153E-01  0.89153442761E+00  0.88000000000E+00 0. -1.
        -11    1    4    4    0    0  0.38361977280E-01 -0.74456994804E-02  0.11256610975E-01  0.40670039996E-01  0.51100000000E-03 0. -1.
         11    1    4    4    0    0  0.72879187886E-01  0.48812210062E-01  0.34571979024E-01  0.94284095863E-01  0.51100000000E-03 0.  1.
</event>
<event>
 8    1  0.2107254E+004  0.1043930E+01  0.7957747E-01            NaN
         13   -1    0    0    0    0  0.00000000000E+00  0.00000000000E+00  0.74505805969E-08  0.10566000000E+00  0.10566000000E+00 0.  1.
     999900   -1    0    0    0    0 -0.00000000000E+00 -0.00000000000E+00 -0.74505805969E-08  0.93827000000E+00  0.93827000000E+00 0. -1.
     999902    2    1    2    0    0  0.12048403830E-01 -0.75385283820E-02  0.12295885102E-01  0.10251368567E+01  0.10249645812E+01 0.  0.
     999903    2    3    3    0    0 -0.75151337869E-01  0.42816811036E-01 -0.90652285860E-01  0.13343187125E+00  0.45882724876E-01 0.  0.
         14    1    1    2    0    0 -0.12048403830E-01  0.75385283820E-02 -0.12295885102E-01  0.18793143310E-01  0.00000000000E+00 0.  1.
     999901    1    3    3    0    0  0.87199741699E-01 -0.50355339418E-01  0.10294817096E+00  0.89170498544E+00  0.88000000000E+00 0.  1.
        -11    1    4    4    0    0 -0.18156631173E-01  0.55896108311E-02 -0.51509815949E-01  0.54903818309E-01  0.51100000000E-03 0.  1.
         11    1    4    4    0    0 -0.56994706696E-01  0.37227200205E-01 -0.39142469910E-01  0.78528052938E-01  0.51100000000E-03 0. -1.
</event>
<event>
 8    1  0.2107254E+004  0.1043930E+01  0.7957747E-01            NaN
         13   -1    0    0    0    0  0.00000000000E+00  0.00000000000E+00  0.74505805969E-08  0.10566000000E+00  0.10566000000E+00 0.  1.
     999900   -1    0    0    0    0 -0.00000000000E+00 -0.00000000000E+00 -0.74505805969E-08  0.93827000000E+00  0.93827000000E+00 0.  1.
     999902    2    1    2    0    0  0.40182375390E-02  0.68191063869E-02  0.13560408794E-01  0.10282286901E+01  0.10281088017E+01 0.  0.
     999903    2    3    3    0    0  0.89867778085E-01 -0.33393602805E-01  0.91250619062E-01  0.13973390998E+00  0.44805578587E-01 0.  0.
         14    1    1    2    0    0 -0.40182375390E-02 -0.68191063869E-02 -0.13560408794E-01  0.15701309865E-01  0.00000000000E+00 0. -1.
     999901    1    3    3    0    0 -0.85849540546E-01  0.40212709192E-01 -0.77690210268E-01  0.88849478016E+00  0.88000000000E+00 0.  1.
        -11    1    4    4    0    0  0.68478526277E-01 -0.23091055132E-01  0.38498797386E-01  0.81883599758E-01  0.51100000000E-03 0.  1.
         11    1    4    4    0    0  0.21389251808E-01 -0.10302547673E-01  0.52751821676E-01  0.57850310221E-01  0.51100000000E-03 0. -1.
</event>
<event>
 8    1  0.2107254E+004  0.1043930E+01  0.7957747E-01            NaN
         13   -1    0    0    0    0  0.00000000000E+00  0.00000000000E+00  0.74505805969E-08  0.10566000000E+00  0.10566000000E+00 0. -1.
     999900   -1    0    0    0    0 -0.00000000000E+00 -0.00000000000E+00 -0.74505805969E-08  0.93827000000E+00  0.93827000000E+00 0. -1.
     999902    2    1    2    0    0  0.34427274292E-02  0.27031833898E-02 -0.13749732436E-01  0.10295003529E+01  0.10293992238E+01 0.  0.
     999903    2    3    3    0    0  0.37562902540E-01 -0.25506736506E-01  0.12156082945E+00  0.13805829980E+00  0.47132723564E-01 0.  0.
         14    1    1    2    0    0 -0.34427274292E-02 -0.27031833898E-02  0.13749732436E-01  0.14429647073E-01  0.00000000000E+00 0. -1.
     999901    1    3    3    0    0 -0.34120175111E-01  0.28209919895E-01 -0.13531056189E+00  0.89144205313E+00  0.88000000000E+00 0. -1.
        -11    1    4    4    0    0  0.10323699665E-02 -0.26760855995E-01  0.69165725260E-01  0.74171206496E-01  0.51100000000E-03 0.  1.
         11    1    4    4    0    0  0.36530532573E-01  0.12541194894E-02  0.52395104195E-01  0.63887093300E-01  0.51100000000E-03 0. -1.
</event>
<event>
 8    1  0.2107254E+004  0.1043930E+01  0.7957747E-01            NaN
         13   -1    0    0    0    0  0.00000000000E+00  0.00000000000E+00  0.74505805969E-08  0.10566000000E+00  0.10566000000E+00 0.  1.
     999900   -1    0    0    0    0 -0.00000000000E+00 -0.00000000000E+00 -0.74505805969E-08  0.93827000000E+00  0.93827000000E+00 0. -1.
     999902    2    1    2    0    0  0.70556182608E-03  0.27210271106E-02 -0.13605279645E-01  0.10300373602E+01  0.10299436674E+01 0.  0.
     999903    2    3    3    0    0  0.10568203932E+00 -0.50480684690E-01 -0.64036366113E-01  0.14077149589E+00  0.44709785390E-01 0.  0.
         14    1    1    2    0    0 -0.70556182608E-03 -0.27210271106E-02  0.13605279645E-01  0.13892639787E-01  0.00000000000E+00 0.  1.
     999901    1    3    3    0    0 -0.10497647749E+00  0.53201711801E-01  0.50431086468E-01  0.88926586432E+00  0.88000000000E+00 0. -1.
        -11    1    4    4    0    0  0.35647725272E-01 -0.37942096873E-01 -0.40055295179E-01  0.65689046462E-01  0.51100000000E-03 0.  1.
         11    1    4    4    0    0  0.70034314045E-01 -0.12538587817E-01 -0.23981070934E-01  0.75082449429E-01  0.51100000000E-03 0. -1.
</event>
<event>
 8    1  0.2107254E+004  0.1043930E+01  0.7957747E-01            NaN
         13   -1    0    0    0    0  0.00000000000E+00  0.00000000000E+00  0.74505805969E-08  0.10566000000E+00  0.10566000000E+00 0. -1.
     999900   -1    0    0    0    0 -0.00000000000E+00 -0.00000000000E+00 -0.74505805969E-08  0.93827000000E+00  0.93827000000E+00 0.  1.
     999902    2    1    2    0    0  0.20338614251E-01  0.26228234516E-02  0.76202689130E-02  0.10220529131E+01  0.10218187463E+01 0.  0.
     999903    2    3    3    0    0 -0.45431340809E-04 -0.27515009632E-01  0.12292170090E+00  0.13378593831E+00  0.45076101404E-01 0.  0.
         14    1    1    2    0    0 -0.20338614251E-01 -0.26228234516E-02 -0.76202689130E-02  0.21877086890E-01  0.00000000000E+00 0.  1.
     999901    1    3    3    0    0  0.20384045592E-01  0.30137833083E-01 -0.11530143199E+00  0.88826697480E+00  0.88000000000E+00 0.  1.
        -11    1    4    4    0    0 -0.14939935032E-01 -0.11987009877E-01  0.16736075362E-01  0.25441057448E-01  0.51100000000E-03 0. -1.
         11    1    4    4    0    0  0.14894503691E-01 -0.15527999754E-01  0.10618562554E+00  0.10834488086E+00  0.51100000000E-03 0.  1.
</event>
<event>
 8    1  0.2107254E+004  0.1043930E+01  0.7957747E-01            NaN
         13   -1    0    0    0    0  0.00000000000E+00  0.00000000000E+00  0.74505805969E-08  0.10566000000E+00  0.10566000000E+00 0.  1.
     999900   -1    0    0    0    0 -0.00000000000E+00 -0.00000000000E+00 -0.74505805969E-08  0.93827000000E+00  0.93827000000E+00 0.  1.
     999902    2    1    2    0    0 -0.11648297422E-01  0.53397361262E-02 -0.46192681432E-02  0.10303089408E+01  0.10302188992E+01 0.  0.
     999903    2    3    3    0    0 -0.12192791018E+00 -0.12934186522E-01 -0.55268806571E-01  0.14179281549E+00  0.44909387474E-01 0.  0.
         14    1    1    2    0    0  0.11648297422E-01 -0.53397361262E-02  0.46192681432E-02  0.13621059169E-01  0.00000000000E+00 0.  1.
     999901    1    3    3    0    0  0.11027961276E+00  0.18273922649E-01  0.50649538428E-01  0.88851612534E+00  0.88000000000E+00 0. -1.
        -11    1    4    4    0    0 -0.21272929102E-01 -0.70968641592E-02 -0.30691939054E-01  0.38015250063E-01  0.51100000000E-03 0.  1.
         11    1    4    4    0    0 -0.10065498108E+00 -0.58373223632E-02 -0.24576867517E-01  0.10377756543E+00  0.51100000000E-03 0. -1.
</event>
<event>
 8    1  0.2107254E+004  0.1043930E+01  0.7957747E-01            NaN
         13   -1    0    0    0    0  0.00000000000E+00  0.00000000000E+00  0.74505805969E-08  0.10566000000E+00  0.10566000000E+00 0. -1.
     999900   -1    0    0    0    0 -0.00000000000E+00 -0.00000000000E+00 -0.74505805969E-08  0.93827000000E+00  0.93827000000E+00 0.  1.
     999902    2    1    2    0    0 -0.12860861233E-01  0.14487836109E-02  0.50313651088E-02  0.10300442029E+01  0.10299506030E+01 0.  0.
     999903    2    3    3    0    0 -0.15016522983E-01 -0.91740127515E-01 -0.94102400859E-01  0.13958571226E+00  0.44577598202E-01 0.  0.
         14    1    1    2    0    0  0.12860861233E-01 -0.14487836109E-02 -0.50313651088E-02  0.13885797077E-01  0.00000000000E+00 0.  1.
     999901    1    3    3    0    0  0.21556617501E-02  0.93188911125E-01  0.99133765968E-01  0.89045849066E+00  0.88000000000E+00 0. -1.
        -11    1    4    4    0    0 -0.30796884948E-01 -0.66866380850E-01 -0.68297581579E-01  0.10042102260E+00  0.51100000000E-03 0. -1.
         11    1    4    4    0    0  0.15780361965E-01 -0.24873746665E-01 -0.25804819281E-01  0.39164689658E-01  0.51100000000E-03 0.  1.
</event>
<event>
 8    1  0.2107254E+004  0.1043930E+01  0.7957747E-01            NaN
         13   -1    0    0    0    0  0.00000000000E+00  0.00000000000E+00  0.74505805969E-08  0.10566000000E+00  0.10566000000E+00 0.  1.
     999900   -1    0    0    0    0 -0.00000000000E+00 -0.00000000000E+00 -0.74505805969E-08  0.93827000000E+00  0.93827000000E+00 0. -1.
     999902    2    1    2    0    0 -0.72083605815E-02 -0.25734788814E-02  0.10966752116E-01  0.10305564101E+01  0.10304696315E+01 0.  0.
     999903    2    3    3    0    0 -0.11415997083E+00 -0.38606658788E-01  0.60742672342E-01  0.14195375464E+00  0.44025256061E-01 0.  0.
         14    1    1    2    0    0  0.72083605815E-02  0.25734788814E-02 -0.10966752116E-01  0.13373589937E-01  0.00000000000E+00 0. -1.
     999901    1    3    3    0    0  0.10695161025E+00  0.36033179906E-01 -0.49775920226E-01  0.88860265542E+00  0.88000000000E+00 0. -1.
        -11    1    4    4    0    0 -0.46557420561E-02  0.13823815340E-02 -0.59097398975E-02  0.76663589438E-02  0.51100000000E-03 0. -1.
         11    1    4    4    0    0 -0.10950422877E+00 -0.39989040322E-01  0.66652412240E-01  0.13428739570E+00  0.51100000000E-03 0.  1.
</event>
<event>
 8    1  0.2107254E+004  0.1043930E+01  0.7957747E-01            NaN
         13   -1    0    0    0    0  0.00000000000E+00  0.00000000000E+00  0.74505805969E-08  0.10566000000E+00  0.10566000000E+00 0.  1.
     999900   -1    0    0    0    0 -0.00000000000E+00 -0.00000000000E+00 -0.74505805969E-08  0.93827000000E+00  0.93827000000E+00 0. -1.
     999902    2    1    2    0    0  0.11354346155E-02 -0.12912330583E-01  0.66354727909E-02  0.10293681666E+01  0.10292651628E+01 0.  0.
     999903    2    3    3    0    0  0.22107552368E-01 -0.11801042143E+00  0.58921338995E-01  0.14132579699E+00  0.45673332129E-01 0.  0.
         14    1    1    2    0    0 -0.11354346155E-02  0.12912330583E-01 -0.66354727909E-02  0.14561833401E-01  0.00000000000E+00 0. -1.
     999901    1    3    3    0    0 -0.20972117753E-01  0.10509809084E+00 -0.52285866204E-01  0.88804236961E+00  0.88000000000E+00 0. -1.
        -11    1    4    4    0    0  0.35325217591E-01 -0.10009176276E+00  0.47331267826E-01  0.11621850974E+00  0.51100000000E-03 0.  1.
         11    1    4    4    0    0 -0.13217665223E-01 -0.17918658666E-01  0.11590071170E-01  0.25107287249E-01  0.51100000000E-03 0. -1.
</event>
<event>
 8    1  0.2107254E+004  0.1043930E+01  0.7957747E-01            NaN
         13   -1    0    0    0    0  0.00000000000E+00  0.00000000000E+00  0.74505805969E-08  0.10566000000E+00  0.10566000000E+00 0.  1.
     999900   -1    0    0    0    0 -0.00000000000E+00 -0.00000000000E+00 -0.74505805969E-08  0.93827000000E+00  0.93827000000E+00 0. -1.
     999902    2    1    2    0    0  0.11952997125E-01 -0.29524716538E-02  0.57377914007E-02  0.10303464261E+01  0.10302568827E+01 0.  0.
     999903    2    3    3    0    0 -0.85568872669E-01  0.10111020932E+00  0.26376842313E-01  0.13862588297E+00  0.31242458597E-01 0.  0.
         14    1    1    2    0    0 -0.11952997125E-01  0.29524716538E-02 -0.57377914007E-02  0.13583573878E-01  0.00000000000E+00 0. -1.
     999901    1    3    3    0    0  0.97521869794E-01 -0.10406268098E+00 -0.20639050913E-01  0.89172054315E+00  0.88000000000E+00 0.  1.
        -11    1    4    4    0    0 -0.15414350065E-01  0.13593010597E-01 -0.68047314468E-02  0.21654967469E-01  0.51100000000E-03 0. -1.
         11    1    4    4    0    0 -0.70154522604E-01  0.87517198726E-01  0.33181573760E-01  0.11697091550E+00  0.51100000000E-03 0.  1.
</event>
<event>
 8    1  0.2107254E+004  0.1043930E+01  0.7957747E-01            NaN
         13   -1    0    0    0    0  0.00000000000E+00  0.00000000000E+00  0.74505805969E-08  0.10566000000E+00  0.10566000000E+00 0. -1.
     999900   -1    0    0    0    0 -0.00000000000E+00 -0.00000000000E+00 -0.74505805969E-08  0.93827000000E+00  0.93827000000E+00 0.  1.
     999902    2    1    2    0    0  0.10095428853E-02  0.58913605794E-02 -0.12528466987E-01  0.10300487252E+01  0.10299551866E+01 0.  0.
     999903    2    3    3    0    0  0.67125003159E-01 -0.30664096378E-02  0.11285661297E+00  0.13866053025E+00  0.44440506761E-01 0.  0.
         14    1    1    2    0    0 -0.10095428853E-02 -0.58913605794E-02  0.12528466987E-01  0.13881274846E-01  0.00000000000E+00 0. -1.
     999901    1    3    3    0    0 -0.66115460274E-01  0.89577702172E-02 -0.12538507996E+00  0.89138819490E+00  0.88000000000E+00 0.  1.
        -11    1    4    4    0    0 -0.48675622099E-02  0.70937717588E-03  0.22655258121E-01  0.23188752001E-01  0.51100000000E-03 0.  1.
         11    1    4    4    0    0  0.71992565369E-01 -0.37757868137E-02  0.90201354850E-01  0.11547177825E+00  0.51100000000E-03 0. -1.
</event>
<event>
 8    1  0.2107254E+004  0.1043930E+01  0.7957747E-01            NaN
         13   -1    0    0    0    0  0.00000000000E+00  0.00000000000E+00  0.74505805969E-08  0.10566000000E+00  0.10566000000E+00 0. -1.
     999900   -1    0    0    0    0 -0.00000000000E+00 -0.00000000000E+00 -0.74505805969E-08  0.93827000000E+00  0.93827000000E+00 0. -1.
     999902    2    1    2    0    0 -0.10142786787E-01  0.76922061474E-02  0.58187043753E-02  0.10299334476E+01  0.10298383383E+01 0.  0.
     999903    2    3    3    0    0  0.15921652163E-01  0.13245212698E+00 -0.17843643269E-02  0.14071907551E+00  0.44739348557E-01 0.  0.
         14    1    1    2    0    0  0.10142786787E-01 -0.76922061474E-02 -0.58187043753E-02  0.13996552427E-01  0.00000000000E+00 0.  1.
     999901    1    3    3    0    0 -0.26064438950E-01 -0.12475992083E+00  0.76030687022E-02  0.88921437206E+00  0.88000000000E+00 0.  1.
        -11    1    4    4    0    0  0.30741733697E-01  0.75467842553E-01  0.37545927579E-02  0.81577003733E-01  0.51100000000E-03 0.  1.
         11    1    4    4    0    0 -0.14820081534E-01  0.56984284423E-01 -0.55389570847E-02  0.59142071781E-01  0.51100000000E-03 0. -1.
</event>
<event>
 8    1  0.2107254E+004  0.1043930E+01  0.7957747E-01            NaN
         13   -1    0    0    0    0  0.00000000000E+00  0.00000000000E+00  0.74505805969E-08  0.10566000000E+00  0.10566000000E+00 0. -1.
     999900   -1    0    0    0    0 -0.00000000000E+00 -0.00000000000E+00 -0.74505805969E-08  0.93827000000E+00  0.93827000000E+00 0.  1.
     999902    2    1    2    0    0 -0.11712059200E-01 -0.22193939016E-02  0.52553248542E-02  0.10309024722E+01  0.10308201544E+01 0.  0.
     999903    2    3    3    0    0  0.33317830234E-01  0.10025657931E+00  0.80975572957E-01  0.14058647666E+00  0.45233333923E-01 0.  0.
         14    1    1    2    0    0  0.11712059200E-01  0.22193939016E-02 -0.52553248542E-02  0.13027527752E-01  0.00000000000E+00 0. -1.
     999901    1    3    3    0    0 -0.45029889434E-01 -0.10247597321E+00 -0.75720248103E-01  0.89031599559E+00  0.88000000000E+00 0.  1.
        -11    1    4    4    0    0 -0.56879650590E-03  0.67925547846E-01  0.51500810086E-01  0.85245516833E-01  0.51100000000E-03 0.  1.
         11    1    4    4    0    0  0.33886626740E-01  0.32331031463E-01  0.29474762871E-01  0.55340959826E-01  0.51100000000E-03 0. -1.
</event>
<event>
 8    1  0.2107254E+004  0.1043930E+01  0.7957747E-01            NaN
         13   -1    0    0    0    0  0.00000000000E+00  0.00000000000E+00  0.74505805969E-08  0.10566000000E+00  0.10566000000E+00 0. -1.
     999900   -1    0    0    0    0 -0.00000000000E+00 -0.00000000000E+00 -0.74505805969E-08  0.93827000000E+00  0.93827000000E+00 0.  1.
     999902    2    1    2    0    0  0.18125961205E-01 -0.18855438742E-01 -0.11218160433E-02  0.10177510674E+01  0.10174143201E+01 0.  0.
     999903    2    3    3    0    0  0.82695520916E-02  0.98120573495E-01 -0.69919763295E-01  0.12729405342E+00  0.40236430032E-01 0.  0.
         14    1    1    2    0    0 -0.18125961205E-01  0.18855438742E-01  0.11218160433E-02  0.26178932580E-01  0.00000000000E+00 0. -1.
     999901    1    3    3    0    0  0.98564091133E-02 -0.11697601224E+00  0.68797947251E-01  0.89045701400E+00  0.88000000000E+00 0. -1.
        -11    1    4    4    0    0  0.16977236394E-01  0.51280664744E-01 -0.55651590190E-01  0.77558324788E-01  0.51100000000E-03 0.  1.
         11    1    4    4    0    0 -0.87076843019E-02  0.46839908751E-01 -0.14268173105E-01  0.49735728631E-01  0.51100000000E-03 0. -1.
</event>
<event>
 8    1  0.2107254E+004  0.1043930E+01  0.7957747E-01            NaN
         13   -1    0    0    0    0  0.00000000000E+00  0.00000000000E+00  0.74505805969E-08  0.10566000000E+00  0.10566000000E+00 0. -1.
     999900   -1    0    0    0    0 -0.00000000000E+00 -0.00000000000E+00 -0.74505805969E-08  0.93827000000E+00  0.93827000000E+00 0. -1.
     999902    2    1    2    0    0 -0.77481509323E-02  0.10627840717E-01 -0.58813124698E-02  0.10295225478E+01  0.10294217318E+01 0.  0.
     999903    2    3    3    0    0 -0.60868168610E-01  0.50848637489E-01  0.10594578576E+00  0.13994694754E+00  0.45498579316E-01 0.  0.
         14    1    1    2    0    0  0.77481509323E-02 -0.10627840717E-01  0.58813124698E-02  0.14407452153E-01  0.00000000000E+00 0.  1.
     999901    1    3    3    0    0  0.53120017678E-01 -0.40220796772E-01 -0.11182709823E+00  0.88957560031E+00  0.88000000000E+00 0. -1.
        -11    1    4    4    0    0 -0.11392452491E-01  0.36665835338E-01  0.58296572105E-01  0.69806324176E-01  0.51100000000E-03 0. -1.
         11    1    4    4    0    0 -0.49475716119E-01  0.14182802151E-01  0.47649213655E-01  0.70140623359E-01  0.51100000000E-03 0.  1.
</event>
<event>
 8    1  0.2107254E+004  0.1043930E+01  0.7957747E-01            NaN
         13   -1    0    0    0    0  0.00000000000E+00  0.00000000000E+00  0.74505805969E-08  0.10566000000E+00  0.10566000000E+00 0.  1.
     999900   -1    0    0    0    0 -0.00000000000E+00 -0.00000000000E+00 -0.74505805969E-08  0.93827000000E+00  0.93827000000E+00 0.  1.
     999902    2    1    2    0    0 -0.83094522165E-02 -0.58187932185E-02  0.93842215767E-02  0.10301108479E+01  0.10300181503E+01 0.  0.
     999903    2    3    3    0    0  0.10699938720E+00  0.73575347033E-01  0.17854659603E-01  0.13900406064E+00  0.46272448085E-01 0.  0.
         14    1    1    2    0    0  0.83094522165E-02  0.58187932185E-02 -0.93842215767E-02  0.13819152118E-01  0.00000000000E+00 0. -1.
     999901    1    3    3    0    0 -0.11530883942E+00 -0.79394140252E-01 -0.84704380262E-02  0.89110678725E+00  0.88000000000E+00 0. -1.
        -11    1    4    4    0    0  0.24850151171E-01  0.32622067499E-01 -0.11565726978E-01  0.42611693966E-01  0.51100000000E-03 0.  1.
         11    1    4    4    0    0  0.82149236029E-01  0.40953279534E-01  0.29420386581E-01  0.96392366671E-01  0.51100000000E-03 0. -1.
</event>
<event>
 8    1  0.2107254E+004  0.1043930E+01  0.7957747E-01            NaN
         13   -1    0    0    0    0  0.00000000000E+00  0.00000000000E+00  0.74505805969E-08  0.10566000000E+00  0.10566000000E+00 0.  1.
     999900   -1    0    0    0    0 -0.00000000000E+00 -0.00000000000E+00 -0.74505805969E-08  0.93827000000E+00  0.93827000000E+00 0. -1.
     999902    2    1    2    0    0 -0.12929302764E-01 -0.24885854327E-03  0.46089680131E-02  0.10302015119E+01  0.10301100347E+01 0.  0.
     999903    2    3    3    0    0 -0.85373478297E-01  0.67003715658E-01  0.79070119650E-01  0.14154211118E+00  0.44765575032E-01 0.  0.
         14    1    1    2    0    0  0.12929302764E-01  0.24885854327E-03 -0.46089680131E-02  0.13728488142E-01  0.00000000000E+00 0. -1.
     999901    1    3    3    0    0  0.72444175533E-01 -0.67252574202E-01 -0.74461151637E-01  0.88865940068E+00  0.88000000000E+00 0. -1.
        -11    1    4    4    0    0 -0.80815453672E-01  0.45322783201E-01  0.74549152663E-01  0.11892489022E+00  0.51100000000E-03 0. -1.
         11    1    4    4    0    0 -0.45580246247E-02  0.21680932457E-01  0.45209669870E-02  0.22617220965E-01  0.51100000000E-03 0.  1.
</event>
<event>
 8    1  0.2107254E+004  0.1043930E+01  0.7957747E-01            NaN
         13   -1    0    0    0    0  0.00000000000E+00  0.00000000000E+00  0.74505805969E-08  0.10566000000E+00  0.10566000000E+00 0. -1.
     999900   -1    0    0    0    0 -0.00000000000E+00 -0.00000000000E+00 -0.74505805969E-08  0.93827000000E+00  0.93827000000E+00 0. -1.
     999902    2    1    2    0    0 -0.12725346363E-01  0.85955306116E-03  0.40146859557E-02  0.10305587258E+01  0.10304719774E+01 0.  0.
     999903    2    3    3    0    0  0.96802250587E-01 -0.77665170964E-02 -0.88663309701E-01  0.13889740303E+00  0.44724842913E-01 0.  0.
         14    1    1    2    0    0  0.12725346363E-01 -0.85955306116E-03 -0.40146859557E-02  0.13371274241E-01  0.00000000000E+00 0. -1.
     999901    1    3    3    0    0 -0.10952759695E+00  0.86260701576E-02  0.92677995657E-01  0.89166132273E+00  0.88000000000E+00 0.  1.
        -11    1    4    4    0    0  0.62695865263E-01 -0.55838329884E-02 -0.27204138464E-01  0.68573150595E-01  0.51100000000E-03 0.  1.
         11    1    4    4    0    0  0.34106385323E-01 -0.21826841080E-02 -0.61459171237E-01  0.70324252430E-01  0.51100000000E-03 0. -1.
</event>
<event>
 8    1  0.2107254E+004  0.1043930E+01  0.7957747E-01            NaN
         13   -1    0    0    0    0  0.00000000000E+00  0.00000000000E+00  0.74505805969E-08  0.10566000000E+00  0.10566000000E+00 0.  1.
     999900   -1    0    0    0    0 -0.00000000000E+00 -0.00000000000E+00 -0.74505805969E-08  0.93827000000E+00  0.93827000000E+00 0. -1.
     999902    2    1    2    0    0 -0.63465945625E-02 -0.11640427453E-01  0.22844806655E-03  0.10306698717E+01  0.10305845688E+01 0.  0.
     999903    2    3    3    0    0  0.78337846450E-01  0.12421809234E-01 -0.10591155115E+00  0.13993077117E+00  0.45521912556E-01 0.  0.
         14    1    1    2    0    0  0.63465945625E-02  0.11640427453E-01 -0.22844806655E-03  0.13260128293E-01  0.00000000000E+00 0.  1.
     999901    1    3    3    0    0 -0.84684441012E-01 -0.24062236687E-01  0.10613999922E+00  0.89073910053E+00  0.88000000000E+00 0.  1.
        -11    1    4    4    0    0  0.37804047318E-01 -0.16429947370E-01 -0.40971087182E-01  0.58120394613E-01  0.51100000000E-03 0.  1.
         11    1    4    4    0    0  0.40533799132E-01  0.28851756604E-01 -0.64940463971E-01  0.81810376560E-01  0.51100000000E-03 0. -1.
</event>
<event>
 8    1  0.2107254E+004  0.1043930E+01  0.7957747E-01            NaN
         13   -1    0    0    0    0  0.00000000000E+00  0.00000000000E+00  0.74505805969E-08  0.10566000000E+00  0.10566000000E+00 0. -1.
     999900   -1    0    0    0    0 -0.00000000000E+00 -0.00000000000E+00 -0.74505805969E-08  0.93827000000E+00  0.93827000000E+00 0.  1.
     999902    2    1    2    0    0  0.71272178437E-02 -0.17118852923E-03 -0.11779636850E-01  0.10301609629E+01  0.10300689409E+01 0.  0.
     999903    2    3    3    0    0 -0.68756385619E-01  0.35593645651E-01 -0.10885585075E+00  0.14085717002E+00  0.44685544962E-01 0.  0.
         14    1    1    2    0    0 -0.71272178437E-02  0.17118852923E-03  0.11779636850E-01  0.13769037150E-01  0.00000000000E+00 0. -1.
     999901    1    3    3    0    0  0.75883603462E-01 -0.35764834180E-01  0.97076213903E-01  0.88930379283E+00  0.88000000000E+00 0. -1.
        -11    1    4    4    0    0 -0.14227250183E-01 -0.97607176637E-02 -0.31408377109E-01  0.35838994555E-01  0.51100000000E-03 0. -1.
         11    1    4    4    0    0 -0.54529135435E-01  0.45354363315E-01 -0.77447473644E-01  0.10501817546E+00  0.51100000000E-03 0.  1.
</event>
<event>
 8    1  0.2107254E+004  0.1043930E+01  0.7957747E-01            NaN
         13   -1    0    0    0    0  0.00000000000E+00  0.00000000000E+00  0.74505805969E-08  0.10566000000E+00  0.10566000000E+00 0. -1.
     999900   -1    0    0    0    0 -0.00000000000E+00 -0.00000000000E+00 -0.74505805969E-08  0.93827000000E+00  0.93827000000E+00 0.  1.
     999902    2    1    2    0    0 -0.53022438979E-02 -0.11388531945E-01  0.63299394106E-02  0.10298629967E+01  0.10297669209E+01 0.  0.
     999903    2    3    3    0    0 -0.60990194593E-01 -0.11949268179E+00 -0.38859179508E-02  0.14144191473E+00  0.44636420611E-01 0.  0.
         14    1    1    2    0    0  0.53022438979E-02  0.11388531945E-01 -0.63299394106E-02  0.14067003347E-01  0.00000000000E+00 0. -1.
     999901    1    3    3    0    0  0.55687950696E-01  0.10810414985E+00  0.10215857361E-01  0.88842108192E+00  0.88000000000E+00 0. -1.
        -11    1    4    4    0    0 -0.46755652709E-01 -0.96930188569E-01  0.15129426883E-01  0.10867710520E+00  0.51100000000E-03 0. -1.
         11    1    4    4    0    0 -0.14234541884E-01 -0.22562493225E-01 -0.19015344833E-01  0.32764809526E-01  0.51100000000E-03 0.  1.
</event>
<event>
 8    1  0.2107254E+004  0.1043930E+01  0.7957747E-01            NaN
         13   -1    0    0    0    0  0.00000000000E+00  0.00000000000E+00  0.74505805969E-08  0.10566000000E+00  0.10566000000E+00 0. -1.
     999900   -1    0    0    0    0 -0.00000000000E+00 -0.00000000000E+00 -0.74505805969E-08  0.93827000000E+00  0.93827000000E+00 0.  1.
     999902    2    1    2    0    0  0.42196413770E-02  0.87061252615E-02 -0.71254212236E-02  0.10319144427E+01  0.10318444860E+01 0.  0.
     999903    2    3    3    0    0  0.12860243711E+00  0.27161183009E-01  0.29350003517E-01  0.14222791043E+00  0.45727881074E-01 0.  0.
         14    1    1    2    0    0 -0.42196413770E-02 -0.87061252615E-02  0.71254212236E-02  0.12015557333E-01  0.00000000000E+00 0. -1.
     999901    1    3    3    0    0 -0.12438279573E+00 -0.18455057748E-01 -0.36475424740E-01  0.88968653223E+00  0.88000000000E+00 0. -1.
        -11    1    4    4    0    0  0.10365277017E+00  0.76728095798E-02  0.84318197253E-02  0.10427907497E+00  0.51100000000E-03 0.  1.
         11    1    4    4    0    0  0.24949666935E-01  0.19488373429E-01  0.20918183791E-01  0.37948835466E-01  0.51100000000E-03 0. -1.
</event>
<event>
 8    1  0.2107254E+004  0.1043930E+01  0.7957747E-01            NaN
         13   -1    0    0    0    0  0.00000000000E+00  0.00000000000E+00  0.74505805969E-08  0.10566000000E+00  0.10566000000E+00 0.  1.
     999900   -1    0    0    0    0 -0.00000000000E+00 -0.00000000000E+00 -0.74505805969E-08  0.93827000000E+00  0.93827000000E+00 0. -1.
     999902    2    1    2    0    0  0.78261584862E-02 -0.11268007746E-01  0.29464177260E-02  0.10298979605E+01  0.10298023650E+01 0.  0.
     999903    2    3    3    0    0  0.81890103381E-01  0.48569383650E-01 -0.91037034857E-01  0.13978624239E+00  0.46770479870E-01 0.  0.
         14    1    1    2    0    0 -0.78261584862E-02  0.11268007746E-01 -0.29464177260E-02  0.14032039504E-01  0.00000000000E+00 0. -1.
     999901    1    3    3    0    0 -0.74063944895E-01 -0.59837391396E-01  0.93983452583E-01  0.89011171810E+00  0.88000000000E+00 0.  1.
        -11    1    4    4    0    0  0.83040069977E-02  0.28002980515E-01 -0.19549879047E-01  0.35150851223E-01  0.51100000000E-03 0.  1.
         11    1    4    4    0    0  0.73586096384E-01  0.20566403135E-01 -0.71487155810E-01  0.10463539117E+00  0.51100000000E-03 0. -1.
</event>
<event>
 8    1  0.2107254E+004  0.1043930E+01  0.7957747E-01            NaN
         13   -1    0    0    0    0  0.00000000000E+00  0.00000000000E+00  0.74505805969E-08  0.10566000000E+00  0.10566000000E+00 0. -1.
     999900   -1    0    0    0    0 -0.00000000000E+00 -0.00000000000E+00 -0.74505805969E-08  0.93827000000E+00  0.93827000000E+00 0.  1.
     999902    2    1    2    0    0 -0.12866080940E-01 -0.40580976444E-02 -0.48099700526E-03  0.10304305351E+01  0.10303421044E+01 0.  0.
     999903    2    3    3    0    0 -0.97892799147E-01 -0.30646081528E-01  0.86770576744E-01  0.14163961432E+00  0.44838208227E-01 0.  0.
         14    1    1    2    0    0  0.12866080940E-01  0.40580976444E-02  0.48099700526E-03  0.13499464929E-01  0.00000000000E+00 0. -1.
     999901    1    3    3    0    0  0.85026718208E-01  0.26587983884E-01 -0.87251573749E-01  0.88879092076E+00  0.88000000000E+00 0.  1.
        -11    1    4    4    0    0 -0.29350677531E-01  0.58743082053E-02  0.43282542758E-01  0.52627078553E-01  0.51100000000E-03 0. -1.
         11    1    4    4    0    0 -0.68542121616E-01 -0.36520389733E-01  0.43488033986E-01  0.89012535763E-01  0.51100000000E-03 0.  1.
</event>
<event>
 8    1  0.2107254E+004  0.1043930E+01  0.7957747E-01            NaN
         13   -1    0    0    0    0  0.00000000000E+00  0.00000000000E+00  0.74505805969E-08  0.10566000000E+00  0.10566000000E+00 0. -1.
     999900   -1    0    0    0    0 -0.00000000000E+00 -0.00000000000E+00 -0.74505805969E-08  0.93827000000E+00  0.93827000000E+00 0. -1.
     999902    2    1    2    0    0  0.14095745808E-01 -0.57329987502E-02 -0.18064238695E-02  0.10286061463E+01  0.10284919950E+01 0.  0.
     999903    2    3    3    0    0 -0.57494355119E-01 -0.59197306494E-01  0.10208791968E+00  0.13800095355E+00  0.42572266443E-01 0.  0.
         14    1    1    2    0    0 -0.14095745808E-01  0.57329987502E-02  0.18064238695E-02  0.15323853685E-01  0.00000000000E+00 0.  1.
     999901    1    3    3    0    0  0.71590100927E-01  0.53464307744E-01 -0.10389434355E+00  0.89060519276E+00  0.88000000000E+00 0. -1.
        -11    1    4    4    0    0 -0.19706867961E-01 -0.49437907575E-01  0.66549161034E-01  0.85214548674E-01  0.51100000000E-03 0.  1.
         11    1    4    4    0    0 -0.37787487158E-01 -0.97593989188E-02  0.35538758647E-01  0.52786404880E-01  0.51100000000E-03 0. -1.
</event>
<event>
 8    1  0.2107254E+004  0.1043930E+01  0.7957747E-01            NaN
         13   -1    0    0    0    0  0.00000000000E+00  0.00000000000E+00  0.74505805969E-08  0.10566000000E+00  0.10566000000E+00 0.  1.
     999900   -1    0    0    0    0 -0.00000000000E+00 -0.00000000000E+00 -0.74505805969E-08  0.93827000000E+00  0.93827000000E+00 0.  1.
     999902    2    1    2    0    0 -0.81573267453E-02  0.94477719644E-02  0.59798945816E-02  0.10300894251E+01  0.10299964379E+01 0.  0.
     999903    2    3    3    0    0  0.32967613306E-02 -0.81322516719E-01  0.10403839558E+00  0.13992881539E+00  0.46172126450E-01 0.  0.
         14    1    1    2    0    0  0.81573267453E-02 -0.94477719644E-02 -0.59798945816E-02  0.13840574913E-01  0.00000000000E+00 0. -1.
     999901    1    3    3    0    0 -0.11454088076E-01  0.90770288684E-01 -0.98058500995E-01  0.89016060970E+00  0.88000000000E+00 0. -1.
        -11    1    4    4    0    0  0.34128563372E-02 -0.48612622141E-01  0.93706467376E-01  0.10562195685E+00  0.51100000000E-03 0. -1.
         11    1    4    4    0    0 -0.11609500668E-03 -0.32709894578E-01  0.10331928200E-01  0.34306858538E-01  0.51100000000E-03 0.  1.
</event>
<event>
 8    1  0.2107254E+004  0.1043930E+01  0.7957747E-01            NaN
         13   -1    0    0    0    0  0.00000000000E+00  0.00000000000E+00  0.74505805969E-08  0.10566000000E+00  0.10566000000E+00 0. -1.
     999900   -1    0    0    0    0 -0.00000000000E+00 -0.00000000000E+00 -0.74505805969E-08  0.93827000000E+00  0.93827000000E+00 0.  1.
     999902    2    1    2    0    0 -0.25766283666E-02 -0.77787342028E-02 -0.10599611844E-01  0.10305322580E+01  0.10304451636E+01 0.  0.
     999903    2    3    3    0    0 -0.82247258307E-01 -0.58475800356E-02  0.10326253898E+00  0.13962500804E+00  0.45090855198E-01 0.  0.
         14    1    1    2    0    0  0.25766283666E-02  0.77787342028E-02  0.10599611844E-01  0.13397742003E-01  0.00000000000E+00 0. -1.
     999901    1    3    3    0    0  0.79670629941E-01 -0.19311541672E-02 -0.11386215083E+00  0.89090724995E+00  0.88000000000E+00 0.  1.
        -11    1    4    4    0    0 -0.12554262244E-02 -0.96408254595E-02  0.25437900237E-01  0.27237281436E-01  0.51100000000E-03 0.  1.
         11    1    4    4    0    0 -0.80991832083E-01  0.37932454239E-02  0.77824638744E-01  0.11238772661E+00  0.51100000000E-03 0. -1.
</event>
<event>
 8    1  0.2107254E+004  0.1043930E+01  0.7957747E-01            NaN
         13   -1    0    0    0    0  0.00000000000E+00  0.00000000000E+00  0.74505805969E-08  0.10566000000E+00  0.10566000000E+00 0.  1.
     999900   -1    0    0    0    0 -0.00000000000E+00 -0.00000000000E+00 -0.74505805969E-08  0.93827000000E+00  0.93827000000E+00 0. -1.
     999902    2    1    2    0    0  0.10000016603E-02 -0.57654023666E-02  0.13602023585E-01  0.10291227412E+01  0.10290162105E+01 0.  0.
     999903    2    3    3    0    0 -0.93030751607E-01  0.73186995287E-01 -0.55410968161E-01  0.13792239521E+00  0.44058537012E-01 0.  0.
         14    1    1    2    0    0 -0.10000016603E-02  0.57654023666E-02 -0.13602023585E-01  0.14807258807E-01  0.00000000000E+00 0. -1.
     999901    1    3    3    0    0  0.94030753267E-01 -0.78952397653E-01  0.69012991746E-01  0.89120034599E+00  0.88000000000E+00 0.  1.
        -11    1    4    4    0    0 -0.66561638151E-01  0.26794379466E-01 -0.22573402675E-01  0.75221074664E-01  0.51100000000E-03 0.  1.
         11    1    4    4    0    0 -0.26469113456E-01  0.46392615821E-01 -0.32837565486E-01  0.62701320543E-01  0.51100000000E-03 0. -1.
</event>
<event>
 8    1  0.2107254E+004  0.1043930E+01  0.7957747E-01            NaN
         13   -1    0    0    0    0  0.00000000000E+00  0.00000000000E+00  0.74505805969E-08  0.10566000000E+00  0.10566000000E+00 0.  1.
     999900   -1    0    0    0    0 -0.00000000000E+00 -0.00000000000E+00 -0.74505805969E-08  0.93827000000E+00  0.93827000000E+00 0.  1.
     999902    2    1    2    0    0  0.50349424537E-02 -0.59246370495E-02 -0.12088926603E-01  0.10295566178E+01  0.10294562813E+01 0.  0.
     999903    2    3    3    0    0 -0.10437262067E+00  0.96353900528E-02 -0.81344250706E-01  0.13994522554E+00  0.44511732614E-01 0.  0.
         14    1    1    2    0    0 -0.50349424537E-02  0.59246370495E-02  0.12088926603E-01  0.14373382208E-01  0.00000000000E+00 0.  1.
     999901    1    3    3    0    0  0.10940756313E+00 -0.15560027102E-01  0.69255324103E-01  0.88961139225E+00  0.88000000000E+00 0. -1.
        -11    1    4    4    0    0 -0.85939962321E-01  0.11813424132E-01 -0.41877299377E-01  0.96328622110E-01  0.51100000000E-03 0. -1.
         11    1    4    4    0    0 -0.18432658352E-01 -0.21780340795E-02 -0.39466951329E-01  0.43616603428E-01  0.51100000000E-03 0.  1.
</event>
<event>
 7    1  0.2370122E+004  0.1043930E+01  0.7957747E-01            NaN
         13   -1    0    0    0    0  0.00000000000E+00  0.00000000000E+00  0.74505805969E-08  0.10566000000E+00  0.10566000000E+00 0. -1.
     999900   -1    0    0    0    0 -0.00000000000E+00 -0.00000000000E+00 -0.74505805969E-08  0.93827000000E+00  0.93827000000E+00 0. -1.
     999903    2    1    2    0    0  0.39161293268E-02  0.96180033055E-01 -0.32204834655E-01  0.11128286972E+00  0.45615686898E-01 0.  0.
         14    1    1    2    0    0 -0.35321125035E-01  0.21897387773E-01 -0.11535540596E-01  0.43129411796E-01  0.00000000000E+00 0. -1.
     999901    1    1    2    0    0  0.31404995709E-01 -0.11807742083E+00  0.43740375252E-01  0.88951771848E+00  0.88000000000E+00 0.  1.
        -11    1    3    3    0    0  0.19547578965E-01  0.74426176963E-01 -0.12353045967E-01  0.77937298686E-01  0.51100000000E-03 0.  1.
         11    1    3    3    0    0 -0.15631449638E-01  0.21753856091E-01 -0.19851788689E-01  0.33345571037E-01  0.51100000000E-03 0. -1.
</event>
<event>
 8    1  0.2107254E+004  0.1043930E+01  0.7957747E-01            NaN
         13   -1    0    0    0    0  0.00000000000E+00  0.00000000000E+00  0.74505805969E-08  0.10566000000E+00  0.10566000000E+00 0.  1.
     999900   -1    0    0    0    0 -0.00000000000E+00 -0.00000000000E+00 -0.74505805969E-08  0.93827000000E+00  0.93827000000E+00 0. -1.
     999902    2    1    2    0    0  0.11798399858E-01  0.33930797438E-02  0.58585477854E-02  0.10303271396E+01  0.10302373400E+01 0.  0.
     999903    2    3    3    0    0 -0.19591009376E-01  0.49195130255E-01  0.12263713425E+00  0.14087766879E+00  0.44751339400E-01 0.  0.
         14    1    1    2    0    0 -0.11798399858E-01 -0.33930797438E-02 -0.58585477854E-02  0.13602860416E-01  0.00000000000E+00 0. -1.
     999901    1    3    3    0    0  0.31389409233E-01 -0.45802050511E-01 -0.11677858646E+00  0.88944947080E+00  0.88000000000E+00 0. -1.
        -11    1    4    4    0    0 -0.34116469647E-01  0.32047106566E-01  0.80567430242E-01  0.93178980877E-01  0.51100000000E-03 0. -1.
         11    1    4    4    0    0  0.14525460271E-01  0.17148023689E-01  0.42069704004E-01  0.47698687911E-01  0.51100000000E-03 0.  1.
</event>
<event>
 8    1  0.2107254E+004  0.1043930E+01  0.7957747E-01            NaN
         13   -1    0    0    0    0  0.00000000000E+00  0.00000000000E+00  0.74505805969E-08  0.10566000000E+00  0.10566000000E+00 0.  1.
     999900   -1    0    0    0    0 -0.00000000000E+00 -0.00000000000E+00 -0.74505805969E-08  0.93827000000E+00  0.93827000000E+00 0. -1.
     999902    2    1    2    0    0  0.57182202072E-02 -0.94908866512E-03  0.13550635746E-01  0.10291916642E+01  0.10290861301E+01 0.  0.
     999903    2    3    3    0    0  0.10387836007E+00  0.53720259700E-01  0.63602553366E-01  0.14063702599E+00  0.45353150856E-01 0.  0.
         14    1    1    2    0    0 -0.57182202072E-02  0.94908866512E-03 -0.13550635746E-01  0.14738335752E-01  0.00000000000E+00 0. -1.
     999901    1    3    3    0    0 -0.98160139861E-01 -0.54669348365E-01 -0.50051917620E-01  0.88855463826E+00  0.88000000000E+00 0.  1.
        -11    1    4    4    0    0  0.22668185780E-01  0.32060354303E-01  0.32648986650E-01  0.51067900044E-01  0.51100000000E-03 0. -1.
         11    1    4    4    0    0  0.81210174288E-01  0.21659905397E-01  0.30953566716E-01  0.89569125949E-01  0.51100000000E-03 0.  1.
</event>
<event>
 8    1  0.2107254E+004  0.1043930E+01  0.7957747E-01            NaN
         13   -1    0    0    0    0  0.00000000000E+00  0.00000000000E+00  0.74505805969E-08  0.10566000000E+00  0.10566000000E+00 0. -1.
     999900   -1    0    0    0    0 -0.00000000000E+00 -0.00000000000E+00 -0.74505805969E-08  0.93827000000E+00  0.93827000000E+00 0. -1.
     999902    2    1    2    0    0  0.18449543370E-02  0.42392517273E-02 -0.12757791499E-01  0.10303603148E+01  0.10302709556E+01 0.  0.
     999903    2    3    3    0    0 -0.10466074749E+00  0.25133551868E-01 -0.79040961312E-01  0.14121831554E+00  0.45930072761E-01 0.  0.
         14    1    1    2    0    0 -0.18449543370E-02 -0.42392517273E-02  0.12757791499E-01  0.13569685171E-01  0.00000000000E+00 0. -1.
     999901    1    3    3    0    0  0.10650570183E+00 -0.20894300140E-01  0.66283169813E-01  0.88914199929E+00  0.88000000000E+00 0.  1.
        -11    1    4    4    0    0 -0.23391172721E-01 -0.13138314897E-01 -0.22983053721E-01  0.35330498991E-01  0.51100000000E-03 0. -1.
         11    1    4    4    0    0 -0.81269574769E-01  0.38271866765E-01 -0.56057907591E-01  0.10588781655E+00  0.51100000000E-03 0.  1.
</event>
<event>
 8    1  0.2107254E+004  0.1043930E+01  0.7957747E-01            NaN
         13   -1    0    0    0    0  0.00000000000E+00  0.00000000000E+00  0.74505805969E-08  0.10566000000E+00  0.10566000000E+00 0.  1.
     999900   -1    0    0    0    0 -0.00000000000E+00 -0.00000000000E+00 -0.74505805969E-08  0.93827000000E+00  0.93827000000E+00 0.  1.
     999902    2    1    2    0    0  0.29841701955E-02 -0.27235236558E-02  0.11920426160E-01  0.10313435226E+01  0.10312667173E+01 0.  0.
     999903    2    3    3    0    0  0.81613942592E-01 -0.10795254625E-01 -0.10413506988E+00  0.14021128098E+00  0.45141083119E-01 0.  0.
         14    1    1    2    0    0 -0.29841701955E-02  0.27235236558E-02 -0.11920426160E-01  0.12586477374E-01  0.00000000000E+00 0. -1.
     999901    1    3    3    0    0 -0.78629772396E-01  0.80717309697E-02  0.11605549604E+00  0.89113224165E+00  0.88000000000E+00 0. -1.
        -11    1    4    4    0    0  0.46670920572E-01 -0.20211102499E-01 -0.33675709374E-01  0.60999819787E-01  0.51100000000E-03 0.  1.
         11    1    4    4    0    0  0.34943022020E-01  0.94158478732E-02 -0.70459360510E-01  0.79211461188E-01  0.51100000000E-03 0. -1.
</event>
<event>
 8    1  0.2107254E+004  0.1043930E+01  0.7957747E-01            NaN
         13   -1    0    0    0    0  0.00000000000E+00  0.00000000000E+00  0.74505805969E-08  0.10566000000E+00  0.10566000000E+00 0.  1.
     999900   -1    0    0    0    0 -0.00000000000E+00 -0.00000000000E+00 -0.74505805969E-08  0.93827000000E+00  0.93827000000E+00 0. -1.
     999902    2    1    2    0    0 -0.98572231060E-03  0.93448479343E-02  0.10090344529E-01  0.10301418571E+01  0.10300495779E+01 0.  0.
     999903    2    3    3    0    0 -0.12734141923E+00  0.33200183791E-01  0.20937004626E-01  0.14073054101E+00  0.45261879697E-01 0.  0.
         14    1    1    2    0    0  0.98572231060E-03 -0.93448479343E-02 -0.10090344529E-01  0.13788142881E-01  0.00000000000E+00 0. -1.
     999901    1    3    3    0    0  0.12635569692E+00 -0.23855335857E-01 -0.10846660097E-01  0.88941131611E+00  0.88000000000E+00 0.  1.
        -11    1    4    4    0    0 -0.45508003018E-01 -0.92749614701E-02  0.12759883462E-01  0.48167198340E-01  0.51100000000E-03 0.  1.
         11    1    4    4    0    0 -0.81833416213E-01  0.42475145261E-01  0.81771211642E-02  0.92563342666E-01  0.51100000000E-03 0. -1.
</event>
<event>
 8    1  0.2107254E+004  0.1043930E+01  0.7957747E-01            NaN
         13   -1    0    0    0    0  0.00000000000E+00  0.00000000000E+00  0.74505805969E-08  0.10566000000E+00  0.10566000000E+00 0. -1.
     999900   -1    0    0    0    0 -0.00000000000E+00 -0.00000000000E+00 -0.74505805969E-08  0.93827000000E+00  0.93827000000E+00 0.  1.
     999902    2    1    2    0    0  0.18968156484E-02  0.30242957650E-02  0.96022100279E-02  0.10336856498E+01  0.10336348852E+01 0.  0.
     999903    2    3    3    0    0  0.20678540136E-01  0.23247707408E-01  0.13302863171E+00  0.14464356913E+00  0.47508813013E-01 0.  0.
         14    1    1    2    0    0 -0.18968156484E-02 -0.30242957650E-02 -0.96022100279E-02  0.10244350243E-01  0.00000000000E+00 0.  1.
     999901    1    3    3    0    0 -0.18781724487E-01 -0.20223411643E-01 -0.12342642168E+00  0.88904208063E+00  0.88000000000E+00 0.  1.
        -11    1    4    4    0    0  0.22712576254E-01 -0.81148141034E-02  0.73008398456E-01  0.76890823211E-01  0.51100000000E-03 0. -1.
         11    1    4    4    0    0 -0.20340361186E-02  0.31362521512E-01  0.60020233257E-01  0.67752745920E-01  0.51100000000E-03 0.  1.
</event>
<event>
 8    1  0.2107254E+004  0.1043930E+01  0.7957747E-01            NaN
         13   -1    0    0    0    0  0.00000000000E+00  0.00000000000E+00  0.74505805969E-08  0.10566000000E+00  0.10566000000E+00 0. -1.
     999900   -1    0    0    0    0 -0.00000000000E+00 -0.00000000000E+00 -0.74505805969E-08  0.93827000000E+00  0.93827000000E+00 0.  1.
     999902    2    1    2    0    0  0.37330276961E-02 -0.18102093322E-01 -0.13338397892E-01  0.10211367085E+01  0.10208822867E+01 0.  0.
     999903    2    3    3    0    0 -0.94795289670E-01 -0.55334122741E-01 -0.61170209373E-01  0.13356590259E+00  0.45277408684E-01 0.  0.
         14    1    1    2    0    0 -0.37330276961E-02  0.18102093322E-01  0.13338397892E-01  0.22793291486E-01  0.00000000000E+00 0. -1.
     999901    1    3    3    0    0  0.98528317366E-01  0.37232029419E-01  0.47831811480E-01  0.88757080592E+00  0.88000000000E+00 0.  1.
        -11    1    4    4    0    0 -0.40651400867E-01 -0.76240010814E-02 -0.41884846038E-01  0.58866486506E-01  0.51100000000E-03 0.  1.
         11    1    4    4    0    0 -0.54143888803E-01 -0.47710121660E-01 -0.19285363335E-01  0.74699416085E-01  0.51100000000E-03 0. -1.
</event>
