<event>
 8    1  0.1192192E+005  0.1043930E+01  0.7957747E-01            NaN
         13   -1    0    0    0    0  0.00000000000E+00  0.00000000000E+00  0.74505805969E-08  0.10566000000E+00  0.10566000000E+00 0.  1.
     999900   -1    0    0    0    0 -0.00000000000E+00 -0.00000000000E+00 -0.74505805969E-08  0.93827000000E+00  0.93827000000E+00 0.  1.
     999902    2    1    2    0    0  0.37922528480E-02 -0.23033341446E-01  0.53143376525E-02  0.10199892777E+01  0.10197082761E+01 0.  0.
     999903    2    3    3    0    0 -0.40107318767E-01 -0.56538408997E-01  0.11042646753E+00  0.13201499778E+00  0.20706670373E-01 0.  0.
         14    1    1    2    0    0 -0.37922528480E-02  0.23033341446E-01 -0.53143376525E-02  0.23940722305E-01  0.00000000000E+00 0.  1.
     999901    1    3    3    0    0  0.43899571615E-01  0.33505067552E-01 -0.10511212988E+00  0.88797427991E+00  0.88000000000E+00 0.  1.
        -11    1    4    4    0    0 -0.33803010982E-02 -0.15408006382E-01  0.36680126629E-01  0.39931515206E-01  0.51100000000E-03 0. -1.
         11    1    4    4    0    0 -0.36727017668E-01 -0.41130402616E-01  0.73746340900E-01  0.92083482576E-01  0.51100000000E-03 0.  1.
</event>
<event>
 8    1  0.1123361E+005  0.1043930E+01  0.7957747E-01            NaN
         13   -1    0    0    0    0  0.00000000000E+00  0.00000000000E+00  0.74505805969E-08  0.10566000000E+00  0.10566000000E+00 0. -1.
     999900   -1    0    0    0    0 -0.00000000000E+00 -0.00000000000E+00 -0.74505805969E-08  0.93827000000E+00  0.93827000000E+00 0.  1.
     999902    2    1    2    0    0 -0.10020511933E-01  0.16903781892E-01 -0.13753915666E-01  0.10199441980E+01  0.10196621246E+01 0.  0.
     999903    2    3    3    0    0 -0.11459012121E+00 -0.19875806353E-01  0.55290147704E-01  0.13030684267E+00  0.19923083524E-01 0.  0.
         14    1    1    2    0    0  0.10020511933E-01 -0.16903781892E-01  0.13753915666E-01  0.23985802005E-01  0.00000000000E+00 0. -1.
     999901    1    3    3    0    0  0.10456960928E+00  0.36779588246E-01 -0.69044063370E-01  0.88963735532E+00  0.88000000000E+00 0.  1.
        -11    1    4    4    0    0 -0.28655372793E-01 -0.31069330950E-03  0.21851743733E-01  0.36041458702E-01  0.51100000000E-03 0. -1.
         11    1    4    4    0    0 -0.85934748419E-01 -0.19565113044E-01  0.33438403971E-01  0.94265383972E-01  0.51100000000E-03 0.  1.
</event>
<event>
 8    1  0.1242554E+005  0.1043930E+01  0.7957747E-01            NaN
         13   -1    0    0    0    0  0.00000000000E+00  0.00000000000E+00  0.74505805969E-08  0.10566000000E+00  0.10566000000E+00 0. -1.
     999900   -1    0    0    0    0 -0.00000000000E+00 -0.00000000000E+00 -0.74505805969E-08  0.93827000000E+00  0.93827000000E+00 0.  1.
     999902    2    1    2    0    0  0.81813527604E-02 -0.15697068382E-02 -0.21574073510E-01  0.10208034101E+01  0.10205414068E+01 0.  0.
     999903    2    3    3    0    0 -0.11823779886E+00 -0.37383252229E-01 -0.37129925734E-01  0.13091218278E+00  0.19536724116E-01 0.  0.
         14    1    1    2    0    0 -0.81813527604E-02  0.15697068382E-02  0.21574073510E-01  0.23126589899E-01  0.00000000000E+00 0. -1.
     999901    1    3    3    0    0  0.12641915162E+00  0.35813545391E-01  0.15555852224E-01  0.88989122732E+00  0.88000000000E+00 0. -1.
        -11    1    4    4    0    0 -0.31728109207E-01 -0.15465833709E-02 -0.11979743847E-01  0.33953500816E-01  0.51100000000E-03 0. -1.
         11    1    4    4    0    0 -0.86509689648E-01 -0.35836668858E-01 -0.25150181887E-01  0.96958681962E-01  0.51100000000E-03 0.  1.
</event>
<event>
 8    1  0.1123361E+005  0.1043930E+01  0.7957747E-01            NaN
         13   -1    0    0    0    0  0.00000000000E+00  0.00000000000E+00  0.74505805969E-08  0.10566000000E+00  0.10566000000E+00 0.  1.
     999900   -1    0    0    0    0 -0.00000000000E+00 -0.00000000000E+00 -0.74505805969E-08  0.93827000000E+00  0.93827000000E+00 0.  1.
     999902    2    1    2    0    0  0.60707527420E-02 -0.34238007831E-02  0.23761752275E-01  0.10191671786E+01  0.10188663017E+01 0.  0.
     999903    2    3    3    0    0 -0.27531698053E-01  0.84209459126E-01  0.94201503025E-01  0.13137752369E+00  0.23171170780E-01 0.  0.
         14    1    1    2    0    0 -0.60707527420E-02  0.34238007831E-02 -0.23761752275E-01  0.24762821363E-01  0.00000000000E+00 0. -1.
     999901    1    3    3    0    0  0.33602450795E-01 -0.87633259909E-01 -0.70439750750E-01  0.88778965494E+00  0.88000000000E+00 0.  1.
        -11    1    4    4    0    0 -0.35693162960E-02  0.36161411507E-01  0.26543390127E-01  0.45002226405E-01  0.51100000000E-03 0.  1.
         11    1    4    4    0    0 -0.23962381757E-01  0.48048047619E-01  0.67658112898E-01  0.86375297287E-01  0.51100000000E-03 0. -1.
</event>
<event>
 8    1  0.1123361E+005  0.1043930E+01  0.7957747E-01            NaN
         13   -1    0    0    0    0  0.00000000000E+00  0.00000000000E+00  0.74505805969E-08  0.10566000000E+00  0.10566000000E+00 0. -1.
     999900   -1    0    0    0    0 -0.00000000000E+00 -0.00000000000E+00 -0.74505805969E-08  0.93827000000E+00  0.93827000000E+00 0.  1.
     999902    2    1    2    0    0 -0.35948618890E-02  0.87857504882E-02 -0.21581985470E-01  0.10203525841E+01  0.10200801446E+01 0.  0.
     999903    2    3    3    0    0  0.62870037054E-01  0.10651277550E+00 -0.43105591897E-01  0.13219076335E+00  0.17851973479E-01 0.  0.
         14    1    1    2    0    0  0.35948618890E-02 -0.87857504882E-02  0.21581985470E-01  0.23577415899E-01  0.00000000000E+00 0. -1.
     999901    1    3    3    0    0 -0.66464898943E-01 -0.97727025016E-01  0.21523606427E-01  0.88816182075E+00  0.88000000000E+00 0.  1.
        -11    1    4    4    0    0  0.36165852735E-01  0.59567124238E-01 -0.14922309582E-01  0.71268139013E-01  0.51100000000E-03 0. -1.
         11    1    4    4    0    0  0.26704184318E-01  0.46945651266E-01 -0.28183282315E-01  0.60922624335E-01  0.51100000000E-03 0.  1.
</event>
<event>
 8    1  0.1123361E+005  0.1043930E+01  0.7957747E-01            NaN
         13   -1    0    0    0    0  0.00000000000E+00  0.00000000000E+00  0.74505805969E-08  0.10566000000E+00  0.10566000000E+00 0.  1.
     999900   -1    0    0    0    0 -0.00000000000E+00 -0.00000000000E+00 -0.74505805969E-08  0.93827000000E+00  0.93827000000E+00 0.  1.
     999902    2    1    2    0    0  0.20579339840E-01  0.56319527981E-02  0.82226148208E-02  0.10210643158E+01  0.10208082569E+01 0.  0.
     999903    2    3    3    0    0 -0.88197006891E-01  0.81287824398E-01  0.45946633247E-01  0.13034595059E+00  0.22193496979E-01 0.  0.
         14    1    1    2    0    0 -0.20579339840E-01 -0.56319527981E-02 -0.82226148208E-02  0.22865684225E-01  0.00000000000E+00 0. -1.
     999901    1    3    3    0    0  0.10877634673E+00 -0.75655871600E-01 -0.37724018426E-01  0.89071836519E+00  0.88000000000E+00 0.  1.
        -11    1    4    4    0    0 -0.22722150207E-01  0.25551140710E-01  0.32758895190E-02  0.34353303694E-01  0.51100000000E-03 0. -1.
         11    1    4    4    0    0 -0.65474856684E-01  0.55736683688E-01  0.42670743728E-01  0.95992646893E-01  0.51100000000E-03 0.  1.
</event>
<event>
 8    1  0.1123361E+005  0.1043930E+01  0.7957747E-01            NaN
         13   -1    0    0    0    0  0.00000000000E+00  0.00000000000E+00  0.74505805969E-08  0.10566000000E+00  0.10566000000E+00 0.  1.
     999900   -1    0    0    0    0 -0.00000000000E+00 -0.00000000000E+00 -0.74505805969E-08  0.93827000000E+00  0.93827000000E+00 0. -1.
     999902    2    1    2    0    0 -0.16997754315E-01 -0.73276074401E-02  0.13559520998E-01  0.10209848896E+01  0.10207270285E+01 0.  0.
     999903    2    3    3    0    0  0.22114938568E-01  0.95141692707E-01 -0.82250451976E-01  0.12901554530E+00  0.18408201403E-01 0.  0.
         14    1    1    2    0    0  0.16997754315E-01  0.73276074401E-02 -0.13559520998E-01  0.22945110422E-01  0.00000000000E+00 0.  1.
     999901    1    3    3    0    0 -0.39112692884E-01 -0.10246930015E+00  0.95809972974E-01  0.89196934428E+00  0.88000000000E+00 0.  1.
        -11    1    4    4    0    0  0.19960804530E-01  0.46459087451E-01 -0.44724395624E-01  0.67508615815E-01  0.51100000000E-03 0. -1.
         11    1    4    4    0    0  0.21541340380E-02  0.48682605256E-01 -0.37526056352E-01  0.61506929482E-01  0.51100000000E-03 0.  1.
</event>
<event>
 8    1  0.1123361E+005  0.1043930E+01  0.7957747E-01            NaN
         13   -1    0    0    0    0  0.00000000000E+00  0.00000000000E+00  0.74505805969E-08  0.10566000000E+00  0.10566000000E+00 0. -1.
     999900   -1    0    0    0    0 -0.00000000000E+00 -0.00000000000E+00 -0.74505805969E-08  0.93827000000E+00  0.93827000000E+00 0.  1.
     999902    2    1    2    0    0  0.10734837978E-01 -0.10175245154E-01  0.14331569674E-01  0.10233347032E+01  0.10231274351E+01 0.  0.
     999903    2    3    3    0    0 -0.53233130957E-02 -0.62262502195E-01  0.11860805128E+00  0.13550333906E+00  0.19706045419E-01 0.  0.
         14    1    1    2    0    0 -0.10734837978E-01  0.10175245154E-01 -0.14331569674E-01  0.20595296785E-01  0.00000000000E+00 0.  1.
     999901    1    3    3    0    0  0.16058151074E-01  0.52087257041E-01 -0.10427648161E+00  0.88783136416E+00  0.88000000000E+00 0.  1.
        -11    1    4    4    0    0 -0.91018701791E-02 -0.45661467102E-01  0.70683316652E-01  0.84641632738E-01  0.51100000000E-03 0. -1.
         11    1    4    4    0    0  0.37785570834E-02 -0.16601035093E-01  0.47924734627E-01  0.50861706321E-01  0.51100000000E-03 0.  1.
</event>
<event>
 8    1  0.1123361E+005  0.1043930E+01  0.7957747E-01            NaN
         13   -1    0    0    0    0  0.00000000000E+00  0.00000000000E+00  0.74505805969E-08  0.10566000000E+00  0.10566000000E+00 0. -1.
     999900   -1    0    0    0    0 -0.00000000000E+00 -0.00000000000E+00 -0.74505805969E-08  0.93827000000E+00  0.93827000000E+00 0. -1.
     999902    2    1    2    0    0  0.55557501793E-03 -0.72750272121E-02  0.22515298885E-01  0.10202620181E+01  0.10199874569E+01 0.  0.
     999903    2    3    3    0    0 -0.12372809026E+00 -0.30840973292E-01 -0.17806150510E-01  0.13030269173E+00  0.20048105185E-01 0.  0.
         14    1    1    2    0    0 -0.55557501793E-03  0.72750272121E-02 -0.22515298885E-01  0.23667981926E-01  0.00000000000E+00 0.  1.
     999901    1    3    3    0    0  0.12428366528E+00  0.23565946080E-01  0.40321449395E-01  0.88995932635E+00  0.88000000000E+00 0. -1.
        -11    1    4    4    0    0 -0.10625454530E+00 -0.33452866828E-01 -0.15861245980E-01  0.11252094446E+00  0.51100000000E-03 0. -1.
         11    1    4    4    0    0 -0.17473544960E-01  0.26118935361E-02 -0.19449045298E-02  0.17781747269E-01  0.51100000000E-03 0.  1.
</event>
<event>
 8    1  0.1123361E+005  0.1043930E+01  0.7957747E-01            NaN
         13   -1    0    0    0    0  0.00000000000E+00  0.00000000000E+00  0.74505805969E-08  0.10566000000E+00  0.10566000000E+00 0.  1.
     999900   -1    0    0    0    0 -0.00000000000E+00 -0.00000000000E+00 -0.74505805969E-08  0.93827000000E+00  0.93827000000E+00 0. -1.
     999902    2    1    2    0    0  0.13901660414E-01 -0.18968891425E-01 -0.46467092038E-02  0.10199577888E+01  0.10196760387E+01 0.  0.
     999903    2    3    3    0    0  0.11824022067E+00  0.52230523949E-01  0.52580982108E-02  0.13088299040E+00  0.19847724375E-01 0.  0.
         14    1    1    2    0    0 -0.13901660414E-01  0.18968891425E-01  0.46467092038E-02  0.23972211216E-01  0.00000000000E+00 0. -1.
     999901    1    3    3    0    0 -0.10433856026E+00 -0.71199415374E-01 -0.99048074146E-02  0.88907479838E+00  0.88000000000E+00 0. -1.
        -11    1    4    4    0    0  0.73592213971E-01  0.41564787190E-01  0.79729346319E-02  0.84895667139E-01  0.51100000000E-03 0.  1.
         11    1    4    4    0    0  0.44648006703E-01  0.10665736759E-01 -0.27148364211E-02  0.45987323264E-01  0.51100000000E-03 0. -1.
</event>
<event>
 8    1  0.1123361E+005  0.1043930E+01  0.7957747E-01            NaN
         13   -1    0    0    0    0  0.00000000000E+00  0.00000000000E+00  0.74505805969E-08  0.10566000000E+00  0.10566000000E+00 0.  1.
     999900   -1    0    0    0    0 -0.00000000000E+00 -0.00000000000E+00 -0.74505805969E-08  0.93827000000E+00  0.93827000000E+00 0.  1.
     999902    2    1    2    0    0 -0.11702152757E-01  0.99575624591E-02  0.20670029638E-01  0.10181745432E+01  0.10178487397E+01 0.  0.
     999903    2    3    3    0    0 -0.83465955428E-01  0.98236874788E-01 -0.10902126882E-02  0.13058410359E+00  0.20831952930E-01 0.  0.
         14    1    1    2    0    0  0.11702152757E-01 -0.99575624591E-02 -0.20670029638E-01  0.25755456791E-01  0.00000000000E+00 0. -1.
     999901    1    3    3    0    0  0.71763802671E-01 -0.88279312329E-01  0.21760242326E-01  0.88759043962E+00  0.88000000000E+00 0. -1.
        -11    1    4    4    0    0 -0.62514927086E-01  0.73520534128E-01 -0.98695491713E-02  0.97010587922E-01  0.51100000000E-03 0.  1.
         11    1    4    4    0    0 -0.20951028341E-01  0.24716340660E-01  0.87793364832E-02  0.33573515667E-01  0.51100000000E-03 0. -1.
</event>
<event>
 8    1  0.1123361E+005  0.1043930E+01  0.7957747E-01            NaN
         13   -1    0    0    0    0  0.00000000000E+00  0.00000000000E+00  0.74505805969E-08  0.10566000000E+00  0.10566000000E+00 0.  1.
     999900   -1    0    0    0    0 -0.00000000000E+00 -0.00000000000E+00 -0.74505805969E-08  0.93827000000E+00  0.93827000000E+00 0.  1.
     999902    2    1    2    0    0 -0.91018471365E-03  0.20741810647E-01 -0.10163658147E-01  0.10208139646E+01  0.10205522031E+01 0.  0.
     999903    2    3    3    0    0  0.12019154105E-01  0.14706129372E-01  0.12707339096E+00  0.13006281816E+00  0.20198011596E-01 0.  0.
         14    1    1    2    0    0  0.91018471365E-03 -0.20741810647E-01  0.10163658147E-01  0.23116035388E-01  0.00000000000E+00 0.  1.
     999901    1    3    3    0    0 -0.12929338818E-01  0.60356812754E-02 -0.13723704911E+00  0.89075114645E+00  0.88000000000E+00 0.  1.
        -11    1    4    4    0    0  0.32874243535E-02 -0.26775677020E-02  0.61874703085E-01  0.62021903635E-01  0.51100000000E-03 0. -1.
         11    1    4    4    0    0  0.87317297512E-02  0.17383697074E-01  0.65198687874E-01  0.68040914529E-01  0.51100000000E-03 0.  1.
</event>
<event>
 8    1  0.1123361E+005  0.1043930E+01  0.7957747E-01            NaN
         13   -1    0    0    0    0  0.00000000000E+00  0.00000000000E+00  0.74505805969E-08  0.10566000000E+00  0.10566000000E+00 0. -1.
     999900   -1    0    0    0    0 -0.00000000000E+00 -0.00000000000E+00 -0.74505805969E-08  0.93827000000E+00  0.93827000000E+00 0.  1.
     999902    2    1    2    0    0  0.78539844909E-02  0.19847134145E-01 -0.53580660461E-03  0.10225786325E+01  0.10223557007E+01 0.  0.
     999903    2    3    3    0    0 -0.28625942085E-01 -0.43575136887E-01  0.11900506110E+00  0.13148762223E+00  0.20212696896E-01 0.  0.
         14    1    1    2    0    0 -0.78539844909E-02 -0.19847134145E-01  0.53580660461E-03  0.21351367518E-01  0.00000000000E+00 0. -1.
     999901    1    3    3    0    0  0.36479926576E-01  0.63422271032E-01 -0.11954086771E+00  0.89109101026E+00  0.88000000000E+00 0.  1.
        -11    1    4    4    0    0 -0.19720737294E-01 -0.34049265796E-01  0.65480717669E-01  0.76395323732E-01  0.51100000000E-03 0. -1.
         11    1    4    4    0    0 -0.89052047909E-02 -0.95258710905E-02  0.53524343434E-01  0.55092298495E-01  0.51100000000E-03 0.  1.
</event>
<event>
 8    1  0.1123361E+005  0.1043930E+01  0.7957747E-01            NaN
         13   -1    0    0    0    0  0.00000000000E+00  0.00000000000E+00  0.74505805969E-08  0.10566000000E+00  0.10566000000E+00 0. -1.
     999900   -1    0    0    0    0 -0.00000000000E+00 -0.00000000000E+00 -0.74505805969E-08  0.93827000000E+00  0.93827000000E+00 0. -1.
     999902    2    1    2    0    0  0.15935855441E-01 -0.17185237272E-01  0.49085179146E-02  0.10199846995E+01  0.10197035892E+01 0.  0.
     999903    2    3    3    0    0  0.46002120027E-01 -0.30622079316E-01 -0.11702229318E+00  0.13096746023E+00  0.20108499441E-01 0.  0.
         14    1    1    2    0    0 -0.15935855441E-01  0.17185237272E-01 -0.49085179146E-02  0.23945300517E-01  0.00000000000E+00 0.  1.
     999901    1    3    3    0    0 -0.30066264586E-01  0.13436842044E-01  0.12193081110E+00  0.88901723925E+00  0.88000000000E+00 0.  1.
        -11    1    4    4    0    0  0.55604433077E-02  0.15882049238E-02 -0.22404031289E-01  0.23143955229E-01  0.51100000000E-03 0. -1.
         11    1    4    4    0    0  0.40441676719E-01 -0.32210284240E-01 -0.94618261892E-01  0.10782350500E+00  0.51100000000E-03 0.  1.
</event>
<event>
 8    1  0.1123361E+005  0.1043930E+01  0.7957747E-01            NaN
         13   -1    0    0    0    0  0.00000000000E+00  0.00000000000E+00  0.74505805969E-08  0.10566000000E+00  0.10566000000E+00 0.  1.
     999900   -1    0    0    0    0 -0.00000000000E+00 -0.00000000000E+00 -0.74505805969E-08  0.93827000000E+00  0.93827000000E+00 0. -1.
     999902    2    1    2    0    0 -0.25161287686E-01 -0.77990932368E-02 -0.95458206736E-02  0.10159114535E+01  0.10155250083E+01 0.  0.
     999903    2    3    3    0    0  0.68251753690E-01 -0.92586736909E-01  0.45359622483E-01  0.12522096381E+00  0.19803754478E-01 0.  0.
         14    1    1    2    0    0  0.25161287686E-01  0.77990932368E-02  0.95458206736E-02  0.28018546458E-01  0.00000000000E+00 0.  1.
     999901    1    3    3    0    0 -0.93413041375E-01  0.84787643672E-01 -0.54905443156E-01  0.89069048974E+00  0.88000000000E+00 0. -1.
        -11    1    4    4    0    0  0.27793801838E-01 -0.53955714681E-01  0.21296419399E-01  0.64323504006E-01  0.51100000000E-03 0. -1.
         11    1    4    4    0    0  0.40457951852E-01 -0.38631022227E-01  0.24063203083E-01  0.60897459799E-01  0.51100000000E-03 0.  1.
</event>
<event>
 8    1  0.1123361E+005  0.1043930E+01  0.7957747E-01            NaN
         13   -1    0    0    0    0  0.00000000000E+00  0.00000000000E+00  0.74505805969E-08  0.10566000000E+00  0.10566000000E+00 0.  1.
     999900   -1    0    0    0    0 -0.00000000000E+00 -0.00000000000E+00 -0.74505805969E-08  0.93827000000E+00  0.93827000000E+00 0. -1.
     999902    2    1    2    0    0 -0.88159778350E-02  0.20936188696E-01 -0.27765144484E-02  0.10210443168E+01  0.10207878048E+01 0.  0.
     999903    2    3    3    0    0  0.12296485076E+00  0.11311907170E-01  0.36628998140E-01  0.13030776317E+00  0.19751351132E-01 0.  0.
         14    1    1    2    0    0  0.88159778350E-02 -0.20936188696E-01  0.27765144484E-02  0.22885683183E-01  0.00000000000E+00 0.  1.
     999901    1    3    3    0    0 -0.13178082859E+00  0.96242815255E-02 -0.39405512588E-01  0.89073655365E+00  0.88000000000E+00 0.  1.
        -11    1    4    4    0    0  0.10619806131E+00  0.94951442458E-02  0.24155173359E-01  0.10932483483E+00  0.51100000000E-03 0.  1.
         11    1    4    4    0    0  0.16766789453E-01  0.18167629244E-02  0.12473824780E-01  0.20982928340E-01  0.51100000000E-03 0. -1.
</event>
<event>
 8    1  0.1123361E+005  0.1043930E+01  0.7957747E-01            NaN
         13   -1    0    0    0    0  0.00000000000E+00  0.00000000000E+00  0.74505805969E-08  0.10566000000E+00  0.10566000000E+00 0.  1.
     999900   -1    0    0    0    0 -0.00000000000E+00 -0.00000000000E+00 -0.74505805969E-08  0.93827000000E+00  0.93827000000E+00 0.  1.
     999902    2    1    2    0    0 -0.90261135907E-02  0.10334109957E-01  0.19407032950E-01  0.10201624279E+01  0.10198855239E+01 0.  0.
     999903    2    3    3    0    0 -0.90877041818E-01  0.86446129394E-01  0.39438733349E-01  0.13286660183E+00  0.19145500180E-01 0.  0.
         14    1    1    2    0    0  0.90261135907E-02 -0.10334109957E-01 -0.19407032950E-01  0.23767572090E-01  0.00000000000E+00 0. -1.
     999901    1    3    3    0    0  0.81850928228E-01 -0.76112019438E-01 -0.20031700399E-01  0.88729582608E+00  0.88000000000E+00 0.  1.
        -11    1    4    4    0    0 -0.54209694750E-01  0.41465166784E-01  0.27687489549E-01  0.73653983326E-01  0.51100000000E-03 0. -1.
         11    1    4    4    0    0 -0.36667347068E-01  0.44980962610E-01  0.11751243800E-01  0.59212618505E-01  0.51100000000E-03 0.  1.
</event>
<event>
 8    1  0.1123361E+005  0.1043930E+01  0.7957747E-01            NaN
         13   -1    0    0    0    0  0.00000000000E+00  0.00000000000E+00  0.74505805969E-08  0.10566000000E+00  0.10566000000E+00 0. -1.
     999900   -1    0    0    0    0 -0.00000000000E+00 -0.00000000000E+00 -0.74505805969E-08  0.93827000000E+00  0.93827000000E+00 0.  1.
     999902    2    1    2    0    0 -0.11944004771E-01  0.99030995320E-02 -0.18468814971E-01  0.10198088940E+01  0.10195235909E+01 0.  0.
     999903    2    3    3    0    0 -0.35660468487E-01  0.70767193854E-01 -0.10524159870E+00  0.13313171221E+00  0.19198801038E-01 0.  0.
         14    1    1    2    0    0  0.11944004771E-01 -0.99030995320E-02  0.18468814971E-01  0.24121106043E-01  0.00000000000E+00 0. -1.
     999901    1    3    3    0    0  0.23716463717E-01 -0.60864094322E-01  0.86772783730E-01  0.88667718174E+00  0.88000000000E+00 0. -1.
        -11    1    4    4    0    0 -0.28694664253E-02  0.14190916877E-01 -0.30859840655E-01  0.34091154947E-01  0.51100000000E-03 0. -1.
         11    1    4    4    0    0 -0.32791002062E-01  0.56576276977E-01 -0.74381758045E-01  0.99040557267E-01  0.51100000000E-03 0.  1.
</event>
<event>
 8    1  0.1123361E+005  0.1043930E+01  0.7957747E-01            NaN
         13   -1    0    0    0    0  0.00000000000E+00  0.00000000000E+00  0.74505805969E-08  0.10566000000E+00  0.10566000000E+00 0. -1.
     999900   -1    0    0    0    0 -0.00000000000E+00 -0.00000000000E+00 -0.74505805969E-08  0.93827000000E+00  0.93827000000E+00 0. -1.
     999902    2    1    2    0    0  0.23729589421E-01 -0.84061825584E-02  0.65385512500E-02  0.10179201947E+01  0.10175878403E+01 0.  0.
     999903    2    3    3    0    0 -0.33136709415E-01 -0.92056913048E-01 -0.79824212204E-01  0.12792595451E+00  0.20509223129E-01 0.  0.
         14    1    1    2    0    0 -0.23729589421E-01  0.84061825584E-02 -0.65385512500E-02  0.26009805300E-01  0.00000000000E+00 0. -1.
     999901    1    3    3    0    0  0.56866298835E-01  0.83650730490E-01  0.86362763454E-01  0.88999424019E+00  0.88000000000E+00 0.  1.
        -11    1    4    4    0    0 -0.22099763253E-01 -0.69786215824E-01 -0.69713461881E-01  0.10108780017E+00  0.51100000000E-03 0.  1.
         11    1    4    4    0    0 -0.11036946161E-01 -0.22270697225E-01 -0.10110750322E-01  0.26838154343E-01  0.51100000000E-03 0. -1.
</event>
<event>
 8    1  0.1123361E+005  0.1043930E+01  0.7957747E-01            NaN
         13   -1    0    0    0    0  0.00000000000E+00  0.00000000000E+00  0.74505805969E-08  0.10566000000E+00  0.10566000000E+00 0.  1.
     999900   -1    0    0    0    0 -0.00000000000E+00 -0.00000000000E+00 -0.74505805969E-08  0.93827000000E+00  0.93827000000E+00 0.  1.
     999902    2    1    2    0    0  0.23602684715E-01  0.88598874956E-03  0.13316532489E-02  0.10202731828E+01  0.10199988836E+01 0.  0.
     999903    2    3    3    0    0  0.65274602195E-02 -0.86979603495E-01  0.95302053825E-01  0.13075513247E+00  0.20158473250E-01 0.  0.
         14    1    1    2    0    0 -0.23602684715E-01 -0.88598874956E-03 -0.13316532489E-02  0.23656817245E-01  0.00000000000E+00 0.  1.
     999901    1    3    3    0    0  0.17075224495E-01  0.87865592244E-01 -0.93970400576E-01  0.88951805028E+00  0.88000000000E+00 0.  1.
        -11    1    4    4    0    0  0.95794399833E-02 -0.81611563929E-01  0.93104198854E-01  0.12418077952E+00  0.51100000000E-03 0. -1.
         11    1    4    4    0    0 -0.30519797638E-02 -0.53680395655E-02  0.21978549711E-02  0.65743529513E-02  0.51100000000E-03 0.  1.
</event>
<event>
 8    1  0.1123361E+005  0.1043930E+01  0.7957747E-01            NaN
         13   -1    0    0    0    0  0.00000000000E+00  0.00000000000E+00  0.74505805969E-08  0.10566000000E+00  0.10566000000E+00 0. -1.
     999900   -1    0    0    0    0 -0.00000000000E+00 -0.00000000000E+00 -0.74505805969E-08  0.93827000000E+00  0.93827000000E+00 0. -1.
     999902    2    1    2    0    0 -0.24506469527E-01 -0.43747348156E-02  0.47019642450E-02  0.10185959553E+01  0.10182808583E+01 0.  0.
     999903    2    3    3    0    0  0.23502708346E-03  0.47432170373E-01 -0.11753460546E+00  0.12829382902E+00  0.19876042338E-01 0.  0.
         14    1    1    2    0    0  0.24506469527E-01  0.43747348156E-02 -0.47019642450E-02  0.25334044706E-01  0.00000000000E+00 0.  1.
     999901    1    3    3    0    0 -0.24741496611E-01 -0.51806905188E-01  0.12223656971E+00  0.89030212628E+00  0.88000000000E+00 0.  1.
        -11    1    4    4    0    0  0.82071494178E-03  0.40451473417E-02 -0.33107135608E-01  0.33367354393E-01  0.51100000000E-03 0.  1.
         11    1    4    4    0    0 -0.58568785833E-03  0.43387023031E-01 -0.84427469853E-01  0.94926474624E-01  0.51100000000E-03 0. -1.
</event>
<event>
 8    1  0.1123361E+005  0.1043930E+01  0.7957747E-01            NaN
         13   -1    0    0    0    0  0.00000000000E+00  0.00000000000E+00  0.74505805969E-08  0.10566000000E+00  0.10566000000E+00 0.  1.
     999900   -1    0    0    0    0 -0.00000000000E+00 -0.00000000000E+00 -0.74505805969E-08  0.93827000000E+00  0.93827000000E+00 0. -1.
     999902    2    1    2    0    0 -0.56307273372E-02 -0.55737523332E-02 -0.22875847587E-01  0.10197209891E+01  0.10194335777E+01 0.  0.
     999903    2    3    3    0    0 -0.17899254800E-01 -0.16770781787E-01  0.12358224486E+00  0.12746213481E+00  0.19297205011E-01 0.  0.
         14    1    1    2    0    0  0.56307273372E-02  0.55737523332E-02  0.22875847587E-01  0.24209010890E-01  0.00000000000E+00 0.  1.
     999901    1    3    3    0    0  0.12268527463E-01  0.11197029454E-01 -0.14645809245E+00  0.89225885430E+00  0.88000000000E+00 0. -1.
        -11    1    4    4    0    0 -0.98253167859E-02 -0.12596157998E-01  0.35760672173E-01  0.39169973724E-01  0.51100000000E-03 0. -1.
         11    1    4    4    0    0 -0.80739380138E-02 -0.41746237891E-02  0.87821572688E-01  0.88292161086E-01  0.51100000000E-03 0.  1.
</event>
<event>
 8    1  0.1123361E+005  0.1043930E+01  0.7957747E-01            NaN
         13   -1    0    0    0    0  0.00000000000E+00  0.00000000000E+00  0.74505805969E-08  0.10566000000E+00  0.10566000000E+00 0.  1.
     999900   -1    0    0    0    0 -0.00000000000E+00 -0.00000000000E+00 -0.74505805969E-08  0.93827000000E+00  0.93827000000E+00 0. -1.
     999902    2    1    2    0    0 -0.93451388560E-02  0.33024703591E-02  0.20366116424E-01  0.10212801296E+01  0.10210289352E+01 0.  0.
     999903    2    3    3    0    0 -0.12479080484E+00 -0.22084613256E-01  0.37588317695E-01  0.13320985647E+00  0.16477533735E-01 0.  0.
         14    1    1    2    0    0  0.93451388560E-02 -0.33024703591E-02 -0.20366116424E-01  0.22649870395E-01  0.00000000000E+00 0. -1.
     999901    1    3    3    0    0  0.11544566599E+00  0.25387083615E-01 -0.17222201271E-01  0.88807027313E+00  0.88000000000E+00 0. -1.
        -11    1    4    4    0    0 -0.42793571707E-01 -0.15535134796E-01  0.14091345749E-01  0.47659808420E-01  0.51100000000E-03 0.  1.
         11    1    4    4    0    0 -0.81997233135E-01 -0.65494784599E-02  0.23496971946E-01  0.85550048051E-01  0.51100000000E-03 0. -1.
</event>
<event>
 8    1  0.1123361E+005  0.1043930E+01  0.7957747E-01            NaN
         13   -1    0    0    0    0  0.00000000000E+00  0.00000000000E+00  0.74505805969E-08  0.10566000000E+00  0.10566000000E+00 0.  1.
     999900   -1    0    0    0    0 -0.00000000000E+00 -0.00000000000E+00 -0.74505805969E-08  0.93827000000E+00  0.93827000000E+00 0.  1.
     999902    2    1    2    0    0 -0.11262927708E-01  0.30584129090E-01  0.18508887562E-01  0.10064490527E+01  0.10057509007E+01 0.  0.
     999903    2    3    3    0    0 -0.52842689641E-01 -0.99763522682E-01 -0.11778119535E-01  0.11536168900E+00  0.20603030906E-01 0.  0.
         14    1    1    2    0    0  0.11262927708E-01 -0.30584129090E-01 -0.18508887562E-01  0.37480947314E-01  0.00000000000E+00 0. -1.
     999901    1    3    3    0    0  0.41579761934E-01  0.13034765177E+00  0.30287007097E-01  0.89108736369E+00  0.88000000000E+00 0. -1.
        -11    1    4    4    0    0 -0.40324083429E-01 -0.66200636847E-01  0.41716098328E-03  0.77517682935E-01  0.51100000000E-03 0. -1.
         11    1    4    4    0    0 -0.12518606212E-01 -0.33562885834E-01 -0.12195280518E-01  0.37844006064E-01  0.51100000000E-03 0.  1.
</event>
<event>
 8    1  0.1123361E+005  0.1043930E+01  0.7957747E-01            NaN
         13   -1    0    0    0    0  0.00000000000E+00  0.00000000000E+00  0.74505805969E-08  0.10566000000E+00  0.10566000000E+00 0. -1.
     999900   -1    0    0    0    0 -0.00000000000E+00 -0.00000000000E+00 -0.74505805969E-08  0.93827000000E+00  0.93827000000E+00 0. -1.
     999902    2    1    2    0    0 -0.92268269837E-02  0.20580251185E-01  0.49063828829E-02  0.10208485428E+01  0.10205875727E+01 0.  0.
     999903    2    3    3    0    0 -0.25377860463E-01 -0.98325060055E-01  0.77816122670E-01  0.12971715005E+00  0.21432144877E-01 0.  0.
         14    1    1    2    0    0  0.92268269837E-02 -0.20580251185E-01 -0.49063828829E-02  0.23081457233E-01  0.00000000000E+00 0.  1.
     999901    1    3    3    0    0  0.16151033479E-01  0.11890531124E+00 -0.72909739787E-01  0.89113139271E+00  0.88000000000E+00 0. -1.
        -11    1    4    4    0    0 -0.73628440978E-02 -0.82202666096E-02  0.36613456987E-02  0.11638334489E-01  0.51100000000E-03 0. -1.
         11    1    4    4    0    0 -0.18015016365E-01 -0.90104793445E-01  0.74154776972E-01  0.11807881556E+00  0.51100000000E-03 0.  1.
</event>
<event>
 8    1  0.1123361E+005  0.1043930E+01  0.7957747E-01            NaN
         13   -1    0    0    0    0  0.00000000000E+00  0.00000000000E+00  0.74505805969E-08  0.10566000000E+00  0.10566000000E+00 0.  1.
     999900   -1    0    0    0    0 -0.00000000000E+00 -0.00000000000E+00 -0.74505805969E-08  0.93827000000E+00  0.93827000000E+00 0. -1.
     999902    2    1    2    0    0 -0.86544358669E-02  0.22398533712E-01 -0.94846783517E-02  0.10181123182E+01  0.10177849182E+01 0.  0.
     999903    2    3    3    0    0  0.91490108661E-01 -0.44008922422E-01  0.72744841291E-01  0.12614787159E+00  0.17727050984E-01 0.  0.
         14    1    1    2    0    0  0.86544358669E-02 -0.22398533712E-01  0.94846783517E-02  0.25817681849E-01  0.00000000000E+00 0. -1.
     999901    1    3    3    0    0 -0.10014454453E+00  0.66407456134E-01 -0.82229519642E-01  0.89196444656E+00  0.88000000000E+00 0. -1.
        -11    1    4    4    0    0  0.40930501761E-01 -0.13489576552E-01  0.39017122313E-01  0.58136663170E-01  0.51100000000E-03 0.  1.
         11    1    4    4    0    0  0.50559606900E-01 -0.30519345871E-01  0.33727718978E-01  0.68011208420E-01  0.51100000000E-03 0. -1.
</event>
<event>
 8    1  0.1123361E+005  0.1043930E+01  0.7957747E-01            NaN
         13   -1    0    0    0    0  0.00000000000E+00  0.00000000000E+00  0.74505805969E-08  0.10566000000E+00  0.10566000000E+00 0. -1.
     999900   -1    0    0    0    0 -0.00000000000E+00 -0.00000000000E+00 -0.74505805969E-08  0.93827000000E+00  0.93827000000E+00 0. -1.
     999902    2    1    2    0    0 -0.12494305338E-01 -0.14179385872E-01 -0.14630109667E-01  0.10200301515E+01  0.10197501200E+01 0.  0.
     999903    2    3    3    0    0 -0.41845181859E-01 -0.88100574625E-01  0.84726882034E-01  0.13087458136E+00  0.20899306546E-01 0.  0.
         14    1    1    2    0    0  0.12494305338E-01  0.14179385872E-01  0.14630109667E-01  0.23899848502E-01  0.00000000000E+00 0.  1.
     999901    1    3    3    0    0  0.29350876521E-01  0.73921188753E-01 -0.99356991701E-01  0.88915557013E+00  0.88000000000E+00 0. -1.
        -11    1    4    4    0    0 -0.35296848155E-01 -0.54842900713E-01  0.48636125070E-01  0.81359357366E-01  0.51100000000E-03 0.  1.
         11    1    4    4    0    0 -0.65483337037E-02 -0.33257673912E-01  0.36090756964E-01  0.49515223998E-01  0.51100000000E-03 0. -1.
</event>
<event>
 8    1  0.1123361E+005  0.1043930E+01  0.7957747E-01            NaN
         13   -1    0    0    0    0  0.00000000000E+00  0.00000000000E+00  0.74505805969E-08  0.10566000000E+00  0.10566000000E+00 0. -1.
     999900   -1    0    0    0    0 -0.00000000000E+00 -0.00000000000E+00 -0.74505805969E-08  0.93827000000E+00  0.93827000000E+00 0.  1.
     999902    2    1    2    0    0  0.15071050970E-01  0.39216105700E-02 -0.17900114830E-01  0.10202038600E+01  0.10199279319E+01 0.  0.
     999903    2    3    3    0    0  0.12219840885E+00 -0.43398449250E-01 -0.17972593276E-01  0.13244518555E+00  0.20070788318E-01 0.  0.
         14    1    1    2    0    0 -0.15071050970E-01 -0.39216105700E-02  0.17900114830E-01  0.23726139967E-01  0.00000000000E+00 0. -1.
     999901    1    3    3    0    0 -0.10712735788E+00  0.47320059820E-01  0.72478446638E-04  0.88775867448E+00  0.88000000000E+00 0.  1.
        -11    1    4    4    0    0  0.17794377973E-01 -0.13675254263E-01 -0.21839114192E-03  0.22449081993E-01  0.51100000000E-03 0. -1.
         11    1    4    4    0    0  0.10440403088E+00 -0.29723194986E-01 -0.17754202134E-01  0.10999610356E+00  0.51100000000E-03 0.  1.
</event>
<event>
 8    1  0.1123361E+005  0.1043930E+01  0.7957747E-01            NaN
         13   -1    0    0    0    0  0.00000000000E+00  0.00000000000E+00  0.74505805969E-08  0.10566000000E+00  0.10566000000E+00 0.  1.
     999900   -1    0    0    0    0 -0.00000000000E+00 -0.00000000000E+00 -0.74505805969E-08  0.93827000000E+00  0.93827000000E+00 0.  1.
     999902    2    1    2    0    0  0.15765479062E-01 -0.89560508545E-02  0.14789681224E-01  0.10205313708E+01  0.10202630950E+01 0.  0.
     999903    2    3    3    0    0  0.13083012443E+00  0.10359492402E-01 -0.44974332273E-03  0.13269962838E+00  0.19625202161E-01 0.  0.
         14    1    1    2    0    0 -0.15765479062E-01  0.89560508545E-02 -0.14789681224E-01  0.23398629184E-01  0.00000000000E+00 0.  1.
     999901    1    3    3    0    0 -0.11506464537E+00 -0.19315543257E-01  0.15239424546E-01  0.88783174244E+00  0.88000000000E+00 0. -1.
        -11    1    4    4    0    0  0.69619962297E-01  0.10120046271E-01  0.83895079796E-02  0.70851954467E-01  0.51100000000E-03 0. -1.
         11    1    4    4    0    0  0.61210162137E-01  0.23944613103E-03 -0.88392513023E-02  0.61847673908E-01  0.51100000000E-03 0.  1.
</event>
<event>
 8    1  0.1123361E+005  0.1043930E+01  0.7957747E-01            NaN
         13   -1    0    0    0    0  0.00000000000E+00  0.00000000000E+00  0.74505805969E-08  0.10566000000E+00  0.10566000000E+00 0.  1.
     999900   -1    0    0    0    0 -0.00000000000E+00 -0.00000000000E+00 -0.74505805969E-08  0.93827000000E+00  0.93827000000E+00 0.  1.
     999902    2    1    2    0    0  0.25359554093E-02  0.23361567002E-01  0.17855213469E-02  0.10203634566E+01  0.10200912712E+01 0.  0.
     999903    2    3    3    0    0  0.65675202994E-01 -0.92295628908E-01 -0.57335897551E-01  0.12859078727E+00  0.20407597057E-01 0.  0.
         14    1    1    2    0    0 -0.25359554093E-02 -0.23361567002E-01 -0.17855213469E-02  0.23566543427E-01  0.00000000000E+00 0. -1.
     999901    1    3    3    0    0 -0.63139247585E-01  0.11565719591E+00  0.59121418898E-01  0.89177266931E+00  0.88000000000E+00 0. -1.
        -11    1    4    4    0    0  0.47746485902E-01 -0.51385701537E-01 -0.30583401533E-01  0.76523348128E-01  0.51100000000E-03 0. -1.
         11    1    4    4    0    0  0.17928717092E-01 -0.40909927371E-01 -0.26752496018E-01  0.52067439137E-01  0.51100000000E-03 0.  1.
</event>
<event>
 8    1  0.1123361E+005  0.1043930E+01  0.7957747E-01            NaN
         13   -1    0    0    0    0  0.00000000000E+00  0.00000000000E+00  0.74505805969E-08  0.10566000000E+00  0.10566000000E+00 0.  1.
     999900   -1    0    0    0    0 -0.00000000000E+00 -0.00000000000E+00 -0.74505805969E-08  0.93827000000E+00  0.93827000000E+00 0. -1.
     999902    2    1    2    0    0 -0.10116138180E-01 -0.54962243257E-02 -0.20552098805E-01  0.10203729735E+01  0.10201010104E+01 0.  0.
     999903    2    3    3    0    0  0.16156032947E-01 -0.12268885179E+00 -0.41483020728E-01  0.13196853719E+00  0.19526444802E-01 0.  0.
         14    1    1    2    0    0  0.10116138180E-01  0.54962243257E-02  0.20552098805E-01  0.23557026527E-01  0.00000000000E+00 0.  1.
     999901    1    3    3    0    0 -0.26272171128E-01  0.11719262746E+00  0.20930921924E-01  0.88840443628E+00  0.88000000000E+00 0. -1.
        -11    1    4    4    0    0  0.20173490897E-01 -0.91737163049E-01 -0.33746060620E-01  0.99808489356E-01  0.51100000000E-03 0. -1.
         11    1    4    4    0    0 -0.40174579494E-02 -0.30951688740E-01 -0.77369601087E-02  0.32160047838E-01  0.51100000000E-03 0.  1.
</event>
<event>
 8    1  0.1123361E+005  0.1043930E+01  0.7957747E-01            NaN
         13   -1    0    0    0    0  0.00000000000E+00  0.00000000000E+00  0.74505805969E-08  0.10566000000E+00  0.10566000000E+00 0.  1.
     999900   -1    0    0    0    0 -0.00000000000E+00 -0.00000000000E+00 -0.74505805969E-08  0.93827000000E+00  0.93827000000E+00 0.  1.
     999902    2    1    2    0    0  0.60073764283E-02  0.21267696102E-01  0.67588307806E-02  0.10208197152E+01  0.10205580854E+01 0.  0.
     999903    2    3    3    0    0 -0.59243571018E-01  0.11147254127E+00  0.37350595407E-01  0.13327790984E+00  0.20784756678E-01 0.  0.
         14    1    1    2    0    0 -0.60073764283E-02 -0.21267696102E-01 -0.67588307806E-02  0.23110284779E-01  0.00000000000E+00 0. -1.
     999901    1    3    3    0    0  0.65250947446E-01 -0.90204845168E-01 -0.30591764627E-01  0.88754180538E+00  0.88000000000E+00 0. -1.
        -11    1    4    4    0    0 -0.28251421124E-01  0.74396840701E-01  0.21850526286E-01  0.82527203525E-01  0.51100000000E-03 0. -1.
         11    1    4    4    0    0 -0.30992149894E-01  0.37075700569E-01  0.15500069121E-01  0.50750706316E-01  0.51100000000E-03 0.  1.
</event>
<event>
 8    1  0.1123361E+005  0.1043930E+01  0.7957747E-01            NaN
         13   -1    0    0    0    0  0.00000000000E+00  0.00000000000E+00  0.74505805969E-08  0.10566000000E+00  0.10566000000E+00 0.  1.
     999900   -1    0    0    0    0 -0.00000000000E+00 -0.00000000000E+00 -0.74505805969E-08  0.93827000000E+00  0.93827000000E+00 0. -1.
     999902    2    1    2    0    0 -0.26634076800E-02 -0.22428820851E-01 -0.37334503266E-02  0.10210371103E+01  0.10207804349E+01 0.  0.
     999903    2    3    3    0    0  0.33847913116E-02  0.16379652227E-01 -0.12857174284E+00  0.13135892270E+00  0.21088473133E-01 0.  0.
         14    1    1    2    0    0  0.26634076800E-02  0.22428820851E-01  0.37334503266E-02  0.22892889651E-01  0.00000000000E+00 0.  1.
     999901    1    3    3    0    0 -0.60481989916E-02 -0.38808473078E-01  0.12483829251E+00  0.88967818764E+00  0.88000000000E+00 0.  1.
        -11    1    4    4    0    0 -0.42307015337E-02  0.10865650289E-03 -0.69088809476E-01  0.69220194723E-01  0.51100000000E-03 0.  1.
         11    1    4    4    0    0  0.76154928452E-02  0.16270995724E-01 -0.59482933360E-01  0.62138727982E-01  0.51100000000E-03 0. -1.
</event>
<event>
 8    1  0.1123361E+005  0.1043930E+01  0.7957747E-01            NaN
         13   -1    0    0    0    0  0.00000000000E+00  0.00000000000E+00  0.74505805969E-08  0.10566000000E+00  0.10566000000E+00 0. -1.
     999900   -1    0    0    0    0 -0.00000000000E+00 -0.00000000000E+00 -0.74505805969E-08  0.93827000000E+00  0.93827000000E+00 0.  1.
     999902    2    1    2    0    0 -0.96370462486E-02 -0.80913687721E-02 -0.21935400071E-01  0.10186415701E+01  0.10183276210E+01 0.  0.
     999903    2    3    3    0    0  0.65125731480E-01 -0.10973022504E+00 -0.10539908070E-01  0.12956913929E+00  0.19874330336E-01 0.  0.
         14    1    1    2    0    0  0.96370462486E-02  0.80913687721E-02  0.21935400071E-01  0.25288429870E-01  0.00000000000E+00 0. -1.
     999901    1    3    3    0    0 -0.74762777729E-01  0.10163885627E+00 -0.11395492000E-01  0.88907243084E+00  0.88000000000E+00 0. -1.
        -11    1    4    4    0    0  0.72886088250E-02 -0.22668213954E-01  0.36219665692E-02  0.24090485784E-01  0.51100000000E-03 0. -1.
         11    1    4    4    0    0  0.57837122655E-01 -0.87062011088E-01 -0.14161874640E-01  0.10547865351E+00  0.51100000000E-03 0.  1.
</event>
<event>
 8    1  0.1123361E+005  0.1043930E+01  0.7957747E-01            NaN
         13   -1    0    0    0    0  0.00000000000E+00  0.00000000000E+00  0.74505805969E-08  0.10566000000E+00  0.10566000000E+00 0.  1.
     999900   -1    0    0    0    0 -0.00000000000E+00 -0.00000000000E+00 -0.74505805969E-08  0.93827000000E+00  0.93827000000E+00 0.  1.
     999902    2    1    2    0    0  0.18136680198E-01  0.97735639404E-02 -0.13518854310E-01  0.10192881425E+01  0.10189902336E+01 0.  0.
     999903    2    3    3    0    0 -0.79726438127E-01 -0.44224138129E-01 -0.89023448291E-01  0.12901072196E+00  0.20162160235E-01 0.  0.
         14    1    1    2    0    0 -0.18136680198E-01 -0.97735639404E-02  0.13518854310E-01  0.24641857531E-01  0.00000000000E+00 0.  1.
     999901    1    3    3    0    0  0.97863118325E-01  0.53997702070E-01  0.75504593980E-01  0.89027742051E+00  0.88000000000E+00 0. -1.
        -11    1    4    4    0    0 -0.54318639909E-01 -0.31183901260E-01 -0.47490238052E-01  0.78603652400E-01  0.51100000000E-03 0. -1.
         11    1    4    4    0    0 -0.25407798218E-01 -0.13040236869E-01 -0.41533210239E-01  0.50407069560E-01  0.51100000000E-03 0.  1.
</event>
<event>
 8    1  0.1123361E+005  0.1043930E+01  0.7957747E-01            NaN
         13   -1    0    0    0    0  0.00000000000E+00  0.00000000000E+00  0.74505805969E-08  0.10566000000E+00  0.10566000000E+00 0. -1.
     999900   -1    0    0    0    0 -0.00000000000E+00 -0.00000000000E+00 -0.74505805969E-08  0.93827000000E+00  0.93827000000E+00 0.  1.
     999902    2    1    2    0    0  0.57335093510E-03 -0.21094727672E-01  0.10988307290E-01  0.10201380021E+01  0.10198605219E+01 0.  0.
     999903    2    3    3    0    0  0.84194720678E-01  0.47891350375E-01  0.84995667353E-01  0.13040281578E+00  0.19957416247E-01 0.  0.
         14    1    1    2    0    0 -0.57335093510E-03  0.21094727672E-01 -0.10988307290E-01  0.23791997897E-01  0.00000000000E+00 0. -1.
     999901    1    3    3    0    0 -0.83621369742E-01 -0.68986078047E-01 -0.74007360062E-01  0.88973518633E+00  0.88000000000E+00 0.  1.
        -11    1    4    4    0    0  0.69672360860E-01  0.47359252017E-01  0.70237781125E-01  0.10968474661E+00  0.51100000000E-03 0.  1.
         11    1    4    4    0    0  0.14522359817E-01  0.53209835807E-03  0.14757886227E-01  0.20718069172E-01  0.51100000000E-03 0. -1.
</event>
<event>
 8    1  0.1123361E+005  0.1043930E+01  0.7957747E-01            NaN
         13   -1    0    0    0    0  0.00000000000E+00  0.00000000000E+00  0.74505805969E-08  0.10566000000E+00  0.10566000000E+00 0.  1.
     999900   -1    0    0    0    0 -0.00000000000E+00 -0.00000000000E+00 -0.74505805969E-08  0.93827000000E+00  0.93827000000E+00 0.  1.
     999902    2    1    2    0    0 -0.10690914691E-01  0.17631379279E-01 -0.94038634101E-02  0.10212673912E+01  0.10210159110E+01 0.  0.
     999903    2    3    3    0    0 -0.73345056377E-01 -0.51838167728E-01 -0.94786458947E-01  0.13219948203E+00  0.20628555957E-01 0.  0.
         14    1    1    2    0    0  0.10690914691E-01 -0.17631379279E-01  0.94038634101E-02  0.22662608836E-01  0.00000000000E+00 0.  1.
     999901    1    3    3    0    0  0.62654141686E-01  0.69469547007E-01  0.85382595537E-01  0.88906790913E+00  0.88000000000E+00 0. -1.
        -11    1    4    4    0    0 -0.24920042672E-01 -0.21384626445E-01 -0.21602764034E-01  0.39309684683E-01  0.51100000000E-03 0.  1.
         11    1    4    4    0    0 -0.48425013705E-01 -0.30453541284E-01 -0.73183694913E-01  0.92889797347E-01  0.51100000000E-03 0. -1.
</event>
<event>
 8    1  0.1123361E+005  0.1043930E+01  0.7957747E-01            NaN
         13   -1    0    0    0    0  0.00000000000E+00  0.00000000000E+00  0.74505805969E-08  0.10566000000E+00  0.10566000000E+00 0.  1.
     999900   -1    0    0    0    0 -0.00000000000E+00 -0.00000000000E+00 -0.74505805969E-08  0.93827000000E+00  0.93827000000E+00 0. -1.
     999902    2    1    2    0    0 -0.10741400215E-01  0.20294122857E-01  0.46144943547E-02  0.10205094394E+01  0.10202406546E+01 0.  0.
     999903    2    3    3    0    0 -0.96190465626E-01 -0.49332824031E-01 -0.70293956730E-01  0.13047532175E+00  0.19905678335E-01 0.  0.
         14    1    1    2    0    0  0.10741400215E-01 -0.20294122857E-01 -0.46144943547E-02  0.23420560609E-01  0.00000000000E+00 0. -1.
     999901    1    3    3    0    0  0.85449065411E-01  0.69626946888E-01  0.74908451084E-01  0.89003411764E+00  0.88000000000E+00 0. -1.
        -11    1    4    4    0    0 -0.14215036524E-01 -0.14642168612E-01 -0.84927793590E-02  0.22109925085E-01  0.51100000000E-03 0. -1.
         11    1    4    4    0    0 -0.81975429102E-01 -0.34690655419E-01 -0.61801177371E-01  0.10836539667E+00  0.51100000000E-03 0.  1.
</event>
<event>
 8    1  0.1123361E+005  0.1043930E+01  0.7957747E-01            NaN
         13   -1    0    0    0    0  0.00000000000E+00  0.00000000000E+00  0.74505805969E-08  0.10566000000E+00  0.10566000000E+00 0.  1.
     999900   -1    0    0    0    0 -0.00000000000E+00 -0.00000000000E+00 -0.74505805969E-08  0.93827000000E+00  0.93827000000E+00 0. -1.
     999902    2    1    2    0    0 -0.22854934666E-01 -0.29992514992E-03 -0.46295868057E-02  0.10206089565E+01  0.10203424774E+01 0.  0.
     999903    2    3    3    0    0 -0.81566530147E-02  0.11852696351E+00  0.50706031683E-01  0.13077869205E+00  0.20415498438E-01 0.  0.
         14    1    1    2    0    0  0.22854934666E-01  0.29992514992E-03  0.46295868057E-02  0.23321043451E-01  0.00000000000E+00 0.  1.
     999901    1    3    3    0    0 -0.14698281651E-01 -0.11882688866E+00 -0.55335618488E-01  0.88983026450E+00  0.88000000000E+00 0.  1.
        -11    1    4    4    0    0 -0.77292215473E-02  0.85946201406E-01  0.46192531209E-01  0.97880036076E-01  0.51100000000E-03 0. -1.
         11    1    4    4    0    0 -0.42743146739E-03  0.32580762106E-01  0.45135004735E-02  0.32898655969E-01  0.51100000000E-03 0.  1.
</event>
<event>
 8    1  0.1123361E+005  0.1043930E+01  0.7957747E-01            NaN
         13   -1    0    0    0    0  0.00000000000E+00  0.00000000000E+00  0.74505805969E-08  0.10566000000E+00  0.10566000000E+00 0. -1.
     999900   -1    0    0    0    0 -0.00000000000E+00 -0.00000000000E+00 -0.74505805969E-08  0.93827000000E+00  0.93827000000E+00 0.  1.
     999902    2    1    2    0    0 -0.23703861584E-01 -0.67639718707E-02 -0.61149897006E-02  0.10185328059E+01  0.10182161162E+01 0.  0.
     999903    2    3    3    0    0  0.56748983208E-01 -0.11174325303E+00  0.19099608345E-01  0.12829177917E+00  0.19671905608E-01 0.  0.
         14    1    1    2    0    0  0.23703861584E-01  0.67639718707E-02  0.61149897006E-02  0.25397194107E-01  0.00000000000E+00 0. -1.
     999901    1    3    3    0    0 -0.80452844792E-01  0.10497928116E+00 -0.25214598045E-01  0.89024102672E+00  0.88000000000E+00 0. -1.
        -11    1    4    4    0    0  0.19046105052E-02 -0.17448065668E-01  0.52683215227E-02  0.18332453993E-01  0.51100000000E-03 0.  1.
         11    1    4    4    0    0  0.54844372703E-01 -0.94295187363E-01  0.13831286822E-01  0.10995932518E+00  0.51100000000E-03 0. -1.
</event>
<event>
 8    1  0.1123361E+005  0.1043930E+01  0.7957747E-01            NaN
         13   -1    0    0    0    0  0.00000000000E+00  0.00000000000E+00  0.74505805969E-08  0.10566000000E+00  0.10566000000E+00 0.  1.
     999900   -1    0    0    0    0 -0.00000000000E+00 -0.00000000000E+00 -0.74505805969E-08  0.93827000000E+00  0.93827000000E+00 0. -1.
     999902    2    1    2    0    0  0.14129612350E-01  0.11897570707E-02 -0.19615671719E-01  0.10197259498E+01  0.10194386577E+01 0.  0.
     999903    2    3    3    0    0  0.12269088295E-01 -0.12689056383E+00  0.15240732293E-01  0.12976920985E+00  0.18868550240E-01 0.  0.
         14    1    1    2    0    0 -0.14129612350E-01 -0.11897570707E-02  0.19615671719E-01  0.24204050157E-01  0.00000000000E+00 0.  1.
     999901    1    3    3    0    0  0.18605240547E-02  0.12808032090E+00 -0.34856404012E-01  0.88995673999E+00  0.88000000000E+00 0. -1.
        -11    1    4    4    0    0 -0.28529665751E-02 -0.39211435924E-01  0.10359835034E-01  0.40660342208E-01  0.51100000000E-03 0. -1.
         11    1    4    4    0    0  0.15122054870E-01 -0.87679127907E-01  0.48808972586E-02  0.89108867645E-01  0.51100000000E-03 0.  1.
</event>
<event>
 8    1  0.1123361E+005  0.1043930E+01  0.7957747E-01            NaN
         13   -1    0    0    0    0  0.00000000000E+00  0.00000000000E+00  0.74505805969E-08  0.10566000000E+00  0.10566000000E+00 0. -1.
     999900   -1    0    0    0    0 -0.00000000000E+00 -0.00000000000E+00 -0.74505805969E-08  0.93827000000E+00  0.93827000000E+00 0.  1.
     999902    2    1    2    0    0 -0.24265883240E-01 -0.12023755224E-02  0.50157255523E-02  0.10191220114E+01  0.10188200223E+01 0.  0.
     999903    2    3    3    0    0  0.97036615839E-02 -0.84612931309E-01 -0.94812402207E-01  0.12891029169E+00  0.19363948412E-01 0.  0.
         14    1    1    2    0    0  0.24265883240E-01  0.12023755224E-02 -0.50157255523E-02  0.24807988615E-01  0.00000000000E+00 0.  1.
     999901    1    3    3    0    0 -0.33969544824E-01  0.83410555787E-01  0.99828127759E-01  0.89021171970E+00  0.88000000000E+00 0. -1.
        -11    1    4    4    0    0  0.95733973303E-02 -0.26898318530E-01 -0.22298129436E-01  0.36230334990E-01  0.51100000000E-03 0.  1.
         11    1    4    4    0    0  0.13026425357E-03 -0.57714612779E-01 -0.72514272771E-01  0.92679956698E-01  0.51100000000E-03 0. -1.
</event>
<event>
 8    1  0.1123361E+005  0.1043930E+01  0.7957747E-01            NaN
         13   -1    0    0    0    0  0.00000000000E+00  0.00000000000E+00  0.74505805969E-08  0.10566000000E+00  0.10566000000E+00 0. -1.
     999900   -1    0    0    0    0 -0.00000000000E+00 -0.00000000000E+00 -0.74505805969E-08  0.93827000000E+00  0.93827000000E+00 0. -1.
     999902    2    1    2    0    0  0.40634305771E-02  0.37970990216E-02  0.22056133163E-01  0.10211835181E+01  0.10209301520E+01 0.  0.
     999903    2    3    3    0    0 -0.57404013889E-01  0.59634289080E-01  0.99486947207E-01  0.13388899569E+00  0.34309492237E-01 0.  0.
         14    1    1    2    0    0 -0.40634305771E-02 -0.37970990216E-02 -0.22056133163E-01  0.22746481907E-01  0.00000000000E+00 0.  1.
     999901    1    3    3    0    0  0.61467444466E-01 -0.55837190058E-01 -0.77430814044E-01  0.88729452240E+00  0.88000000000E+00 0. -1.
        -11    1    4    4    0    0 -0.24842411012E-01  0.36937153572E-01  0.75096054368E-01  0.87299353958E-01  0.51100000000E-03 0.  1.
         11    1    4    4    0    0 -0.32561602877E-01  0.22697135508E-01  0.24390892840E-01  0.46589641732E-01  0.51100000000E-03 0. -1.
</event>
<event>
 8    1  0.1123361E+005  0.1043930E+01  0.7957747E-01            NaN
         13   -1    0    0    0    0  0.00000000000E+00  0.00000000000E+00  0.74505805969E-08  0.10566000000E+00  0.10566000000E+00 0.  1.
     999900   -1    0    0    0    0 -0.00000000000E+00 -0.00000000000E+00 -0.74505805969E-08  0.93827000000E+00  0.93827000000E+00 0. -1.
     999902    2    1    2    0    0  0.25972328389E-02 -0.17410003889E-01  0.15384162177E-01  0.10205520980E+01  0.10202843028E+01 0.  0.
     999903    2    3    3    0    0  0.33616704156E-01 -0.61485163185E-01  0.11206014982E+00  0.13361857525E+00  0.19645314565E-01 0.  0.
         14    1    1    2    0    0 -0.25972328389E-02  0.17410003889E-01 -0.15384162177E-01  0.23377901953E-01  0.00000000000E+00 0. -1.
     999901    1    3    3    0    0 -0.31019471317E-01  0.44075159296E-01 -0.96675987646E-01  0.88693352279E+00  0.88000000000E+00 0. -1.
        -11    1    4    4    0    0  0.26604710827E-01 -0.29460844919E-01  0.55392091778E-01  0.68149079040E-01  0.51100000000E-03 0.  1.
         11    1    4    4    0    0  0.70119933287E-02 -0.32024318266E-01  0.56668058045E-01  0.65469496213E-01  0.51100000000E-03 0. -1.
</event>
<event>
 8    1  0.1123361E+005  0.1043930E+01  0.7957747E-01            NaN
         13   -1    0    0    0    0  0.00000000000E+00  0.00000000000E+00  0.74505805969E-08  0.10566000000E+00  0.10566000000E+00 0.  1.
     999900   -1    0    0    0    0 -0.00000000000E+00 -0.00000000000E+00 -0.74505805969E-08  0.93827000000E+00  0.93827000000E+00 0. -1.
     999902    2    1    2    0    0 -0.21714905698E-01  0.92571725436E-02 -0.15453359988E-03  0.10203237243E+01  0.10200506096E+01 0.  0.
     999903    2    3    3    0    0 -0.12742173536E+00 -0.28949526732E-01  0.15896141700E-01  0.13302934816E+00  0.19228791163E-01 0.  0.
         14    1    1    2    0    0  0.21714905698E-01 -0.92571725436E-02  0.15453359988E-03  0.23606275725E-01  0.00000000000E+00 0. -1.
     999901    1    3    3    0    0  0.10570682967E+00  0.38206699276E-01 -0.16050675300E-01  0.88729437611E+00  0.88000000000E+00 0. -1.
        -11    1    4    4    0    0 -0.50034512370E-01 -0.80943863216E-02  0.15051581720E-01  0.52875161951E-01  0.51100000000E-03 0.  1.
         11    1    4    4    0    0 -0.77387222994E-01 -0.20855140411E-01  0.84455998056E-03  0.80154186209E-01  0.51100000000E-03 0. -1.
</event>
<event>
 8    1  0.1123361E+005  0.1043930E+01  0.7957747E-01            NaN
         13   -1    0    0    0    0  0.00000000000E+00  0.00000000000E+00  0.74505805969E-08  0.10566000000E+00  0.10566000000E+00 0.  1.
     999900   -1    0    0    0    0 -0.00000000000E+00 -0.00000000000E+00 -0.74505805969E-08  0.93827000000E+00  0.93827000000E+00 0. -1.
     999902    2    1    2    0    0 -0.16265673708E-01  0.13510354018E-01 -0.92406357707E-02  0.10208542301E+01  0.10205933901E+01 0.  0.
     999903    2    3    3    0    0  0.10622835348E+00  0.21223342965E-01  0.65025781888E-01  0.12923784528E+00  0.27187772479E-01 0.  0.
         14    1    1    2    0    0  0.16265673708E-01 -0.13510354018E-01  0.92406357707E-02  0.23075769897E-01  0.00000000000E+00 0. -1.
     999901    1    3    3    0    0 -0.12249402719E+00 -0.77129889464E-02 -0.74266417659E-01  0.89161638482E+00  0.88000000000E+00 0. -1.
        -11    1    4    4    0    0  0.29392550743E-01  0.18390117387E-02  0.51163102557E-02  0.29895513961E-01  0.51100000000E-03 0.  1.
         11    1    4    4    0    0  0.76835802738E-01  0.19384331226E-01  0.59909471632E-01  0.99342331318E-01  0.51100000000E-03 0. -1.
</event>
<event>
 8    1  0.1154390E+005  0.1043930E+01  0.7957747E-01            NaN
         13   -1    0    0    0    0  0.00000000000E+00  0.00000000000E+00  0.74505805969E-08  0.10566000000E+00  0.10566000000E+00 0.  1.
     999900   -1    0    0    0    0 -0.00000000000E+00 -0.00000000000E+00 -0.74505805969E-08  0.93827000000E+00  0.93827000000E+00 0. -1.
     999902    2    1    2    0    0 -0.12817519698E-01  0.17026302783E-01 -0.11705285749E-01  0.10196154465E+01  0.10193254933E+01 0.  0.
     999903    2    3    3    0    0 -0.20831853181E-02  0.69219767721E-01  0.10809316346E+00  0.12990141820E+00  0.19862793332E-01 0.  0.
         14    1    1    2    0    0  0.12817519698E-01 -0.17026302783E-01  0.11705285749E-01  0.24314553505E-01  0.00000000000E+00 0.  1.
     999901    1    3    3    0    0 -0.10734334380E-01 -0.52193464938E-01 -0.11979844921E+00  0.88971402830E+00  0.88000000000E+00 0. -1.
        -11    1    4    4    0    0  0.68501371046E-02  0.34049557057E-01  0.63769864467E-01  0.72616481939E-01  0.51100000000E-03 0.  1.
         11    1    4    4    0    0 -0.89333224227E-02  0.35170210664E-01  0.44323298992E-01  0.57284936259E-01  0.51100000000E-03 0. -1.
</event>
<event>
 8    1  0.1123361E+005  0.1043930E+01  0.7957747E-01            NaN
         13   -1    0    0    0    0  0.00000000000E+00  0.00000000000E+00  0.74505805969E-08  0.10566000000E+00  0.10566000000E+00 0.  1.
     999900   -1    0    0    0    0 -0.00000000000E+00 -0.00000000000E+00 -0.74505805969E-08  0.93827000000E+00  0.93827000000E+00 0.  1.
     999902    2    1    2    0    0 -0.17043602320E-01 -0.99391486246E-03 -0.16876063434E-01  0.10199242973E+01  0.10196417500E+01 0.  0.
     999903    2    3    3    0    0 -0.27798937927E-01 -0.53824627805E-01  0.11204859418E+00  0.12889773828E+00  0.19745074500E-01 0.  0.
         14    1    1    2    0    0  0.17043602320E-01  0.99391486246E-03  0.16876063434E-01  0.24005702735E-01  0.00000000000E+00 0.  1.
     999901    1    3    3    0    0  0.10755335607E-01  0.52830712943E-01 -0.12892465762E+00  0.89102655898E+00  0.88000000000E+00 0.  1.
        -11    1    4    4    0    0 -0.18626318132E-01 -0.15421933121E-01  0.44860309438E-01  0.50965520033E-01  0.51100000000E-03 0.  1.
         11    1    4    4    0    0 -0.91726197955E-02 -0.38402694685E-01  0.67188284745E-01  0.77932218247E-01  0.51100000000E-03 0. -1.
</event>
<event>
 8    1  0.1123361E+005  0.1043930E+01  0.7957747E-01            NaN
         13   -1    0    0    0    0  0.00000000000E+00  0.00000000000E+00  0.74505805969E-08  0.10566000000E+00  0.10566000000E+00 0. -1.
     999900   -1    0    0    0    0 -0.00000000000E+00 -0.00000000000E+00 -0.74505805969E-08  0.93827000000E+00  0.93827000000E+00 0.  1.
     999902    2    1    2    0    0 -0.15500155147E-02  0.11647124402E-01  0.21929922550E-01  0.10190507002E+01  0.10187469509E+01 0.  0.
     999903    2    3    3    0    0 -0.67876583119E-01  0.14066188997E-01  0.11109160888E+00  0.13205866431E+00  0.17118909076E-01 0.  0.
         14    1    1    2    0    0  0.15500155147E-02 -0.11647124402E-01 -0.21929922550E-01  0.24879299789E-01  0.00000000000E+00 0.  1.
     999901    1    3    3    0    0  0.66326567605E-01 -0.24190645952E-02 -0.89161686325E-01  0.88699203590E+00  0.88000000000E+00 0.  1.
        -11    1    4    4    0    0 -0.43310184533E-01  0.55376285728E-03  0.65195296017E-01  0.78273664034E-01  0.51100000000E-03 0.  1.
         11    1    4    4    0    0 -0.24566398587E-01  0.13512426140E-01  0.45896312858E-01  0.53785000276E-01  0.51100000000E-03 0. -1.
</event>
<event>
 8    1  0.1123361E+005  0.1043930E+01  0.7957747E-01            NaN
         13   -1    0    0    0    0  0.00000000000E+00  0.00000000000E+00  0.74505805969E-08  0.10566000000E+00  0.10566000000E+00 0. -1.
     999900   -1    0    0    0    0 -0.00000000000E+00 -0.00000000000E+00 -0.74505805969E-08  0.93827000000E+00  0.93827000000E+00 0.  1.
     999902    2    1    2    0    0  0.12735151144E-01  0.19623276959E-01 -0.28581999420E-02  0.10203625143E+01  0.10200903069E+01 0.  0.
     999903    2    3    3    0    0 -0.33189517261E-02 -0.12328170219E+00 -0.31749371548E-01  0.12822224113E+00  0.14950819135E-01 0.  0.
         14    1    1    2    0    0 -0.12735151144E-01 -0.19623276959E-01  0.28581999420E-02  0.23567485657E-01  0.00000000000E+00 0. -1.
     999901    1    3    3    0    0  0.16054102870E-01  0.14290497915E+00  0.28891171607E-01  0.89214027321E+00  0.88000000000E+00 0.  1.
        -11    1    4    4    0    0 -0.59746959015E-02 -0.38668628372E-01 -0.50493191481E-02  0.39455247511E-01  0.51100000000E-03 0. -1.
         11    1    4    4    0    0  0.26557441754E-02 -0.84613073817E-01 -0.26700052400E-01  0.88766993624E-01  0.51100000000E-03 0.  1.
</event>
<event>
 8    1  0.1123361E+005  0.1043930E+01  0.7957747E-01            NaN
         13   -1    0    0    0    0  0.00000000000E+00  0.00000000000E+00  0.74505805969E-08  0.10566000000E+00  0.10566000000E+00 0.  1.
     999900   -1    0    0    0    0 -0.00000000000E+00 -0.00000000000E+00 -0.74505805969E-08  0.93827000000E+00  0.93827000000E+00 0. -1.
     999902    2    1    2    0    0 -0.12328873998E-02  0.15207059610E-01 -0.19067141489E-01  0.10195101196E+01  0.10192176183E+01 0.  0.
     999903    2    3    3    0    0  0.10506843733E+00 -0.56198968304E-01  0.41988990058E-01  0.12814787919E+00  0.21473311163E-01 0.  0.
         14    1    1    2    0    0  0.12328873998E-02 -0.15207059610E-01  0.19067141489E-01  0.24419880382E-01  0.00000000000E+00 0.  1.
     999901    1    3    3    0    0 -0.10630132473E+00  0.71406027914E-01 -0.61056131547E-01  0.89136224043E+00  0.88000000000E+00 0. -1.
        -11    1    4    4    0    0  0.41723709966E-01 -0.23389298638E-01  0.28072275635E-01  0.55463871523E-01  0.51100000000E-03 0. -1.
         11    1    4    4    0    0  0.63344727369E-01 -0.32809669666E-01  0.13916714423E-01  0.72684007666E-01  0.51100000000E-03 0.  1.
</event>
<event>
 8    1  0.1123361E+005  0.1043930E+01  0.7957747E-01            NaN
         13   -1    0    0    0    0  0.00000000000E+00  0.00000000000E+00  0.74505805969E-08  0.10566000000E+00  0.10566000000E+00 0.  1.
     999900   -1    0    0    0    0 -0.00000000000E+00 -0.00000000000E+00 -0.74505805969E-08  0.93827000000E+00  0.93827000000E+00 0. -1.
     999902    2    1    2    0    0 -0.23376742919E-01 -0.47847253339E-02  0.34956275819E-02  0.10198139241E+01  0.10195287414E+01 0.  0.
     999903    2    3    3    0    0 -0.85664641620E-01  0.45207584690E-02 -0.96742287109E-01  0.13188711746E+00  0.26005260163E-01 0.  0.
         14    1    1    2    0    0  0.23376742919E-01  0.47847253339E-02 -0.34956275819E-02  0.24116075929E-01  0.00000000000E+00 0. -1.
     999901    1    3    3    0    0  0.62287898701E-01 -0.93054838029E-02  0.10023791469E+00  0.88792680661E+00  0.88000000000E+00 0.  1.
        -11    1    4    4    0    0 -0.24473793640E-01 -0.95662090546E-02 -0.22050137843E-01  0.34306684928E-01  0.51100000000E-03 0. -1.
         11    1    4    4    0    0 -0.61190847980E-01  0.14086967524E-01 -0.74692149266E-01  0.97580432534E-01  0.51100000000E-03 0.  1.
</event>
<event>
 8    1  0.1123361E+005  0.1043930E+01  0.7957747E-01            NaN
         13   -1    0    0    0    0  0.00000000000E+00  0.00000000000E+00  0.74505805969E-08  0.10566000000E+00  0.10566000000E+00 0. -1.
     999900   -1    0    0    0    0 -0.00000000000E+00 -0.00000000000E+00 -0.74505805969E-08  0.93827000000E+00  0.93827000000E+00 0. -1.
     999902    2    1    2    0    0 -0.13099492865E-02 -0.74066400717E-02 -0.19191862308E-01  0.10233168522E+01  0.10231092210E+01 0.  0.
     999903    2    3    3    0    0  0.31590609853E-02  0.12798824368E+00  0.23532578533E-01  0.13192629555E+00  0.21442831414E-01 0.  0.
         14    1    1    2    0    0  0.13099492865E-02  0.74066400717E-02  0.19191862308E-01  0.20613147822E-01  0.00000000000E+00 0. -1.
     999901    1    3    3    0    0 -0.44690102718E-02 -0.13539488375E+00 -0.42724440840E-01  0.89139055663E+00  0.88000000000E+00 0.  1.
        -11    1    4    4    0    0 -0.76764975250E-02  0.57190528783E-01  0.16149240985E-01  0.59922819544E-01  0.51100000000E-03 0.  1.
         11    1    4    4    0    0  0.10835558510E-01  0.70797714896E-01  0.73833375477E-02  0.72003476007E-01  0.51100000000E-03 0. -1.
</event>
<event>
 8    1  0.1123361E+005  0.1043930E+01  0.7957747E-01            NaN
         13   -1    0    0    0    0  0.00000000000E+00  0.00000000000E+00  0.74505805969E-08  0.10566000000E+00  0.10566000000E+00 0. -1.
     999900   -1    0    0    0    0 -0.00000000000E+00 -0.00000000000E+00 -0.74505805969E-08  0.93827000000E+00  0.93827000000E+00 0.  1.
     999902    2    1    2    0    0  0.19789235519E-01  0.12062668395E-01 -0.45843593601E-03  0.10207495778E+01  0.10204863392E+01 0.  0.
     999903    2    3    3    0    0  0.66208548751E-01  0.68363736363E-01 -0.90689638515E-01  0.13313128548E+00  0.21027512017E-01 0.  0.
         14    1    1    2    0    0 -0.19789235519E-01 -0.12062668395E-01  0.45843593601E-03  0.23180422230E-01  0.00000000000E+00 0. -1.
     999901    1    3    3    0    0 -0.46419313231E-01 -0.56301067968E-01  0.90231202579E-01  0.88761829229E+00  0.88000000000E+00 0. -1.
        -11    1    4    4    0    0  0.10645677060E-01  0.16915013228E-01 -0.30168188833E-01  0.36191557731E-01  0.51100000000E-03 0. -1.
         11    1    4    4    0    0  0.55562871691E-01  0.51448723135E-01 -0.60521449681E-01  0.96939727745E-01  0.51100000000E-03 0.  1.
</event>
<event>
 8    1  0.1123361E+005  0.1043930E+01  0.7957747E-01            NaN
         13   -1    0    0    0    0  0.00000000000E+00  0.00000000000E+00  0.74505805969E-08  0.10566000000E+00  0.10566000000E+00 0.  1.
     999900   -1    0    0    0    0 -0.00000000000E+00 -0.00000000000E+00 -0.74505805969E-08  0.93827000000E+00  0.93827000000E+00 0. -1.
     999902    2    1    2    0    0  0.13532702101E-01 -0.18322087917E-01 -0.48308078403E-02  0.10206454636E+01  0.10203798277E+01 0.  0.
     999903    2    3    3    0    0 -0.85498799347E-01  0.51179105652E-01  0.78609603808E-01  0.12845716704E+00  0.19809805873E-01 0.  0.
         14    1    1    2    0    0 -0.13532702101E-01  0.18322087917E-01  0.48308078403E-02  0.23284536417E-01  0.00000000000E+00 0. -1.
     999901    1    3    3    0    0  0.99031501448E-01 -0.69501193569E-01 -0.83440411648E-01  0.89218829654E+00  0.88000000000E+00 0.  1.
        -11    1    4    4    0    0 -0.31980619492E-01  0.16302560818E-01  0.40291662974E-01  0.53964921371E-01  0.51100000000E-03 0.  1.
         11    1    4    4    0    0 -0.53518179855E-01  0.34876544834E-01  0.38317940834E-01  0.74492245672E-01  0.51100000000E-03 0. -1.
</event>
<event>
 8    1  0.1123361E+005  0.1043930E+01  0.7957747E-01            NaN
         13   -1    0    0    0    0  0.00000000000E+00  0.00000000000E+00  0.74505805969E-08  0.10566000000E+00  0.10566000000E+00 0. -1.
     999900   -1    0    0    0    0 -0.00000000000E+00 -0.00000000000E+00 -0.74505805969E-08  0.93827000000E+00  0.93827000000E+00 0.  1.
     999902    2    1    2    0    0  0.16901082889E-01 -0.30274877343E-02 -0.16292775639E-01  0.10202600439E+01  0.10199854363E+01 0.  0.
     999903    2    3    3    0    0 -0.58532648867E-01  0.68741801117E-01  0.88341301992E-01  0.12796560317E+00  0.20481790785E-01 0.  0.
         14    1    1    2    0    0 -0.16901082889E-01  0.30274877343E-02  0.16292775639E-01  0.23669956123E-01  0.00000000000E+00 0. -1.
     999901    1    3    3    0    0  0.75433731756E-01 -0.71769288852E-01 -0.10463407763E+00  0.89229444070E+00  0.88000000000E+00 0.  1.
        -11    1    4    4    0    0 -0.47262546604E-01  0.42587288359E-01  0.66833970186E-01  0.92273864843E-01  0.51100000000E-03 0.  1.
         11    1    4    4    0    0 -0.11270102263E-01  0.26154512759E-01  0.21507331806E-01  0.35691738331E-01  0.51100000000E-03 0. -1.
</event>
<event>
 8    1  0.1123361E+005  0.1043930E+01  0.7957747E-01            NaN
         13   -1    0    0    0    0  0.00000000000E+00  0.00000000000E+00  0.74505805969E-08  0.10566000000E+00  0.10566000000E+00 0.  1.
     999900   -1    0    0    0    0 -0.00000000000E+00 -0.00000000000E+00 -0.74505805969E-08  0.93827000000E+00  0.93827000000E+00 0. -1.
     999902    2    1    2    0    0  0.19665376314E-01 -0.74600825710E-03 -0.16755632180E-01  0.10180836315E+01  0.10177554942E+01 0.  0.
     999903    2    3    3    0    0 -0.83746152556E-01 -0.46932455873E-01  0.78808226155E-01  0.12569381576E+00  0.19290550250E-01 0.  0.
         14    1    1    2    0    0 -0.19665376314E-01  0.74600825710E-03  0.16755632180E-01  0.25846368481E-01  0.00000000000E+00 0.  1.
     999901    1    3    3    0    0  0.10341152887E+00  0.46186447616E-01 -0.95563858335E-01  0.89238981576E+00  0.88000000000E+00 0. -1.
        -11    1    4    4    0    0 -0.42431605817E-01 -0.15516985683E-01  0.28565933872E-01  0.53455511557E-01  0.51100000000E-03 0.  1.
         11    1    4    4    0    0 -0.41314546739E-01 -0.31415470190E-01  0.50242292283E-01  0.72238304205E-01  0.51100000000E-03 0. -1.
</event>
<event>
 8    1  0.1123361E+005  0.1043930E+01  0.7957747E-01            NaN
         13   -1    0    0    0    0  0.00000000000E+00  0.00000000000E+00  0.74505805969E-08  0.10566000000E+00  0.10566000000E+00 0. -1.
     999900   -1    0    0    0    0 -0.00000000000E+00 -0.00000000000E+00 -0.74505805969E-08  0.93827000000E+00  0.93827000000E+00 0.  1.
     999902    2    1    2    0    0  0.23318320327E-01  0.22221038096E-02  0.33603643073E-02  0.10202662333E+01  0.10199917710E+01 0.  0.
     999903    2    3    3    0    0  0.41377877827E-01 -0.11853918653E+00  0.33151984734E-01  0.13133598993E+00  0.19657584852E-01 0.  0.
         14    1    1    2    0    0 -0.23318320327E-01 -0.22221038096E-02 -0.33603643073E-02  0.23663766743E-01  0.00000000000E+00 0. -1.
     999901    1    3    3    0    0 -0.18059557500E-01  0.12076129034E+00 -0.29791620427E-01  0.88893024333E+00  0.88000000000E+00 0.  1.
        -11    1    4    4    0    0  0.13999264795E-01 -0.20497802226E-01  0.11024405419E-01  0.27165013284E-01  0.51100000000E-03 0.  1.
         11    1    4    4    0    0  0.27378613032E-01 -0.98041384301E-01  0.22127579315E-01  0.10417097664E+00  0.51100000000E-03 0. -1.
</event>
<event>
 8    1  0.1123361E+005  0.1043930E+01  0.7957747E-01            NaN
         13   -1    0    0    0    0  0.00000000000E+00  0.00000000000E+00  0.74505805969E-08  0.10566000000E+00  0.10566000000E+00 0.  1.
     999900   -1    0    0    0    0 -0.00000000000E+00 -0.00000000000E+00 -0.74505805969E-08  0.93827000000E+00  0.93827000000E+00 0. -1.
     999902    2    1    2    0    0  0.64415613214E-02  0.19280696453E-01 -0.11139027899E-01  0.10207499027E+01  0.10204866716E+01 0.  0.
     999903    2    3    3    0    0  0.66471266419E-01 -0.50117388468E-01  0.97042025015E-01  0.12938981840E+00  0.19859219534E-01 0.  0.
         14    1    1    2    0    0 -0.64415613214E-02 -0.19280696453E-01  0.11139027899E-01  0.23180097293E-01  0.00000000000E+00 0.  1.
     999901    1    3    3    0    0 -0.60029705098E-01  0.69398084921E-01 -0.10818105291E+00  0.89136008431E+00  0.88000000000E+00 0. -1.
        -11    1    4    4    0    0  0.53192237675E-01 -0.32772227061E-01  0.80927793698E-01  0.10223992336E+00  0.51100000000E-03 0.  1.
         11    1    4    4    0    0  0.13279028745E-01 -0.17345161407E-01  0.16114231316E-01  0.27149895038E-01  0.51100000000E-03 0. -1.
</event>
<event>
 7    1  0.1123361E+005  0.1043930E+01  0.7957747E-01            NaN
         13   -1    0    0    0    0  0.00000000000E+00  0.00000000000E+00  0.74505805969E-08  0.10566000000E+00  0.10566000000E+00 0.  1.
     999900   -1    0    0    0    0 -0.00000000000E+00 -0.00000000000E+00 -0.74505805969E-08  0.93827000000E+00  0.93827000000E+00 0. -1.
     999903    2    1    2    0    0 -0.59936787047E-01 -0.66684833880E-02 -0.54015636303E-02  0.63675598367E-01  0.19710855525E-01 0.  0.
         14    1    1    2    0    0  0.69042184134E-01  0.67236988282E-01 -0.16903238862E-01  0.97843524402E-01  0.00000000000E+00 0. -1.
     999901    1    1    2    0    0 -0.91053970866E-02 -0.60568504894E-01  0.22304802493E-01  0.88241087723E+00  0.88000000000E+00 0.  1.
        -11    1    3    3    0    0 -0.19776943861E-01  0.70357308233E-02 -0.23692145996E-02  0.21130625062E-01  0.51100000000E-03 0.  1.
         11    1    3    3    0    0 -0.40159843186E-01 -0.13704214211E-01 -0.30323490307E-02  0.42544973305E-01  0.51100000000E-03 0. -1.
</event>
<event>
 8    1  0.1123361E+005  0.1043930E+01  0.7957747E-01            NaN
         13   -1    0    0    0    0  0.00000000000E+00  0.00000000000E+00  0.74505805969E-08  0.10566000000E+00  0.10566000000E+00 0. -1.
     999900   -1    0    0    0    0 -0.00000000000E+00 -0.00000000000E+00 -0.74505805969E-08  0.93827000000E+00  0.93827000000E+00 0.  1.
     999902    2    1    2    0    0  0.22772205275E-01 -0.56838566338E-02  0.42873090922E-02  0.10200708177E+01  0.10197917496E+01 0.  0.
     999903    2    3    3    0    0  0.21387035471E-01  0.12677722324E+00 -0.34258267831E-02  0.13012287046E+00  0.19757416560E-01 0.  0.
         14    1    1    2    0    0 -0.22772205275E-01  0.56838566338E-02 -0.42873090922E-02  0.23859182270E-01  0.00000000000E+00 0. -1.
     999901    1    3    3    0    0  0.13851698042E-02 -0.13246107988E+00  0.77131358753E-02  0.88994794727E+00  0.88000000000E+00 0. -1.
        -11    1    4    4    0    0  0.18897626678E-02  0.39052429774E-01 -0.88571983132E-02  0.40092075989E-01  0.51100000000E-03 0.  1.
         11    1    4    4    0    0  0.19497272803E-01  0.87724793470E-01  0.54313715301E-02  0.90030794475E-01  0.51100000000E-03 0. -1.
</event>
<event>
 7    1  0.1123361E+005  0.1043930E+01  0.7957747E-01            NaN
         13   -1    0    0    0    0  0.00000000000E+00  0.00000000000E+00  0.74505805969E-08  0.10566000000E+00  0.10566000000E+00 0. -1.
     999900   -1    0    0    0    0 -0.00000000000E+00 -0.00000000000E+00 -0.74505805969E-08  0.93827000000E+00  0.93827000000E+00 0.  1.
     999903    2    1    2    0    0  0.44364474638E-02  0.64316482870E-01  0.47586331760E-01  0.82818535321E-01  0.20932242774E-01 0.  0.
         14    1    1    2    0    0  0.31261208317E-01 -0.29466668478E-01 -0.66878228408E-01  0.79487389765E-01  0.00000000000E+00 0.  1.
     999901    1    1    2    0    0 -0.35697655780E-01 -0.34849814392E-01  0.19291896649E-01  0.88162407491E+00  0.88000000000E+00 0. -1.
        -11    1    3    3    0    0  0.43441711285E-02  0.40851660219E-01  0.17491627529E-01  0.44653646213E-01  0.51100000000E-03 0. -1.
         11    1    3    3    0    0  0.92276335274E-04  0.23464822650E-01  0.30094704231E-01  0.38164889109E-01  0.51100000000E-03 0.  1.
</event>
<event>
 8    1  0.1123361E+005  0.1043930E+01  0.7957747E-01            NaN
         13   -1    0    0    0    0  0.00000000000E+00  0.00000000000E+00  0.74505805969E-08  0.10566000000E+00  0.10566000000E+00 0. -1.
     999900   -1    0    0    0    0 -0.00000000000E+00 -0.00000000000E+00 -0.74505805969E-08  0.93827000000E+00  0.93827000000E+00 0.  1.
     999902    2    1    2    0    0  0.11506954207E-01 -0.17865739667E-01  0.32915854755E-03  0.10226766945E+01  0.10224558272E+01 0.  0.
     999903    2    3    3    0    0  0.86983870689E-01 -0.81118585114E-01 -0.60800180091E-01  0.13507628699E+00  0.20062970812E-01 0.  0.
         14    1    1    2    0    0 -0.11506954207E-01  0.17865739667E-01 -0.32915854755E-03  0.21253305492E-01  0.00000000000E+00 0.  1.
     999901    1    3    3    0    0 -0.75476916482E-01  0.63252845447E-01  0.61129338639E-01  0.88760040752E+00  0.88000000000E+00 0.  1.
        -11    1    4    4    0    0  0.25214367173E-01 -0.13118846208E-01 -0.10249381625E-01  0.30218858060E-01  0.51100000000E-03 0.  1.
         11    1    4    4    0    0  0.61769503516E-01 -0.67999738906E-01 -0.50550798466E-01  0.10485742893E+00  0.51100000000E-03 0. -1.
</event>
<event>
 8    1  0.1123361E+005  0.1043930E+01  0.7957747E-01            NaN
         13   -1    0    0    0    0  0.00000000000E+00  0.00000000000E+00  0.74505805969E-08  0.10566000000E+00  0.10566000000E+00 0. -1.
     999900   -1    0    0    0    0 -0.00000000000E+00 -0.00000000000E+00 -0.74505805969E-08  0.93827000000E+00  0.93827000000E+00 0. -1.
     999902    2    1    2    0    0  0.17296047716E-02 -0.14130373420E-01  0.19118519990E-01  0.10200935407E+01  0.10198150102E+01 0.  0.
     999903    2    3    3    0    0 -0.70743487228E-01 -0.10621840741E+00  0.28446355210E-01  0.13227623765E+00  0.20020411191E-01 0.  0.
         14    1    1    2    0    0 -0.17296047716E-02  0.14130373420E-01 -0.19118519990E-01  0.23836459306E-01  0.00000000000E+00 0. -1.
     999901    1    3    3    0    0  0.72473092000E-01  0.92088033994E-01 -0.93278352199E-02  0.88781730304E+00  0.88000000000E+00 0. -1.
        -11    1    4    4    0    0 -0.56884789974E-01 -0.69411601337E-01  0.22210366061E-01  0.92452210423E-01  0.51100000000E-03 0. -1.
         11    1    4    4    0    0 -0.13858697254E-01 -0.36806806077E-01  0.62359891490E-02  0.39824027230E-01  0.51100000000E-03 0.  1.
</event>
<event>
 7    1  0.1123361E+005  0.1043930E+01  0.7957747E-01            NaN
         13   -1    0    0    0    0  0.00000000000E+00  0.00000000000E+00  0.74505805969E-08  0.10566000000E+00  0.10566000000E+00 0.  1.
     999900   -1    0    0    0    0 -0.00000000000E+00 -0.00000000000E+00 -0.74505805969E-08  0.93827000000E+00  0.93827000000E+00 0. -1.
     999903    2    1    2    0    0 -0.65192657366E-02 -0.70153535045E-01  0.77138896970E-01  0.10630724047E+00  0.19667248056E-01 0.  0.
         14    1    1    2    0    0 -0.12279823316E-01 -0.42298393147E-01 -0.20162622646E-01  0.48440473526E-01  0.00000000000E+00 0.  1.
     999901    1    1    2    0    0  0.18799089053E-01  0.11245192819E+00 -0.56976274324E-01  0.88918228600E+00  0.88000000000E+00 0. -1.
        -11    1    3    3    0    0  0.25535973300E-02 -0.19893760820E-01  0.33878502319E-01  0.39373806259E-01  0.51100000000E-03 0.  1.
         11    1    3    3    0    0 -0.90728630666E-02 -0.50259774225E-01  0.43260394651E-01  0.66933434214E-01  0.51100000000E-03 0. -1.
</event>
<event>
 8    1  0.1123361E+005  0.1043930E+01  0.7957747E-01            NaN
         13   -1    0    0    0    0  0.00000000000E+00  0.00000000000E+00  0.74505805969E-08  0.10566000000E+00  0.10566000000E+00 0. -1.
     999900   -1    0    0    0    0 -0.00000000000E+00 -0.00000000000E+00 -0.74505805969E-08  0.93827000000E+00  0.93827000000E+00 0.  1.
     999902    2    1    2    0    0  0.12958227780E-01  0.59915898105E-02  0.19186748330E-01  0.10200146048E+01  0.10197342045E+01 0.  0.
     999903    2    3    3    0    0  0.40748016970E-02 -0.75116619792E-01 -0.10160761657E+00  0.12802316118E+00  0.20167088896E-01 0.  0.
         14    1    1    2    0    0 -0.12958227780E-01 -0.59915898105E-02 -0.19186748330E-01  0.23915395191E-01  0.00000000000E+00 0.  1.
     999901    1    3    3    0    0  0.88834260829E-02  0.81108209602E-01  0.12079436490E+00  0.89199144363E+00  0.88000000000E+00 0. -1.
        -11    1    4    4    0    0  0.48084504844E-02 -0.34771293792E-01 -0.63290175848E-01  0.72374522782E-01  0.51100000000E-03 0.  1.
         11    1    4    4    0    0 -0.73364878743E-03 -0.40345326000E-01 -0.38317440722E-01  0.55648638394E-01  0.51100000000E-03 0. -1.
</event>
<event>
 8    1  0.1123361E+005  0.1043930E+01  0.7957747E-01            NaN
         13   -1    0    0    0    0  0.00000000000E+00  0.00000000000E+00  0.74505805969E-08  0.10566000000E+00  0.10566000000E+00 0.  1.
     999900   -1    0    0    0    0 -0.00000000000E+00 -0.00000000000E+00 -0.74505805969E-08  0.93827000000E+00  0.93827000000E+00 0. -1.
     999902    2    1    2    0    0  0.22023345682E-01 -0.88707594765E-02 -0.42744234114E-02  0.10198055555E+01  0.10195201725E+01 0.  0.
     999903    2    3    3    0    0  0.51176369230E-01 -0.10177499713E+00 -0.64602543451E-01  0.13238199356E+00  0.19347681759E-01 0.  0.
         14    1    1    2    0    0 -0.22023345682E-01  0.88707594765E-02  0.42744234114E-02  0.24124444537E-01  0.00000000000E+00 0.  1.
     999901    1    3    3    0    0 -0.29153023549E-01  0.92904237655E-01  0.60328120039E-01  0.88742356190E+00  0.88000000000E+00 0. -1.
        -11    1    4    4    0    0  0.30485852139E-01 -0.42215268939E-01 -0.34860840985E-01  0.62666222699E-01  0.51100000000E-03 0.  1.
         11    1    4    4    0    0  0.20690517091E-01 -0.59559728193E-01 -0.29741702466E-01  0.69715770859E-01  0.51100000000E-03 0. -1.
</event>
<event>
 8    1  0.1123361E+005  0.1043930E+01  0.7957747E-01            NaN
         13   -1    0    0    0    0  0.00000000000E+00  0.00000000000E+00  0.74505805969E-08  0.10566000000E+00  0.10566000000E+00 0. -1.
     999900   -1    0    0    0    0 -0.00000000000E+00 -0.00000000000E+00 -0.74505805969E-08  0.93827000000E+00  0.93827000000E+00 0.  1.
     999902    2    1    2    0    0 -0.10380810050E-01 -0.90725513205E-02 -0.18568490562E-01  0.10208029326E+01  0.10205409183E+01 0.  0.
     999903    2    3    3    0    0 -0.10210290239E+00 -0.82514249929E-01 -0.39681754705E-02  0.13287287087E+00  0.20145701245E-01 0.  0.
         14    1    1    2    0    0  0.10380810050E-01  0.90725513205E-02  0.18568490562E-01  0.23127067400E-01  0.00000000000E+00 0. -1.
     999901    1    3    3    0    0  0.91722092344E-01  0.73441698609E-01 -0.14600315092E-01  0.88793006173E+00  0.88000000000E+00 0.  1.
        -11    1    4    4    0    0 -0.37175944710E-01 -0.18613707893E-01 -0.40326160344E-02  0.41773724992E-01  0.51100000000E-03 0.  1.
         11    1    4    4    0    0 -0.64926957684E-01 -0.63900542036E-01  0.64440563836E-04  0.91099145881E-01  0.51100000000E-03 0. -1.
</event>
<event>
 8    1  0.1123361E+005  0.1043930E+01  0.7957747E-01            NaN
         13   -1    0    0    0    0  0.00000000000E+00  0.00000000000E+00  0.74505805969E-08  0.10566000000E+00  0.10566000000E+00 0.  1.
     999900   -1    0    0    0    0 -0.00000000000E+00 -0.00000000000E+00 -0.74505805969E-08  0.93827000000E+00  0.93827000000E+00 0. -1.
     999902    2    1    2    0    0 -0.14340253042E-01 -0.82859541008E-02  0.16423612922E-01  0.10206054431E+01  0.10203388827E+01 0.  0.
     999903    2    3    3    0    0 -0.78509440082E-01  0.49935617751E-01  0.93288775235E-01  0.13301562277E+00  0.18249992164E-01 0.  0.
         14    1    1    2    0    0  0.14340253042E-01  0.82859541008E-02 -0.16423612922E-01  0.23324556889E-01  0.00000000000E+00 0. -1.
     999901    1    3    3    0    0  0.64169187040E-01 -0.58221571851E-01 -0.76865162314E-01  0.88758982034E+00  0.88000000000E+00 0. -1.
        -11    1    4    4    0    0 -0.32832979353E-01  0.27162494251E-01  0.32215813878E-01  0.53422143461E-01  0.51100000000E-03 0.  1.
         11    1    4    4    0    0 -0.45676460729E-01  0.22773123499E-01  0.61072961357E-01  0.79593479310E-01  0.51100000000E-03 0. -1.
</event>
<event>
 8    1  0.1123361E+005  0.1043930E+01  0.7957747E-01            NaN
         13   -1    0    0    0    0  0.00000000000E+00  0.00000000000E+00  0.74505805969E-08  0.10566000000E+00  0.10566000000E+00 0. -1.
     999900   -1    0    0    0    0 -0.00000000000E+00 -0.00000000000E+00 -0.74505805969E-08  0.93827000000E+00  0.93827000000E+00 0. -1.
     999902    2    1    2    0    0 -0.44513780778E-02 -0.24214800753E-01 -0.11764097140E-01  0.10166432757E+01  0.10162770216E+01 0.  0.
     999903    2    3    3    0    0  0.11459585977E-01 -0.45269316893E-01  0.11639378251E+00  0.12696867588E+00  0.19821677159E-01 0.  0.
         14    1    1    2    0    0  0.44513780778E-02  0.24214800753E-01  0.11764097140E-01  0.27286724315E-01  0.00000000000E+00 0. -1.
     999901    1    3    3    0    0 -0.15910964055E-01  0.21054516140E-01 -0.12815787965E+00  0.88967459981E+00  0.88000000000E+00 0. -1.
        -11    1    4    4    0    0  0.11081930050E-01 -0.16047023723E-01  0.64773768559E-01  0.67647752056E-01  0.51100000000E-03 0. -1.
         11    1    4    4    0    0  0.37765592730E-03 -0.29222293170E-01  0.51620013947E-01  0.59320923822E-01  0.51100000000E-03 0.  1.
</event>
<event>
 8    1  0.1123361E+005  0.1043930E+01  0.7957747E-01            NaN
         13   -1    0    0    0    0  0.00000000000E+00  0.00000000000E+00  0.74505805969E-08  0.10566000000E+00  0.10566000000E+00 0. -1.
     999900   -1    0    0    0    0 -0.00000000000E+00 -0.00000000000E+00 -0.74505805969E-08  0.93827000000E+00  0.93827000000E+00 0. -1.
     999902    2    1    2    0    0 -0.34723853949E-02 -0.11510048239E-01 -0.19085396573E-01  0.10213736033E+01  0.10211245009E+01 0.  0.
     999903    2    3    3    0    0 -0.73048421830E-01 -0.10866968682E+00 -0.14549818904E-01  0.13328498626E+00  0.20199444715E-01 0.  0.
         14    1    1    2    0    0  0.34723853949E-02  0.11510048239E-01  0.19085396573E-01  0.22556396723E-01  0.00000000000E+00 0. -1.
     999901    1    3    3    0    0  0.69576036435E-01  0.97159638578E-01 -0.45355776688E-02  0.88808861702E+00  0.88000000000E+00 0. -1.
        -11    1    4    4    0    0 -0.56622105709E-01 -0.94695501832E-01 -0.16760951155E-01  0.11159969322E+00  0.51100000000E-03 0. -1.
         11    1    4    4    0    0 -0.16426316121E-01 -0.13974184985E-01  0.22111322511E-02  0.21685293038E-01  0.51100000000E-03 0.  1.
</event>
<event>
 8    1  0.1123361E+005  0.1043930E+01  0.7957747E-01            NaN
         13   -1    0    0    0    0  0.00000000000E+00  0.00000000000E+00  0.74505805969E-08  0.10566000000E+00  0.10566000000E+00 0.  1.
     999900   -1    0    0    0    0 -0.00000000000E+00 -0.00000000000E+00 -0.74505805969E-08  0.93827000000E+00  0.93827000000E+00 0.  1.
     999902    2    1    2    0    0  0.82092132899E-02  0.11996330774E-01  0.18907785393E-01  0.10200803148E+01  0.10198014715E+01 0.  0.
     999903    2    3    3    0    0 -0.11454475497E+00 -0.55438882142E-01  0.58808309871E-02  0.12890931764E+00  0.19724539495E-01 0.  0.
         14    1    1    2    0    0 -0.82092132899E-02 -0.11996330774E-01 -0.18907785393E-01  0.23849685183E-01  0.00000000000E+00 0. -1.
     999901    1    3    3    0    0  0.12275396826E+00  0.67435212916E-01  0.13026954405E-01  0.89117099717E+00  0.88000000000E+00 0. -1.
        -11    1    4    4    0    0 -0.20670140718E-01 -0.16172238957E-01 -0.44664019834E-02  0.26627164660E-01  0.51100000000E-03 0. -1.
         11    1    4    4    0    0 -0.93874614250E-01 -0.39266643185E-01  0.10347232971E-01  0.10228215298E+00  0.51100000000E-03 0.  1.
</event>
<event>
 8    1  0.1123361E+005  0.1043930E+01  0.7957747E-01            NaN
         13   -1    0    0    0    0  0.00000000000E+00  0.00000000000E+00  0.74505805969E-08  0.10566000000E+00  0.10566000000E+00 0. -1.
     999900   -1    0    0    0    0 -0.00000000000E+00 -0.00000000000E+00 -0.74505805969E-08  0.93827000000E+00  0.93827000000E+00 0. -1.
     999902    2    1    2    0    0  0.16840376395E-01  0.57835408211E-02 -0.15444693488E-01  0.10203591244E+01  0.10200868377E+01 0.  0.
     999903    2    3    3    0    0  0.99696095067E-01  0.63390166328E-01  0.54828836809E-01  0.13180864044E+00  0.20240844571E-01 0.  0.
         14    1    1    2    0    0 -0.16840376395E-01 -0.57835408211E-02  0.15444693488E-01  0.23570875641E-01  0.00000000000E+00 0. -1.
     999901    1    3    3    0    0 -0.82855718673E-01 -0.57606625507E-01 -0.70273530297E-01  0.88855048392E+00  0.88000000000E+00 0. -1.
        -11    1    4    4    0    0  0.47691528125E-01  0.41974487527E-01  0.31567341786E-01  0.70944327797E-01  0.51100000000E-03 0. -1.
         11    1    4    4    0    0  0.52004566942E-01  0.21415678802E-01  0.23261495023E-01  0.60864312640E-01  0.51100000000E-03 0.  1.
</event>
<event>
 8    1  0.1123361E+005  0.1043930E+01  0.7957747E-01            NaN
         13   -1    0    0    0    0  0.00000000000E+00  0.00000000000E+00  0.74505805969E-08  0.10566000000E+00  0.10566000000E+00 0. -1.
     999900   -1    0    0    0    0 -0.00000000000E+00 -0.00000000000E+00 -0.74505805969E-08  0.93827000000E+00  0.93827000000E+00 0.  1.
     999902    2    1    2    0    0 -0.13710340364E-01 -0.85317900158E-02  0.57343917843E-02  0.10267938358E+01  0.10266508331E+01 0.  0.
     999903    2    3    3    0    0 -0.59710126367E-01 -0.12121207604E+00 -0.19657118740E-01  0.13805452872E+00  0.20371156460E-01 0.  0.
         14    1    1    2    0    0  0.13710340364E-01  0.85317900158E-02 -0.57343917843E-02  0.17136164183E-01  0.00000000000E+00 0.  1.
     999901    1    3    3    0    0  0.45999786003E-01  0.11268028602E+00  0.25391510525E-01  0.88873930710E+00  0.88000000000E+00 0.  1.
        -11    1    4    4    0    0 -0.38286026883E-01 -0.63438105287E-01 -0.27152207717E-02  0.74147465242E-01  0.51100000000E-03 0. -1.
         11    1    4    4    0    0 -0.21424099484E-01 -0.57773970749E-01 -0.16941897969E-01  0.63907063480E-01  0.51100000000E-03 0.  1.
</event>
<event>
 8    1  0.1123361E+005  0.1043930E+01  0.7957747E-01            NaN
         13   -1    0    0    0    0  0.00000000000E+00  0.00000000000E+00  0.74505805969E-08  0.10566000000E+00  0.10566000000E+00 0.  1.
     999900   -1    0    0    0    0 -0.00000000000E+00 -0.00000000000E+00 -0.74505805969E-08  0.93827000000E+00  0.93827000000E+00 0.  1.
     999902    2    1    2    0    0 -0.41289532320E-02 -0.17134888068E-01 -0.16845689455E-01  0.10195490669E+01  0.10192575092E+01 0.  0.
     999903    2    3    3    0    0 -0.12194397032E+00 -0.21830384763E-01 -0.38676678401E-01  0.13141674683E+00  0.20677966507E-01 0.  0.
         14    1    1    2    0    0  0.41289532320E-02  0.17134888068E-01  0.16845689455E-01  0.24380933065E-01  0.00000000000E+00 0.  1.
     999901    1    3    3    0    0  0.11781501709E+00  0.46954966952E-02  0.21830988946E-01  0.88813232011E+00  0.88000000000E+00 0.  1.
        -11    1    4    4    0    0 -0.33065503198E-01 -0.15130898046E-01 -0.13572545242E-01  0.38816835043E-01  0.51100000000E-03 0.  1.
         11    1    4    4    0    0 -0.88878467120E-01 -0.66994867170E-02 -0.25104133159E-01  0.92599911785E-01  0.51100000000E-03 0. -1.
</event>
<event>
 8    1  0.1123361E+005  0.1043930E+01  0.7957747E-01            NaN
         13   -1    0    0    0    0  0.00000000000E+00  0.00000000000E+00  0.74505805969E-08  0.10566000000E+00  0.10566000000E+00 0. -1.
     999900   -1    0    0    0    0 -0.00000000000E+00 -0.00000000000E+00 -0.74505805969E-08  0.93827000000E+00  0.93827000000E+00 0. -1.
     999902    2    1    2    0    0 -0.18938912073E-01 -0.46136735094E-02 -0.14723159866E-01  0.10195017416E+01  0.10192090371E+01 0.  0.
     999903    2    3    3    0    0  0.76757352611E-01  0.96302794218E-01 -0.30872301974E-01  0.12843344826E+00  0.19394129261E-01 0.  0.
         14    1    1    2    0    0  0.18938912073E-01  0.46136735094E-02  0.14723159866E-01  0.24428258436E-01  0.00000000000E+00 0. -1.
     999901    1    3    3    0    0 -0.95696264684E-01 -0.10091646773E+00  0.16149142108E-01  0.89106829330E+00  0.88000000000E+00 0.  1.
        -11    1    4    4    0    0  0.23133398637E-01  0.41096571289E-01 -0.17561930534E-01  0.50326581736E-01  0.51100000000E-03 0.  1.
         11    1    4    4    0    0  0.53623953974E-01  0.55206222930E-01 -0.13310371441E-01  0.78106866528E-01  0.51100000000E-03 0. -1.
</event>
<event>
 8    1  0.1123361E+005  0.1043930E+01  0.7957747E-01            NaN
         13   -1    0    0    0    0  0.00000000000E+00  0.00000000000E+00  0.74505805969E-08  0.10566000000E+00  0.10566000000E+00 0. -1.
     999900   -1    0    0    0    0 -0.00000000000E+00 -0.00000000000E+00 -0.74505805969E-08  0.93827000000E+00  0.93827000000E+00 0. -1.
     999902    2    1    2    0    0 -0.19422552515E-01  0.46351911762E-02  0.12591594090E-01  0.10203234588E+01  0.10200503379E+01 0.  0.
     999903    2    3    3    0    0  0.18224255536E-01 -0.18700227033E-02  0.12905674625E+00  0.13182825254E+00  0.19683087676E-01 0.  0.
         14    1    1    2    0    0  0.19422552515E-01 -0.46351911762E-02 -0.12591594090E-01  0.23606541152E-01  0.00000000000E+00 0.  1.
     999901    1    3    3    0    0 -0.37646808050E-01  0.65052138795E-02 -0.11646515216E+00  0.88849520631E+00  0.88000000000E+00 0. -1.
        -11    1    4    4    0    0  0.44688734182E-02 -0.43898328533E-02  0.91085309760E-02  0.11066522473E-01  0.51100000000E-03 0. -1.
         11    1    4    4    0    0  0.13755382117E-01  0.25198101500E-02  0.11994821527E+00  0.12076173007E+00  0.51100000000E-03 0.  1.
</event>
<event>
 8    1  0.1123361E+005  0.1043930E+01  0.7957747E-01            NaN
         13   -1    0    0    0    0  0.00000000000E+00  0.00000000000E+00  0.74505805969E-08  0.10566000000E+00  0.10566000000E+00 0.  1.
     999900   -1    0    0    0    0 -0.00000000000E+00 -0.00000000000E+00 -0.74505805969E-08  0.93827000000E+00  0.93827000000E+00 0.  1.
     999902    2    1    2    0    0  0.23482468634E-01  0.11833158068E-02 -0.33446719607E-02  0.10201810337E+01  0.10199045682E+01 0.  0.
     999903    2    3    3    0    0 -0.56649105864E-01  0.20899699847E-01 -0.11234163713E+00  0.12962494707E+00  0.23153073655E-01 0.  0.
         14    1    1    2    0    0 -0.23482468634E-01 -0.11833158068E-02  0.33446719607E-02  0.23748966293E-01  0.00000000000E+00 0.  1.
     999901    1    3    3    0    0  0.80131574498E-01 -0.19716384041E-01  0.10899696517E+00  0.89055608664E+00  0.88000000000E+00 0. -1.
        -11    1    4    4    0    0 -0.27908324354E-01  0.21208956287E-01 -0.72091597802E-01  0.80163295776E-01  0.51100000000E-03 0.  1.
         11    1    4    4    0    0 -0.28740781510E-01 -0.30925643978E-03 -0.40250039333E-01  0.49461651293E-01  0.51100000000E-03 0. -1.
</event>
<event>
 8    1  0.1123361E+005  0.1043930E+01  0.7957747E-01            NaN
         13   -1    0    0    0    0  0.00000000000E+00  0.00000000000E+00  0.74505805969E-08  0.10566000000E+00  0.10566000000E+00 0. -1.
     999900   -1    0    0    0    0 -0.00000000000E+00 -0.00000000000E+00 -0.74505805969E-08  0.93827000000E+00  0.93827000000E+00 0. -1.
     999902    2    1    2    0    0 -0.18248967867E-01 -0.29733122310E-02  0.81267167731E-02  0.10237332443E+01  0.10235339988E+01 0.  0.
     999903    2    3    3    0    0  0.12397951177E+00 -0.20935406237E-01 -0.31508469691E-01  0.13125213795E+00  0.20618668269E-01 0.  0.
         14    1    1    2    0    0  0.18248967867E-01  0.29733122310E-02 -0.81267167731E-02  0.20196755663E-01  0.00000000000E+00 0.  1.
     999901    1    3    3    0    0 -0.14222847964E+00  0.17962094006E-01  0.39635186464E-01  0.89248110638E+00  0.88000000000E+00 0.  1.
        -11    1    4    4    0    0  0.40948310578E-01  0.23150573889E-02 -0.69979805729E-02  0.41609572011E-01  0.51100000000E-03 0.  1.
         11    1    4    4    0    0  0.83031201197E-01 -0.23250463626E-01 -0.24510489119E-01  0.89642565944E-01  0.51100000000E-03 0. -1.
</event>
<event>
 8    1  0.1123361E+005  0.1043930E+01  0.7957747E-01            NaN
         13   -1    0    0    0    0  0.00000000000E+00  0.00000000000E+00  0.74505805969E-08  0.10566000000E+00  0.10566000000E+00 0.  1.
     999900   -1    0    0    0    0 -0.00000000000E+00 -0.00000000000E+00 -0.74505805969E-08  0.93827000000E+00  0.93827000000E+00 0.  1.
     999902    2    1    2    0    0 -0.14817835378E-01  0.48518055846E-02  0.17194023639E-01  0.10207191682E+01  0.10204552306E+01 0.  0.
     999903    2    3    3    0    0  0.28892233297E-02  0.12959422417E+00  0.96321800254E-02  0.13171332325E+00  0.21274634675E-01 0.  0.
         14    1    1    2    0    0  0.14817835378E-01 -0.48518055846E-02 -0.17194023639E-01  0.23210831773E-01  0.00000000000E+00 0. -1.
     999901    1    3    3    0    0 -0.17707058707E-01 -0.12474241858E+00  0.75618436138E-02  0.88900584498E+00  0.88000000000E+00 0. -1.
        -11    1    4    4    0    0  0.84177721002E-02  0.26517134505E-01  0.57505599968E-02  0.28413858780E-01  0.51100000000E-03 0.  1.
         11    1    4    4    0    0 -0.55285487706E-02  0.10307708966E+00  0.38816200286E-02  0.10329946447E+00  0.51100000000E-03 0. -1.
</event>
<event>
 8    1  0.1123361E+005  0.1043930E+01  0.7957747E-01            NaN
         13   -1    0    0    0    0  0.00000000000E+00  0.00000000000E+00  0.74505805969E-08  0.10566000000E+00  0.10566000000E+00 0.  1.
     999900   -1    0    0    0    0 -0.00000000000E+00 -0.00000000000E+00 -0.74505805969E-08  0.93827000000E+00  0.93827000000E+00 0. -1.
     999902    2    1    2    0    0 -0.16891660952E-01 -0.15914783057E-01  0.37864467167E-02  0.10204152024E+01  0.10201442248E+01 0.  0.
     999903    2    3    3    0    0  0.86984373251E-01 -0.90595285662E-01  0.30463647924E-01  0.13076410164E+00  0.19935632859E-01 0.  0.
         14    1    1    2    0    0  0.16891660952E-01  0.15914783057E-01 -0.37864467167E-02  0.23514797643E-01  0.00000000000E+00 0.  1.
     999901    1    3    3    0    0 -0.10387603420E+00  0.74680502605E-01 -0.26677201207E-01  0.88965110072E+00  0.88000000000E+00 0. -1.
        -11    1    4    4    0    0  0.31092850492E-01 -0.26796974396E-01  0.12989051970E-02  0.41070566884E-01  0.51100000000E-03 0.  1.
         11    1    4    4    0    0  0.55891522760E-01 -0.63798311266E-01  0.29164742727E-01  0.89693534751E-01  0.51100000000E-03 0. -1.
</event>
<event>
 8    1  0.1123361E+005  0.1043930E+01  0.7957747E-01            NaN
         13   -1    0    0    0    0  0.00000000000E+00  0.00000000000E+00  0.74505805969E-08  0.10566000000E+00  0.10566000000E+00 0. -1.
     999900   -1    0    0    0    0 -0.00000000000E+00 -0.00000000000E+00 -0.74505805969E-08  0.93827000000E+00  0.93827000000E+00 0. -1.
     999902    2    1    2    0    0  0.32551727315E-02  0.13356595442E-01  0.19286831284E-01  0.10202450543E+01  0.10199700948E+01 0.  0.
     999903    2    3    3    0    0 -0.10586239060E+00 -0.61511236786E-01 -0.34225739901E-01  0.12874327069E+00  0.20321183037E-01 0.  0.
         14    1    1    2    0    0 -0.32551727315E-02 -0.13356595442E-01 -0.19286831284E-01  0.23684945689E-01  0.00000000000E+00 0. -1.
     999901    1    3    3    0    0  0.10911756333E+00  0.74867832228E-01  0.53512571185E-01  0.89150178362E+00  0.88000000000E+00 0.  1.
        -11    1    4    4    0    0 -0.24884026324E-01 -0.54170565620E-02 -0.46882151644E-02  0.25899802129E-01  0.51100000000E-03 0.  1.
         11    1    4    4    0    0 -0.80978364280E-01 -0.56094180224E-01 -0.29537524737E-01  0.10284346856E+00  0.51100000000E-03 0. -1.
</event>
<event>
 8    1  0.1236771E+005  0.1043930E+01  0.7957747E-01            NaN
         13   -1    0    0    0    0  0.00000000000E+00  0.00000000000E+00  0.74505805969E-08  0.10566000000E+00  0.10566000000E+00 0.  1.
     999900   -1    0    0    0    0 -0.00000000000E+00 -0.00000000000E+00 -0.74505805969E-08  0.93827000000E+00  0.93827000000E+00 0.  1.
     999902    2    1    2    0    0  0.22226469682E-01 -0.50122291409E-02 -0.54608798122E-02  0.10205001130E+01  0.10202311116E+01 0.  0.
     999903    2    3    3    0    0  0.11059379230E+00 -0.64177550354E-01  0.31778932071E-01  0.13331573392E+00  0.20333212260E-01 0.  0.
         14    1    1    2    0    0 -0.22226469682E-01  0.50122291409E-02  0.54608798122E-02  0.23429886978E-01  0.00000000000E+00 0. -1.
     999901    1    3    3    0    0 -0.88367322620E-01  0.59165321213E-01 -0.37239811883E-01  0.88718437911E+00  0.88000000000E+00 0.  1.
        -11    1    4    4    0    0  0.46335253941E-01 -0.15863699527E-01  0.95262299874E-02  0.49896121084E-01  0.51100000000E-03 0.  1.
         11    1    4    4    0    0  0.64258538361E-01 -0.48313850827E-01  0.22252702083E-01  0.83419612832E-01  0.51100000000E-03 0. -1.
</event>
<event>
 8    1  0.1123361E+005  0.1043930E+01  0.7957747E-01            NaN
         13   -1    0    0    0    0  0.00000000000E+00  0.00000000000E+00  0.74505805969E-08  0.10566000000E+00  0.10566000000E+00 0.  1.
     999900   -1    0    0    0    0 -0.00000000000E+00 -0.00000000000E+00 -0.74505805969E-08  0.93827000000E+00  0.93827000000E+00 0. -1.
     999902    2    1    2    0    0 -0.13341820437E-01 -0.14534162811E-01 -0.11500705729E-01  0.10210933563E+01  0.10208379549E+01 0.  0.
     999903    2    3    3    0    0  0.31135721036E-01  0.11388762017E+00 -0.50739694890E-01  0.12979648980E+00  0.18242504652E-01 0.  0.
         14    1    1    2    0    0  0.13341820437E-01  0.14534162811E-01  0.11500705729E-01  0.22836643656E-01  0.00000000000E+00 0.  1.
     999901    1    3    3    0    0 -0.44477541473E-01 -0.12842178298E+00  0.39238989161E-01  0.89129686654E+00  0.88000000000E+00 0.  1.
        -11    1    4    4    0    0  0.10202950297E-01  0.14245015149E-01 -0.54302989328E-02  0.18351292021E-01  0.51100000000E-03 0. -1.
         11    1    4    4    0    0  0.20932770738E-01  0.99642605017E-01 -0.45309395957E-01  0.11144519778E+00  0.51100000000E-03 0.  1.
</event>
<event>
 8    1  0.1123361E+005  0.1043930E+01  0.7957747E-01            NaN
         13   -1    0    0    0    0  0.00000000000E+00  0.00000000000E+00  0.74505805969E-08  0.10566000000E+00  0.10566000000E+00 0.  1.
     999900   -1    0    0    0    0 -0.00000000000E+00 -0.00000000000E+00 -0.74505805969E-08  0.93827000000E+00  0.93827000000E+00 0. -1.
     999902    2    1    2    0    0 -0.21148286126E-01  0.12396176091E-01 -0.71394383291E-02  0.10183979267E+01  0.10180778213E+01 0.  0.
     999903    2    3    3    0    0  0.10508693475E+00  0.40933049927E-01  0.54490843709E-01  0.12679937587E+00  0.19749714973E-01 0.  0.
         14    1    1    2    0    0  0.21148286126E-01 -0.12396176091E-01  0.71394383291E-02  0.25532073308E-01  0.00000000000E+00 0.  1.
     999901    1    3    3    0    0 -0.12623522088E+00 -0.28536873835E-01 -0.61630282038E-01  0.89159855082E+00  0.88000000000E+00 0.  1.
        -11    1    4    4    0    0  0.20806761007E-01  0.11974657657E-03  0.86804454825E-02  0.22550984405E-01  0.51100000000E-03 0. -1.
         11    1    4    4    0    0  0.84280173746E-01  0.40813303350E-01  0.45810398226E-01  0.10424839147E+00  0.51100000000E-03 0.  1.
</event>
<event>
 8    1  0.1123361E+005  0.1043930E+01  0.7957747E-01            NaN
         13   -1    0    0    0    0  0.00000000000E+00  0.00000000000E+00  0.74505805969E-08  0.10566000000E+00  0.10566000000E+00 0. -1.
     999900   -1    0    0    0    0 -0.00000000000E+00 -0.00000000000E+00 -0.74505805969E-08  0.93827000000E+00  0.93827000000E+00 0.  1.
     999902    2    1    2    0    0  0.21715443291E-01  0.30347800058E-02  0.90041170930E-02  0.10202267409E+01  0.10199513510E+01 0.  0.
     999903    2    3    3    0    0 -0.48526648820E-01  0.72788652993E-01  0.93678038117E-01  0.13063738216E+00  0.25249299810E-01 0.  0.
         14    1    1    2    0    0 -0.21715443291E-01 -0.30347800058E-02 -0.90041170930E-02  0.23703259093E-01  0.00000000000E+00 0.  1.
     999901    1    3    3    0    0  0.70242092111E-01 -0.69753872987E-01 -0.84673921024E-01  0.88958935875E+00  0.88000000000E+00 0.  1.
        -11    1    4    4    0    0 -0.25864408022E-01  0.40320265589E-01  0.32964049538E-01  0.58151363720E-01  0.51100000000E-03 0. -1.
         11    1    4    4    0    0 -0.22662240797E-01  0.32468387404E-01  0.60713988579E-01  0.72486018436E-01  0.51100000000E-03 0.  1.
</event>
<event>
 8    1  0.1123361E+005  0.1043930E+01  0.7957747E-01            NaN
         13   -1    0    0    0    0  0.00000000000E+00  0.00000000000E+00  0.74505805969E-08  0.10566000000E+00  0.10566000000E+00 0. -1.
     999900   -1    0    0    0    0 -0.00000000000E+00 -0.00000000000E+00 -0.74505805969E-08  0.93827000000E+00  0.93827000000E+00 0. -1.
     999902    2    1    2    0    0 -0.10042939162E-01 -0.18164186152E-01 -0.11227715142E-01  0.10203321214E+01  0.10200592033E+01 0.  0.
     999903    2    3    3    0    0  0.87256465677E-01  0.56216339583E-01 -0.74788281147E-01  0.12957986500E+00  0.20583653164E-01 0.  0.
         14    1    1    2    0    0  0.10042939162E-01  0.18164186152E-01  0.11227715142E-01  0.23597878568E-01  0.00000000000E+00 0. -1.
     999901    1    3    3    0    0 -0.97299404839E-01 -0.74380525735E-01  0.63560566005E-01  0.89075225643E+00  0.88000000000E+00 0. -1.
        -11    1    4    4    0    0  0.54292883901E-01  0.23064596135E-01 -0.44126135671E-01  0.73668648741E-01  0.51100000000E-03 0. -1.
         11    1    4    4    0    0  0.32963581776E-01  0.33151743448E-01 -0.30662145477E-01  0.55911216258E-01  0.51100000000E-03 0.  1.
</event>
<event>
 8    1  0.1123361E+005  0.1043930E+01  0.7957747E-01            NaN
         13   -1    0    0    0    0  0.00000000000E+00  0.00000000000E+00  0.74505805969E-08  0.10566000000E+00  0.10566000000E+00 0. -1.
     999900   -1    0    0    0    0 -0.00000000000E+00 -0.00000000000E+00 -0.74505805969E-08  0.93827000000E+00  0.93827000000E+00 0. -1.
     999902    2    1    2    0    0 -0.11693522526E-01 -0.20149185051E-01 -0.26717059244E-02  0.10204807753E+01  0.10202113245E+01 0.  0.
     999903    2    3    3    0    0 -0.10179765122E+00 -0.15033690137E-02 -0.81936708455E-01  0.13213998421E+00  0.19553243241E-01 0.  0.
         14    1    1    2    0    0  0.11693522526E-01  0.20149185051E-01  0.26717059244E-02  0.23449224717E-01  0.00000000000E+00 0. -1.
     999901    1    3    3    0    0  0.90104128695E-01 -0.18645816037E-01  0.79265002530E-01  0.88834079108E+00  0.88000000000E+00 0.  1.
        -11    1    4    4    0    0 -0.52482273305E-01 -0.10286469884E-01 -0.45089921138E-01  0.69954003339E-01  0.51100000000E-03 0. -1.
         11    1    4    4    0    0 -0.49315377916E-01  0.87831008703E-02 -0.36846787316E-01  0.62185980868E-01  0.51100000000E-03 0.  1.
</event>
<event>
 8    1  0.1123361E+005  0.1043930E+01  0.7957747E-01            NaN
         13   -1    0    0    0    0  0.00000000000E+00  0.00000000000E+00  0.74505805969E-08  0.10566000000E+00  0.10566000000E+00 0. -1.
     999900   -1    0    0    0    0 -0.00000000000E+00 -0.00000000000E+00 -0.74505805969E-08  0.93827000000E+00  0.93827000000E+00 0.  1.
     999902    2    1    2    0    0  0.89805384244E-02 -0.72393917493E-02  0.21056981342E-01  0.10199205159E+01  0.10196378786E+01 0.  0.
     999903    2    3    3    0    0  0.65987983160E-01  0.84665763365E-01  0.73757135599E-01  0.13173488635E+00  0.19780288719E-01 0.  0.
         14    1    1    2    0    0 -0.89805384244E-02  0.72393917493E-02 -0.21056981342E-01  0.24009484095E-01  0.00000000000E+00 0.  1.
     999901    1    3    3    0    0 -0.57007444736E-01 -0.91905155114E-01 -0.52700154257E-01  0.88818562956E+00  0.88000000000E+00 0. -1.
        -11    1    4    4    0    0  0.34377588796E-01  0.51668607953E-01  0.31973403092E-01  0.69814205471E-01  0.51100000000E-03 0. -1.
         11    1    4    4    0    0  0.31610394364E-01  0.32997155411E-01  0.41783732507E-01  0.61920680877E-01  0.51100000000E-03 0.  1.
</event>
<event>
 8    1  0.1123361E+005  0.1043930E+01  0.7957747E-01            NaN
         13   -1    0    0    0    0  0.00000000000E+00  0.00000000000E+00  0.74505805969E-08  0.10566000000E+00  0.10566000000E+00 0.  1.
     999900   -1    0    0    0    0 -0.00000000000E+00 -0.00000000000E+00 -0.74505805969E-08  0.93827000000E+00  0.93827000000E+00 0.  1.
     999902    2    1    2    0    0 -0.16716624771E-01  0.13575818270E-01 -0.92780663671E-02  0.10204815267E+01  0.10202120933E+01 0.  0.
     999903    2    3    3    0    0 -0.11642577876E+00  0.43932448434E-02  0.59209474798E-01  0.13215907490E+00  0.19646796497E-01 0.  0.
         14    1    1    2    0    0  0.16716624771E-01 -0.13575818270E-01  0.92780663671E-02  0.23448473318E-01  0.00000000000E+00 0. -1.
     999901    1    3    3    0    0  0.99709153989E-01  0.91825734269E-02 -0.68487541165E-01  0.88832245178E+00  0.88000000000E+00 0.  1.
        -11    1    4    4    0    0 -0.41944828502E-01  0.34316143996E-02  0.11248383955E-01  0.43565259990E-01  0.51100000000E-03 0.  1.
         11    1    4    4    0    0 -0.74480950258E-01  0.96163044381E-03  0.47961090843E-01  0.88593814910E-01  0.51100000000E-03 0. -1.
</event>
<event>
 8    1  0.1123361E+005  0.1043930E+01  0.7957747E-01            NaN
         13   -1    0    0    0    0  0.00000000000E+00  0.00000000000E+00  0.74505805969E-08  0.10566000000E+00  0.10566000000E+00 0.  1.
     999900   -1    0    0    0    0 -0.00000000000E+00 -0.00000000000E+00 -0.74505805969E-08  0.93827000000E+00  0.93827000000E+00 0.  1.
     999902    2    1    2    0    0  0.13240941750E-01  0.16642097180E-01  0.12266130824E-01  0.10193792383E+01  0.10190835547E+01 0.  0.
     999903    2    3    3    0    0  0.12452022712E+00 -0.35554509895E-01  0.15597976982E-03  0.13075433375E+00  0.18090365625E-01 0.  0.
         14    1    1    2    0    0 -0.13240941750E-01 -0.16642097180E-01 -0.12266130824E-01  0.24550761747E-01  0.00000000000E+00 0.  1.
     999901    1    3    3    0    0 -0.11127928537E+00  0.52196607075E-01  0.12110151054E-01  0.88862490450E+00  0.88000000000E+00 0. -1.
        -11    1    4    4    0    0  0.47129689643E-01 -0.16620976534E-01 -0.81898984634E-02  0.50643855152E-01  0.51100000000E-03 0. -1.
         11    1    4    4    0    0  0.77390537479E-01 -0.18933533361E-01  0.83458782332E-02  0.80110478598E-01  0.51100000000E-03 0.  1.
</event>
<event>
 8    1  0.1123361E+005  0.1043930E+01  0.7957747E-01            NaN
         13   -1    0    0    0    0  0.00000000000E+00  0.00000000000E+00  0.74505805969E-08  0.10566000000E+00  0.10566000000E+00 0. -1.
     999900   -1    0    0    0    0 -0.00000000000E+00 -0.00000000000E+00 -0.74505805969E-08  0.93827000000E+00  0.93827000000E+00 0. -1.
     999902    2    1    2    0    0  0.17398497400E-01  0.10740090467E-01 -0.11776877941E-01  0.10203344049E+01  0.10200615401E+01 0.  0.
     999903    2    3    3    0    0 -0.78952054682E-02  0.19377710981E-01 -0.12894431406E+00  0.13216629693E+00  0.20086412400E-01 0.  0.
         14    1    1    2    0    0 -0.17398497400E-01 -0.10740090467E-01  0.11776877941E-01  0.23595595119E-01  0.00000000000E+00 0. -1.
     999901    1    3    3    0    0  0.25293702868E-01 -0.86376205142E-02  0.11716743612E+00  0.88816810795E+00  0.88000000000E+00 0.  1.
        -11    1    4    4    0    0  0.45353610063E-02 -0.13415290826E-02 -0.25101645929E-01  0.25548443184E-01  0.51100000000E-03 0.  1.
         11    1    4    4    0    0 -0.12430566475E-01  0.20719240063E-01 -0.10384266813E+00  0.10661785375E+00  0.51100000000E-03 0. -1.
</event>
<event>
 8    1  0.1123361E+005  0.1043930E+01  0.7957747E-01            NaN
         13   -1    0    0    0    0  0.00000000000E+00  0.00000000000E+00  0.74505805969E-08  0.10566000000E+00  0.10566000000E+00 0. -1.
     999900   -1    0    0    0    0 -0.00000000000E+00 -0.00000000000E+00 -0.74505805969E-08  0.93827000000E+00  0.93827000000E+00 0. -1.
     999902    2    1    2    0    0 -0.24920659934E-01  0.74540365374E-02 -0.44961644646E-02  0.10175327000E+01  0.10171902369E+01 0.  0.
     999903    2    3    3    0    0  0.70250751755E-01  0.68134667039E-01  0.77781301846E-01  0.12651680902E+00  0.19469747645E-01 0.  0.
         14    1    1    2    0    0  0.24920659934E-01 -0.74540365374E-02  0.44961644646E-02  0.26397299997E-01  0.00000000000E+00 0. -1.
     999901    1    3    3    0    0 -0.95171411688E-01 -0.60680630502E-01 -0.82277466310E-01  0.89101589098E+00  0.88000000000E+00 0.  1.
        -11    1    4    4    0    0  0.37624506658E-01  0.49256273331E-01  0.51100682861E-01  0.80332589113E-01  0.51100000000E-03 0. -1.
         11    1    4    4    0    0  0.32626245096E-01  0.18878393708E-01  0.26680618984E-01  0.46184219908E-01  0.51100000000E-03 0.  1.
</event>
<event>
 8    1  0.1123361E+005  0.1043930E+01  0.7957747E-01            NaN
         13   -1    0    0    0    0  0.00000000000E+00  0.00000000000E+00  0.74505805969E-08  0.10566000000E+00  0.10566000000E+00 0.  1.
     999900   -1    0    0    0    0 -0.00000000000E+00 -0.00000000000E+00 -0.74505805969E-08  0.93827000000E+00  0.93827000000E+00 0. -1.
     999902    2    1    2    0    0 -0.21172865176E-01  0.41566765803E-02 -0.93187321633E-02  0.10204266609E+01  0.10201559505E+01 0.  0.
     999903    2    3    3    0    0  0.70253045586E-01 -0.98588474893E-01 -0.40672976287E-01  0.12919248744E+00  0.19525112418E-01 0.  0.
         14    1    1    2    0    0  0.21172865176E-01 -0.41566765803E-02  0.93187321633E-02  0.23503339105E-01  0.00000000000E+00 0.  1.
     999901    1    3    3    0    0 -0.91425910762E-01  0.10274515147E+00  0.31354244124E-01  0.89123417346E+00  0.88000000000E+00 0. -1.
        -11    1    4    4    0    0  0.94841294705E-02 -0.16533360140E-01 -0.14007498711E-01  0.23659498103E-01  0.51100000000E-03 0.  1.
         11    1    4    4    0    0  0.60768916115E-01 -0.82055114753E-01 -0.26665477576E-01  0.10553298934E+00  0.51100000000E-03 0. -1.
</event>
<event>
 8    1  0.1123361E+005  0.1043930E+01  0.7957747E-01            NaN
         13   -1    0    0    0    0  0.00000000000E+00  0.00000000000E+00  0.74505805969E-08  0.10566000000E+00  0.10566000000E+00 0.  1.
     999900   -1    0    0    0    0 -0.00000000000E+00 -0.00000000000E+00 -0.74505805969E-08  0.93827000000E+00  0.93827000000E+00 0.  1.
     999902    2    1    2    0    0 -0.93671895653E-02  0.15578705688E-01  0.17162642255E-01  0.10189300680E+01  0.10186233292E+01 0.  0.
     999903    2    3    3    0    0  0.27395092688E-01 -0.11112346848E+00  0.54282040555E-01  0.12832198580E+00  0.20520130656E-01 0.  0.
         14    1    1    2    0    0  0.93671895653E-02 -0.15578705688E-01 -0.17162642255E-01  0.24999932009E-01  0.00000000000E+00 0.  1.
     999901    1    3    3    0    0 -0.36762282254E-01  0.12670217417E+00 -0.37119398300E-01  0.89060808219E+00  0.88000000000E+00 0. -1.
        -11    1    4    4    0    0  0.10602900936E-01 -0.70853151872E-01  0.41762008706E-01  0.82927179686E-01  0.51100000000E-03 0. -1.
         11    1    4    4    0    0  0.16792191752E-01 -0.40270316608E-01  0.12520031849E-01  0.45394806113E-01  0.51100000000E-03 0.  1.
</event>
<event>
 8    1  0.1123361E+005  0.1043930E+01  0.7957747E-01            NaN
         13   -1    0    0    0    0  0.00000000000E+00  0.00000000000E+00  0.74505805969E-08  0.10566000000E+00  0.10566000000E+00 0.  1.
     999900   -1    0    0    0    0 -0.00000000000E+00 -0.00000000000E+00 -0.74505805969E-08  0.93827000000E+00  0.93827000000E+00 0.  1.
     999902    2    1    2    0    0 -0.79663043085E-02 -0.42102798197E-02  0.21141325755E-01  0.10209486137E+01  0.10206899273E+01 0.  0.
     999903    2    3    3    0    0 -0.67724045484E-01 -0.10772090575E+00 -0.26873544166E-01  0.13157194153E+00  0.19966185169E-01 0.  0.
         14    1    1    2    0    0  0.79663043085E-02  0.42102798197E-02 -0.21141325755E-01  0.22981386276E-01  0.00000000000E+00 0. -1.
     999901    1    3    3    0    0  0.59757741175E-01  0.10351062593E+00  0.48014869921E-01  0.88937667219E+00  0.88000000000E+00 0. -1.
        -11    1    4    4    0    0 -0.21519348388E-01 -0.49422566560E-01 -0.17035870125E-01  0.56534541940E-01  0.51100000000E-03 0.  1.
         11    1    4    4    0    0 -0.46204697096E-01 -0.58298339187E-01 -0.98376740415E-02  0.75037399590E-01  0.51100000000E-03 0. -1.
</event>
<event>
 8    1  0.1123361E+005  0.1043930E+01  0.7957747E-01            NaN
         13   -1    0    0    0    0  0.00000000000E+00  0.00000000000E+00  0.74505805969E-08  0.10566000000E+00  0.10566000000E+00 0.  1.
     999900   -1    0    0    0    0 -0.00000000000E+00 -0.00000000000E+00 -0.74505805969E-08  0.93827000000E+00  0.93827000000E+00 0.  1.
     999902    2    1    2    0    0  0.10565156487E-01 -0.95391008718E-02 -0.18019432970E-01  0.10209666174E+01  0.10207083407E+01 0.  0.
     999903    2    3    3    0    0 -0.41168377403E-01  0.11443703348E+00  0.38374130665E-01  0.12898754002E+00  0.19353078494E-01 0.  0.
         14    1    1    2    0    0 -0.10565156487E-01  0.95391008718E-02  0.18019432970E-01  0.22963382625E-01  0.00000000000E+00 0.  1.
     999901    1    3    3    0    0  0.51733533890E-01 -0.12397613435E+00 -0.56393563635E-01  0.89197907735E+00  0.88000000000E+00 0.  1.
        -11    1    4    4    0    0 -0.31658571710E-01  0.59775573589E-01  0.22199823187E-01  0.71193241471E-01  0.51100000000E-03 0. -1.
         11    1    4    4    0    0 -0.95098056931E-02  0.54661459889E-01  0.16174307478E-01  0.57794298550E-01  0.51100000000E-03 0.  1.
</event>
<event>
 8    1  0.1123361E+005  0.1043930E+01  0.7957747E-01            NaN
         13   -1    0    0    0    0  0.00000000000E+00  0.00000000000E+00  0.74505805969E-08  0.10566000000E+00  0.10566000000E+00 0. -1.
     999900   -1    0    0    0    0 -0.00000000000E+00 -0.00000000000E+00 -0.74505805969E-08  0.93827000000E+00  0.93827000000E+00 0. -1.
     999902    2    1    2    0    0  0.20385121584E-01  0.42139664725E-02 -0.14068086702E-01  0.10188058730E+01  0.10184960408E+01 0.  0.
     999903    2    3    3    0    0 -0.77945047004E-01  0.80540763731E-01  0.56994618287E-01  0.12720926571E+00  0.19276042001E-01 0.  0.
         14    1    1    2    0    0 -0.20385121584E-01 -0.42139664725E-02  0.14068086702E-01  0.25124127027E-01  0.00000000000E+00 0. -1.
     999901    1    3    3    0    0  0.98330168587E-01 -0.76326797259E-01 -0.71062704989E-01  0.89159660726E+00  0.88000000000E+00 0. -1.
        -11    1    4    4    0    0 -0.16527360675E-01  0.27885452302E-01  0.21252996240E-01  0.38764714253E-01  0.51100000000E-03 0. -1.
         11    1    4    4    0    0 -0.61417686329E-01  0.52655311429E-01  0.35741622047E-01  0.88444551461E-01  0.51100000000E-03 0.  1.
</event>
<event>
 8    1  0.1123361E+005  0.1043930E+01  0.7957747E-01            NaN
         13   -1    0    0    0    0  0.00000000000E+00  0.00000000000E+00  0.74505805969E-08  0.10566000000E+00  0.10566000000E+00 0. -1.
     999900   -1    0    0    0    0 -0.00000000000E+00 -0.00000000000E+00 -0.74505805969E-08  0.93827000000E+00  0.93827000000E+00 0.  1.
     999902    2    1    2    0    0  0.24365986883E-01  0.37565159469E-02 -0.56107111094E-02  0.10186457597E+01  0.10183319159E+01 0.  0.
     999903    2    3    3    0    0 -0.90116968232E-01  0.86461704526E-01 -0.14262831682E-01  0.12734258208E+00  0.20396336197E-01 0.  0.
         14    1    1    2    0    0 -0.24365986883E-01 -0.37565159469E-02  0.56107111094E-02  0.25284240309E-01  0.00000000000E+00 0.  1.
     999901    1    3    3    0    0  0.11448295512E+00 -0.82705188579E-01  0.86521205721E-02  0.89130317761E+00  0.88000000000E+00 0. -1.
        -11    1    4    4    0    0 -0.52168540565E-01  0.63175782730E-01 -0.70450384671E-02  0.82235210440E-01  0.51100000000E-03 0. -1.
         11    1    4    4    0    0 -0.37948427667E-01  0.23285921796E-01 -0.72177932145E-02  0.45107371639E-01  0.51100000000E-03 0.  1.
</event>
<event>
 8    1  0.1123361E+005  0.1043930E+01  0.7957747E-01            NaN
         13   -1    0    0    0    0  0.00000000000E+00  0.00000000000E+00  0.74505805969E-08  0.10566000000E+00  0.10566000000E+00 0.  1.
     999900   -1    0    0    0    0 -0.00000000000E+00 -0.00000000000E+00 -0.74505805969E-08  0.93827000000E+00  0.93827000000E+00 0. -1.
     999902    2    1    2    0    0  0.20218950608E-01  0.11482191424E-01 -0.59077648083E-03  0.10206706857E+01  0.10204056316E+01 0.  0.
     999903    2    3    3    0    0 -0.37153224542E-01 -0.11619839525E+00 -0.36527706410E-01  0.12888295222E+00  0.19852276622E-01 0.  0.
         14    1    1    2    0    0 -0.20218950608E-01 -0.11482191424E-01  0.59077648083E-03  0.23259314273E-01  0.00000000000E+00 0. -1.
     999901    1    3    3    0    0  0.57372175150E-01  0.12768058667E+00  0.35936929929E-01  0.89178773350E+00  0.88000000000E+00 0. -1.
        -11    1    4    4    0    0 -0.12237207677E-01 -0.50534579593E-01 -0.25051126641E-01  0.57717528130E-01  0.51100000000E-03 0.  1.
         11    1    4    4    0    0 -0.24916016865E-01 -0.65663815652E-01 -0.11476579768E-01  0.71165424095E-01  0.51100000000E-03 0. -1.
</event>
<event>
 8    1  0.1123361E+005  0.1043930E+01  0.7957747E-01            NaN
         13   -1    0    0    0    0  0.00000000000E+00  0.00000000000E+00  0.74505805969E-08  0.10566000000E+00  0.10566000000E+00 0.  1.
     999900   -1    0    0    0    0 -0.00000000000E+00 -0.00000000000E+00 -0.74505805969E-08  0.93827000000E+00  0.93827000000E+00 0. -1.
     999902    2    1    2    0    0  0.38927264601E-02 -0.20543681050E-01 -0.11099073104E-01  0.10202575355E+01  0.10199828691E+01 0.  0.
     999903    2    3    3    0    0  0.34339744647E-02 -0.12953133016E+00  0.21618613552E-01  0.13293067065E+00  0.20323411950E-01 0.  0.
         14    1    1    2    0    0 -0.38927264601E-02  0.20543681050E-01  0.11099073104E-01  0.23672464472E-01  0.00000000000E+00 0. -1.
     999901    1    3    3    0    0  0.45875199542E-03  0.10898764911E+00 -0.32717686656E-01  0.88732686488E+00  0.88000000000E+00 0.  1.
        -11    1    4    4    0    0 -0.54498401443E-02 -0.58313446293E-01  0.23473926507E-02  0.58616807738E-01  0.51100000000E-03 0. -1.
         11    1    4    4    0    0  0.88838146090E-02 -0.71217883871E-01  0.19271220901E-01  0.74313862913E-01  0.51100000000E-03 0.  1.
</event>
<event>
 8    1  0.1123361E+005  0.1043930E+01  0.7957747E-01            NaN
         13   -1    0    0    0    0  0.00000000000E+00  0.00000000000E+00  0.74505805969E-08  0.10566000000E+00  0.10566000000E+00 0. -1.
     999900   -1    0    0    0    0 -0.00000000000E+00 -0.00000000000E+00 -0.74505805969E-08  0.93827000000E+00  0.93827000000E+00 0.  1.
     999902    2    1    2    0    0 -0.15293209713E-01  0.16626706137E-01  0.60049753890E-02  0.10205550273E+01  0.10202872999E+01 0.  0.
     999903    2    3    3    0    0 -0.53252702155E-01 -0.10707522791E+00  0.47332771921E-01  0.13013317314E+00  0.19831710364E-01 0.  0.
         14    1    1    2    0    0  0.15293209713E-01 -0.16626706137E-01 -0.60049753890E-02  0.23374972721E-01  0.00000000000E+00 0. -1.
     999901    1    3    3    0    0  0.37959492442E-01  0.12370193405E+00 -0.41327796532E-01  0.89042185413E+00  0.88000000000E+00 0. -1.
        -11    1    4    4    0    0 -0.20719851392E-01 -0.26803570811E-01  0.19819350979E-01  0.39253171135E-01  0.51100000000E-03 0. -1.
         11    1    4    4    0    0 -0.32532850764E-01 -0.80271657100E-01  0.27513420942E-01  0.90880002010E-01  0.51100000000E-03 0.  1.
</event>
<event>
 8    1  0.1123361E+005  0.1043930E+01  0.7957747E-01            NaN
         13   -1    0    0    0    0  0.00000000000E+00  0.00000000000E+00  0.74505805969E-08  0.10566000000E+00  0.10566000000E+00 0.  1.
     999900   -1    0    0    0    0 -0.00000000000E+00 -0.00000000000E+00 -0.74505805969E-08  0.93827000000E+00  0.93827000000E+00 0. -1.
     999902    2    1    2    0    0  0.19026279985E-02  0.22943953767E-01 -0.10496467537E-01  0.10186274144E+01  0.10183131093E+01 0.  0.
     999903    2    3    3    0    0 -0.89539956951E-01  0.92911196229E-01  0.89434636443E-02  0.13091401904E+00  0.20213870579E-01 0.  0.
         14    1    1    2    0    0 -0.19026279985E-02 -0.22943953767E-01  0.10496467537E-01  0.25302585609E-01  0.00000000000E+00 0.  1.
     999901    1    3    3    0    0  0.91442584950E-01 -0.69967242462E-01 -0.19439931181E-01  0.88771339535E+00  0.88000000000E+00 0. -1.
        -11    1    4    4    0    0 -0.29340328571E-01  0.23933206257E-01 -0.53751175563E-02  0.38246650208E-01  0.51100000000E-03 0.  1.
         11    1    4    4    0    0 -0.60199628381E-01  0.68977989972E-01  0.14318581201E-01  0.92667368832E-01  0.51100000000E-03 0. -1.
</event>
<event>
 8    1  0.1123361E+005  0.1043930E+01  0.7957747E-01            NaN
         13   -1    0    0    0    0  0.00000000000E+00  0.00000000000E+00  0.74505805969E-08  0.10566000000E+00  0.10566000000E+00 0.  1.
     999900   -1    0    0    0    0 -0.00000000000E+00 -0.00000000000E+00 -0.74505805969E-08  0.93827000000E+00  0.93827000000E+00 0.  1.
     999902    2    1    2    0    0  0.22192698053E-01 -0.13233966731E-01 -0.57987667596E-02  0.10174483192E+01  0.10171036343E+01 0.  0.
     999903    2    3    3    0    0 -0.69816310279E-01  0.53740465617E-02 -0.10417056565E+00  0.12700521232E+00  0.19380909401E-01 0.  0.
         14    1    1    2    0    0 -0.22192698053E-01  0.13233966731E-01  0.57987667596E-02  0.26481680805E-01  0.00000000000E+00 0. -1.
     999901    1    3    3    0    0  0.92009008332E-01 -0.18608013293E-01  0.98371798894E-01  0.89044310688E+00  0.88000000000E+00 0. -1.
        -11    1    4    4    0    0 -0.59515114273E-02  0.10224738557E-02 -0.22130126564E-01  0.22944924576E-01  0.51100000000E-03 0. -1.
         11    1    4    4    0    0 -0.63864798852E-01  0.43515727060E-02 -0.82040439089E-01  0.10406028774E+00  0.51100000000E-03 0.  1.
</event>
<event>
 8    1  0.1123361E+005  0.1043930E+01  0.7957747E-01            NaN
         13   -1    0    0    0    0  0.00000000000E+00  0.00000000000E+00  0.74505805969E-08  0.10566000000E+00  0.10566000000E+00 0. -1.
     999900   -1    0    0    0    0 -0.00000000000E+00 -0.00000000000E+00 -0.74505805969E-08  0.93827000000E+00  0.93827000000E+00 0.  1.
     999902    2    1    2    0    0  0.14106103538E-01 -0.15487652061E-01  0.11541427696E-01  0.10200123480E+01  0.10197318942E+01 0.  0.
     999903    2    3    3    0    0  0.75522977635E-01  0.10157565728E+00  0.22229179191E-01  0.13007410361E+00  0.20094818222E-01 0.  0.
         14    1    1    2    0    0 -0.14106103538E-01  0.15487652061E-01 -0.11541427696E-01  0.23917651988E-01  0.00000000000E+00 0.  1.
     999901    1    3    3    0    0 -0.61416874097E-01 -0.11706330934E+00 -0.10687751495E-01  0.88993824440E+00  0.88000000000E+00 0.  1.
        -11    1    4    4    0    0  0.56954360895E-01  0.64532901745E-01  0.21089982300E-01  0.88619089969E-01  0.51100000000E-03 0. -1.
         11    1    4    4    0    0  0.18568616741E-01  0.37042755536E-01  0.11391968904E-02  0.41455013640E-01  0.51100000000E-03 0.  1.
</event>
<event>
 8    1  0.1123361E+005  0.1043930E+01  0.7957747E-01            NaN
         13   -1    0    0    0    0  0.00000000000E+00  0.00000000000E+00  0.74505805969E-08  0.10566000000E+00  0.10566000000E+00 0. -1.
     999900   -1    0    0    0    0 -0.00000000000E+00 -0.00000000000E+00 -0.74505805969E-08  0.93827000000E+00  0.93827000000E+00 0. -1.
     999902    2    1    2    0    0  0.16353073514E-01  0.16187923570E-01 -0.20878964613E-01  0.10128590643E+01  0.10123823789E+01 0.  0.
     999903    2    3    3    0    0 -0.88672748973E-01  0.12414525510E-01 -0.84094380559E-01  0.12435422427E+00  0.19368309111E-01 0.  0.
         14    1    1    2    0    0 -0.16353073514E-01 -0.16187923570E-01  0.20878964613E-01  0.31070935714E-01  0.00000000000E+00 0. -1.
     999901    1    3    3    0    0  0.10502582249E+00  0.37733980601E-02  0.63215415946E-01  0.88850484002E+00  0.88000000000E+00 0.  1.
        -11    1    4    4    0    0 -0.34858449764E-01  0.37670315794E-02 -0.46061675190E-01  0.57889904898E-01  0.51100000000E-03 0.  1.
         11    1    4    4    0    0 -0.53814299209E-01  0.86474939303E-02 -0.38032705369E-01  0.66464319370E-01  0.51100000000E-03 0. -1.
</event>
<event>
 8    1  0.1123361E+005  0.1043930E+01  0.7957747E-01            NaN
         13   -1    0    0    0    0  0.00000000000E+00  0.00000000000E+00  0.74505805969E-08  0.10566000000E+00  0.10566000000E+00 0. -1.
     999900   -1    0    0    0    0 -0.00000000000E+00 -0.00000000000E+00 -0.74505805969E-08  0.93827000000E+00  0.93827000000E+00 0.  1.
     999902    2    1    2    0    0  0.25916588669E-02  0.22940894477E-01 -0.81208364476E-02  0.10194565589E+01  0.10191627574E+01 0.  0.
     999903    2    3    3    0    0  0.42699955847E-01  0.35318895105E-01 -0.11766720650E+00  0.13167150744E+00  0.20520813986E-01 0.  0.
         14    1    1    2    0    0 -0.25916588669E-02 -0.22940894477E-01  0.81208364476E-02  0.24473441108E-01  0.00000000000E+00 0. -1.
     999901    1    3    3    0    0 -0.40108296980E-01 -0.12378000628E-01  0.10954637005E+00  0.88778505145E+00  0.88000000000E+00 0. -1.
        -11    1    4    4    0    0  0.40369540873E-01  0.23022758869E-01 -0.89607460368E-01  0.10094307966E+00  0.51100000000E-03 0.  1.
         11    1    4    4    0    0  0.23304149735E-02  0.12296136236E-01 -0.28059746129E-01  0.30728427784E-01  0.51100000000E-03 0. -1.
</event>
<event>
 8    1  0.1123361E+005  0.1043930E+01  0.7957747E-01            NaN
         13   -1    0    0    0    0  0.00000000000E+00  0.00000000000E+00  0.74505805969E-08  0.10566000000E+00  0.10566000000E+00 0.  1.
     999900   -1    0    0    0    0 -0.00000000000E+00 -0.00000000000E+00 -0.74505805969E-08  0.93827000000E+00  0.93827000000E+00 0.  1.
     999902    2    1    2    0    0 -0.95017925304E-02  0.22226483177E-01 -0.32732016677E-02  0.10195370817E+01  0.10192452337E+01 0.  0.
     999903    2    3    3    0    0  0.19356280731E-01  0.66209298044E-01  0.10947475798E+00  0.13078549725E+00  0.19020696729E-01 0.  0.
         14    1    1    2    0    0  0.95017925304E-02 -0.22226483177E-01  0.32732016677E-02  0.24392918335E-01  0.00000000000E+00 0.  1.
     999901    1    3    3    0    0 -0.28858073262E-01 -0.43982814867E-01 -0.11274795965E+00  0.88875158442E+00  0.88000000000E+00 0.  1.
        -11    1    4    4    0    0  0.26644260900E-02  0.38384480943E-01  0.50727165515E-01  0.63670825233E-01  0.51100000000E-03 0.  1.
         11    1    4    4    0    0  0.16691854641E-01  0.27824817102E-01  0.58747592468E-01  0.67114672017E-01  0.51100000000E-03 0. -1.
</event>
<event>
 8    1  0.1123361E+005  0.1043930E+01  0.7957747E-01            NaN
         13   -1    0    0    0    0  0.00000000000E+00  0.00000000000E+00  0.74505805969E-08  0.10566000000E+00  0.10566000000E+00 0. -1.
     999900   -1    0    0    0    0 -0.00000000000E+00 -0.00000000000E+00 -0.74505805969E-08  0.93827000000E+00  0.93827000000E+00 0. -1.
     999902    2    1    2    0    0 -0.12272014895E-01  0.18417166178E-01  0.11860113122E-01  0.10188211043E+01  0.10185116523E+01 0.  0.
     999903    2    3    3    0    0 -0.43836185545E-01  0.12289235900E+00  0.39104303111E-02  0.13204347703E+00  0.19900886829E-01 0.  0.
         14    1    1    2    0    0  0.12272014895E-01 -0.18417166178E-01 -0.11860113122E-01  0.25108895692E-01  0.00000000000E+00 0.  1.
     999901    1    3    3    0    0  0.31564170650E-01 -0.10447519283E+00  0.79496828108E-02  0.88677762728E+00  0.88000000000E+00 0.  1.
        -11    1    4    4    0    0 -0.18100319865E-01  0.30558151977E-01  0.67057471520E-02  0.36147619526E-01  0.51100000000E-03 0. -1.
         11    1    4    4    0    0 -0.25735865680E-01  0.92334207025E-01 -0.27953168410E-02  0.95895857505E-01  0.51100000000E-03 0.  1.
</event>
<event>
 7    1  0.1123361E+005  0.1043930E+01  0.7957747E-01            NaN
         13   -1    0    0    0    0  0.00000000000E+00  0.00000000000E+00  0.74505805969E-08  0.10566000000E+00  0.10566000000E+00 0.  1.
     999900   -1    0    0    0    0 -0.00000000000E+00 -0.00000000000E+00 -0.74505805969E-08  0.93827000000E+00  0.93827000000E+00 0. -1.
     999903    2    1    2    0    0  0.57289059221E-01 -0.22322938732E-01  0.99321013835E-01  0.11848926326E+00  0.19866852251E-01 0.  0.
         14    1    1    2    0    0  0.13821992532E-01 -0.16330738850E-01 -0.32885723285E-01  0.39232783548E-01  0.00000000000E+00 0. -1.
     999901    1    1    2    0    0 -0.71111051754E-01  0.38653677582E-01 -0.66435290550E-01  0.88620795319E+00  0.88000000000E+00 0. -1.
        -11    1    3    3    0    0  0.20403475869E-01 -0.51756598966E-02  0.51911804538E-01  0.56019513156E-01  0.51100000000E-03 0.  1.
         11    1    3    3    0    0  0.36885583353E-01 -0.17147278835E-01  0.47409209297E-01  0.62469750103E-01  0.51100000000E-03 0. -1.
</event>
<event>
 8    1  0.1123361E+005  0.1043930E+01  0.7957747E-01            NaN
         13   -1    0    0    0    0  0.00000000000E+00  0.00000000000E+00  0.74505805969E-08  0.10566000000E+00  0.10566000000E+00 0.  1.
     999900   -1    0    0    0    0 -0.00000000000E+00 -0.00000000000E+00 -0.74505805969E-08  0.93827000000E+00  0.93827000000E+00 0. -1.
     999902    2    1    2    0    0 -0.11974359715E-01  0.10492111303E-01  0.17540685351E-01  0.10202414937E+01  0.10199664505E+01 0.  0.
     999903    2    3    3    0    0  0.61520379015E-01  0.63562012773E-01  0.96125560216E-01  0.13210103538E+00  0.19638577366E-01 0.  0.
         14    1    1    2    0    0  0.11974359715E-01 -0.10492111303E-01 -0.17540685351E-01  0.23688506343E-01  0.00000000000E+00 0.  1.
     999901    1    3    3    0    0 -0.73494738730E-01 -0.53069901470E-01 -0.78584874865E-01  0.88814045827E+00  0.88000000000E+00 0. -1.
        -11    1    4    4    0    0  0.17126041287E-01  0.26114480636E-01  0.23388884600E-01  0.39020102933E-01  0.51100000000E-03 0. -1.
         11    1    4    4    0    0  0.44394337727E-01  0.37447532137E-01  0.72736675616E-01  0.93080932451E-01  0.51100000000E-03 0.  1.
</event>
<event>
 8    1  0.1123361E+005  0.1043930E+01  0.7957747E-01            NaN
         13   -1    0    0    0    0  0.00000000000E+00  0.00000000000E+00  0.74505805969E-08  0.10566000000E+00  0.10566000000E+00 0.  1.
     999900   -1    0    0    0    0 -0.00000000000E+00 -0.00000000000E+00 -0.74505805969E-08  0.93827000000E+00  0.93827000000E+00 0.  1.
     999902    2    1    2    0    0  0.11279538319E-01  0.18716805809E-01  0.71150076161E-02  0.10209480476E+01  0.10206893483E+01 0.  0.
     999903    2    3    3    0    0  0.11254770457E+00  0.66029291526E-01 -0.19156270252E-01  0.13348881310E+00  0.20626376057E-01 0.  0.
         14    1    1    2    0    0 -0.11279538319E-01 -0.18716805809E-01 -0.71150076161E-02  0.22981952436E-01  0.00000000000E+00 0. -1.
     999901    1    3    3    0    0 -0.10126816625E+00 -0.47312485716E-01  0.26271277868E-01  0.88745923447E+00  0.88000000000E+00 0. -1.
        -11    1    4    4    0    0  0.32990624617E-01  0.15528665462E-01 -0.14173989130E-01  0.39123954970E-01  0.51100000000E-03 0.  1.
         11    1    4    4    0    0  0.79557079950E-01  0.50500626064E-01 -0.49822811217E-02  0.94364858127E-01  0.51100000000E-03 0. -1.
</event>
<event>
 8    1  0.1123361E+005  0.1043930E+01  0.7957747E-01            NaN
         13   -1    0    0    0    0  0.00000000000E+00  0.00000000000E+00  0.74505805969E-08  0.10566000000E+00  0.10566000000E+00 0.  1.
     999900   -1    0    0    0    0 -0.00000000000E+00 -0.00000000000E+00 -0.74505805969E-08  0.93827000000E+00  0.93827000000E+00 0. -1.
     999902    2    1    2    0    0  0.17434719297E-01  0.12301637650E-01 -0.10317573418E-01  0.10202286910E+01  0.10199533469E+01 0.  0.
     999903    2    3    3    0    0  0.86141806534E-01 -0.39889476185E-02  0.96607662297E-01  0.13094861533E+00  0.19446771079E-01 0.  0.
         14    1    1    2    0    0 -0.17434719297E-01 -0.12301637650E-01  0.10317573418E-01  0.23701308974E-01  0.00000000000E+00 0.  1.
     999901    1    3    3    0    0 -0.68707087237E-01  0.16290585268E-01 -0.10692523572E+00  0.88928007570E+00  0.88000000000E+00 0. -1.
        -11    1    4    4    0    0  0.18159796305E-01 -0.69418183640E-02  0.14219446474E-01  0.24091924437E-01  0.51100000000E-03 0.  1.
         11    1    4    4    0    0  0.67982010228E-01  0.29528707455E-02  0.82388215822E-01  0.10685669089E+00  0.51100000000E-03 0. -1.
</event>
<event>
 8    1  0.1123361E+005  0.1043930E+01  0.7957747E-01            NaN
         13   -1    0    0    0    0  0.00000000000E+00  0.00000000000E+00  0.74505805969E-08  0.10566000000E+00  0.10566000000E+00 0. -1.
     999900   -1    0    0    0    0 -0.00000000000E+00 -0.00000000000E+00 -0.74505805969E-08  0.93827000000E+00  0.93827000000E+00 0. -1.
     999902    2    1    2    0    0 -0.92875250827E-02  0.20453051451E-01 -0.87552446289E-02  0.10198210858E+01  0.10195360745E+01 0.  0.
     999903    2    3    3    0    0  0.97982787678E-01  0.76780002342E-01 -0.35370345697E-01  0.13112090632E+00  0.21114811798E-01 0.  0.
         14    1    1    2    0    0  0.92875250827E-02 -0.20453051451E-01  0.87552446289E-02  0.24108914208E-01  0.00000000000E+00 0. -1.
     999901    1    3    3    0    0 -0.10727031276E+00 -0.56326950892E-01  0.26615101068E-01  0.88870017948E+00  0.88000000000E+00 0.  1.
        -11    1    4    4    0    0  0.45776891957E-01  0.40475275832E-01 -0.27623266761E-01  0.67060254835E-01  0.51100000000E-03 0. -1.
         11    1    4    4    0    0  0.52205895721E-01  0.36304726511E-01 -0.77470789357E-02  0.64060651481E-01  0.51100000000E-03 0.  1.
</event>
<event>
 8    1  0.1123361E+005  0.1043930E+01  0.7957747E-01            NaN
         13   -1    0    0    0    0  0.00000000000E+00  0.00000000000E+00  0.74505805969E-08  0.10566000000E+00  0.10566000000E+00 0. -1.
     999900   -1    0    0    0    0 -0.00000000000E+00 -0.00000000000E+00 -0.74505805969E-08  0.93827000000E+00  0.93827000000E+00 0.  1.
     999902    2    1    2    0    0  0.97871771327E-02 -0.22589248740E-02  0.21630920898E-01  0.10200807166E+01  0.10198018828E+01 0.  0.
     999903    2    3    3    0    0 -0.35505210232E-01 -0.78442473104E-01 -0.92650159959E-01  0.12827608623E+00  0.21374298087E-01 0.  0.
         14    1    1    2    0    0 -0.97871771327E-02  0.22589248740E-02 -0.21630920898E-01  0.23849283359E-01  0.00000000000E+00 0.  1.
     999901    1    3    3    0    0  0.45292387364E-01  0.76183548230E-01  0.11428108086E+00  0.89180463041E+00  0.88000000000E+00 0. -1.
        -11    1    4    4    0    0 -0.34294163731E-01 -0.56963065321E-01 -0.62661617902E-01  0.91365310463E-01  0.51100000000E-03 0. -1.
         11    1    4    4    0    0 -0.12110465005E-02 -0.21479407783E-01 -0.29988542057E-01  0.36910775771E-01  0.51100000000E-03 0.  1.
</event>
<event>
 8    1  0.1123361E+005  0.1043930E+01  0.7957747E-01            NaN
         13   -1    0    0    0    0  0.00000000000E+00  0.00000000000E+00  0.74505805969E-08  0.10566000000E+00  0.10566000000E+00 0.  1.
     999900   -1    0    0    0    0 -0.00000000000E+00 -0.00000000000E+00 -0.74505805969E-08  0.93827000000E+00  0.93827000000E+00 0. -1.
     999902    2    1    2    0    0  0.12859823044E-01  0.19117899463E-01 -0.46573361248E-02  0.10204234071E+01  0.10201526209E+01 0.  0.
     999903    2    3    3    0    0  0.12240758602E+00  0.18252440990E-01 -0.43877875355E-01  0.13276372454E+00  0.19600252360E-01 0.  0.
         14    1    1    2    0    0 -0.12859823044E-01 -0.19117899463E-01  0.46573361248E-02  0.23506592871E-01  0.00000000000E+00 0.  1.
     999901    1    3    3    0    0 -0.10954776297E+00  0.86545847294E-03  0.39220539231E-01  0.88765968259E+00  0.88000000000E+00 0. -1.
        -11    1    4    4    0    0  0.67305580533E-01  0.75280516092E-02 -0.33929432355E-01  0.75750777111E-01  0.51100000000E-03 0. -1.
         11    1    4    4    0    0  0.55102005483E-01  0.10724389381E-01 -0.99484430001E-02  0.57012947433E-01  0.51100000000E-03 0.  1.
</event>
<event>
 8    1  0.1123361E+005  0.1043930E+01  0.7957747E-01            NaN
         13   -1    0    0    0    0  0.00000000000E+00  0.00000000000E+00  0.74505805969E-08  0.10566000000E+00  0.10566000000E+00 0.  1.
     999900   -1    0    0    0    0 -0.00000000000E+00 -0.00000000000E+00 -0.74505805969E-08  0.93827000000E+00  0.93827000000E+00 0. -1.
     999902    2    1    2    0    0 -0.40560961497E-02  0.21825843368E-01 -0.73207894548E-02  0.10205545147E+01  0.10202867755E+01 0.  0.
     999903    2    3    3    0    0 -0.96182202210E-01 -0.43677581592E-01 -0.74528811242E-01  0.13078216388E+00  0.19765715963E-01 0.  0.
         14    1    1    2    0    0  0.40560961497E-02 -0.21825843368E-01  0.73207894548E-02  0.23375485298E-01  0.00000000000E+00 0.  1.
     999901    1    3    3    0    0  0.92126106060E-01  0.65503424960E-01  0.67208021788E-01  0.88977235082E+00  0.88000000000E+00 0.  1.
        -11    1    4    4    0    0 -0.15209524617E-01 -0.49219724404E-02 -0.20519024895E-01  0.26016282506E-01  0.51100000000E-03 0. -1.
         11    1    4    4    0    0 -0.80972677592E-01 -0.38755609151E-01 -0.54009786347E-01  0.10476588137E+00  0.51100000000E-03 0.  1.
</event>
<event>
 8    1  0.1123361E+005  0.1043930E+01  0.7957747E-01            NaN
         13   -1    0    0    0    0  0.00000000000E+00  0.00000000000E+00  0.74505805969E-08  0.10566000000E+00  0.10566000000E+00 0.  1.
     999900   -1    0    0    0    0 -0.00000000000E+00 -0.00000000000E+00 -0.74505805969E-08  0.93827000000E+00  0.93827000000E+00 0.  1.
     999902    2    1    2    0    0  0.18607239135E-01  0.13646940192E-01  0.67840482192E-02  0.10198781470E+01  0.10195944993E+01 0.  0.
     999903    2    3    3    0    0 -0.11211529290E+00 -0.37936200680E-01 -0.43171855322E-01  0.12732854435E+00  0.18432441273E-01 0.  0.
         14    1    1    2    0    0 -0.18607239135E-01 -0.13646940192E-01 -0.67840482192E-02  0.24051853049E-01  0.00000000000E+00 0. -1.
     999901    1    3    3    0    0  0.13072253203E+00  0.51583140871E-01  0.49955903541E-01  0.89254960260E+00  0.88000000000E+00 0. -1.
        -11    1    4    4    0    0 -0.62370591295E-01 -0.17224892373E-01 -0.14592728890E-01  0.66332468921E-01  0.51100000000E-03 0.  1.
         11    1    4    4    0    0 -0.49744701602E-01 -0.20711308307E-01 -0.28579126431E-01  0.60996075430E-01  0.51100000000E-03 0. -1.
</event>
<event>
 8    1  0.1123361E+005  0.1043930E+01  0.7957747E-01            NaN
         13   -1    0    0    0    0  0.00000000000E+00  0.00000000000E+00  0.74505805969E-08  0.10566000000E+00  0.10566000000E+00 0.  1.
     999900   -1    0    0    0    0 -0.00000000000E+00 -0.00000000000E+00 -0.74505805969E-08  0.93827000000E+00  0.93827000000E+00 0.  1.
     999902    2    1    2    0    0  0.19065376081E-01 -0.74924743217E-02 -0.90195973921E-02  0.10215474426E+01  0.10213022073E+01 0.  0.
     999903    2    3    3    0    0  0.31244410413E-02  0.95660734492E-01 -0.88121943820E-01  0.13185542902E+00  0.21439191320E-01 0.  0.
         14    1    1    2    0    0 -0.19065376081E-01  0.74924743217E-02  0.90195973921E-02  0.22382557353E-01  0.00000000000E+00 0.  1.
     999901    1    3    3    0    0  0.15940935039E-01 -0.10315320881E+00  0.79102346428E-01  0.88969201363E+00  0.88000000000E+00 0. -1.
        -11    1    4    4    0    0  0.10315925274E-01  0.28098224225E-01 -0.30910221299E-01  0.43030587035E-01  0.51100000000E-03 0. -1.
         11    1    4    4    0    0 -0.71914842324E-02  0.67562510267E-01 -0.57211722521E-01  0.88824841986E-01  0.51100000000E-03 0.  1.
</event>
<event>
 8    1  0.1123361E+005  0.1043930E+01  0.7957747E-01            NaN
         13   -1    0    0    0    0  0.00000000000E+00  0.00000000000E+00  0.74505805969E-08  0.10566000000E+00  0.10566000000E+00 0. -1.
     999900   -1    0    0    0    0 -0.00000000000E+00 -0.00000000000E+00 -0.74505805969E-08  0.93827000000E+00  0.93827000000E+00 0. -1.
     999902    2    1    2    0    0 -0.19958263701E-01 -0.27395991533E-03  0.84200655641E-02  0.10222665550E+01  0.10220369879E+01 0.  0.
     999903    2    3    3    0    0  0.65635122450E-01  0.16916703607E-01 -0.10915264721E+00  0.13016505326E+00  0.20844580541E-01 0.  0.
         14    1    1    2    0    0  0.19958263701E-01  0.27395991533E-03 -0.84200655641E-02  0.21663444973E-01  0.00000000000E+00 0.  1.
     999901    1    3    3    0    0 -0.85593386151E-01 -0.17190663522E-01  0.11757271277E+00  0.89210150177E+00  0.88000000000E+00 0.  1.
        -11    1    4    4    0    0  0.16122705276E-01  0.11515194345E-01 -0.20737982315E-01  0.28685647242E-01  0.51100000000E-03 0.  1.
         11    1    4    4    0    0  0.49512417175E-01  0.54015092620E-02 -0.88414664893E-01  0.10147940602E+00  0.51100000000E-03 0. -1.
</event>
<event>
 8    1  0.1123361E+005  0.1043930E+01  0.7957747E-01            NaN
         13   -1    0    0    0    0  0.00000000000E+00  0.00000000000E+00  0.74505805969E-08  0.10566000000E+00  0.10566000000E+00 0.  1.
     999900   -1    0    0    0    0 -0.00000000000E+00 -0.00000000000E+00 -0.74505805969E-08  0.93827000000E+00  0.93827000000E+00 0. -1.
     999902    2    1    2    0    0 -0.95826557607E-02  0.16429406840E-01  0.10363682697E-01  0.10222699303E+01  0.10220404355E+01 0.  0.
     999903    2    3    3    0    0  0.12748806869E+00  0.87118268151E-02  0.24064640796E-01  0.13151987512E+00  0.19729851236E-01 0.  0.
         14    1    1    2    0    0  0.95826557607E-02 -0.16429406840E-01 -0.10363682697E-01  0.21660069704E-01  0.00000000000E+00 0. -1.
     999901    1    3    3    0    0 -0.13707072445E+00  0.77175800246E-02 -0.13700958099E-01  0.89075005518E+00  0.88000000000E+00 0.  1.
        -11    1    4    4    0    0  0.51100195542E-01  0.12321016163E-01  0.57341438499E-02  0.52878908370E-01  0.51100000000E-03 0.  1.
         11    1    4    4    0    0  0.76387873150E-01 -0.36091893481E-02  0.18330496946E-01  0.78640966750E-01  0.51100000000E-03 0. -1.
</event>
<event>
 8    1  0.1123361E+005  0.1043930E+01  0.7957747E-01            NaN
         13   -1    0    0    0    0  0.00000000000E+00  0.00000000000E+00  0.74505805969E-08  0.10566000000E+00  0.10566000000E+00 0. -1.
     999900   -1    0    0    0    0 -0.00000000000E+00 -0.00000000000E+00 -0.74505805969E-08  0.93827000000E+00  0.93827000000E+00 0.  1.
     999902    2    1    2    0    0 -0.63620103982E-02  0.63640283973E-03 -0.21873972251E-01  0.10211407296E+01  0.10208863985E+01 0.  0.
     999903    2    3    3    0    0  0.13474252323E-01  0.12749640721E+00 -0.21370016415E-01  0.13182234339E+00  0.21990072482E-01 0.  0.
         14    1    1    2    0    0  0.63620103982E-02 -0.63640283973E-03  0.21873972251E-01  0.22789270434E-01  0.00000000000E+00 0. -1.
     999901    1    3    3    0    0 -0.19836262721E-01 -0.12686000437E+00 -0.50395583620E-03  0.88931838618E+00  0.88000000000E+00 0.  1.
        -11    1    4    4    0    0 -0.29325258500E-02  0.62178831435E-01 -0.15920645191E-01  0.64253675776E-01  0.51100000000E-03 0.  1.
         11    1    4    4    0    0  0.16406778173E-01  0.65317575772E-01 -0.54493712235E-02  0.67568667610E-01  0.51100000000E-03 0. -1.
</event>
<event>
 8    1  0.1123361E+005  0.1043930E+01  0.7957747E-01            NaN
         13   -1    0    0    0    0  0.00000000000E+00  0.00000000000E+00  0.74505805969E-08  0.10566000000E+00  0.10566000000E+00 0.  1.
     999900   -1    0    0    0    0 -0.00000000000E+00 -0.00000000000E+00 -0.74505805969E-08  0.93827000000E+00  0.93827000000E+00 0.  1.
     999902    2    1    2    0    0 -0.90135030145E-02 -0.21694190428E-01 -0.40085345346E-02  0.10200983092E+01  0.10198198915E+01 0.  0.
     999903    2    3    3    0    0  0.97704144243E-01 -0.50006952336E-02  0.82560437011E-01  0.12927761132E+00  0.18037967599E-01 0.  0.
         14    1    1    2    0    0  0.90135030145E-02  0.21694190428E-01  0.40085345346E-02  0.23831690751E-01  0.00000000000E+00 0. -1.
     999901    1    3    3    0    0 -0.10671764726E+00 -0.16693495194E-01 -0.86568971546E-01  0.89082069793E+00  0.88000000000E+00 0.  1.
        -11    1    4    4    0    0  0.12651670912E-01 -0.28750159952E-02  0.19277757637E-01  0.23242709704E-01  0.51100000000E-03 0.  1.
         11    1    4    4    0    0  0.85052473331E-01 -0.21256792384E-02  0.63282679374E-01  0.10603490162E+00  0.51100000000E-03 0. -1.
</event>
<event>
 8    1  0.1123361E+005  0.1043930E+01  0.7957747E-01            NaN
         13   -1    0    0    0    0  0.00000000000E+00  0.00000000000E+00  0.74505805969E-08  0.10566000000E+00  0.10566000000E+00 0. -1.
     999900   -1    0    0    0    0 -0.00000000000E+00 -0.00000000000E+00 -0.74505805969E-08  0.93827000000E+00  0.93827000000E+00 0. -1.
     999902    2    1    2    0    0  0.54249222043E-02 -0.15905761535E-01 -0.16951110262E-01  0.10200602876E+01  0.10197809702E+01 0.  0.
     999903    2    3    3    0    0 -0.30707155989E-01 -0.12298577940E+00 -0.32120522799E-01  0.13270366911E+00  0.22585491954E-01 0.  0.
         14    1    1    2    0    0 -0.54249222043E-02  0.15905761535E-01  0.16951110262E-01  0.23869712399E-01  0.00000000000E+00 0.  1.
     999901    1    3    3    0    0  0.36132078193E-01  0.10708001787E+00  0.15169412538E-01  0.88735661849E+00  0.88000000000E+00 0.  1.
        -11    1    4    4    0    0  0.19768743208E-02 -0.27071371467E-01 -0.32662156310E-02  0.27344039034E-01  0.51100000000E-03 0.  1.
         11    1    4    4    0    0 -0.32684030310E-01 -0.95914407934E-01 -0.28854307168E-01  0.10535963008E+00  0.51100000000E-03 0. -1.
</event>
<event>
 8    1  0.1123361E+005  0.1043930E+01  0.7957747E-01            NaN
         13   -1    0    0    0    0  0.00000000000E+00  0.00000000000E+00  0.74505805969E-08  0.10566000000E+00  0.10566000000E+00 0.  1.
     999900   -1    0    0    0    0 -0.00000000000E+00 -0.00000000000E+00 -0.74505805969E-08  0.93827000000E+00  0.93827000000E+00 0. -1.
     999902    2    1    2    0    0 -0.37986261251E-02 -0.15819571781E-01  0.17478669495E-01  0.10200513003E+01  0.10197717700E+01 0.  0.
     999903    2    3    3    0    0 -0.14717451530E-01  0.76610014066E-01  0.10330675186E+00  0.13099061126E+00  0.20013935707E-01 0.  0.
         14    1    1    2    0    0  0.37986261251E-02  0.15819571781E-01 -0.17478669495E-01  0.23878699694E-01  0.00000000000E+00 0. -1.
     999901    1    3    3    0    0  0.10918825405E-01 -0.92429585847E-01 -0.85828082368E-01  0.88906068905E+00  0.88000000000E+00 0. -1.
        -11    1    4    4    0    0 -0.68551944352E-02  0.10906554373E-01  0.87607965054E-02  0.15587151614E-01  0.51100000000E-03 0. -1.
         11    1    4    4    0    0 -0.78622570947E-02  0.65703459693E-01  0.94545955358E-01  0.11540345964E+00  0.51100000000E-03 0.  1.
</event>
<event>
 8    1  0.1123361E+005  0.1043930E+01  0.7957747E-01            NaN
         13   -1    0    0    0    0  0.00000000000E+00  0.00000000000E+00  0.74505805969E-08  0.10566000000E+00  0.10566000000E+00 0. -1.
     999900   -1    0    0    0    0 -0.00000000000E+00 -0.00000000000E+00 -0.74505805969E-08  0.93827000000E+00  0.93827000000E+00 0.  1.
     999902    2    1    2    0    0 -0.15295570271E-01 -0.14809460591E-01  0.10226372802E-01  0.10203110819E+01  0.10200376711E+01 0.  0.
     999903    2    3    3    0    0 -0.12431905932E+00 -0.36652973535E-01  0.22942794421E-01  0.13322316763E+00  0.20575995664E-01 0.  0.
         14    1    1    2    0    0  0.15295570271E-01  0.14809460591E-01 -0.10226372802E-01  0.23618918129E-01  0.00000000000E+00 0.  1.
     999901    1    3    3    0    0  0.10902348905E+00  0.21843512944E-01 -0.12716421619E-01  0.88708791425E+00  0.88000000000E+00 0. -1.
        -11    1    4    4    0    0 -0.40712358924E-01 -0.22588156155E-02  0.88076632613E-02  0.41718514718E-01  0.51100000000E-03 0.  1.
         11    1    4    4    0    0 -0.83606700393E-01 -0.34394157920E-01  0.14135131160E-01  0.91504652907E-01  0.51100000000E-03 0. -1.
</event>
<event>
 8    1  0.1123361E+005  0.1043930E+01  0.7957747E-01            NaN
         13   -1    0    0    0    0  0.00000000000E+00  0.00000000000E+00  0.74505805969E-08  0.10566000000E+00  0.10566000000E+00 0. -1.
     999900   -1    0    0    0    0 -0.00000000000E+00 -0.00000000000E+00 -0.74505805969E-08  0.93827000000E+00  0.93827000000E+00 0.  1.
     999902    2    1    2    0    0 -0.81349019074E-02  0.20678046881E-01  0.81654088578E-02  0.10202565517E+01  0.10199818622E+01 0.  0.
     999903    2    3    3    0    0 -0.19327123420E-01  0.10253486191E+00  0.80951757835E-01  0.13339486206E+00  0.18816655383E-01 0.  0.
         14    1    1    2    0    0  0.81349019074E-02 -0.20678046881E-01 -0.81654088578E-02  0.23673448284E-01  0.00000000000E+00 0.  1.
     999901    1    3    3    0    0  0.11192221513E-01 -0.81856815028E-01 -0.72786348977E-01  0.88686168966E+00  0.88000000000E+00 0.  1.
        -11    1    4    4    0    0 -0.79811188980E-02  0.74172326637E-01  0.49401620758E-01  0.89476329563E-01  0.51100000000E-03 0.  1.
         11    1    4    4    0    0 -0.11346004522E-01  0.28362535272E-01  0.31550137077E-01  0.43918532493E-01  0.51100000000E-03 0. -1.
</event>
<event>
 8    1  0.1123361E+005  0.1043930E+01  0.7957747E-01            NaN
         13   -1    0    0    0    0  0.00000000000E+00  0.00000000000E+00  0.74505805969E-08  0.10566000000E+00  0.10566000000E+00 0. -1.
     999900   -1    0    0    0    0 -0.00000000000E+00 -0.00000000000E+00 -0.74505805969E-08  0.93827000000E+00  0.93827000000E+00 0.  1.
     999902    2    1    2    0    0  0.18189166152E-01 -0.14598772633E-01 -0.14390111618E-02  0.10205624866E+01  0.10202949321E+01 0.  0.
     999903    2    3    3    0    0 -0.11453295469E+00  0.53699661377E-01  0.44073890096E-03  0.12799127328E+00  0.19496677726E-01 0.  0.
         14    1    1    2    0    0 -0.18189166152E-01  0.14598772633E-01  0.14390111618E-02  0.23367513365E-01  0.00000000000E+00 0.  1.
     999901    1    3    3    0    0  0.13272212085E+00 -0.68298434011E-01 -0.18797500628E-02  0.89257121336E+00  0.88000000000E+00 0. -1.
        -11    1    4    4    0    0 -0.98777465920E-01  0.48085024165E-01 -0.60867760117E-02  0.11002939283E+00  0.51100000000E-03 0. -1.
         11    1    4    4    0    0 -0.15755488773E-01  0.56146372125E-02  0.65275149127E-02  0.17961880454E-01  0.51100000000E-03 0.  1.
</event>
<event>
 8    1  0.1123361E+005  0.1043930E+01  0.7957747E-01            NaN
         13   -1    0    0    0    0  0.00000000000E+00  0.00000000000E+00  0.74505805969E-08  0.10566000000E+00  0.10566000000E+00 0.  1.
     999900   -1    0    0    0    0 -0.00000000000E+00 -0.00000000000E+00 -0.74505805969E-08  0.93827000000E+00  0.93827000000E+00 0. -1.
     999902    2    1    2    0    0  0.22806605864E-01  0.82342385412E-03 -0.96561327004E-02  0.10191497620E+01  0.10188484564E+01 0.  0.
     999903    2    3    3    0    0  0.35357814506E-01 -0.29707958945E-01  0.11863475016E+00  0.12923501954E+00  0.22242941770E-01 0.  0.
         14    1    1    2    0    0 -0.22806605864E-01 -0.82342385412E-03  0.96561327004E-02  0.24780238026E-01  0.00000000000E+00 0.  1.
     999901    1    3    3    0    0 -0.12551208642E-01  0.30531382799E-01 -0.12829088286E+00  0.88991474243E+00  0.88000000000E+00 0. -1.
        -11    1    4    4    0    0  0.18092008310E-01 -0.17278920702E-01  0.90874839739E-01  0.94256986393E-01  0.51100000000E-03 0.  1.
         11    1    4    4    0    0  0.17265806196E-01 -0.12429038243E-01  0.27759910423E-01  0.34978033149E-01  0.51100000000E-03 0. -1.
</event>
<event>
 8    1  0.1123361E+005  0.1043930E+01  0.7957747E-01            NaN
         13   -1    0    0    0    0  0.00000000000E+00  0.00000000000E+00  0.74505805969E-08  0.10566000000E+00  0.10566000000E+00 0.  1.
     999900   -1    0    0    0    0 -0.00000000000E+00 -0.00000000000E+00 -0.74505805969E-08  0.93827000000E+00  0.93827000000E+00 0. -1.
     999902    2    1    2    0    0  0.16846582346E-01  0.84656780427E-02  0.14145313180E-01  0.10203595752E+01  0.10200872991E+01 0.  0.
     999903    2    3    3    0    0  0.11682102621E+00 -0.12352770948E-01 -0.55925697390E-01  0.13168739503E+00  0.20350510220E-01 0.  0.
         14    1    1    2    0    0 -0.16846582346E-01 -0.84656780427E-02 -0.14145313180E-01  0.23570424825E-01  0.00000000000E+00 0. -1.
     999901    1    3    3    0    0 -0.99974443863E-01  0.20818448991E-01  0.70071010571E-01  0.88867218015E+00  0.88000000000E+00 0. -1.
        -11    1    4    4    0    0  0.85996472755E-01 -0.17495812130E-01 -0.44611918381E-01  0.98447860063E-01  0.51100000000E-03 0. -1.
         11    1    4    4    0    0  0.30824553454E-01  0.51430411819E-02 -0.11313779009E-01  0.33239534965E-01  0.51100000000E-03 0.  1.
</event>
<event>
 8    1  0.1123361E+005  0.1043930E+01  0.7957747E-01            NaN
         13   -1    0    0    0    0  0.00000000000E+00  0.00000000000E+00  0.74505805969E-08  0.10566000000E+00  0.10566000000E+00 0. -1.
     999900   -1    0    0    0    0 -0.00000000000E+00 -0.00000000000E+00 -0.74505805969E-08  0.93827000000E+00  0.93827000000E+00 0. -1.
     999902    2    1    2    0    0  0.19912726522E-01  0.72648215959E-02  0.94674917563E-02  0.10207151834E+01  0.10204511541E+01 0.  0.
     999903    2    3    3    0    0  0.52798671762E-02 -0.12796947075E+00  0.10530330170E-01  0.13026385736E+00  0.21300756761E-01 0.  0.
         14    1    1    2    0    0 -0.19912726522E-01 -0.72648215959E-02 -0.94674917563E-02  0.23214816616E-01  0.00000000000E+00 0.  1.
     999901    1    3    3    0    0  0.14632859346E-01  0.13523429235E+00 -0.10628384141E-02  0.89045132603E+00  0.88000000000E+00 0.  1.
        -11    1    4    4    0    0  0.61575097219E-02 -0.12256856453E+00  0.55536702059E-02  0.12284979573E+00  0.51100000000E-03 0. -1.
         11    1    4    4    0    0 -0.87764254572E-03 -0.54009062233E-02  0.49766599644E-02  0.74140616313E-02  0.51100000000E-03 0.  1.
</event>
<event>
 8    1  0.1123361E+005  0.1043930E+01  0.7957747E-01            NaN
         13   -1    0    0    0    0  0.00000000000E+00  0.00000000000E+00  0.74505805969E-08  0.10566000000E+00  0.10566000000E+00 0.  1.
     999900   -1    0    0    0    0 -0.00000000000E+00 -0.00000000000E+00 -0.74505805969E-08  0.93827000000E+00  0.93827000000E+00 0. -1.
     999902    2    1    2    0    0  0.59287221620E-02  0.76784327940E-02  0.22000200435E-01  0.10198859385E+01  0.10196024767E+01 0.  0.
     999903    2    3    3    0    0 -0.58498715325E-01 -0.83806003200E-01 -0.73783348623E-01  0.12764449971E+00  0.20089547180E-01 0.  0.
         14    1    1    2    0    0 -0.59287221620E-02 -0.76784327940E-02 -0.22000200435E-01  0.24044061550E-01  0.00000000000E+00 0. -1.
     999901    1    3    3    0    0  0.64427437487E-01  0.91484435994E-01  0.95783549058E-01  0.89224143874E+00  0.88000000000E+00 0.  1.
        -11    1    4    4    0    0 -0.57612023447E-01 -0.71597091961E-01 -0.64596950886E-01  0.11233127796E+00  0.51100000000E-03 0.  1.
         11    1    4    4    0    0 -0.88669187780E-03 -0.12208911239E-01 -0.91863977363E-02  0.15313221754E-01  0.51100000000E-03 0. -1.
</event>
<event>
 8    1  0.1123361E+005  0.1043930E+01  0.7957747E-01            NaN
         13   -1    0    0    0    0  0.00000000000E+00  0.00000000000E+00  0.74505805969E-08  0.10566000000E+00  0.10566000000E+00 0. -1.
     999900   -1    0    0    0    0 -0.00000000000E+00 -0.00000000000E+00 -0.74505805969E-08  0.93827000000E+00  0.93827000000E+00 0.  1.
     999902    2    1    2    0    0  0.46907924284E-04 -0.17398759153E-01  0.16401597382E-01  0.10200190942E+01  0.10197388004E+01 0.  0.
     999903    2    3    3    0    0  0.34638094826E-01 -0.73065783037E-01 -0.99704215825E-01  0.12997643924E+00  0.20360202345E-01 0.  0.
         14    1    1    2    0    0 -0.46907924284E-04  0.17398759153E-01 -0.16401597382E-01  0.23910905819E-01  0.00000000000E+00 0.  1.
     999901    1    3    3    0    0 -0.34591186902E-01  0.55667023884E-01  0.11610581321E+00  0.89004265494E+00  0.88000000000E+00 0. -1.
        -11    1    4    4    0    0  0.86370504903E-02 -0.26072269921E-01 -0.48670056286E-01  0.55887363508E-01  0.51100000000E-03 0.  1.
         11    1    4    4    0    0  0.26001044336E-01 -0.46993513116E-01 -0.51034159539E-01  0.74089075729E-01  0.51100000000E-03 0. -1.
</event>
<event>
 8    1  0.1123361E+005  0.1043930E+01  0.7957747E-01            NaN
         13   -1    0    0    0    0  0.00000000000E+00  0.00000000000E+00  0.74505805969E-08  0.10566000000E+00  0.10566000000E+00 0.  1.
     999900   -1    0    0    0    0 -0.00000000000E+00 -0.00000000000E+00 -0.74505805969E-08  0.93827000000E+00  0.93827000000E+00 0. -1.
     999902    2    1    2    0    0  0.14679203537E-01 -0.15736982793E-01  0.95034327689E-02  0.10204045483E+01  0.10201333223E+01 0.  0.
     999903    2    3    3    0    0 -0.49402393318E-01 -0.11488890555E+00 -0.33250488626E-01  0.13149203705E+00  0.23334603704E-01 0.  0.
         14    1    1    2    0    0 -0.14679203537E-01  0.15736982793E-01 -0.95034327689E-02  0.23525451713E-01  0.00000000000E+00 0.  1.
     999901    1    3    3    0    0  0.64081596856E-01  0.99151922754E-01  0.42753921395E-01  0.88891251124E+00  0.88000000000E+00 0. -1.
        -11    1    4    4    0    0 -0.37566526037E-01 -0.90297942309E-01 -0.35636259990E-01  0.10409210542E+00  0.51100000000E-03 0. -1.
         11    1    4    4    0    0 -0.11835867281E-01 -0.24590963238E-01  0.23857713631E-02  0.27399931629E-01  0.51100000000E-03 0.  1.
</event>
<event>
 8    1  0.1123361E+005  0.1043930E+01  0.7957747E-01            NaN
         13   -1    0    0    0    0  0.00000000000E+00  0.00000000000E+00  0.74505805969E-08  0.10566000000E+00  0.10566000000E+00 0. -1.
     999900   -1    0    0    0    0 -0.00000000000E+00 -0.00000000000E+00 -0.74505805969E-08  0.93827000000E+00  0.93827000000E+00 0.  1.
     999902    2    1    2    0    0 -0.18059897082E-01  0.24737513787E-01  0.14998898973E-01  0.10098261668E+01  0.10092501254E+01 0.  0.
     999903    2    3    3    0    0 -0.66230232140E-01  0.70846204280E-01 -0.72737869458E-01  0.12295293284E+00  0.20518229212E-01 0.  0.
         14    1    1    2    0    0  0.18059897082E-01 -0.24737513787E-01 -0.14998898973E-01  0.34103833236E-01  0.00000000000E+00 0. -1.
     999901    1    3    3    0    0  0.48170335058E-01 -0.46108690493E-01  0.87736768432E-01  0.88687323393E+00  0.88000000000E+00 0.  1.
        -11    1    4    4    0    0 -0.11185940657E-01  0.57376560766E-02 -0.16766782608E-01  0.20962635465E-01  0.51100000000E-03 0. -1.
         11    1    4    4    0    0 -0.55044291484E-01  0.65108548203E-01 -0.55971086851E-01  0.10199029737E+00  0.51100000000E-03 0.  1.
</event>
<event>
 8    1  0.1123361E+005  0.1043930E+01  0.7957747E-01            NaN
         13   -1    0    0    0    0  0.00000000000E+00  0.00000000000E+00  0.74505805969E-08  0.10566000000E+00  0.10566000000E+00 0.  1.
     999900   -1    0    0    0    0 -0.00000000000E+00 -0.00000000000E+00 -0.74505805969E-08  0.93827000000E+00  0.93827000000E+00 0. -1.
     999902    2    1    2    0    0 -0.99860196777E-02  0.21748063866E-01  0.42915518127E-03  0.10199950246E+01  0.10197141596E+01 0.  0.
     999903    2    3    3    0    0 -0.47347037190E-01  0.12300261652E+00 -0.44500669541E-02  0.13338793192E+00  0.20028771440E-01 0.  0.
         14    1    1    2    0    0  0.99860196777E-02 -0.21748063866E-01 -0.42915518127E-03  0.23934975352E-01  0.00000000000E+00 0.  1.
     999901    1    3    3    0    0  0.37361017512E-01 -0.10125455265E+00  0.48792221354E-02  0.88660709273E+00  0.88000000000E+00 0. -1.
        -11    1    4    4    0    0 -0.39292583656E-01  0.11420324696E+00 -0.38663317800E-03  0.12077540872E+00  0.51100000000E-03 0.  1.
         11    1    4    4    0    0 -0.80544535342E-02  0.87993695643E-02 -0.40634337761E-02  0.12612523202E-01  0.51100000000E-03 0. -1.
</event>
<event>
 8    1  0.1123361E+005  0.1043930E+01  0.7957747E-01            NaN
         13   -1    0    0    0    0  0.00000000000E+00  0.00000000000E+00  0.74505805969E-08  0.10566000000E+00  0.10566000000E+00 0.  1.
     999900   -1    0    0    0    0 -0.00000000000E+00 -0.00000000000E+00 -0.74505805969E-08  0.93827000000E+00  0.93827000000E+00 0. -1.
     999902    2    1    2    0    0 -0.12233234611E-01  0.68630160279E-03  0.20487704015E-01  0.10200580697E+01  0.10197786998E+01 0.  0.
     999903    2    3    3    0    0 -0.42477298808E-02  0.69130411798E-01 -0.10632041673E+00  0.12830212554E+00  0.18982817537E-01 0.  0.
         14    1    1    2    0    0  0.12233234611E-01 -0.68630160279E-03 -0.20487704015E-01  0.23871930268E-01  0.00000000000E+00 0. -1.
     999901    1    3    3    0    0 -0.79855047304E-02 -0.68444110195E-01  0.12680812074E+00  0.89175594419E+00  0.88000000000E+00 0.  1.
        -11    1    4    4    0    0  0.49467137692E-02  0.52808357921E-02 -0.12266252735E-01  0.14250588792E-01  0.51100000000E-03 0.  1.
         11    1    4    4    0    0 -0.91944436499E-02  0.63849576006E-01 -0.94054163993E-01  0.11405153675E+00  0.51100000000E-03 0. -1.
</event>
<event>
 8    1  0.1123361E+005  0.1043930E+01  0.7957747E-01            NaN
         13   -1    0    0    0    0  0.00000000000E+00  0.00000000000E+00  0.74505805969E-08  0.10566000000E+00  0.10566000000E+00 0. -1.
     999900   -1    0    0    0    0 -0.00000000000E+00 -0.00000000000E+00 -0.74505805969E-08  0.93827000000E+00  0.93827000000E+00 0.  1.
     999902    2    1    2    0    0 -0.89098746093E-02 -0.54963196944E-03 -0.21237572853E-01  0.10208925856E+01  0.10206326219E+01 0.  0.
     999903    2    3    3    0    0  0.60335196264E-01 -0.15786917756E-01  0.11035633333E+00  0.12828740365E+00  0.19737653102E-01 0.  0.
         14    1    1    2    0    0  0.89098746093E-02  0.54963196944E-03  0.21237572853E-01  0.23037414385E-01  0.00000000000E+00 0. -1.
     999901    1    3    3    0    0 -0.69245070874E-01  0.15237285786E-01 -0.13159390618E+00  0.89260518196E+00  0.88000000000E+00 0.  1.
        -11    1    4    4    0    0  0.43735044430E-01 -0.20114147995E-01  0.77971551260E-01  0.91636002683E-01  0.51100000000E-03 0.  1.
         11    1    4    4    0    0  0.16600151834E-01  0.43272302393E-02  0.32384782069E-01  0.36651400971E-01  0.51100000000E-03 0. -1.
</event>
<event>
 8    1  0.1123361E+005  0.1043930E+01  0.7957747E-01            NaN
         13   -1    0    0    0    0  0.00000000000E+00  0.00000000000E+00  0.74505805969E-08  0.10566000000E+00  0.10566000000E+00 0.  1.
     999900   -1    0    0    0    0 -0.00000000000E+00 -0.00000000000E+00 -0.74505805969E-08  0.93827000000E+00  0.93827000000E+00 0.  1.
     999902    2    1    2    0    0 -0.22148858752E-01  0.38920317054E-02  0.68819668581E-02  0.10204123189E+01  0.10201412742E+01 0.  0.
     999903    2    3    3    0    0  0.34293751111E-01 -0.38664852931E-01  0.11791712386E+00  0.13062264563E+00  0.22063436557E-01 0.  0.
         14    1    1    2    0    0  0.22148858752E-01 -0.38920317054E-02 -0.68819668581E-02  0.23517681065E-01  0.00000000000E+00 0. -1.
     999901    1    3    3    0    0 -0.56442609863E-01  0.42556884636E-01 -0.11103515700E+00  0.88978967331E+00  0.88000000000E+00 0.  1.
        -11    1    4    4    0    0  0.10691666691E-01 -0.25786057667E-01  0.45611387516E-01  0.53477960869E-01  0.51100000000E-03 0.  1.
         11    1    4    4    0    0  0.23602084421E-01 -0.12878795263E-01  0.72305736347E-01  0.77144684756E-01  0.51100000000E-03 0. -1.
</event>
<event>
 8    1  0.1123361E+005  0.1043930E+01  0.7957747E-01            NaN
         13   -1    0    0    0    0  0.00000000000E+00  0.00000000000E+00  0.74505805969E-08  0.10566000000E+00  0.10566000000E+00 0.  1.
     999900   -1    0    0    0    0 -0.00000000000E+00 -0.00000000000E+00 -0.74505805969E-08  0.93827000000E+00  0.93827000000E+00 0. -1.
     999902    2    1    2    0    0 -0.22025257528E-01  0.12065826380E-01  0.15310689373E-01  0.10145171908E+01  0.10140907342E+01 0.  0.
     999903    2    3    3    0    0  0.10126307142E+00  0.40776181550E-01  0.56373207905E-01  0.12451133298E+00  0.20204624613E-01 0.  0.
         14    1    1    2    0    0  0.22025257528E-01 -0.12065826380E-01 -0.15310689373E-01  0.29412809191E-01  0.00000000000E+00 0.  1.
     999901    1    3    3    0    0 -0.12328832894E+00 -0.28710355169E-01 -0.41062518532E-01  0.89000585783E+00  0.88000000000E+00 0. -1.
        -11    1    4    4    0    0  0.15958840271E-01  0.96630268522E-02  0.22405132678E-02  0.18797332030E-01  0.51100000000E-03 0.  1.
         11    1    4    4    0    0  0.85304231146E-01  0.31113154698E-01  0.54132694637E-01  0.10571400095E+00  0.51100000000E-03 0. -1.
</event>
<event>
 8    1  0.1123361E+005  0.1043930E+01  0.7957747E-01            NaN
         13   -1    0    0    0    0  0.00000000000E+00  0.00000000000E+00  0.74505805969E-08  0.10566000000E+00  0.10566000000E+00 0. -1.
     999900   -1    0    0    0    0 -0.00000000000E+00 -0.00000000000E+00 -0.74505805969E-08  0.93827000000E+00  0.93827000000E+00 0. -1.
     999902    2    1    2    0    0 -0.20025399204E-01  0.13599229833E-01 -0.27645193432E-02  0.10195661285E+01  0.10192749836E+01 0.  0.
     999903    2    3    3    0    0  0.12008100667E+00  0.35513398301E-01 -0.18852159004E-01  0.12806803662E+00  0.19114614380E-01 0.  0.
         14    1    1    2    0    0  0.20025399204E-01 -0.13599229833E-01  0.27645193432E-02  0.24363871460E-01  0.00000000000E+00 0. -1.
     999901    1    3    3    0    0 -0.14010640587E+00 -0.21914168468E-01  0.16087639661E-01  0.89149809192E+00  0.88000000000E+00 0.  1.
        -11    1    4    4    0    0  0.42825013625E-01  0.20902007125E-01 -0.22650299982E-02  0.47710241833E-01  0.51100000000E-03 0.  1.
         11    1    4    4    0    0  0.77255993045E-01  0.14611391176E-01 -0.16587129006E-01  0.80357794788E-01  0.51100000000E-03 0. -1.
</event>
<event>
 8    1  0.1123361E+005  0.1043930E+01  0.7957747E-01            NaN
         13   -1    0    0    0    0  0.00000000000E+00  0.00000000000E+00  0.74505805969E-08  0.10566000000E+00  0.10566000000E+00 0.  1.
     999900   -1    0    0    0    0 -0.00000000000E+00 -0.00000000000E+00 -0.74505805969E-08  0.93827000000E+00  0.93827000000E+00 0. -1.
     999902    2    1    2    0    0  0.50100645906E-03 -0.12296320381E-01 -0.19979876490E-01  0.10204641532E+01  0.10201943158E+01 0.  0.
     999903    2    3    3    0    0  0.80398687346E-01 -0.10190748956E+00  0.67319162017E-02  0.13191065399E+00  0.22494812431E-01 0.  0.
         14    1    1    2    0    0 -0.50100645906E-03  0.12296320381E-01  0.19979876490E-01  0.23465846819E-01  0.00000000000E+00 0. -1.
     999901    1    3    3    0    0 -0.79897680887E-01  0.89611169174E-01 -0.26711792692E-01  0.88855349919E+00  0.88000000000E+00 0. -1.
        -11    1    4    4    0    0  0.55708470701E-01 -0.53758342359E-01  0.32156417639E-03  0.77419361956E-01  0.51100000000E-03 0. -1.
         11    1    4    4    0    0  0.24690216645E-01 -0.48149147196E-01  0.64103520253E-02  0.54491292036E-01  0.51100000000E-03 0.  1.
</event>
<event>
 8    1  0.1123361E+005  0.1043930E+01  0.7957747E-01            NaN
         13   -1    0    0    0    0  0.00000000000E+00  0.00000000000E+00  0.74505805969E-08  0.10566000000E+00  0.10566000000E+00 0.  1.
     999900   -1    0    0    0    0 -0.00000000000E+00 -0.00000000000E+00 -0.74505805969E-08  0.93827000000E+00  0.93827000000E+00 0.  1.
     999902    2    1    2    0    0  0.75751305598E-02  0.17415454129E-01  0.90818660559E-02  0.10228786120E+01  0.10226619647E+01 0.  0.
     999903    2    3    3    0    0 -0.12544647597E+00 -0.24290059603E-01  0.24934770178E-01  0.13176390993E+00  0.20326334329E-01 0.  0.
         14    1    1    2    0    0 -0.75751305598E-02 -0.17415454129E-01 -0.90818660559E-02  0.21051387996E-01  0.00000000000E+00 0. -1.
     999901    1    3    3    0    0  0.13302160653E+00  0.41705513732E-01 -0.15852904122E-01  0.89111470207E+00  0.88000000000E+00 0.  1.
        -11    1    4    4    0    0 -0.82239510822E-01 -0.22787114438E-01  0.95506742167E-02  0.85872383358E-01  0.51100000000E-03 0.  1.
         11    1    4    4    0    0 -0.43206965150E-01 -0.15029451649E-02  0.15384095962E-01  0.45891526573E-01  0.51100000000E-03 0. -1.
</event>
<event>
 8    1  0.1123361E+005  0.1043930E+01  0.7957747E-01            NaN
         13   -1    0    0    0    0  0.00000000000E+00  0.00000000000E+00  0.74505805969E-08  0.10566000000E+00  0.10566000000E+00 0.  1.
     999900   -1    0    0    0    0 -0.00000000000E+00 -0.00000000000E+00 -0.74505805969E-08  0.93827000000E+00  0.93827000000E+00 0.  1.
     999902    2    1    2    0    0 -0.16808022370E-01  0.20302233127E-01  0.27638842245E-02  0.10174285030E+01  0.10170832952E+01 0.  0.
     999903    2    3    3    0    0 -0.11539224483E+00  0.37638674039E-01 -0.43709315959E-01  0.13053552220E+00  0.19924314395E-01 0.  0.
         14    1    1    2    0    0  0.16808022370E-01 -0.20302233127E-01 -0.27638842245E-02  0.26501496975E-01  0.00000000000E+00 0. -1.
     999901    1    3    3    0    0  0.98584222459E-01 -0.17336440912E-01  0.46473200183E-01  0.88689298083E+00  0.88000000000E+00 0. -1.
        -11    1    4    4    0    0 -0.79493704034E-01  0.23353593232E-01 -0.39115010324E-01  0.91623602045E-01  0.51100000000E-03 0.  1.
         11    1    4    4    0    0 -0.35898540795E-01  0.14285080807E-01 -0.45943056344E-02  0.38911920155E-01  0.51100000000E-03 0. -1.
</event>
<event>
 8    1  0.1123361E+005  0.1043930E+01  0.7957747E-01            NaN
         13   -1    0    0    0    0  0.00000000000E+00  0.00000000000E+00  0.74505805969E-08  0.10566000000E+00  0.10566000000E+00 0.  1.
     999900   -1    0    0    0    0 -0.00000000000E+00 -0.00000000000E+00 -0.74505805969E-08  0.93827000000E+00  0.93827000000E+00 0.  1.
     999902    2    1    2    0    0 -0.80738740661E-02  0.20663225605E-01 -0.93221338771E-02  0.10198663653E+01  0.10195824364E+01 0.  0.
     999903    2    3    3    0    0  0.73228795602E-02 -0.12330592119E+00  0.23950081402E-01  0.12741400492E+00  0.20068569555E-01 0.  0.
         14    1    1    2    0    0  0.80738740661E-02 -0.20663225605E-01  0.93221338771E-02  0.24063634698E-01  0.00000000000E+00 0.  1.
     999901    1    3    3    0    0 -0.15396753626E-01  0.14396914679E+00 -0.33272215279E-01  0.89245236039E+00  0.88000000000E+00 0.  1.
        -11    1    4    4    0    0  0.39690870750E-02 -0.98525242287E-01  0.10913380752E-01  0.99208568281E-01  0.51100000000E-03 0. -1.
         11    1    4    4    0    0  0.33537924851E-02 -0.24780678903E-01  0.13036700650E-01  0.28205436634E-01  0.51100000000E-03 0.  1.
</event>
<event>
 8    1  0.1123361E+005  0.1043930E+01  0.7957747E-01            NaN
         13   -1    0    0    0    0  0.00000000000E+00  0.00000000000E+00  0.74505805969E-08  0.10566000000E+00  0.10566000000E+00 0. -1.
     999900   -1    0    0    0    0 -0.00000000000E+00 -0.00000000000E+00 -0.74505805969E-08  0.93827000000E+00  0.93827000000E+00 0.  1.
     999902    2    1    2    0    0 -0.18956420806E-01  0.97235217963E-02  0.12108284047E-01  0.10194248310E+01  0.10191302580E+01 0.  0.
     999903    2    3    3    0    0  0.26822027524E-01 -0.56376129236E-01  0.11268666241E+00  0.13005379458E+00  0.17833016919E-01 0.  0.
         14    1    1    2    0    0  0.18956420806E-01 -0.97235217963E-02 -0.12108284047E-01  0.24505169016E-01  0.00000000000E+00 0.  1.
     999901    1    3    3    0    0 -0.45778448331E-01  0.66099651033E-01 -0.10057837836E+00  0.88937103640E+00  0.88000000000E+00 0.  1.
        -11    1    4    4    0    0  0.27717254001E-01 -0.46083464361E-01  0.10115611704E+00  0.11456331434E+00  0.51100000000E-03 0.  1.
         11    1    4    4    0    0 -0.89522647660E-03 -0.10292664875E-01  0.11530545370E-01  0.15490480244E-01  0.51100000000E-03 0. -1.
</event>
<event>
 8    1  0.1123361E+005  0.1043930E+01  0.7957747E-01            NaN
         13   -1    0    0    0    0  0.00000000000E+00  0.00000000000E+00  0.74505805969E-08  0.10566000000E+00  0.10566000000E+00 0.  1.
     999900   -1    0    0    0    0 -0.00000000000E+00 -0.00000000000E+00 -0.74505805969E-08  0.93827000000E+00  0.93827000000E+00 0. -1.
     999902    2    1    2    0    0  0.10953637056E-01 -0.17872819617E-01  0.10675849103E-01  0.10204056807E+01  0.10201344811E+01 0.  0.
     999903    2    3    3    0    0 -0.46024896502E-01 -0.12239318170E+00 -0.34938665609E-04  0.13232585298E+00  0.20291577611E-01 0.  0.
         14    1    1    2    0    0 -0.10953637056E-01  0.17872819617E-01 -0.10675849103E-01  0.23524319329E-01  0.00000000000E+00 0. -1.
     999901    1    3    3    0    0  0.56978533558E-01  0.10452036208E+00  0.10710787769E-01  0.88807982769E+00  0.88000000000E+00 0. -1.
        -11    1    4    4    0    0 -0.12386700690E-01 -0.47594702652E-01 -0.83611534523E-02  0.49888436361E-01  0.51100000000E-03 0.  1.
         11    1    4    4    0    0 -0.33638195811E-01 -0.74798479047E-01  0.83262147867E-02  0.82437416620E-01  0.51100000000E-03 0. -1.
</event>
<event>
 8    1  0.1123361E+005  0.1043930E+01  0.7957747E-01            NaN
         13   -1    0    0    0    0  0.00000000000E+00  0.00000000000E+00  0.74505805969E-08  0.10566000000E+00  0.10566000000E+00 0.  1.
     999900   -1    0    0    0    0 -0.00000000000E+00 -0.00000000000E+00 -0.74505805969E-08  0.93827000000E+00  0.93827000000E+00 0.  1.
     999902    2    1    2    0    0 -0.86264416418E-03 -0.20055832996E-01  0.11674391405E-01  0.10207077691E+01  0.10204435692E+01 0.  0.
     999903    2    3    3    0    0 -0.56792053954E-01 -0.11148806119E+00 -0.39464389015E-01  0.13273078401E+00  0.20127042561E-01 0.  0.
         14    1    1    2    0    0  0.86264416418E-03  0.20055832996E-01 -0.11674391405E-01  0.23222230874E-01  0.00000000000E+00 0.  1.
     999901    1    3    3    0    0  0.55929409790E-01  0.91432228199E-01  0.51138780420E-01  0.88797698512E+00  0.88000000000E+00 0. -1.
        -11    1    4    4    0    0 -0.24681844486E-01 -0.67577546397E-01 -0.27552258029E-01  0.77040938908E-01  0.51100000000E-03 0. -1.
         11    1    4    4    0    0 -0.32110209468E-01 -0.43910514798E-01 -0.11912130985E-01  0.55689845102E-01  0.51100000000E-03 0.  1.
</event>
<event>
 8    1  0.1123361E+005  0.1043930E+01  0.7957747E-01            NaN
         13   -1    0    0    0    0  0.00000000000E+00  0.00000000000E+00  0.74505805969E-08  0.10566000000E+00  0.10566000000E+00 0.  1.
     999900   -1    0    0    0    0 -0.00000000000E+00 -0.00000000000E+00 -0.74505805969E-08  0.93827000000E+00  0.93827000000E+00 0.  1.
     999902    2    1    2    0    0  0.35009770935E-02 -0.25553416162E-01  0.95362887621E-03  0.10181202475E+01  0.10177930511E+01 0.  0.
     999903    2    3    3    0    0 -0.62527640353E-01  0.71234471960E-01 -0.81210021683E-01  0.12656063696E+00  0.20939708722E-01 0.  0.
         14    1    1    2    0    0 -0.35009770935E-02  0.25553416162E-01 -0.95362887621E-03  0.25809752540E-01  0.00000000000E+00 0.  1.
     999901    1    3    3    0    0  0.66028617447E-01 -0.96787888122E-01  0.82163650559E-01  0.89155961050E+00  0.88000000000E+00 0.  1.
        -11    1    4    4    0    0 -0.40435589651E-01  0.43165882802E-01 -0.63174660471E-01  0.86542643796E-01  0.51100000000E-03 0.  1.
         11    1    4    4    0    0 -0.22092050702E-01  0.28068589157E-01 -0.18035361212E-01  0.40017993160E-01  0.51100000000E-03 0. -1.
</event>
<event>
 8    1  0.1123361E+005  0.1043930E+01  0.7957747E-01            NaN
         13   -1    0    0    0    0  0.00000000000E+00  0.00000000000E+00  0.74505805969E-08  0.10566000000E+00  0.10566000000E+00 0.  1.
     999900   -1    0    0    0    0 -0.00000000000E+00 -0.00000000000E+00 -0.74505805969E-08  0.93827000000E+00  0.93827000000E+00 0. -1.
     999902    2    1    2    0    0  0.21843648408E-01 -0.12059125827E-01  0.16071865199E-01  0.10142505064E+01  0.10138161654E+01 0.  0.
     999903    2    3    3    0    0  0.39740891056E-01 -0.89970610559E-01  0.80029248124E-01  0.12831537467E+00  0.19649570840E-01 0.  0.
         14    1    1    2    0    0 -0.21843648408E-01  0.12059125827E-01 -0.16071865199E-01  0.29679493635E-01  0.00000000000E+00 0. -1.
     999901    1    3    3    0    0 -0.17897242648E-01  0.77911484732E-01 -0.63957382925E-01  0.88593513170E+00  0.88000000000E+00 0. -1.
        -11    1    4    4    0    0  0.63732069062E-02 -0.37172915784E-01  0.33215482601E-01  0.50259057289E-01  0.51100000000E-03 0. -1.
         11    1    4    4    0    0  0.33367684150E-01 -0.52797694774E-01  0.46813765523E-01  0.78056317377E-01  0.51100000000E-03 0.  1.
</event>
<event>
 8    1  0.1123361E+005  0.1043930E+01  0.7957747E-01            NaN
         13   -1    0    0    0    0  0.00000000000E+00  0.00000000000E+00  0.74505805969E-08  0.10566000000E+00  0.10566000000E+00 0.  1.
     999900   -1    0    0    0    0 -0.00000000000E+00 -0.00000000000E+00 -0.74505805969E-08  0.93827000000E+00  0.93827000000E+00 0.  1.
     999902    2    1    2    0    0 -0.21744010274E-01 -0.60743030614E-02  0.49049649491E-02  0.10208268006E+01  0.10205653331E+01 0.  0.
     999903    2    3    3    0    0 -0.56232620439E-01 -0.10757175481E+00 -0.49592759581E-01  0.13264821558E+00  0.20057847853E-01 0.  0.
         14    1    1    2    0    0  0.21744010274E-01  0.60743030614E-02 -0.49049649491E-02  0.23103199381E-01  0.00000000000E+00 0. -1.
     999901    1    3    3    0    0  0.34488610165E-01  0.10149745174E+00  0.54497724530E-01  0.88817858504E+00  0.88000000000E+00 0. -1.
        -11    1    4    4    0    0 -0.11253322795E-01 -0.27827096012E-01 -0.37440375328E-02  0.30253321875E-01  0.51100000000E-03 0.  1.
         11    1    4    4    0    0 -0.44979297644E-01 -0.79744658793E-01 -0.45848722048E-01  0.10239489371E+00  0.51100000000E-03 0. -1.
</event>
<event>
 8    1  0.1123361E+005  0.1043930E+01  0.7957747E-01            NaN
         13   -1    0    0    0    0  0.00000000000E+00  0.00000000000E+00  0.74505805969E-08  0.10566000000E+00  0.10566000000E+00 0. -1.
     999900   -1    0    0    0    0 -0.00000000000E+00 -0.00000000000E+00 -0.74505805969E-08  0.93827000000E+00  0.93827000000E+00 0. -1.
     999902    2    1    2    0    0  0.32359689880E-02  0.95617202229E-02  0.21344788675E-01  0.10203186046E+01  0.10200453700E+01 0.  0.
     999903    2    3    3    0    0 -0.47247968722E-01  0.10114374948E+00  0.69165852986E-01  0.13283747791E+00  0.19986288081E-01 0.  0.
         14    1    1    2    0    0 -0.32359689880E-02 -0.95617202229E-02 -0.21344788675E-01  0.23611395395E-01  0.00000000000E+00 0.  1.
     999901    1    3    3    0    0  0.50483937710E-01 -0.91582029254E-01 -0.47821064311E-01  0.88748112670E+00  0.88000000000E+00 0. -1.
        -11    1    4    4    0    0 -0.19399608790E-01  0.22885866399E-01  0.13926885019E-01  0.33080612893E-01  0.51100000000E-03 0. -1.
         11    1    4    4    0    0 -0.27848359933E-01  0.78257883078E-01  0.55238967967E-01  0.99756865016E-01  0.51100000000E-03 0.  1.
</event>
<event>
 8    1  0.1123361E+005  0.1043930E+01  0.7957747E-01            NaN
         13   -1    0    0    0    0  0.00000000000E+00  0.00000000000E+00  0.74505805969E-08  0.10566000000E+00  0.10566000000E+00 0.  1.
     999900   -1    0    0    0    0 -0.00000000000E+00 -0.00000000000E+00 -0.74505805969E-08  0.93827000000E+00  0.93827000000E+00 0.  1.
     999902    2    1    2    0    0  0.59213986968E-02  0.19365117435E-01  0.97252320182E-02  0.10214655642E+01  0.10212185114E+01 0.  0.
     999903    2    3    3    0    0 -0.37509535652E-01  0.69166572294E-02 -0.12311932403E+00  0.13034891291E+00  0.19433623874E-01 0.  0.
         14    1    1    2    0    0 -0.59213986968E-02 -0.19365117435E-01 -0.97252320182E-02  0.22464435751E-01  0.00000000000E+00 0. -1.
     999901    1    3    3    0    0  0.43430934349E-01  0.12448460206E-01  0.13284455604E+00  0.89111665134E+00  0.88000000000E+00 0. -1.
        -11    1    4    4    0    0 -0.14958396753E-01 -0.67577280610E-02 -0.46074596863E-01  0.48913700729E-01  0.51100000000E-03 0.  1.
         11    1    4    4    0    0 -0.22551138899E-01  0.13674385290E-01 -0.77044727162E-01  0.81435212183E-01  0.51100000000E-03 0. -1.
</event>
<event>
 8    1  0.1123361E+005  0.1043930E+01  0.7957747E-01            NaN
         13   -1    0    0    0    0  0.00000000000E+00  0.00000000000E+00  0.74505805969E-08  0.10566000000E+00  0.10566000000E+00 0. -1.
     999900   -1    0    0    0    0 -0.00000000000E+00 -0.00000000000E+00 -0.74505805969E-08  0.93827000000E+00  0.93827000000E+00 0. -1.
     999902    2    1    2    0    0  0.15837642869E-01  0.18518319403E-01  0.19587173795E-02  0.10194842302E+01  0.10191911009E+01 0.  0.
     999903    2    3    3    0    0  0.53923030568E-01  0.10109536400E-01  0.11761680550E+00  0.13105978341E+00  0.18249875040E-01 0.  0.
         14    1    1    2    0    0 -0.15837642869E-01 -0.18518319403E-01 -0.19587173795E-02  0.24445769755E-01  0.00000000000E+00 0. -1.
     999901    1    3    3    0    0 -0.38085387699E-01  0.84087830027E-02 -0.11565808812E+00  0.88842444684E+00  0.88000000000E+00 0. -1.
        -11    1    4    4    0    0  0.26596337490E-01  0.27783499403E-02  0.77355252260E-01  0.81848522098E-01  0.51100000000E-03 0.  1.
         11    1    4    4    0    0  0.27326693078E-01  0.73311864601E-02  0.40261553240E-01  0.49211261311E-01  0.51100000000E-03 0. -1.
</event>
<event>
 8    1  0.1475289E+005  0.1043930E+01  0.7957747E-01            NaN
         13   -1    0    0    0    0  0.00000000000E+00  0.00000000000E+00  0.74505805969E-08  0.10566000000E+00  0.10566000000E+00 0. -1.
     999900   -1    0    0    0    0 -0.00000000000E+00 -0.00000000000E+00 -0.74505805969E-08  0.93827000000E+00  0.93827000000E+00 0.  1.
     999902    2    1    2    0    0  0.17987016718E-01 -0.73959713984E-02 -0.11792554024E-01  0.10211858251E+01  0.10209325109E+01 0.  0.
     999903    2    3    3    0    0 -0.67466392382E-01  0.83907971534E-01 -0.70748588428E-01  0.13039151147E+00  0.20107752540E-01 0.  0.
         14    1    1    2    0    0 -0.17987016718E-01  0.73959713984E-02  0.11792554024E-01  0.22744174941E-01  0.00000000000E+00 0. -1.
     999901    1    3    3    0    0  0.85453409100E-01 -0.91303942932E-01  0.58956034404E-01  0.89079431358E+00  0.88000000000E+00 0. -1.
        -11    1    4    4    0    0 -0.13359800732E-01  0.28847959761E-01 -0.26647468834E-01  0.41485392299E-01  0.51100000000E-03 0. -1.
         11    1    4    4    0    0 -0.54106591651E-01  0.55060011773E-01 -0.44101119594E-01  0.88906119176E-01  0.51100000000E-03 0.  1.
</event>
<event>
 8    1  0.1123361E+005  0.1043930E+01  0.7957747E-01            NaN
         13   -1    0    0    0    0  0.00000000000E+00  0.00000000000E+00  0.74505805969E-08  0.10566000000E+00  0.10566000000E+00 0.  1.
     999900   -1    0    0    0    0 -0.00000000000E+00 -0.00000000000E+00 -0.74505805969E-08  0.93827000000E+00  0.93827000000E+00 0.  1.
     999902    2    1    2    0    0 -0.15938782859E-01  0.17422725810E-01  0.10640848046E-02  0.10202925625E+01  0.10200187178E+01 0.  0.
     999903    2    3    3    0    0  0.12661835027E+00  0.23469038107E-02  0.11137148119E-01  0.12863607979E+00  0.19633908728E-01 0.  0.
         14    1    1    2    0    0  0.15938782859E-01 -0.17422725810E-01 -0.10640848046E-02  0.23637437470E-01  0.00000000000E+00 0.  1.
     999901    1    3    3    0    0 -0.14255713313E+00  0.15075822000E-01 -0.10073063314E-01  0.89165648274E+00  0.88000000000E+00 0. -1.
        -11    1    4    4    0    0  0.10277944968E+00 -0.49789676831E-02  0.12481660184E-01  0.10365547915E+00  0.51100000000E-03 0. -1.
         11    1    4    4    0    0  0.23838900586E-01  0.73258714938E-02 -0.13445120650E-02  0.24980600633E-01  0.51100000000E-03 0.  1.
</event>
<event>
 8    1  0.1123361E+005  0.1043930E+01  0.7957747E-01            NaN
         13   -1    0    0    0    0  0.00000000000E+00  0.00000000000E+00  0.74505805969E-08  0.10566000000E+00  0.10566000000E+00 0. -1.
     999900   -1    0    0    0    0 -0.00000000000E+00 -0.00000000000E+00 -0.74505805969E-08  0.93827000000E+00  0.93827000000E+00 0. -1.
     999902    2    1    2    0    0 -0.13352736132E-01  0.73493201975E-02 -0.16079590631E-01  0.10217746100E+01  0.10215343814E+01 0.  0.
     999903    2    3    3    0    0  0.63244473491E-01  0.10481787135E+00  0.42873821225E-01  0.13113284381E+00  0.19261583415E-01 0.  0.
         14    1    1    2    0    0  0.13352736132E-01 -0.73493201975E-02  0.16079590631E-01  0.22155389963E-01  0.00000000000E+00 0. -1.
     999901    1    3    3    0    0 -0.76597209624E-01 -0.97468551156E-01 -0.58953411856E-01  0.89064176623E+00  0.88000000000E+00 0.  1.
        -11    1    4    4    0    0  0.17565538773E-01  0.34450875373E-01  0.22710290223E-01  0.44848961742E-01  0.51100000000E-03 0.  1.
         11    1    4    4    0    0  0.45678934719E-01  0.70366995980E-01  0.20163531002E-01  0.86283882063E-01  0.51100000000E-03 0. -1.
</event>
<event>
 8    1  0.1123361E+005  0.1043930E+01  0.7957747E-01            NaN
         13   -1    0    0    0    0  0.00000000000E+00  0.00000000000E+00  0.74505805969E-08  0.10566000000E+00  0.10566000000E+00 0.  1.
     999900   -1    0    0    0    0 -0.00000000000E+00 -0.00000000000E+00 -0.74505805969E-08  0.93827000000E+00  0.93827000000E+00 0.  1.
     999902    2    1    2    0    0  0.41555716507E-02 -0.21805080744E-01  0.12670144980E-01  0.10183709919E+01  0.10180502022E+01 0.  0.
     999903    2    3    3    0    0  0.65794006000E-01  0.23198827613E-03 -0.10762206715E+00  0.12777841090E+00  0.20393820406E-01 0.  0.
         14    1    1    2    0    0 -0.41555716507E-02  0.21805080744E-01 -0.12670144980E-01  0.25559008115E-01  0.00000000000E+00 0. -1.
     999901    1    3    3    0    0 -0.61638434349E-01 -0.22037069020E-01  0.12029221213E+00  0.89059258098E+00  0.88000000000E+00 0. -1.
        -11    1    4    4    0    0  0.59669791377E-02  0.35966358384E-03 -0.25360948073E-01  0.26060947912E-01  0.51100000000E-03 0. -1.
         11    1    4    4    0    0  0.59827026862E-01 -0.12767530770E-03 -0.82261119080E-01  0.10171746299E+00  0.51100000000E-03 0.  1.
</event>
<event>
 8    1  0.1123361E+005  0.1043930E+01  0.7957747E-01            NaN
         13   -1    0    0    0    0  0.00000000000E+00  0.00000000000E+00  0.74505805969E-08  0.10566000000E+00  0.10566000000E+00 0. -1.
     999900   -1    0    0    0    0 -0.00000000000E+00 -0.00000000000E+00 -0.74505805969E-08  0.93827000000E+00  0.93827000000E+00 0. -1.
     999902    2    1    2    0    0 -0.33510523651E-02 -0.15528344318E-01  0.18096288425E-01  0.10198502433E+01  0.10195659292E+01 0.  0.
     999903    2    3    3    0    0 -0.11422715822E+00 -0.35286710107E-01 -0.47486048028E-01  0.13025204930E+00  0.20437123196E-01 0.  0.
         14    1    1    2    0    0  0.33510523651E-02  0.15528344318E-01 -0.18096288425E-01  0.24079756725E-01  0.00000000000E+00 0.  1.
     999901    1    3    3    0    0  0.11087610585E+00  0.19758365789E-01  0.65582336452E-01  0.88959819397E+00  0.88000000000E+00 0.  1.
        -11    1    4    4    0    0 -0.91818798367E-01 -0.23481257169E-01 -0.29776594727E-01  0.99342679078E-01  0.51100000000E-03 0.  1.
         11    1    4    4    0    0 -0.22408359853E-01 -0.11805452937E-01 -0.17709453301E-01  0.30909370223E-01  0.51100000000E-03 0. -1.
</event>
<event>
 8    1  0.1123361E+005  0.1043930E+01  0.7957747E-01            NaN
         13   -1    0    0    0    0  0.00000000000E+00  0.00000000000E+00  0.74505805969E-08  0.10566000000E+00  0.10566000000E+00 0.  1.
     999900   -1    0    0    0    0 -0.00000000000E+00 -0.00000000000E+00 -0.74505805969E-08  0.93827000000E+00  0.93827000000E+00 0. -1.
     999902    2    1    2    0    0  0.16718971528E-01  0.17568199323E-01 -0.57027580010E-02  0.10190164076E+01  0.10187118100E+01 0.  0.
     999903    2    3    3    0    0  0.15197884934E-01 -0.11928294212E+00  0.38454584425E-01  0.12734358673E+00  0.16680468543E-01 0.  0.
         14    1    1    2    0    0 -0.16718971528E-01 -0.17568199323E-01  0.57027580010E-02  0.24913592379E-01  0.00000000000E+00 0. -1.
     999901    1    3    3    0    0  0.15210865942E-02  0.13685114145E+00 -0.44157342426E-01  0.89167282089E+00  0.88000000000E+00 0. -1.
        -11    1    4    4    0    0 -0.34599862010E-02 -0.19741709712E-01  0.80165567192E-02  0.21592427133E-01  0.51100000000E-03 0. -1.
         11    1    4    4    0    0  0.18657871135E-01 -0.99541232411E-01  0.30438027706E-01  0.10575115960E+00  0.51100000000E-03 0.  1.
</event>
<event>
 8    1  0.1123361E+005  0.1043930E+01  0.7957747E-01            NaN
         13   -1    0    0    0    0  0.00000000000E+00  0.00000000000E+00  0.74505805969E-08  0.10566000000E+00  0.10566000000E+00 0. -1.
     999900   -1    0    0    0    0 -0.00000000000E+00 -0.00000000000E+00 -0.74505805969E-08  0.93827000000E+00  0.93827000000E+00 0. -1.
     999902    2    1    2    0    0 -0.17614200942E-01 -0.12384774395E-01  0.73108361769E-02  0.10211903642E+01  0.10209371523E+01 0.  0.
     999903    2    3    3    0    0  0.16752200972E-02  0.68135735476E-01 -0.10852396892E+00  0.12974584188E+00  0.20279221936E-01 0.  0.
         14    1    1    2    0    0  0.17614200942E-01  0.12384774395E-01 -0.73108361769E-02  0.22739635821E-01  0.00000000000E+00 0. -1.
     999901    1    3    3    0    0 -0.19289421040E-01 -0.80520509871E-01  0.11583480510E+00  0.89144452230E+00  0.88000000000E+00 0.  1.
        -11    1    4    4    0    0 -0.80638446607E-02  0.20453875556E-01 -0.27291768228E-01  0.35049798144E-01  0.51100000000E-03 0.  1.
         11    1    4    4    0    0  0.97390647579E-02  0.47681859920E-01 -0.81232200693E-01  0.94696043731E-01  0.51100000000E-03 0. -1.
</event>
<event>
 8    1  0.1123361E+005  0.1043930E+01  0.7957747E-01            NaN
         13   -1    0    0    0    0  0.00000000000E+00  0.00000000000E+00  0.74505805969E-08  0.10566000000E+00  0.10566000000E+00 0. -1.
     999900   -1    0    0    0    0 -0.00000000000E+00 -0.00000000000E+00 -0.74505805969E-08  0.93827000000E+00  0.93827000000E+00 0. -1.
     999902    2    1    2    0    0  0.24993487031E-02 -0.14799935069E-01 -0.17731181228E-01  0.10206989946E+01  0.10204345927E+01 0.  0.
     999903    2    3    3    0    0  0.12865173829E+00 -0.19738284194E-01 -0.30717430312E-02  0.13156812024E+00  0.18970108894E-01 0.  0.
         14    1    1    2    0    0 -0.24993487031E-02  0.14799935069E-01  0.17731181228E-01  0.23231005353E-01  0.00000000000E+00 0.  1.
     999901    1    3    3    0    0 -0.12615238959E+00  0.49383491255E-02 -0.14659438196E-01  0.88913087440E+00  0.88000000000E+00 0. -1.
        -11    1    4    4    0    0  0.54533407392E-01 -0.55831146542E-02  0.76448138871E-02  0.55351314270E-01  0.51100000000E-03 0.  1.
         11    1    4    4    0    0  0.74118330897E-01 -0.14155169540E-01 -0.10716556918E-01  0.76216805973E-01  0.51100000000E-03 0. -1.
</event>
<event>
 8    1  0.1123361E+005  0.1043930E+01  0.7957747E-01            NaN
         13   -1    0    0    0    0  0.00000000000E+00  0.00000000000E+00  0.74505805969E-08  0.10566000000E+00  0.10566000000E+00 0.  1.
     999900   -1    0    0    0    0 -0.00000000000E+00 -0.00000000000E+00 -0.74505805969E-08  0.93827000000E+00  0.93827000000E+00 0.  1.
     999902    2    1    2    0    0 -0.91035922760E-02  0.19884395509E-01 -0.10782184421E-01  0.10195472176E+01  0.10192556151E+01 0.  0.
     999903    2    3    3    0    0  0.67233078586E-01 -0.13222920903E-01 -0.10891530265E+00  0.13019155723E+00  0.19803179802E-01 0.  0.
         14    1    1    2    0    0  0.91035922760E-02 -0.19884395509E-01  0.10782184421E-01  0.24382782408E-01  0.00000000000E+00 0.  1.
     999901    1    3    3    0    0 -0.76336670862E-01  0.33107316412E-01  0.98133118228E-01  0.88935566036E+00  0.88000000000E+00 0. -1.
        -11    1    4    4    0    0  0.40011566903E-01 -0.50325229581E-02 -0.80269133879E-01  0.89831212549E-01  0.51100000000E-03 0.  1.
         11    1    4    4    0    0  0.27221511683E-01 -0.81903979447E-02 -0.28646168770E-01  0.40360344684E-01  0.51100000000E-03 0. -1.
</event>
<event>
 8    1  0.1123361E+005  0.1043930E+01  0.7957747E-01            NaN
         13   -1    0    0    0    0  0.00000000000E+00  0.00000000000E+00  0.74505805969E-08  0.10566000000E+00  0.10566000000E+00 0.  1.
     999900   -1    0    0    0    0 -0.00000000000E+00 -0.00000000000E+00 -0.74505805969E-08  0.93827000000E+00  0.93827000000E+00 0. -1.
     999902    2    1    2    0    0  0.10527541049E-01  0.92368383556E-02 -0.19541365470E-01  0.10198880935E+01  0.10196046832E+01 0.  0.
     999903    2    3    3    0    0  0.43653237093E-01  0.33115668857E-02  0.11899791353E+00  0.12841428435E+00  0.20326175708E-01 0.  0.
         14    1    1    2    0    0 -0.10527541049E-01 -0.92368383556E-02  0.19541365470E-01  0.24041906492E-01  0.00000000000E+00 0.  1.
     999901    1    3    3    0    0 -0.33125696044E-01  0.59252714699E-02 -0.13853927900E+00  0.89147380915E+00  0.88000000000E+00 0. -1.
        -11    1    4    4    0    0  0.23142999892E-01  0.11714564750E-01  0.59051165121E-01  0.64499075144E-01  0.51100000000E-03 0.  1.
         11    1    4    4    0    0  0.20510237201E-01 -0.84029978642E-02  0.59946748405E-01  0.63915209211E-01  0.51100000000E-03 0. -1.
</event>
<event>
 8    1  0.1123361E+005  0.1043930E+01  0.7957747E-01            NaN
         13   -1    0    0    0    0  0.00000000000E+00  0.00000000000E+00  0.74505805969E-08  0.10566000000E+00  0.10566000000E+00 0.  1.
     999900   -1    0    0    0    0 -0.00000000000E+00 -0.00000000000E+00 -0.74505805969E-08  0.93827000000E+00  0.93827000000E+00 0. -1.
     999902    2    1    2    0    0 -0.11269670621E-01  0.20534734933E-01 -0.88079571384E-04  0.10205058976E+01  0.10202370305E+01 0.  0.
     999903    2    3    3    0    0  0.12699274961E+00  0.15994264777E-03  0.14798602641E-02  0.12947610718E+00  0.25193021043E-01 0.  0.
         14    1    1    2    0    0  0.11269670621E-01 -0.20534734933E-01  0.88079571384E-04  0.23424102388E-01  0.00000000000E+00 0.  1.
     999901    1    3    3    0    0 -0.13826242023E+00  0.20374792285E-01 -0.15679398354E-02  0.89102979044E+00  0.88000000000E+00 0.  1.
        -11    1    4    4    0    0  0.88705462677E-01  0.50802995916E-02  0.11494671882E-01  0.89592729367E-01  0.51100000000E-03 0.  1.
         11    1    4    4    0    0  0.38287286929E-01 -0.49203569439E-02 -0.10014811618E-01  0.39883377810E-01  0.51100000000E-03 0. -1.
</event>
<event>
 8    1  0.1123361E+005  0.1043930E+01  0.7957747E-01            NaN
         13   -1    0    0    0    0  0.00000000000E+00  0.00000000000E+00  0.74505805969E-08  0.10566000000E+00  0.10566000000E+00 0. -1.
     999900   -1    0    0    0    0 -0.00000000000E+00 -0.00000000000E+00 -0.74505805969E-08  0.93827000000E+00  0.93827000000E+00 0.  1.
     999902    2    1    2    0    0 -0.23486045746E-01 -0.21569409118E-02  0.31249805284E-02  0.10201389882E+01  0.10198615313E+01 0.  0.
     999903    2    3    3    0    0 -0.64889794384E-01 -0.23043275957E-01 -0.11042095599E+00  0.13163283229E+00  0.19817594037E-01 0.  0.
         14    1    1    2    0    0  0.23486045746E-01  0.21569409118E-02 -0.31249805284E-02  0.23791011794E-01  0.00000000000E+00 0.  1.
     999901    1    3    3    0    0  0.41403748639E-01  0.20886335045E-01  0.11354593652E+00  0.88850615591E+00  0.88000000000E+00 0. -1.
        -11    1    4    4    0    0 -0.23845376928E-01 -0.12203435821E-01 -0.60059117293E-01  0.65763854340E-01  0.51100000000E-03 0.  1.
         11    1    4    4    0    0 -0.41044417456E-01 -0.10839840136E-01 -0.50361838700E-01  0.65868977955E-01  0.51100000000E-03 0. -1.
</event>
<event>
 8    1  0.1123361E+005  0.1043930E+01  0.7957747E-01            NaN
         13   -1    0    0    0    0  0.00000000000E+00  0.00000000000E+00  0.74505805969E-08  0.10566000000E+00  0.10566000000E+00 0.  1.
     999900   -1    0    0    0    0 -0.00000000000E+00 -0.00000000000E+00 -0.74505805969E-08  0.93827000000E+00  0.93827000000E+00 0.  1.
     999902    2    1    2    0    0 -0.20319297870E-02 -0.22312386624E-01 -0.70649080491E-02  0.10204377830E+01  0.10201673317E+01 0.  0.
     999903    2    3    3    0    0  0.12174304807E+00 -0.25506664990E-02  0.41754925842E-01  0.13021637966E+00  0.19620296773E-01 0.  0.
         14    1    1    2    0    0  0.20319297870E-02  0.22312386624E-01  0.70649080491E-02  0.23492217036E-01  0.00000000000E+00 0. -1.
     999901    1    3    3    0    0 -0.12377497786E+00 -0.19761720125E-01 -0.48819833891E-01  0.89022140331E+00  0.88000000000E+00 0.  1.
        -11    1    4    4    0    0  0.41669722008E-01  0.93641589958E-03  0.24083363882E-01  0.48140545737E-01  0.51100000000E-03 0.  1.
         11    1    4    4    0    0  0.80073326063E-01 -0.34870823986E-02  0.17671561960E-01  0.82075833919E-01  0.51100000000E-03 0. -1.
</event>
<event>
 8    1  0.1123361E+005  0.1043930E+01  0.7957747E-01            NaN
         13   -1    0    0    0    0  0.00000000000E+00  0.00000000000E+00  0.74505805969E-08  0.10566000000E+00  0.10566000000E+00 0. -1.
     999900   -1    0    0    0    0 -0.00000000000E+00 -0.00000000000E+00 -0.74505805969E-08  0.93827000000E+00  0.93827000000E+00 0.  1.
     999902    2    1    2    0    0  0.18617287663E-01 -0.64886092775E-02 -0.15493050758E-01  0.10188553101E+01  0.10185467112E+01 0.  0.
     999903    2    3    3    0    0 -0.69821966954E-01 -0.46737867063E-02 -0.10736245546E+00  0.12966197746E+00  0.19712437829E-01 0.  0.
         14    1    1    2    0    0 -0.18617287663E-01  0.64886092775E-02  0.15493050758E-01  0.25074689870E-01  0.00000000000E+00 0. -1.
     999901    1    3    3    0    0  0.88439254617E-01 -0.18148225712E-02  0.91869404704E-01  0.88919333267E+00  0.88000000000E+00 0. -1.
        -11    1    4    4    0    0 -0.23927465404E-01 -0.82931191393E-02 -0.26824408303E-01  0.36893216551E-01  0.51100000000E-03 0. -1.
         11    1    4    4    0    0 -0.45894501550E-01  0.36193324330E-02 -0.80538047159E-01  0.92768760912E-01  0.51100000000E-03 0.  1.
</event>
<event>
 8    1  0.1123361E+005  0.1043930E+01  0.7957747E-01            NaN
         13   -1    0    0    0    0  0.00000000000E+00  0.00000000000E+00  0.74505805969E-08  0.10566000000E+00  0.10566000000E+00 0.  1.
     999900   -1    0    0    0    0 -0.00000000000E+00 -0.00000000000E+00 -0.74505805969E-08  0.93827000000E+00  0.93827000000E+00 0. -1.
     999902    2    1    2    0    0 -0.80237498999E-02 -0.44683511586E-02  0.21617257811E-01  0.10204427149E+01  0.10201723785E+01 0.  0.
     999903    2    3    3    0    0  0.11056895293E+00 -0.57355714137E-01  0.36088221947E-01  0.13079631825E+00  0.17033666922E-01 0.  0.
         14    1    1    2    0    0  0.80237498999E-02  0.44683511586E-02 -0.21617257811E-01  0.23487285067E-01  0.00000000000E+00 0. -1.
     999901    1    3    3    0    0 -0.11859270283E+00  0.52887362978E-01 -0.14470964136E-01  0.88964639668E+00  0.88000000000E+00 0.  1.
        -11    1    4    4    0    0  0.19611293454E-01 -0.32614118836E-02  0.60460012895E-02  0.20785930122E-01  0.51100000000E-03 0. -1.
         11    1    4    4    0    0  0.90957659474E-01 -0.54094302253E-01  0.30042220658E-01  0.11001038813E+00  0.51100000000E-03 0.  1.
</event>
<event>
 8    1  0.1123361E+005  0.1043930E+01  0.7957747E-01            NaN
         13   -1    0    0    0    0  0.00000000000E+00  0.00000000000E+00  0.74505805969E-08  0.10566000000E+00  0.10566000000E+00 0.  1.
     999900   -1    0    0    0    0 -0.00000000000E+00 -0.00000000000E+00 -0.74505805969E-08  0.93827000000E+00  0.93827000000E+00 0. -1.
     999902    2    1    2    0    0 -0.11426811906E-01 -0.20287052611E-01  0.10944684660E-01  0.10182021424E+01  0.10178770457E+01 0.  0.
     999903    2    3    3    0    0 -0.12022143561E+00  0.42076729484E-01 -0.73147160253E-02  0.12912457708E+00  0.19899914328E-01 0.  0.
         14    1    1    2    0    0  0.11426811906E-01  0.20287052611E-01 -0.10944684660E-01  0.25727857592E-01  0.00000000000E+00 0. -1.
     999901    1    3    3    0    0  0.10879462370E+00 -0.62363782095E-01  0.18259400685E-01  0.88907756533E+00  0.88000000000E+00 0. -1.
        -11    1    4    4    0    0 -0.63010206131E-01  0.32500098981E-01 -0.33159913758E-02  0.70977457198E-01  0.51100000000E-03 0.  1.
         11    1    4    4    0    0 -0.57211229478E-01  0.95766305027E-02 -0.39987246496E-02  0.58147119877E-01  0.51100000000E-03 0. -1.
</event>
<event>
 8    1  0.1123361E+005  0.1043930E+01  0.7957747E-01            NaN
         13   -1    0    0    0    0  0.00000000000E+00  0.00000000000E+00  0.74505805969E-08  0.10566000000E+00  0.10566000000E+00 0.  1.
     999900   -1    0    0    0    0 -0.00000000000E+00 -0.00000000000E+00 -0.74505805969E-08  0.93827000000E+00  0.93827000000E+00 0. -1.
     999902    2    1    2    0    0  0.12874693015E-01  0.16530202041E-01 -0.10321113947E-01  0.10205734015E+01  0.10203060997E+01 0.  0.
     999903    2    3    3    0    0  0.11699272567E+00 -0.49761982202E-01  0.25367227689E-01  0.13124282398E+00  0.20435994530E-01 0.  0.
         14    1    1    2    0    0 -0.12874693015E-01 -0.16530202041E-01  0.10321113947E-01  0.23356598486E-01  0.00000000000E+00 0.  1.
     999901    1    3    3    0    0 -0.10411803265E+00  0.66292184243E-01 -0.35688341636E-01  0.88933057754E+00  0.88000000000E+00 0. -1.
        -11    1    4    4    0    0  0.39833098703E-01 -0.22026258922E-01  0.36791425312E-03  0.45521734548E-01  0.51100000000E-03 0. -1.
         11    1    4    4    0    0  0.77159626966E-01 -0.27735723280E-01  0.24999313436E-01  0.85721089427E-01  0.51100000000E-03 0.  1.
</event>
<event>
 8    1  0.1123361E+005  0.1043930E+01  0.7957747E-01            NaN
         13   -1    0    0    0    0  0.00000000000E+00  0.00000000000E+00  0.74505805969E-08  0.10566000000E+00  0.10566000000E+00 0.  1.
     999900   -1    0    0    0    0 -0.00000000000E+00 -0.00000000000E+00 -0.74505805969E-08  0.93827000000E+00  0.93827000000E+00 0. -1.
     999902    2    1    2    0    0 -0.12051711676E-01 -0.21493799360E-01  0.63095754536E-02  0.10184930602E+01  0.10181753659E+01 0.  0.
     999903    2    3    3    0    0  0.43725777546E-01 -0.86540976604E-01  0.84067646581E-01  0.13091851052E+00  0.25903724470E-01 0.  0.
         14    1    1    2    0    0  0.12051711676E-01  0.21493799360E-01 -0.63095754536E-02  0.25436939825E-01  0.00000000000E+00 0.  1.
     999901    1    3    3    0    0 -0.55777489222E-01  0.65047177244E-01 -0.77758071128E-01  0.88757454966E+00  0.88000000000E+00 0. -1.
        -11    1    4    4    0    0 -0.33847147493E-02 -0.39430267549E-02  0.34993431115E-02  0.62857200969E-02  0.51100000000E-03 0. -1.
         11    1    4    4    0    0  0.47110492296E-01 -0.82597949849E-01  0.80568303470E-01  0.12463279042E+00  0.51100000000E-03 0.  1.
</event>
<event>
 8    1  0.1123361E+005  0.1043930E+01  0.7957747E-01            NaN
         13   -1    0    0    0    0  0.00000000000E+00  0.00000000000E+00  0.74505805969E-08  0.10566000000E+00  0.10566000000E+00 0. -1.
     999900   -1    0    0    0    0 -0.00000000000E+00 -0.00000000000E+00 -0.74505805969E-08  0.93827000000E+00  0.93827000000E+00 0. -1.
     999902    2    1    2    0    0 -0.79275111313E-02  0.21941528282E-01 -0.11175988423E-01  0.10180615093E+01  0.10177328028E+01 0.  0.
     999903    2    3    3    0    0 -0.85420255009E-01  0.80032662396E-01 -0.56257767094E-01  0.13160109165E+00  0.21261795526E-01 0.  0.
         14    1    1    2    0    0  0.79275111313E-02 -0.21941528282E-01  0.11175988423E-01  0.25868490743E-01  0.00000000000E+00 0. -1.
     999901    1    3    3    0    0  0.77492743878E-01 -0.58091134115E-01  0.45081778671E-01  0.88646041761E+00  0.88000000000E+00 0.  1.
        -11    1    4    4    0    0 -0.33719083085E-01  0.18263595037E-01 -0.16094582203E-01  0.41591251064E-01  0.51100000000E-03 0. -1.
         11    1    4    4    0    0 -0.51701171924E-01  0.61769067359E-01 -0.40163184891E-01  0.90009840586E-01  0.51100000000E-03 0.  1.
</event>
<event>
 8    1  0.1123361E+005  0.1043930E+01  0.7957747E-01            NaN
         13   -1    0    0    0    0  0.00000000000E+00  0.00000000000E+00  0.74505805969E-08  0.10566000000E+00  0.10566000000E+00 0.  1.
     999900   -1    0    0    0    0 -0.00000000000E+00 -0.00000000000E+00 -0.74505805969E-08  0.93827000000E+00  0.93827000000E+00 0. -1.
     999902    2    1    2    0    0  0.42877510129E-02 -0.17480074004E-01 -0.15266264706E-01  0.10203292239E+01  0.10200562379E+01 0.  0.
     999903    2    3    3    0    0 -0.94156564480E-01 -0.80876027410E-01  0.37374998158E-01  0.13101407573E+00  0.19010710308E-01 0.  0.
         14    1    1    2    0    0 -0.42877510129E-02  0.17480074004E-01  0.15266264706E-01  0.23600776132E-01  0.00000000000E+00 0.  1.
     999901    1    3    3    0    0  0.98444315493E-01  0.63395953406E-01 -0.52641262864E-01  0.88931514814E+00  0.88000000000E+00 0. -1.
        -11    1    4    4    0    0 -0.19716055106E-01 -0.17575053171E-01  0.16327893925E-01  0.31055861990E-01  0.51100000000E-03 0. -1.
         11    1    4    4    0    0 -0.74440509374E-01 -0.63300974239E-01  0.21047104233E-01  0.99958213735E-01  0.51100000000E-03 0.  1.
</event>
<event>
 8    1  0.1123361E+005  0.1043930E+01  0.7957747E-01            NaN
         13   -1    0    0    0    0  0.00000000000E+00  0.00000000000E+00  0.74505805969E-08  0.10566000000E+00  0.10566000000E+00 0.  1.
     999900   -1    0    0    0    0 -0.00000000000E+00 -0.00000000000E+00 -0.74505805969E-08  0.93827000000E+00  0.93827000000E+00 0. -1.
     999902    2    1    2    0    0 -0.67973665549E-02 -0.21708171465E-01  0.67017180598E-02  0.10202158286E+01  0.10199401821E+01 0.  0.
     999903    2    3    3    0    0  0.14519526518E-01 -0.10469587727E+00  0.78369168472E-01  0.13315461724E+00  0.20405444311E-01 0.  0.
         14    1    1    2    0    0  0.67973665549E-02  0.21708171465E-01 -0.67017180598E-02  0.23714171404E-01  0.00000000000E+00 0. -1.
     999901    1    3    3    0    0 -0.21316893073E-01  0.82987705804E-01 -0.71667450412E-01  0.88706121136E+00  0.88000000000E+00 0.  1.
        -11    1    4    4    0    0  0.28421769409E-02 -0.21415795405E-01  0.27105244902E-01  0.34665107599E-01  0.51100000000E-03 0.  1.
         11    1    4    4    0    0  0.11677349577E-01 -0.83280081864E-01  0.51263923570E-01  0.98489509640E-01  0.51100000000E-03 0. -1.
</event>
<event>
 8    1  0.1123361E+005  0.1043930E+01  0.7957747E-01            NaN
         13   -1    0    0    0    0  0.00000000000E+00  0.00000000000E+00  0.74505805969E-08  0.10566000000E+00  0.10566000000E+00 0.  1.
     999900   -1    0    0    0    0 -0.00000000000E+00 -0.00000000000E+00 -0.74505805969E-08  0.93827000000E+00  0.93827000000E+00 0.  1.
     999902    2    1    2    0    0  0.19889188758E-01  0.10368495910E-01  0.93533485450E-02  0.10196283403E+01  0.10193386982E+01 0.  0.
     999903    2    3    3    0    0  0.10600066935E+00  0.43315279672E-01  0.64547250736E-01  0.13309179590E+00  0.20850016887E-01 0.  0.
         14    1    1    2    0    0 -0.19889188758E-01 -0.10368495910E-01 -0.93533485450E-02  0.24301659735E-01  0.00000000000E+00 0. -1.
     999901    1    3    3    0    0 -0.86111480589E-01 -0.32946783762E-01 -0.55193902191E-01  0.88653654436E+00  0.88000000000E+00 0.  1.
        -11    1    4    4    0    0  0.87072650490E-01  0.39756837874E-01  0.60988804813E-01  0.11349955090E+00  0.51100000000E-03 0.  1.
         11    1    4    4    0    0  0.18928018857E-01  0.35584417982E-02  0.35584459231E-02  0.19592245003E-01  0.51100000000E-03 0. -1.
</event>
<event>
 8    1  0.1123361E+005  0.1043930E+01  0.7957747E-01            NaN
         13   -1    0    0    0    0  0.00000000000E+00  0.00000000000E+00  0.74505805969E-08  0.10566000000E+00  0.10566000000E+00 0. -1.
     999900   -1    0    0    0    0 -0.00000000000E+00 -0.00000000000E+00 -0.74505805969E-08  0.93827000000E+00  0.93827000000E+00 0.  1.
     999902    2    1    2    0    0 -0.19785916736E-01 -0.50688016632E-02 -0.10518141381E-01  0.10209559592E+01  0.10206974401E+01 0.  0.
     999903    2    3    3    0    0 -0.74142880158E-01 -0.10646616991E+00  0.20838362790E-01  0.13291354126E+00  0.19988998800E-01 0.  0.
         14    1    1    2    0    0  0.19785916736E-01  0.50688016632E-02  0.10518141381E-01  0.22974040774E-01  0.00000000000E+00 0. -1.
     999901    1    3    3    0    0  0.54356963422E-01  0.10139736824E+00 -0.31356504171E-01  0.88804241797E+00  0.88000000000E+00 0. -1.
        -11    1    4    4    0    0 -0.36056532419E-01 -0.58892151490E-01  0.20264968120E-01  0.71967277919E-01  0.51100000000E-03 0. -1.
         11    1    4    4    0    0 -0.38086347740E-01 -0.47574018415E-01  0.57339467043E-03  0.60946263337E-01  0.51100000000E-03 0.  1.
</event>
<event>
 8    1  0.1123361E+005  0.1043930E+01  0.7957747E-01            NaN
         13   -1    0    0    0    0  0.00000000000E+00  0.00000000000E+00  0.74505805969E-08  0.10566000000E+00  0.10566000000E+00 0. -1.
     999900   -1    0    0    0    0 -0.00000000000E+00 -0.00000000000E+00 -0.74505805969E-08  0.93827000000E+00  0.93827000000E+00 0. -1.
     999902    2    1    2    0    0 -0.10198519355E-01 -0.87200125608E-02 -0.19475980306E-01  0.10202791602E+01  0.10200050012E+01 0.  0.
     999903    2    3    3    0    0 -0.72751776623E-01 -0.10763766315E+00  0.11842443608E-01  0.13197827912E+00  0.19983372030E-01 0.  0.
         14    1    1    2    0    0  0.10198519355E-01  0.87200125608E-02  0.19475980306E-01  0.23650839836E-01  0.00000000000E+00 0. -1.
     999901    1    3    3    0    0  0.62553257268E-01  0.98917650590E-01 -0.31318423913E-01  0.88830088105E+00  0.88000000000E+00 0.  1.
        -11    1    4    4    0    0 -0.21073769593E-01 -0.41816023399E-01  0.11797766519E-01  0.48292152505E-01  0.51100000000E-03 0.  1.
         11    1    4    4    0    0 -0.51678007029E-01 -0.65821639752E-01  0.44677088414E-04  0.83686126611E-01  0.51100000000E-03 0. -1.
</event>
<event>
 8    1  0.1123361E+005  0.1043930E+01  0.7957747E-01            NaN
         13   -1    0    0    0    0  0.00000000000E+00  0.00000000000E+00  0.74505805969E-08  0.10566000000E+00  0.10566000000E+00 0.  1.
     999900   -1    0    0    0    0 -0.00000000000E+00 -0.00000000000E+00 -0.74505805969E-08  0.93827000000E+00  0.93827000000E+00 0.  1.
     999902    2    1    2    0    0  0.15497230097E-01 -0.15755533666E-01  0.81461746904E-02  0.10203766320E+01  0.10201047544E+01 0.  0.
     999903    2    3    3    0    0 -0.27239226640E-01 -0.12490290634E+00 -0.25214127760E-01  0.13197781195E+00  0.20968527099E-01 0.  0.
         14    1    1    2    0    0 -0.15497230097E-01  0.15755533666E-01 -0.81461746904E-02  0.23553367994E-01  0.00000000000E+00 0. -1.
     999901    1    3    3    0    0  0.42736456737E-01  0.10914737267E+00  0.33360302450E-01  0.88839882006E+00  0.88000000000E+00 0.  1.
        -11    1    4    4    0    0 -0.26938219811E-01 -0.76042902648E-01 -0.14979108856E-01  0.82053796700E-01  0.51100000000E-03 0.  1.
         11    1    4    4    0    0 -0.30100682871E-03 -0.48860003691E-01 -0.10235018904E-01  0.49924015251E-01  0.51100000000E-03 0. -1.
</event>
<event>
 8    1  0.1123361E+005  0.1043930E+01  0.7957747E-01            NaN
         13   -1    0    0    0    0  0.00000000000E+00  0.00000000000E+00  0.74505805969E-08  0.10566000000E+00  0.10566000000E+00 0. -1.
     999900   -1    0    0    0    0 -0.00000000000E+00 -0.00000000000E+00 -0.74505805969E-08  0.93827000000E+00  0.93827000000E+00 0.  1.
     999902    2    1    2    0    0  0.17389943268E-01 -0.98590675872E-03  0.17892730167E-01  0.10189593786E+01  0.10186533676E+01 0.  0.
     999903    2    3    3    0    0 -0.71078006693E-01 -0.10122703826E+00 -0.26019648432E-01  0.12777861155E+00  0.18744469951E-01 0.  0.
         14    1    1    2    0    0 -0.17389943268E-01  0.98590675872E-03 -0.17892730167E-01  0.24970621374E-01  0.00000000000E+00 0.  1.
     999901    1    3    3    0    0  0.88467949961E-01  0.10024113150E+00  0.43912378599E-01  0.89118076708E+00  0.88000000000E+00 0.  1.
        -11    1    4    4    0    0 -0.30419878467E-01 -0.28125651864E-01 -0.96817412592E-02  0.42549013309E-01  0.51100000000E-03 0. -1.
         11    1    4    4    0    0 -0.40658128226E-01 -0.73101386399E-01 -0.16337907173E-01  0.85229598239E-01  0.51100000000E-03 0.  1.
</event>
<event>
 8    1  0.1123361E+005  0.1043930E+01  0.7957747E-01            NaN
         13   -1    0    0    0    0  0.00000000000E+00  0.00000000000E+00  0.74505805969E-08  0.10566000000E+00  0.10566000000E+00 0.  1.
     999900   -1    0    0    0    0 -0.00000000000E+00 -0.00000000000E+00 -0.74505805969E-08  0.93827000000E+00  0.93827000000E+00 0. -1.
     999902    2    1    2    0    0 -0.82126003787E-02 -0.88505532342E-03 -0.22826183769E-01  0.10196552231E+01  0.10193662292E+01 0.  0.
     999903    2    3    3    0    0 -0.11649865877E+00 -0.56571477244E-01 -0.78835885214E-02  0.13114516172E+00  0.19095364419E-01 0.  0.
         14    1    1    2    0    0  0.82126003787E-02  0.88505532342E-03  0.22826183769E-01  0.24274776896E-01  0.00000000000E+00 0.  1.
     999901    1    3    3    0    0  0.10828605839E+00  0.55686421920E-01 -0.14942595248E-01  0.88851006138E+00  0.88000000000E+00 0. -1.
        -11    1    4    4    0    0 -0.71392975159E-01 -0.44481509420E-01 -0.27454453319E-02  0.84162700607E-01  0.51100000000E-03 0.  1.
         11    1    4    4    0    0 -0.45105683609E-01 -0.12089967823E-01 -0.51381431895E-02  0.46982461113E-01  0.51100000000E-03 0. -1.
</event>
<event>
 8    1  0.1123361E+005  0.1043930E+01  0.7957747E-01            NaN
         13   -1    0    0    0    0  0.00000000000E+00  0.00000000000E+00  0.74505805969E-08  0.10566000000E+00  0.10566000000E+00 0. -1.
     999900   -1    0    0    0    0 -0.00000000000E+00 -0.00000000000E+00 -0.74505805969E-08  0.93827000000E+00  0.93827000000E+00 0.  1.
     999902    2    1    2    0    0 -0.51890181776E-02 -0.51831114106E-03  0.23180019907E-01  0.10201706255E+01  0.10198939147E+01 0.  0.
     999903    2    3    3    0    0 -0.11225481806E+00  0.64029445944E-01 -0.60584019462E-02  0.13085381814E+00  0.19624050601E-01 0.  0.
         14    1    1    2    0    0  0.51890181776E-02  0.51831114106E-03 -0.23180019907E-01  0.23759374549E-01  0.00000000000E+00 0.  1.
     999901    1    3    3    0    0  0.10706579989E+00 -0.64547757085E-01  0.29238421853E-01  0.88931680731E+00  0.88000000000E+00 0.  1.
        -11    1    4    4    0    0 -0.71654250809E-01  0.49112219222E-01  0.17935411377E-02  0.86889698162E-01  0.51100000000E-03 0. -1.
         11    1    4    4    0    0 -0.40600567254E-01  0.14917226722E-01 -0.78519430840E-02  0.43964119980E-01  0.51100000000E-03 0.  1.
</event>
<event>
 8    1  0.1123361E+005  0.1043930E+01  0.7957747E-01            NaN
         13   -1    0    0    0    0  0.00000000000E+00  0.00000000000E+00  0.74505805969E-08  0.10566000000E+00  0.10566000000E+00 0.  1.
     999900   -1    0    0    0    0 -0.00000000000E+00 -0.00000000000E+00 -0.74505805969E-08  0.93827000000E+00  0.93827000000E+00 0. -1.
     999902    2    1    2    0    0 -0.22585971726E-01  0.12827756691E-02 -0.15290227253E-02  0.10212560162E+01  0.10210042806E+01 0.  0.
     999903    2    3    3    0    0  0.57081546259E-01 -0.10806002440E+00 -0.40523577081E-01  0.13006392878E+00  0.18417205933E-01 0.  0.
         14    1    1    2    0    0  0.22585971726E-01 -0.12827756691E-02  0.15290227253E-02  0.22673983830E-01  0.00000000000E+00 0.  1.
     999901    1    3    3    0    0 -0.79667517985E-01  0.10934280007E+00  0.38994554355E-01  0.89119208739E+00  0.88000000000E+00 0. -1.
        -11    1    4    4    0    0  0.41626661817E-01 -0.65682381157E-01 -0.18845647512E-01  0.80014834372E-01  0.51100000000E-03 0. -1.
         11    1    4    4    0    0  0.15454884442E-01 -0.42377643245E-01 -0.21677929568E-01  0.50049094412E-01  0.51100000000E-03 0.  1.
</event>
<event>
 8    1  0.1123361E+005  0.1043930E+01  0.7957747E-01            NaN
         13   -1    0    0    0    0  0.00000000000E+00  0.00000000000E+00  0.74505805969E-08  0.10566000000E+00  0.10566000000E+00 0. -1.
     999900   -1    0    0    0    0 -0.00000000000E+00 -0.00000000000E+00 -0.74505805969E-08  0.93827000000E+00  0.93827000000E+00 0.  1.
     999902    2    1    2    0    0 -0.22627080218E-02 -0.22850219215E-01  0.76628317866E-02  0.10197231548E+01  0.10194357954E+01 0.  0.
     999903    2    3    3    0    0  0.19317645664E-01 -0.13024775926E+00  0.83421328089E-02  0.13293095546E+00  0.16229526046E-01 0.  0.
         14    1    1    2    0    0  0.22627080218E-02  0.22850219215E-01 -0.76628317866E-02  0.24206845246E-01  0.00000000000E+00 0.  1.
     999901    1    3    3    0    0 -0.21580353686E-01  0.10739754004E+00 -0.67930102238E-03  0.88679219929E+00  0.88000000000E+00 0. -1.
        -11    1    4    4    0    0  0.11659644914E-01 -0.50647216330E-01 -0.34858935016E-02  0.52091270056E-01  0.51100000000E-03 0.  1.
         11    1    4    4    0    0  0.76580007506E-02 -0.79600542925E-01  0.11828026311E-01  0.80839685408E-01  0.51100000000E-03 0. -1.
</event>
<event>
 8    1  0.1123361E+005  0.1043930E+01  0.7957747E-01            NaN
         13   -1    0    0    0    0  0.00000000000E+00  0.00000000000E+00  0.74505805969E-08  0.10566000000E+00  0.10566000000E+00 0.  1.
     999900   -1    0    0    0    0 -0.00000000000E+00 -0.00000000000E+00 -0.74505805969E-08  0.93827000000E+00  0.93827000000E+00 0.  1.
     999902    2    1    2    0    0 -0.62003263488E-02 -0.13236822033E-01  0.11327313737E-01  0.10254376897E+01  0.10252709349E+01 0.  0.
     999903    2    3    3    0    0 -0.36341903792E-02  0.31929297605E-01 -0.12758099248E+00  0.13339392341E+00  0.22007766232E-01 0.  0.
         14    1    1    2    0    0  0.62003263488E-02  0.13236822033E-01 -0.11327313737E-01  0.18492310317E-01  0.00000000000E+00 0. -1.
     999901    1    3    3    0    0 -0.25661359696E-02 -0.45166119638E-01  0.13890830622E+00  0.89204376628E+00  0.88000000000E+00 0. -1.
        -11    1    4    4    0    0  0.73971957291E-03  0.32173194749E-01 -0.12253780741E+00  0.12669426590E+00  0.51100000000E-03 0.  1.
         11    1    4    4    0    0 -0.43739099521E-02 -0.24389714376E-03 -0.50431850650E-02  0.66996575051E-02  0.51100000000E-03 0. -1.
</event>
<event>
 7    1  0.1123361E+005  0.1043930E+01  0.7957747E-01            NaN
         13   -1    0    0    0    0  0.00000000000E+00  0.00000000000E+00  0.74505805969E-08  0.10566000000E+00  0.10566000000E+00 0. -1.
     999900   -1    0    0    0    0 -0.00000000000E+00 -0.00000000000E+00 -0.74505805969E-08  0.93827000000E+00  0.93827000000E+00 0. -1.
     999903    2    1    2    0    0  0.79512064550E-01  0.14134685237E-01 -0.60907948702E-01  0.10295501831E+00  0.19183322025E-01 0.  0.
         14    1    1    2    0    0 -0.53385252756E-02 -0.51207292940E-01  0.22656425579E-01  0.56249447308E-01  0.00000000000E+00 0.  1.
     999901    1    1    2    0    0 -0.74173539275E-01  0.37072607703E-01  0.38251523123E-01  0.88472553438E+00  0.88000000000E+00 0.  1.
        -11    1    3    3    0    0  0.13283138018E-01  0.68470663450E-02 -0.19244375581E-01  0.24370703429E-01  0.51100000000E-03 0. -1.
         11    1    3    3    0    0  0.66228926532E-01  0.72876188920E-02 -0.41663573121E-01  0.78584314879E-01  0.51100000000E-03 0.  1.
</event>
<event>
 8    1  0.1123361E+005  0.1043930E+01  0.7957747E-01            NaN
         13   -1    0    0    0    0  0.00000000000E+00  0.00000000000E+00  0.74505805969E-08  0.10566000000E+00  0.10566000000E+00 0.  1.
     999900   -1    0    0    0    0 -0.00000000000E+00 -0.00000000000E+00 -0.74505805969E-08  0.93827000000E+00  0.93827000000E+00 0.  1.
     999902    2    1    2    0    0  0.21729585998E-01  0.56849936451E-02  0.77392672219E-02  0.10201730996E+01  0.10198964471E+01 0.  0.
     999903    2    3    3    0    0  0.10644514846E-01  0.40982164822E-01 -0.12145534643E+00  0.12997086565E+00  0.18659614436E-01 0.  0.
         14    1    1    2    0    0 -0.21729585998E-01 -0.56849936451E-02 -0.77392672219E-02  0.23756900419E-01  0.00000000000E+00 0. -1.
     999901    1    3    3    0    0  0.11085071152E-01 -0.35297171177E-01  0.12919461366E+00  0.89020223393E+00  0.88000000000E+00 0. -1.
        -11    1    4    4    0    0 -0.88842191298E-03  0.21640459171E-01 -0.78918464137E-01  0.81838156561E-01  0.51100000000E-03 0. -1.
         11    1    4    4    0    0  0.11532936759E-01  0.19341705651E-01 -0.42536882297E-01  0.48132709090E-01  0.51100000000E-03 0.  1.
</event>
<event>
 8    1  0.1123361E+005  0.1043930E+01  0.7957747E-01            NaN
         13   -1    0    0    0    0  0.00000000000E+00  0.00000000000E+00  0.74505805969E-08  0.10566000000E+00  0.10566000000E+00 0. -1.
     999900   -1    0    0    0    0 -0.00000000000E+00 -0.00000000000E+00 -0.74505805969E-08  0.93827000000E+00  0.93827000000E+00 0. -1.
     999902    2    1    2    0    0  0.17994931128E-01 -0.32108173371E-02 -0.15951237667E-01  0.10196695615E+01  0.10193809130E+01 0.  0.
     999903    2    3    3    0    0 -0.83667641290E-01 -0.93196606693E-01 -0.25319579300E-01  0.12920873317E+00  0.19181604057E-01 0.  0.
         14    1    1    2    0    0 -0.17994931128E-01  0.32108173371E-02  0.15951237667E-01  0.24260438524E-01  0.00000000000E+00 0. -1.
     999901    1    3    3    0    0  0.10166257242E+00  0.89985789356E-01  0.93683416331E-02  0.89046082830E+00  0.88000000000E+00 0.  1.
        -11    1    4    4    0    0 -0.48626944639E-01 -0.39896793847E-01 -0.13518120208E-01  0.64337660814E-01  0.51100000000E-03 0.  1.
         11    1    4    4    0    0 -0.35040696651E-01 -0.53299812846E-01 -0.11801459092E-01  0.64871072359E-01  0.51100000000E-03 0. -1.
</event>
<event>
 8    1  0.1123361E+005  0.1043930E+01  0.7957747E-01            NaN
         13   -1    0    0    0    0  0.00000000000E+00  0.00000000000E+00  0.74505805969E-08  0.10566000000E+00  0.10566000000E+00 0. -1.
     999900   -1    0    0    0    0 -0.00000000000E+00 -0.00000000000E+00 -0.74505805969E-08  0.93827000000E+00  0.93827000000E+00 0. -1.
     999902    2    1    2    0    0  0.11575166387E-01  0.19716023872E-01  0.51021606750E-02  0.10205048401E+01  0.10202359484E+01 0.  0.
     999903    2    3    3    0    0  0.10718000513E-01 -0.98817501884E-01 -0.78973461120E-01  0.12858576210E+00  0.20438112452E-01 0.  0.
         14    1    1    2    0    0 -0.11575166387E-01 -0.19716023872E-01 -0.51021606750E-02  0.23425159930E-01  0.00000000000E+00 0. -1.
     999901    1    3    3    0    0  0.85716587443E-03  0.11853352576E+00  0.84075621795E-01  0.89191907797E+00  0.88000000000E+00 0.  1.
        -11    1    4    4    0    0  0.69661078390E-03 -0.39538230205E-01 -0.19797136211E-01  0.44226062876E-01  0.51100000000E-03 0. -1.
         11    1    4    4    0    0  0.10021389729E-01 -0.59279271679E-01 -0.59176324909E-01  0.84359699227E-01  0.51100000000E-03 0.  1.
</event>
<event>
 8    1  0.1123361E+005  0.1043930E+01  0.7957747E-01            NaN
         13   -1    0    0    0    0  0.00000000000E+00  0.00000000000E+00  0.74505805969E-08  0.10566000000E+00  0.10566000000E+00 0. -1.
     999900   -1    0    0    0    0 -0.00000000000E+00 -0.00000000000E+00 -0.74505805969E-08  0.93827000000E+00  0.93827000000E+00 0.  1.
     999902    2    1    2    0    0  0.17464532541E-01  0.15640860145E-01  0.29247979167E-02  0.10203037255E+01  0.10200301424E+01 0.  0.
     999903    2    3    3    0    0 -0.37198400269E-01 -0.11960577955E+00  0.17705891173E-01  0.12817247369E+00  0.20625735064E-01 0.  0.
         14    1    1    2    0    0 -0.17464532541E-01 -0.15640860145E-01 -0.29247979167E-02  0.23626274480E-01  0.00000000000E+00 0.  1.
     999901    1    3    3    0    0  0.54662932810E-01  0.13524663969E+00 -0.14781093257E-01  0.89213125183E+00  0.88000000000E+00 0.  1.
        -11    1    4    4    0    0 -0.49866983449E-02 -0.67973756108E-02  0.58127785275E-02  0.10252852812E-01  0.51100000000E-03 0. -1.
         11    1    4    4    0    0 -0.32211701924E-01 -0.11280840393E+00  0.11893112646E-01  0.11791962088E+00  0.51100000000E-03 0.  1.
</event>
<event>
 8    1  0.1123361E+005  0.1043930E+01  0.7957747E-01            NaN
         13   -1    0    0    0    0  0.00000000000E+00  0.00000000000E+00  0.74505805969E-08  0.10566000000E+00  0.10566000000E+00 0.  1.
     999900   -1    0    0    0    0 -0.00000000000E+00 -0.00000000000E+00 -0.74505805969E-08  0.93827000000E+00  0.93827000000E+00 0. -1.
     999902    2    1    2    0    0 -0.34010777230E-02 -0.99247362938E-02  0.20148498083E-01  0.10212137130E+01  0.10209610266E+01 0.  0.
     999903    2    3    3    0    0  0.15388909091E-01  0.64275582005E-01  0.11340665908E+00  0.13298185395E+00  0.21329186324E-01 0.  0.
         14    1    1    2    0    0  0.34010777230E-02  0.99247362938E-02 -0.20148498083E-01  0.22716287003E-01  0.00000000000E+00 0. -1.
     999901    1    3    3    0    0 -0.18789986814E-01 -0.74200318299E-01 -0.93258161001E-01  0.88823185905E+00  0.88000000000E+00 0. -1.
        -11    1    4    4    0    0  0.17395345802E-01  0.39651583010E-01  0.84525983328E-01  0.94972359502E-01  0.51100000000E-03 0.  1.
         11    1    4    4    0    0 -0.20064367112E-02  0.24623998995E-01  0.28880675756E-01  0.38009494444E-01  0.51100000000E-03 0. -1.
</event>
<event>
 8    1  0.1123361E+005  0.1043930E+01  0.7957747E-01            NaN
         13   -1    0    0    0    0  0.00000000000E+00  0.00000000000E+00  0.74505805969E-08  0.10566000000E+00  0.10566000000E+00 0.  1.
     999900   -1    0    0    0    0 -0.00000000000E+00 -0.00000000000E+00 -0.74505805969E-08  0.93827000000E+00  0.93827000000E+00 0.  1.
     999902    2    1    2    0    0  0.19256471706E-01 -0.13626612941E-01  0.45872849597E-02  0.10198979492E+01  0.10196147740E+01 0.  0.
     999903    2    3    3    0    0  0.70188255535E-01 -0.66896774071E-01  0.88877207630E-01  0.13280350792E+00  0.18331505215E-01 0.  0.
         14    1    1    2    0    0 -0.19256471706E-01  0.13626612941E-01 -0.45872849597E-02  0.24032050809E-01  0.00000000000E+00 0. -1.
     999901    1    3    3    0    0 -0.50931783829E-01  0.53270161131E-01 -0.84289922671E-01  0.88709444127E+00  0.88000000000E+00 0.  1.
        -11    1    4    4    0    0  0.15160464513E-01 -0.26027373743E-01  0.27899690885E-01  0.41059928649E-01  0.51100000000E-03 0. -1.
         11    1    4    4    0    0  0.55027791022E-01 -0.40869400329E-01  0.60977516745E-01  0.91743579270E-01  0.51100000000E-03 0.  1.
</event>
<event>
 8    1  0.1123361E+005  0.1043930E+01  0.7957747E-01            NaN
         13   -1    0    0    0    0  0.00000000000E+00  0.00000000000E+00  0.74505805969E-08  0.10566000000E+00  0.10566000000E+00 0. -1.
     999900   -1    0    0    0    0 -0.00000000000E+00 -0.00000000000E+00 -0.74505805969E-08  0.93827000000E+00  0.93827000000E+00 0. -1.
     999902    2    1    2    0    0 -0.46167424776E-02  0.21846446025E-01  0.89655252913E-02  0.10198683675E+01  0.10195844864E+01 0.  0.
     999903    2    3    3    0    0 -0.13411515873E-01 -0.12426239916E+00  0.16862199987E-01  0.12774309594E+00  0.20321224575E-01 0.  0.
         14    1    1    2    0    0  0.46167424776E-02 -0.21846446025E-01 -0.89655252913E-02  0.24061632504E-01  0.00000000000E+00 0. -1.
     999901    1    3    3    0    0  0.87947733958E-02  0.14610884519E+00 -0.78966746952E-02  0.89212527156E+00  0.88000000000E+00 0. -1.
        -11    1    4    4    0    0 -0.50915828717E-02 -0.83032812142E-01  0.20005674603E-01  0.85562025722E-01  0.51100000000E-03 0.  1.
         11    1    4    4    0    0 -0.83199330017E-02 -0.41229587019E-01 -0.31434746167E-02  0.42181070216E-01  0.51100000000E-03 0. -1.
</event>
<event>
 8    1  0.1123361E+005  0.1043930E+01  0.7957747E-01            NaN
         13   -1    0    0    0    0  0.00000000000E+00  0.00000000000E+00  0.74505805969E-08  0.10566000000E+00  0.10566000000E+00 0.  1.
     999900   -1    0    0    0    0 -0.00000000000E+00 -0.00000000000E+00 -0.74505805969E-08  0.93827000000E+00  0.93827000000E+00 0. -1.
     999902    2    1    2    0    0 -0.88502277268E-02 -0.22079122259E-01  0.32129470354E-02  0.10199271419E+01  0.10196446624E+01 0.  0.
     999903    2    3    3    0    0 -0.65885409256E-01 -0.70170796480E-01  0.89041193729E-01  0.13260966260E+00  0.19803045281E-01 0.  0.
         14    1    1    2    0    0  0.88502277268E-02  0.22079122259E-01 -0.32129470354E-02  0.24002858146E-01  0.00000000000E+00 0. -1.
     999901    1    3    3    0    0  0.57035181530E-01  0.48091674221E-01 -0.85828246693E-01  0.88731747926E+00  0.88000000000E+00 0. -1.
        -11    1    4    4    0    0 -0.46890018648E-01 -0.45452078459E-01  0.47900832896E-01  0.80989605495E-01  0.51100000000E-03 0. -1.
         11    1    4    4    0    0 -0.18995390608E-01 -0.24718718020E-01  0.41140360833E-01  0.51620057104E-01  0.51100000000E-03 0.  1.
</event>
<event>
 8    1  0.1123361E+005  0.1043930E+01  0.7957747E-01            NaN
         13   -1    0    0    0    0  0.00000000000E+00  0.00000000000E+00  0.74505805969E-08  0.10566000000E+00  0.10566000000E+00 0. -1.
     999900   -1    0    0    0    0 -0.00000000000E+00 -0.00000000000E+00 -0.74505805969E-08  0.93827000000E+00  0.93827000000E+00 0. -1.
     999902    2    1    2    0    0  0.24632917627E-04 -0.17479619958E-01 -0.16618572929E-01  0.10198112379E+01  0.10195259909E+01 0.  0.
     999903    2    3    3    0    0  0.69735538494E-01 -0.37920682506E-01 -0.10410679033E+00  0.13249413808E+00  0.20382574468E-01 0.  0.
         14    1    1    2    0    0 -0.24632917627E-04  0.17479619958E-01  0.16618572929E-01  0.24118762134E-01  0.00000000000E+00 0. -1.
     999901    1    3    3    0    0 -0.69710905577E-01  0.20441062548E-01  0.87488217397E-01  0.88731709979E+00  0.88000000000E+00 0.  1.
        -11    1    4    4    0    0  0.60141431879E-01 -0.29162770674E-01 -0.74101321050E-01  0.99793416237E-01  0.51100000000E-03 0.  1.
         11    1    4    4    0    0  0.95941066154E-02 -0.87579118327E-02 -0.30005469276E-01  0.32700721840E-01  0.51100000000E-03 0. -1.
</event>
<event>
 8    1  0.1123361E+005  0.1043930E+01  0.7957747E-01            NaN
         13   -1    0    0    0    0  0.00000000000E+00  0.00000000000E+00  0.74505805969E-08  0.10566000000E+00  0.10566000000E+00 0.  1.
     999900   -1    0    0    0    0 -0.00000000000E+00 -0.00000000000E+00 -0.74505805969E-08  0.93827000000E+00  0.93827000000E+00 0. -1.
     999902    2    1    2    0    0  0.91080152809E-02  0.14415559755E-01 -0.16796777482E-01  0.10199947532E+01  0.10197138817E+01 0.  0.
     999903    2    3    3    0    0 -0.98721609184E-01 -0.31843580707E-02 -0.83294617380E-01  0.13074847251E+00  0.20026820086E-01 0.  0.
         14    1    1    2    0    0 -0.91080152809E-02 -0.14415559755E-01  0.16796777482E-01  0.23935246796E-01  0.00000000000E+00 0.  1.
     999901    1    3    3    0    0  0.10782962446E+00  0.17599917826E-01  0.66497839898E-01  0.88924628070E+00  0.88000000000E+00 0.  1.
        -11    1    4    4    0    0 -0.34652824755E-01  0.27685827321E-02 -0.40952617575E-01  0.53720213338E-01  0.51100000000E-03 0. -1.
         11    1    4    4    0    0 -0.64068784429E-01 -0.59529408028E-02 -0.42341999805E-01  0.77028259171E-01  0.51100000000E-03 0.  1.
</event>
<event>
 8    1  0.1123361E+005  0.1043930E+01  0.7957747E-01            NaN
         13   -1    0    0    0    0  0.00000000000E+00  0.00000000000E+00  0.74505805969E-08  0.10566000000E+00  0.10566000000E+00 0.  1.
     999900   -1    0    0    0    0 -0.00000000000E+00 -0.00000000000E+00 -0.74505805969E-08  0.93827000000E+00  0.93827000000E+00 0. -1.
     999902    2    1    2    0    0  0.14885575633E-01  0.10127174439E-01 -0.15003423458E-01  0.10204940716E+01  0.10202249298E+01 0.  0.
     999903    2    3    3    0    0 -0.31158534145E-01  0.36022707254E-01  0.11826634241E+00  0.12889356176E+00  0.18924397686E-01 0.  0.
         14    1    1    2    0    0 -0.14885575633E-01 -0.10127174439E-01  0.15003423458E-01  0.23435928390E-01  0.00000000000E+00 0.  1.
     999901    1    3    3    0    0  0.46044109779E-01 -0.25895532816E-01 -0.13326976587E+00  0.89160050985E+00  0.88000000000E+00 0. -1.
        -11    1    4    4    0    0 -0.32299766236E-01  0.31223581519E-01  0.94775292722E-01  0.10488471849E+00  0.51100000000E-03 0. -1.
         11    1    4    4    0    0  0.11412320907E-02  0.47991257350E-02  0.23491049691E-01  0.24008843269E-01  0.51100000000E-03 0.  1.
</event>
<event>
 8    1  0.1123361E+005  0.1043930E+01  0.7957747E-01            NaN
         13   -1    0    0    0    0  0.00000000000E+00  0.00000000000E+00  0.74505805969E-08  0.10566000000E+00  0.10566000000E+00 0.  1.
     999900   -1    0    0    0    0 -0.00000000000E+00 -0.00000000000E+00 -0.74505805969E-08  0.93827000000E+00  0.93827000000E+00 0.  1.
     999902    2    1    2    0    0 -0.10827982276E-03  0.27450489819E-02  0.23532696875E-01  0.10202374940E+01  0.10199623568E+01 0.  0.
     999903    2    3    3    0    0  0.20144492595E-01  0.67967119036E-01  0.11114428662E+00  0.13325390685E+00  0.19447914793E-01 0.  0.
         14    1    1    2    0    0  0.10827982276E-03 -0.27450489819E-02 -0.23532696875E-01  0.23692506002E-01  0.00000000000E+00 0. -1.
     999901    1    3    3    0    0 -0.20252772418E-01 -0.65222070054E-01 -0.87611589748E-01  0.88698358715E+00  0.88000000000E+00 0.  1.
        -11    1    4    4    0    0  0.95279465588E-02  0.12557547353E-01  0.14928981976E-01  0.21716569365E-01  0.51100000000E-03 0. -1.
         11    1    4    4    0    0  0.10616546037E-01  0.55409571683E-01  0.96215304647E-01  0.11153733748E+00  0.51100000000E-03 0.  1.
</event>
<event>
 8    1  0.1123361E+005  0.1043930E+01  0.7957747E-01            NaN
         13   -1    0    0    0    0  0.00000000000E+00  0.00000000000E+00  0.74505805969E-08  0.10566000000E+00  0.10566000000E+00 0. -1.
     999900   -1    0    0    0    0 -0.00000000000E+00 -0.00000000000E+00 -0.74505805969E-08  0.93827000000E+00  0.93827000000E+00 0. -1.
     999902    2    1    2    0    0  0.12757364890E-01  0.10146248178E-01  0.15756012650E-01  0.10212595645E+01  0.10210079086E+01 0.  0.
     999903    2    3    3    0    0  0.47494179244E-01  0.53834141464E-01  0.11171351440E+00  0.13428542709E+00  0.19971349003E-01 0.  0.
         14    1    1    2    0    0 -0.12757364890E-01 -0.10146248178E-01 -0.15756012650E-01  0.22670435498E-01  0.00000000000E+00 0.  1.
     999901    1    3    3    0    0 -0.34736814354E-01 -0.43687893286E-01 -0.95957501748E-01  0.88697413741E+00  0.88000000000E+00 0. -1.
        -11    1    4    4    0    0  0.23391324375E-01  0.12269471367E-01  0.37368495830E-01  0.45764173599E-01  0.51100000000E-03 0. -1.
         11    1    4    4    0    0  0.24102854870E-01  0.41564670097E-01  0.74345018568E-01  0.88521253494E-01  0.51100000000E-03 0.  1.
</event>
<event>
 8    1  0.1123361E+005  0.1043930E+01  0.7957747E-01            NaN
         13   -1    0    0    0    0  0.00000000000E+00  0.00000000000E+00  0.74505805969E-08  0.10566000000E+00  0.10566000000E+00 0. -1.
     999900   -1    0    0    0    0 -0.00000000000E+00 -0.00000000000E+00 -0.74505805969E-08  0.93827000000E+00  0.93827000000E+00 0.  1.
     999902    2    1    2    0    0 -0.21274916828E-01 -0.11966676512E-01 -0.22613766587E-02  0.10194159784E+01  0.10191211899E+01 0.  0.
     999903    2    3    3    0    0 -0.91296710970E-02 -0.90487351217E-01 -0.93426295876E-01  0.13114572340E+00  0.14121486449E-01 0.  0.
         14    1    1    2    0    0  0.21274916828E-01  0.11966676512E-01  0.22613766587E-02  0.24514021644E-01  0.00000000000E+00 0. -1.
     999901    1    3    3    0    0 -0.12145245731E-01  0.78520674704E-01  0.91164919217E-01  0.88827025496E+00  0.88000000000E+00 0. -1.
        -11    1    4    4    0    0 -0.83630747798E-03 -0.68667459098E-01 -0.70699091739E-01  0.98562376406E-01  0.51100000000E-03 0.  1.
         11    1    4    4    0    0 -0.82933636191E-02 -0.21819892119E-01 -0.22727204137E-01  0.32583346990E-01  0.51100000000E-03 0. -1.
</event>
<event>
 8    1  0.1123361E+005  0.1043930E+01  0.7957747E-01            NaN
         13   -1    0    0    0    0  0.00000000000E+00  0.00000000000E+00  0.74505805969E-08  0.10566000000E+00  0.10566000000E+00 0. -1.
     999900   -1    0    0    0    0 -0.00000000000E+00 -0.00000000000E+00 -0.74505805969E-08  0.93827000000E+00  0.93827000000E+00 0. -1.
     999902    2    1    2    0    0 -0.30888643293E-01  0.28444216019E-02 -0.17978582078E-01  0.10080771280E+01  0.10074393617E+01 0.  0.
     999903    2    3    3    0    0  0.89248217417E-01  0.60180512199E-01 -0.42764665333E-01  0.11772065863E+00  0.21033271421E-01 0.  0.
         14    1    1    2    0    0  0.30888643293E-01 -0.28444216019E-02  0.17978582078E-01  0.35852872022E-01  0.00000000000E+00 0.  1.
     999901    1    3    3    0    0 -0.12013686071E+00 -0.57336090597E-01  0.24786083255E-01  0.89035646935E+00  0.88000000000E+00 0.  1.
        -11    1    4    4    0    0  0.16518040780E-01  0.12151951201E-01  0.27393963504E-03  0.20514671655E-01  0.51100000000E-03 0.  1.
         11    1    4    4    0    0  0.72730176637E-01  0.48028560997E-01 -0.43038604968E-01  0.97205986975E-01  0.51100000000E-03 0. -1.
</event>
<event>
 8    1  0.1123361E+005  0.1043930E+01  0.7957747E-01            NaN
         13   -1    0    0    0    0  0.00000000000E+00  0.00000000000E+00  0.74505805969E-08  0.10566000000E+00  0.10566000000E+00 0.  1.
     999900   -1    0    0    0    0 -0.00000000000E+00 -0.00000000000E+00 -0.74505805969E-08  0.93827000000E+00  0.93827000000E+00 0. -1.
     999902    2    1    2    0    0  0.28122305603E-02 -0.94236965490E-02  0.21627439483E-01  0.10201716155E+01  0.10198949280E+01 0.  0.
     999903    2    3    3    0    0  0.65685176287E-01 -0.97244240297E-01 -0.53443561592E-01  0.13039573895E+00  0.19386846238E-01 0.  0.
         14    1    1    2    0    0 -0.28122305603E-02  0.94236965490E-02 -0.21627439483E-01  0.23758384540E-01  0.00000000000E+00 0. -1.
     999901    1    3    3    0    0 -0.62872945726E-01  0.87820543748E-01  0.75071001075E-01  0.88977587651E+00  0.88000000000E+00 0. -1.
        -11    1    4    4    0    0  0.30062257737E-01 -0.58979863239E-01 -0.35507495547E-01  0.75122612901E-01  0.51100000000E-03 0. -1.
         11    1    4    4    0    0  0.35622918549E-01 -0.38264377058E-01 -0.17936066045E-01  0.55273126054E-01  0.51100000000E-03 0.  1.
</event>
<event>
 8    1  0.1123361E+005  0.1043930E+01  0.7957747E-01            NaN
         13   -1    0    0    0    0  0.00000000000E+00  0.00000000000E+00  0.74505805969E-08  0.10566000000E+00  0.10566000000E+00 0.  1.
     999900   -1    0    0    0    0 -0.00000000000E+00 -0.00000000000E+00 -0.74505805969E-08  0.93827000000E+00  0.93827000000E+00 0.  1.
     999902    2    1    2    0    0 -0.11858761830E-01  0.19896511222E-01 -0.42154379160E-02  0.10203870327E+01  0.10201153980E+01 0.  0.
     999903    2    3    3    0    0  0.18374929078E-01  0.10862216299E+00 -0.72192124543E-01  0.13280202426E+00  0.16978294642E-01 0.  0.
         14    1    1    2    0    0  0.11858761830E-01 -0.19896511222E-01  0.42154379160E-02  0.23542967268E-01  0.00000000000E+00 0.  1.
     999901    1    3    3    0    0 -0.30233690908E-01 -0.88725651769E-01  0.67976686627E-01  0.88758500848E+00  0.88000000000E+00 0. -1.
        -11    1    4    4    0    0  0.80931904848E-02  0.24637637588E-01 -0.24470413492E-01  0.35659152761E-01  0.51100000000E-03 0.  1.
         11    1    4    4    0    0  0.10281738593E-01  0.83984525403E-01 -0.47721711050E-01  0.97142871495E-01  0.51100000000E-03 0. -1.
</event>
<event>
 8    1  0.1123361E+005  0.1043930E+01  0.7957747E-01            NaN
         13   -1    0    0    0    0  0.00000000000E+00  0.00000000000E+00  0.74505805969E-08  0.10566000000E+00  0.10566000000E+00 0.  1.
     999900   -1    0    0    0    0 -0.00000000000E+00 -0.00000000000E+00 -0.74505805969E-08  0.93827000000E+00  0.93827000000E+00 0.  1.
     999902    2    1    2    0    0 -0.15463071808E-01 -0.10870296981E-01 -0.12586937793E-01  0.10212209501E+01  0.10209684265E+01 0.  0.
     999903    2    3    3    0    0  0.98333544127E-01  0.77471252386E-01 -0.26504920182E-01  0.12939831670E+00  0.19238833732E-01 0.  0.
         14    1    1    2    0    0  0.15463071808E-01  0.10870296981E-01  0.12586937793E-01  0.22709049940E-01  0.00000000000E+00 0.  1.
     999901    1    3    3    0    0 -0.11379661594E+00 -0.88341549367E-01  0.13917982389E-01  0.89182263336E+00  0.88000000000E+00 0.  1.
        -11    1    4    4    0    0  0.95522120617E-01  0.72916845010E-01 -0.21556804038E-01  0.12209135405E+00  0.51100000000E-03 0.  1.
         11    1    4    4    0    0  0.28114235102E-02  0.45544073769E-02 -0.49481161437E-02  0.73069626439E-02  0.51100000000E-03 0. -1.
</event>
<event>
 8    1  0.1123361E+005  0.1043930E+01  0.7957747E-01            NaN
         13   -1    0    0    0    0  0.00000000000E+00  0.00000000000E+00  0.74505805969E-08  0.10566000000E+00  0.10566000000E+00 0.  1.
     999900   -1    0    0    0    0 -0.00000000000E+00 -0.00000000000E+00 -0.74505805969E-08  0.93827000000E+00  0.93827000000E+00 0. -1.
     999902    2    1    2    0    0 -0.15038615004E-01  0.73523065851E-04  0.14207558028E-01  0.10232413545E+01  0.10230321840E+01 0.  0.
     999903    2    3    3    0    0 -0.85746152632E-01  0.46501607022E-01 -0.88568783850E-01  0.13323118642E+00  0.19781744520E-01 0.  0.
         14    1    1    2    0    0  0.15038615004E-01 -0.73523065851E-04 -0.14207558028E-01  0.20688645485E-01  0.00000000000E+00 0. -1.
     999901    1    3    3    0    0  0.70707537629E-01 -0.46428083956E-01  0.10277634188E+00  0.89001016809E+00  0.88000000000E+00 0.  1.
        -11    1    4    4    0    0 -0.23282672832E-01  0.43542917850E-02 -0.27010905794E-01  0.35928997537E-01  0.51100000000E-03 0. -1.
         11    1    4    4    0    0 -0.62463479800E-01  0.42147315237E-01 -0.61557878055E-01  0.97302188887E-01  0.51100000000E-03 0.  1.
</event>
<event>
 8    1  0.1123361E+005  0.1043930E+01  0.7957747E-01            NaN
         13   -1    0    0    0    0  0.00000000000E+00  0.00000000000E+00  0.74505805969E-08  0.10566000000E+00  0.10566000000E+00 0.  1.
     999900   -1    0    0    0    0 -0.00000000000E+00 -0.00000000000E+00 -0.74505805969E-08  0.93827000000E+00  0.93827000000E+00 0. -1.
     999902    2    1    2    0    0 -0.13523213778E-01 -0.19219291573E-01  0.27370375846E-02  0.10202709668E+01  0.10199966156E+01 0.  0.
     999903    2    3    3    0    0  0.15720400893E-01 -0.46171730919E-01 -0.11986016413E+00  0.13088258317E+00  0.19617132589E-01 0.  0.
         14    1    1    2    0    0  0.13523213778E-01  0.19219291573E-01 -0.27370375846E-02  0.23659033247E-01  0.00000000000E+00 0. -1.
     999901    1    3    3    0    0 -0.29243614671E-01  0.26952439347E-01  0.12259720172E+00  0.88938838358E+00  0.88000000000E+00 0.  1.
        -11    1    4    4    0    0  0.17575904379E-01 -0.41363665530E-01 -0.90246006156E-01  0.10081898625E+00  0.51100000000E-03 0. -1.
         11    1    4    4    0    0 -0.18555034864E-02 -0.48080653898E-02 -0.29614157976E-01  0.30063596917E-01  0.51100000000E-03 0.  1.
</event>
<event>
 8    1  0.1123361E+005  0.1043930E+01  0.7957747E-01            NaN
         13   -1    0    0    0    0  0.00000000000E+00  0.00000000000E+00  0.74505805969E-08  0.10566000000E+00  0.10566000000E+00 0.  1.
     999900   -1    0    0    0    0 -0.00000000000E+00 -0.00000000000E+00 -0.74505805969E-08  0.93827000000E+00  0.93827000000E+00 0.  1.
     999902    2    1    2    0    0 -0.77614737520E-02 -0.20928094291E-01 -0.14005471071E-01  0.10175789312E+01  0.10172376824E+01 0.  0.
     999903    2    3    3    0    0 -0.66829409581E-01  0.55003010029E-01 -0.93239240263E-01  0.12879743737E+00  0.20092855721E-01 0.  0.
         14    1    1    2    0    0  0.77614737520E-02  0.20928094291E-01  0.14005471071E-01  0.26351068771E-01  0.00000000000E+00 0.  1.
     999901    1    3    3    0    0  0.59067935829E-01 -0.75931104320E-01  0.79233769193E-01  0.88878149386E+00  0.88000000000E+00 0. -1.
        -11    1    4    4    0    0 -0.13318697124E-01  0.57742799741E-02 -0.25888671844E-01  0.29685256495E-01  0.51100000000E-03 0. -1.
         11    1    4    4    0    0 -0.53510712458E-01  0.49228730055E-01 -0.67350568419E-01  0.99112180876E-01  0.51100000000E-03 0.  1.
</event>
<event>
 8    1  0.1123361E+005  0.1043930E+01  0.7957747E-01            NaN
         13   -1    0    0    0    0  0.00000000000E+00  0.00000000000E+00  0.74505805969E-08  0.10566000000E+00  0.10566000000E+00 0. -1.
     999900   -1    0    0    0    0 -0.00000000000E+00 -0.00000000000E+00 -0.74505805969E-08  0.93827000000E+00  0.93827000000E+00 0.  1.
     999902    2    1    2    0    0 -0.85468192963E-02  0.63235954617E-02  0.21313353838E-01  0.10201120439E+01  0.10198339508E+01 0.  0.
     999903    2    3    3    0    0 -0.29821738271E-01  0.13835569271E-01  0.12765356304E+00  0.13342309507E+00  0.20628404950E-01 0.  0.
         14    1    1    2    0    0  0.85468192963E-02 -0.63235954617E-02 -0.21313353838E-01  0.23817956073E-01  0.00000000000E+00 0.  1.
     999901    1    3    3    0    0  0.21274918974E-01 -0.75119738095E-02 -0.10634020920E+00  0.88668894885E+00  0.88000000000E+00 0.  1.
        -11    1    4    4    0    0 -0.51126036507E-02  0.33340797310E-02  0.64598818767E-01  0.64888545297E-01  0.51100000000E-03 0. -1.
         11    1    4    4    0    0 -0.24709134620E-01  0.10501489540E-01  0.63054744276E-01  0.68534549775E-01  0.51100000000E-03 0.  1.
</event>
<event>
 8    1  0.1123361E+005  0.1043930E+01  0.7957747E-01            NaN
         13   -1    0    0    0    0  0.00000000000E+00  0.00000000000E+00  0.74505805969E-08  0.10566000000E+00  0.10566000000E+00 0.  1.
     999900   -1    0    0    0    0 -0.00000000000E+00 -0.00000000000E+00 -0.74505805969E-08  0.93827000000E+00  0.93827000000E+00 0.  1.
     999902    2    1    2    0    0  0.11642110373E-01  0.19730219246E-01  0.62743075456E-02  0.10201773744E+01  0.10199008227E+01 0.  0.
     999903    2    3    3    0    0 -0.68298031300E-01  0.10485332971E+00  0.36823867272E-01  0.13193774136E+00  0.19817380362E-01 0.  0.
         14    1    1    2    0    0 -0.11642110373E-01 -0.19730219246E-01 -0.62743075456E-02  0.23752625552E-01  0.00000000000E+00 0.  1.
     999901    1    3    3    0    0  0.79940141673E-01 -0.85123110462E-01 -0.30549559727E-01  0.88823963309E+00  0.88000000000E+00 0.  1.
        -11    1    4    4    0    0 -0.79235703749E-02  0.14633717592E-01  0.12149196357E-01  0.20610500993E-01  0.51100000000E-03 0.  1.
         11    1    4    4    0    0 -0.60374460925E-01  0.90219612117E-01  0.24674670915E-01  0.11132724037E+00  0.51100000000E-03 0. -1.
</event>
<event>
 8    1  0.1123361E+005  0.1043930E+01  0.7957747E-01            NaN
         13   -1    0    0    0    0  0.00000000000E+00  0.00000000000E+00  0.74505805969E-08  0.10566000000E+00  0.10566000000E+00 0.  1.
     999900   -1    0    0    0    0 -0.00000000000E+00 -0.00000000000E+00 -0.74505805969E-08  0.93827000000E+00  0.93827000000E+00 0.  1.
     999902    2    1    2    0    0  0.22605184683E-01  0.76893862479E-02 -0.16816292434E-02  0.10199936487E+01  0.10197127510E+01 0.  0.
     999903    2    3    3    0    0  0.94100698449E-01  0.25615803961E-01  0.87400349906E-01  0.13243037552E+00  0.19694474722E-01 0.  0.
         14    1    1    2    0    0 -0.22605184683E-01 -0.76893862479E-02  0.16816292434E-02  0.23936351274E-01  0.00000000000E+00 0.  1.
     999901    1    3    3    0    0 -0.71495513767E-01 -0.17926417713E-01 -0.89081979149E-01  0.88756327321E+00  0.88000000000E+00 0.  1.
        -11    1    4    4    0    0  0.32739473271E-01  0.18759248144E-01  0.32162304894E-01  0.49582834510E-01  0.51100000000E-03 0. -1.
         11    1    4    4    0    0  0.61361225179E-01  0.68565558172E-02  0.55238045012E-01  0.82847541007E-01  0.51100000000E-03 0.  1.
</event>
<event>
 8    1  0.1123361E+005  0.1043930E+01  0.7957747E-01            NaN
         13   -1    0    0    0    0  0.00000000000E+00  0.00000000000E+00  0.74505805969E-08  0.10566000000E+00  0.10566000000E+00 0.  1.
     999900   -1    0    0    0    0 -0.00000000000E+00 -0.00000000000E+00 -0.74505805969E-08  0.93827000000E+00  0.93827000000E+00 0. -1.
     999902    2    1    2    0    0 -0.22139645055E-01 -0.13256090180E-02  0.85212641855E-02  0.10201700954E+01  0.10198933721E+01 0.  0.
     999903    2    3    3    0    0 -0.55417271516E-01  0.55033964554E-01  0.10517487233E+00  0.13246196663E+00  0.19611414961E-01 0.  0.
         14    1    1    2    0    0  0.22139645055E-01  0.13256090180E-02 -0.85212641855E-02  0.23759904582E-01  0.00000000000E+00 0. -1.
     999901    1    3    3    0    0  0.33277626461E-01 -0.56359573572E-01 -0.96653608142E-01  0.88770812879E+00  0.88000000000E+00 0. -1.
        -11    1    4    4    0    0 -0.39810185942E-01  0.46735219263E-01  0.70119773088E-01  0.93199116536E-01  0.51100000000E-03 0.  1.
         11    1    4    4    0    0 -0.15607085574E-01  0.82987452906E-02  0.35055099240E-01  0.39262850090E-01  0.51100000000E-03 0. -1.
</event>
<event>
 8    1  0.1123361E+005  0.1043930E+01  0.7957747E-01            NaN
         13   -1    0    0    0    0  0.00000000000E+00  0.00000000000E+00  0.74505805969E-08  0.10566000000E+00  0.10566000000E+00 0.  1.
     999900   -1    0    0    0    0 -0.00000000000E+00 -0.00000000000E+00 -0.74505805969E-08  0.93827000000E+00  0.93827000000E+00 0.  1.
     999902    2    1    2    0    0  0.48619774292E-02 -0.19272954371E-01  0.11866616166E-01  0.10207804390E+01  0.10205179090E+01 0.  0.
     999903    2    3    3    0    0 -0.40448104400E-01  0.80937579008E-01 -0.88721256569E-01  0.12824860504E+00  0.19730749650E-01 0.  0.
         14    1    1    2    0    0 -0.48619774292E-02  0.19272954371E-01 -0.11866616166E-01  0.23149560988E-01  0.00000000000E+00 0. -1.
     999901    1    3    3    0    0  0.45310081830E-01 -0.10021053338E+00  0.10058787274E+00  0.89253183397E+00  0.88000000000E+00 0. -1.
        -11    1    4    4    0    0 -0.26836117114E-01  0.44812743456E-01 -0.63085636199E-01  0.81904931313E-01  0.51100000000E-03 0.  1.
         11    1    4    4    0    0 -0.13611987286E-01  0.36124835552E-01 -0.25635620370E-01  0.46343673725E-01  0.51100000000E-03 0. -1.
</event>
<event>
 8    1  0.1123361E+005  0.1043930E+01  0.7957747E-01            NaN
         13   -1    0    0    0    0  0.00000000000E+00  0.00000000000E+00  0.74505805969E-08  0.10566000000E+00  0.10566000000E+00 0. -1.
     999900   -1    0    0    0    0 -0.00000000000E+00 -0.00000000000E+00 -0.74505805969E-08  0.93827000000E+00  0.93827000000E+00 0.  1.
     999902    2    1    2    0    0 -0.15348101298E-01 -0.45643031619E-02 -0.17292968334E-01  0.10203621441E+01  0.10200899281E+01 0.  0.
     999903    2    3    3    0    0  0.99979843800E-01 -0.64922738227E-01 -0.48403912195E-01  0.13024329451E+00  0.20234770685E-01 0.  0.
         14    1    1    2    0    0  0.15348101298E-01  0.45643031619E-02  0.17292968334E-01  0.23567855876E-01  0.00000000000E+00 0. -1.
     999901    1    3    3    0    0 -0.11532794510E+00  0.60358435065E-01  0.31110943861E-01  0.89011884961E+00  0.88000000000E+00 0.  1.
        -11    1    4    4    0    0  0.45319022239E-01 -0.20863697863E-01 -0.12733719087E-01  0.51492877061E-01  0.51100000000E-03 0. -1.
         11    1    4    4    0    0  0.54660821561E-01 -0.44059040364E-01 -0.35670193108E-01  0.78750417453E-01  0.51100000000E-03 0.  1.
</event>
<event>
 8    1  0.1123361E+005  0.1043930E+01  0.7957747E-01            NaN
         13   -1    0    0    0    0  0.00000000000E+00  0.00000000000E+00  0.74505805969E-08  0.10566000000E+00  0.10566000000E+00 0. -1.
     999900   -1    0    0    0    0 -0.00000000000E+00 -0.00000000000E+00 -0.74505805969E-08  0.93827000000E+00  0.93827000000E+00 0. -1.
     999902    2    1    2    0    0  0.76428703758E-02  0.19009210034E-01  0.48019967768E-02  0.10228866470E+01  0.10226701667E+01 0.  0.
     999903    2    3    3    0    0 -0.72513411250E-01 -0.41761055792E-01  0.10007849838E+00  0.13204678120E+00  0.20456441404E-01 0.  0.
         14    1    1    2    0    0 -0.76428703758E-02 -0.19009210034E-01 -0.48019967768E-02  0.21043353030E-01  0.00000000000E+00 0. -1.
     999901    1    3    3    0    0  0.80156281626E-01  0.60770265827E-01 -0.95276501601E-01  0.89083986577E+00  0.88000000000E+00 0. -1.
        -11    1    4    4    0    0 -0.48367066499E-01 -0.24571866963E-01  0.78314968469E-01  0.95271428955E-01  0.51100000000E-03 0. -1.
         11    1    4    4    0    0 -0.24146344751E-01 -0.17189188829E-01  0.21763529908E-01  0.36775352242E-01  0.51100000000E-03 0.  1.
</event>
<event>
 8    1  0.1123361E+005  0.1043930E+01  0.7957747E-01            NaN
         13   -1    0    0    0    0  0.00000000000E+00  0.00000000000E+00  0.74505805969E-08  0.10566000000E+00  0.10566000000E+00 0. -1.
     999900   -1    0    0    0    0 -0.00000000000E+00 -0.00000000000E+00 -0.74505805969E-08  0.93827000000E+00  0.93827000000E+00 0.  1.
     999902    2    1    2    0    0  0.43905400929E-02 -0.20159887178E-01  0.10980958684E-01  0.10205573804E+01  0.10202897076E+01 0.  0.
     999903    2    3    3    0    0 -0.11391553906E+00  0.56409036315E-01  0.51492467984E-02  0.12932613248E+00  0.23237994328E-01 0.  0.
         14    1    1    2    0    0 -0.43905400929E-02  0.20159887178E-01 -0.10980958684E-01  0.23372619600E-01  0.00000000000E+00 0.  1.
     999901    1    3    3    0    0  0.11830607916E+00 -0.76568923494E-01  0.58317118860E-02  0.89123124792E+00  0.88000000000E+00 0. -1.
        -11    1    4    4    0    0 -0.67236781348E-02  0.10527955306E-01  0.21661388395E-02  0.12688536916E-01  0.51100000000E-03 0.  1.
         11    1    4    4    0    0 -0.10719186093E+00  0.45881081009E-01  0.29831079590E-02  0.11663759556E+00  0.51100000000E-03 0. -1.
</event>
<event>
 8    1  0.1123361E+005  0.1043930E+01  0.7957747E-01            NaN
         13   -1    0    0    0    0  0.00000000000E+00  0.00000000000E+00  0.74505805969E-08  0.10566000000E+00  0.10566000000E+00 0. -1.
     999900   -1    0    0    0    0 -0.00000000000E+00 -0.00000000000E+00 -0.74505805969E-08  0.93827000000E+00  0.93827000000E+00 0.  1.
     999902    2    1    2    0    0 -0.18376277629E-01 -0.14125207633E-01 -0.42871162604E-02  0.10203590765E+01  0.10200867887E+01 0.  0.
     999903    2    3    3    0    0 -0.74356947944E-01  0.86093639927E-01  0.61619071902E-01  0.13045948748E+00  0.16783840656E-01 0.  0.
         14    1    1    2    0    0  0.18376277629E-01  0.14125207633E-01  0.42871162604E-02  0.23570923529E-01  0.00000000000E+00 0.  1.
     999901    1    3    3    0    0  0.55980670315E-01 -0.10021884756E+00 -0.65906188162E-01  0.88989958899E+00  0.88000000000E+00 0. -1.
        -11    1    4    4    0    0 -0.32189478067E-01  0.26660631932E-01  0.17850306555E-01  0.45451582572E-01  0.51100000000E-03 0.  1.
         11    1    4    4    0    0 -0.42167469877E-01  0.59433007995E-01  0.43768765347E-01  0.85007904904E-01  0.51100000000E-03 0. -1.
</event>
<event>
 8    1  0.1123361E+005  0.1043930E+01  0.7957747E-01            NaN
         13   -1    0    0    0    0  0.00000000000E+00  0.00000000000E+00  0.74505805969E-08  0.10566000000E+00  0.10566000000E+00 0. -1.
     999900   -1    0    0    0    0 -0.00000000000E+00 -0.00000000000E+00 -0.74505805969E-08  0.93827000000E+00  0.93827000000E+00 0.  1.
     999902    2    1    2    0    0  0.11703733482E-01 -0.20272359689E-01 -0.15928422847E-01  0.10156163884E+01  0.10152216447E+01 0.  0.
     999903    2    3    3    0    0 -0.56161950308E-01  0.10582581941E+00 -0.24895197959E-01  0.12399600686E+00  0.20049192507E-01 0.  0.
         14    1    1    2    0    0 -0.11703733482E-01  0.20272359689E-01  0.15928422847E-01  0.28313611553E-01  0.00000000000E+00 0. -1.
     999901    1    3    3    0    0  0.67865683790E-01 -0.12609817910E+00  0.89667751124E-02  0.89162038159E+00  0.88000000000E+00 0.  1.
        -11    1    4    4    0    0 -0.12821035893E-01  0.29843835822E-01  0.18078811570E-02  0.32535565973E-01  0.51100000000E-03 0.  1.
         11    1    4    4    0    0 -0.43340914415E-01  0.75981983584E-01 -0.26703079116E-01  0.91460440886E-01  0.51100000000E-03 0. -1.
</event>
<event>
 8    1  0.1123361E+005  0.1043930E+01  0.7957747E-01            NaN
         13   -1    0    0    0    0  0.00000000000E+00  0.00000000000E+00  0.74505805969E-08  0.10566000000E+00  0.10566000000E+00 0. -1.
     999900   -1    0    0    0    0 -0.00000000000E+00 -0.00000000000E+00 -0.74505805969E-08  0.93827000000E+00  0.93827000000E+00 0. -1.
     999902    2    1    2    0    0  0.62806566316E-02 -0.17939526935E-01  0.13848658412E-01  0.10204128017E+01  0.10201417683E+01 0.  0.
     999903    2    3    3    0    0 -0.12663218045E-01 -0.31800057655E-01  0.12681670050E+00  0.13288096387E+00  0.20081689997E-01 0.  0.
         14    1    1    2    0    0 -0.62806566316E-02  0.17939526935E-01 -0.13848658412E-01  0.23517198264E-01  0.00000000000E+00 0.  1.
     999901    1    3    3    0    0  0.18943874677E-01  0.13860530720E-01 -0.11296804209E+00  0.88753183787E+00  0.88000000000E+00 0.  1.
        -11    1    4    4    0    0 -0.10750063362E-01 -0.20892987673E-01  0.11163959049E+00  0.11408654646E+00  0.51100000000E-03 0.  1.
         11    1    4    4    0    0 -0.19131546837E-02 -0.10907069983E-01  0.15177110012E-01  0.18794417410E-01  0.51100000000E-03 0. -1.
</event>
<event>
 8    1  0.1123361E+005  0.1043930E+01  0.7957747E-01            NaN
         13   -1    0    0    0    0  0.00000000000E+00  0.00000000000E+00  0.74505805969E-08  0.10566000000E+00  0.10566000000E+00 0.  1.
     999900   -1    0    0    0    0 -0.00000000000E+00 -0.00000000000E+00 -0.74505805969E-08  0.93827000000E+00  0.93827000000E+00 0. -1.
     999902    2    1    2    0    0 -0.13897791064E-01 -0.19559580023E-01  0.11712247098E-02  0.10199071456E+01  0.10196241896E+01 0.  0.
     999903    2    3    3    0    0 -0.60499551170E-01 -0.29177234055E-01 -0.11115357571E+00  0.13149221769E+00  0.20581040784E-01 0.  0.
         14    1    1    2    0    0  0.13897791064E-01  0.19559580023E-01 -0.11712247098E-02  0.24022854419E-01  0.00000000000E+00 0. -1.
     999901    1    3    3    0    0  0.46601760106E-01  0.96176540317E-02  0.11232480042E+00  0.88841492789E+00  0.88000000000E+00 0.  1.
        -11    1    4    4    0    0 -0.33194370652E-01 -0.19066443541E-01 -0.80893752564E-01  0.89495563227E-01  0.51100000000E-03 0.  1.
         11    1    4    4    0    0 -0.27305180518E-01 -0.10110790514E-01 -0.30259823148E-01  0.41996654461E-01  0.51100000000E-03 0. -1.
</event>
<event>
 8    1  0.1123361E+005  0.1043930E+01  0.7957747E-01            NaN
         13   -1    0    0    0    0  0.00000000000E+00  0.00000000000E+00  0.74505805969E-08  0.10566000000E+00  0.10566000000E+00 0. -1.
     999900   -1    0    0    0    0 -0.00000000000E+00 -0.00000000000E+00 -0.74505805969E-08  0.93827000000E+00  0.93827000000E+00 0. -1.
     999902    2    1    2    0    0 -0.21690436023E-01 -0.19687461679E-02 -0.12181839016E-01  0.10189750771E+01  0.10186694555E+01 0.  0.
     999903    2    3    3    0    0 -0.65326154177E-01  0.11142410801E+00  0.19090551693E-02  0.13051541644E+00  0.18649160069E-01 0.  0.
         14    1    1    2    0    0  0.21690436023E-01  0.19687461679E-02  0.12181839016E-01  0.24954922924E-01  0.00000000000E+00 0. -1.
     999901    1    3    3    0    0  0.43635718154E-01 -0.11339285418E+00 -0.14090894185E-01  0.88845966064E+00  0.88000000000E+00 0. -1.
        -11    1    4    4    0    0 -0.24961058469E-01  0.60092964197E-01 -0.19086535326E-02  0.65100866854E-01  0.51100000000E-03 0. -1.
         11    1    4    4    0    0 -0.40365095708E-01  0.51331143814E-01  0.38177087019E-02  0.65414549586E-01  0.51100000000E-03 0.  1.
</event>
<event>
 7    1  0.1123361E+005  0.1043930E+01  0.7957747E-01            NaN
         13   -1    0    0    0    0  0.00000000000E+00  0.00000000000E+00  0.74505805969E-08  0.10566000000E+00  0.10566000000E+00 0. -1.
     999900   -1    0    0    0    0 -0.00000000000E+00 -0.00000000000E+00 -0.74505805969E-08  0.93827000000E+00  0.93827000000E+00 0.  1.
     999903    2    1    2    0    0 -0.99121731024E-01 -0.13309955440E-01 -0.45821975098E-01  0.11184237339E+00  0.20169050749E-01 0.  0.
         14    1    1    2    0    0  0.90669190451E-02 -0.40601171409E-01  0.18232255989E-01  0.45421132738E-01  0.00000000000E+00 0. -1.
     999901    1    1    2    0    0  0.90054811979E-01  0.53911126849E-01  0.27589719109E-01  0.88666649387E+00  0.88000000000E+00 0. -1.
        -11    1    3    3    0    0 -0.43165093973E-01 -0.15273450020E-01 -0.16803318886E-01  0.48776185375E-01  0.51100000000E-03 0.  1.
         11    1    3    3    0    0 -0.55956637051E-01  0.19634945798E-02 -0.29018656212E-01  0.63066188012E-01  0.51100000000E-03 0. -1.
</event>
<event>
 8    1  0.1123361E+005  0.1043930E+01  0.7957747E-01            NaN
         13   -1    0    0    0    0  0.00000000000E+00  0.00000000000E+00  0.74505805969E-08  0.10566000000E+00  0.10566000000E+00 0. -1.
     999900   -1    0    0    0    0 -0.00000000000E+00 -0.00000000000E+00 -0.74505805969E-08  0.93827000000E+00  0.93827000000E+00 0.  1.
     999902    2    1    2    0    0 -0.16067416125E-01 -0.10260086240E-01  0.19052751636E-01  0.10169774755E+01  0.10166202571E+01 0.  0.
     999903    2    3    3    0    0  0.77377665864E-01 -0.77054475149E-01 -0.59857627727E-01  0.12601152685E+00  0.19268471292E-01 0.  0.
         14    1    1    2    0    0  0.16067416125E-01  0.10260086240E-01 -0.19052751636E-01  0.26952524473E-01  0.00000000000E+00 0. -1.
     999901    1    3    3    0    0 -0.93445081989E-01  0.66794388909E-01  0.78910379363E-01  0.89096594868E+00  0.88000000000E+00 0. -1.
        -11    1    4    4    0    0  0.58569736820E-01 -0.46579158999E-01 -0.36586762508E-01  0.83299966603E-01  0.51100000000E-03 0.  1.
         11    1    4    4    0    0  0.18807929044E-01 -0.30475316150E-01 -0.23270865219E-01  0.42711560243E-01  0.51100000000E-03 0. -1.
</event>
<event>
 8    1  0.1123361E+005  0.1043930E+01  0.7957747E-01            NaN
         13   -1    0    0    0    0  0.00000000000E+00  0.00000000000E+00  0.74505805969E-08  0.10566000000E+00  0.10566000000E+00 0. -1.
     999900   -1    0    0    0    0 -0.00000000000E+00 -0.00000000000E+00 -0.74505805969E-08  0.93827000000E+00  0.93827000000E+00 0.  1.
     999902    2    1    2    0    0 -0.16763796179E-01 -0.15654923378E-01 -0.12447259097E-02  0.10209593485E+01  0.10207009065E+01 0.  0.
     999903    2    3    3    0    0 -0.63175906588E-01  0.68616767562E-01  0.90256506118E-01  0.13099964302E+00  0.17754256167E-01 0.  0.
         14    1    1    2    0    0  0.16763796179E-01  0.15654923378E-01  0.12447259097E-02  0.22970651512E-01  0.00000000000E+00 0. -1.
     999901    1    3    3    0    0  0.46412110409E-01 -0.84271690940E-01 -0.91501232028E-01  0.88995970546E+00  0.88000000000E+00 0.  1.
        -11    1    4    4    0    0 -0.45805455955E-01  0.48802243881E-01  0.53063943124E-01  0.85415701039E-01  0.51100000000E-03 0. -1.
         11    1    4    4    0    0 -0.17370450633E-01  0.19814523681E-01  0.37192562994E-01  0.45583941986E-01  0.51100000000E-03 0.  1.
</event>
<event>
 8    1  0.1123361E+005  0.1043930E+01  0.7957747E-01            NaN
         13   -1    0    0    0    0  0.00000000000E+00  0.00000000000E+00  0.74505805969E-08  0.10566000000E+00  0.10566000000E+00 0.  1.
     999900   -1    0    0    0    0 -0.00000000000E+00 -0.00000000000E+00 -0.74505805969E-08  0.93827000000E+00  0.93827000000E+00 0.  1.
     999902    2    1    2    0    0  0.85036234225E-02 -0.14335699188E-01 -0.12689306565E-01  0.10229814348E+01  0.10227669205E+01 0.  0.
     999903    2    3    3    0    0 -0.11186727018E+00  0.38975344452E-02 -0.68184357594E-01  0.13286835012E+00  0.21804011833E-01 0.  0.
         14    1    1    2    0    0 -0.85036234225E-02  0.14335699188E-01  0.12689306565E-01  0.20948565193E-01  0.00000000000E+00 0. -1.
     999901    1    3    3    0    0  0.12037089360E+00 -0.18233233633E-01  0.55495051029E-01  0.89011308468E+00  0.88000000000E+00 0. -1.
        -11    1    4    4    0    0 -0.60448729164E-01 -0.62450518854E-02 -0.28477050660E-01  0.67113732320E-01  0.51100000000E-03 0. -1.
         11    1    4    4    0    0 -0.51418541015E-01  0.10142586331E-01 -0.39707306934E-01  0.65754617804E-01  0.51100000000E-03 0.  1.
</event>
<event>
 8    1  0.1123361E+005  0.1043930E+01  0.7957747E-01            NaN
         13   -1    0    0    0    0  0.00000000000E+00  0.00000000000E+00  0.74505805969E-08  0.10566000000E+00  0.10566000000E+00 0.  1.
     999900   -1    0    0    0    0 -0.00000000000E+00 -0.00000000000E+00 -0.74505805969E-08  0.93827000000E+00  0.93827000000E+00 0. -1.
     999902    2    1    2    0    0  0.11404166277E-01 -0.27185050984E-02 -0.20606452302E-01  0.10202219601E+01  0.10199464578E+01 0.  0.
     999903    2    3    3    0    0  0.95477999986E-01  0.81844610371E-02 -0.90783182019E-01  0.13336680984E+00  0.19028556060E-01 0.  0.
         14    1    1    2    0    0 -0.11404166277E-01  0.27185050984E-02  0.20606452302E-01  0.23708039879E-01  0.00000000000E+00 0.  1.
     999901    1    3    3    0    0 -0.84073833709E-01 -0.10902966136E-01  0.70176729717E-01  0.88685515028E+00  0.88000000000E+00 0.  1.
        -11    1    4    4    0    0  0.45891695204E-01  0.71464273884E-03 -0.55645547158E-01  0.72133532025E-01  0.51100000000E-03 0. -1.
         11    1    4    4    0    0  0.49586304782E-01  0.74698182983E-02 -0.35137634860E-01  0.61233277815E-01  0.51100000000E-03 0.  1.
</event>
<event>
 8    1  0.1123361E+005  0.1043930E+01  0.7957747E-01            NaN
         13   -1    0    0    0    0  0.00000000000E+00  0.00000000000E+00  0.74505805969E-08  0.10566000000E+00  0.10566000000E+00 0.  1.
     999900   -1    0    0    0    0 -0.00000000000E+00 -0.00000000000E+00 -0.74505805969E-08  0.93827000000E+00  0.93827000000E+00 0.  1.
     999902    2    1    2    0    0  0.83051595564E-02 -0.71012470914E-02  0.20780896207E-01  0.10204513068E+01  0.10201811705E+01 0.  0.
     999903    2    3    3    0    0 -0.15825069561E-01  0.64325702025E-01  0.11296038856E+00  0.13243039727E+00  0.19736564307E-01 0.  0.
         14    1    1    2    0    0 -0.83051595564E-02  0.71012470914E-02 -0.20780896207E-01  0.23478693163E-01  0.00000000000E+00 0. -1.
     999901    1    3    3    0    0  0.24130229118E-01 -0.71426949116E-01 -0.92179492350E-01  0.88802090957E+00  0.88000000000E+00 0.  1.
        -11    1    4    4    0    0 -0.75471308635E-02  0.55235829868E-01  0.82428291388E-01  0.99512011474E-01  0.51100000000E-03 0.  1.
         11    1    4    4    0    0 -0.82779386980E-02  0.90898721573E-02  0.30532097168E-01  0.32918385796E-01  0.51100000000E-03 0. -1.
</event>
<event>
 8    1  0.1123361E+005  0.1043930E+01  0.7957747E-01            NaN
         13   -1    0    0    0    0  0.00000000000E+00  0.00000000000E+00  0.74505805969E-08  0.10566000000E+00  0.10566000000E+00 0.  1.
     999900   -1    0    0    0    0 -0.00000000000E+00 -0.00000000000E+00 -0.74505805969E-08  0.93827000000E+00  0.93827000000E+00 0.  1.
     999902    2    1    2    0    0 -0.97156249277E-03  0.49229650453E-02  0.22781170913E-01  0.10206027356E+01  0.10203361125E+01 0.  0.
     999903    2    3    3    0    0  0.65025020362E-01 -0.10634171981E+00  0.33806478930E-01  0.13107649285E+00  0.22390942677E-01 0.  0.
         14    1    1    2    0    0  0.97156249277E-03 -0.49229650453E-02 -0.22781170913E-01  0.23327264449E-01  0.00000000000E+00 0. -1.
     999901    1    3    3    0    0 -0.65996582854E-01  0.11126468486E+00 -0.11025308017E-01  0.88952624271E+00  0.88000000000E+00 0. -1.
        -11    1    4    4    0    0  0.38122078960E-01 -0.43742749008E-01  0.21236066826E-01  0.61789583671E-01  0.51100000000E-03 0. -1.
         11    1    4    4    0    0  0.26902941401E-01 -0.62598970802E-01  0.12570412104E-01  0.69286909174E-01  0.51100000000E-03 0.  1.
</event>
<event>
 8    1  0.1123361E+005  0.1043930E+01  0.7957747E-01            NaN
         13   -1    0    0    0    0  0.00000000000E+00  0.00000000000E+00  0.74505805969E-08  0.10566000000E+00  0.10566000000E+00 0.  1.
     999900   -1    0    0    0    0 -0.00000000000E+00 -0.00000000000E+00 -0.74505805969E-08  0.93827000000E+00  0.93827000000E+00 0.  1.
     999902    2    1    2    0    0 -0.17524888794E-01 -0.14456482444E-01 -0.61011754399E-02  0.10204069060E+01  0.10201357350E+01 0.  0.
     999903    2    3    3    0    0 -0.92282339564E-01  0.74165371367E-01 -0.53750054675E-01  0.13152394115E+00  0.19822870960E-01 0.  0.
         14    1    1    2    0    0  0.17524888794E-01  0.14456482444E-01  0.61011754399E-02  0.23523094049E-01  0.00000000000E+00 0.  1.
     999901    1    3    3    0    0  0.74757450769E-01 -0.88621853811E-01  0.47648879235E-01  0.88888296480E+00  0.88000000000E+00 0. -1.
        -11    1    4    4    0    0 -0.74898576005E-01  0.51095627467E-01 -0.35613071285E-01  0.97412072153E-01  0.51100000000E-03 0.  1.
         11    1    4    4    0    0 -0.17383763559E-01  0.23069743900E-01 -0.18136983389E-01  0.34111868998E-01  0.51100000000E-03 0. -1.
</event>
<event>
 8    1  0.1123361E+005  0.1043930E+01  0.7957747E-01            NaN
         13   -1    0    0    0    0  0.00000000000E+00  0.00000000000E+00  0.74505805969E-08  0.10566000000E+00  0.10566000000E+00 0.  1.
     999900   -1    0    0    0    0 -0.00000000000E+00 -0.00000000000E+00 -0.74505805969E-08  0.93827000000E+00  0.93827000000E+00 0.  1.
     999902    2    1    2    0    0 -0.89411095372E-02  0.14345269555E-01  0.15080069822E-01  0.10212774349E+01  0.10210261801E+01 0.  0.
     999903    2    3    3    0    0  0.17117069527E-02  0.91032854217E-01 -0.92623430802E-01  0.13133669972E+00  0.19501750494E-01 0.  0.
         14    1    1    2    0    0  0.89411095372E-02 -0.14345269555E-01 -0.15080069822E-01  0.22652565069E-01  0.00000000000E+00 0. -1.
     999901    1    3    3    0    0 -0.10652816490E-01 -0.76687584663E-01  0.10770350062E+00  0.88994073521E+00  0.88000000000E+00 0. -1.
        -11    1    4    4    0    0 -0.33785139426E-02  0.49941937828E-01 -0.38293954725E-01  0.63026181861E-01  0.51100000000E-03 0.  1.
         11    1    4    4    0    0  0.50902208952E-02  0.41090916389E-01 -0.54329476077E-01  0.68310517860E-01  0.51100000000E-03 0. -1.
</event>
<event>
 8    1  0.1123361E+005  0.1043930E+01  0.7957747E-01            NaN
         13   -1    0    0    0    0  0.00000000000E+00  0.00000000000E+00  0.74505805969E-08  0.10566000000E+00  0.10566000000E+00 0. -1.
     999900   -1    0    0    0    0 -0.00000000000E+00 -0.00000000000E+00 -0.74505805969E-08  0.93827000000E+00  0.93827000000E+00 0. -1.
     999902    2    1    2    0    0 -0.23102553377E-01  0.97837876709E-03 -0.55950817035E-02  0.10201394528E+01  0.10198620068E+01 0.  0.
     999903    2    3    3    0    0 -0.92456249182E-01 -0.68080700026E-01 -0.63685946081E-01  0.13280995366E+00  0.19986103552E-01 0.  0.
         14    1    1    2    0    0  0.23102553377E-01 -0.97837876709E-03  0.55950817035E-02  0.23790547215E-01  0.00000000000E+00 0. -1.
     999901    1    3    3    0    0  0.69353695805E-01  0.69059078793E-01  0.58090864377E-01  0.88732949912E+00  0.88000000000E+00 0. -1.
        -11    1    4    4    0    0 -0.72278622076E-01 -0.42872100241E-01 -0.42365697050E-01  0.94113386911E-01  0.51100000000E-03 0.  1.
         11    1    4    4    0    0 -0.20177627106E-01 -0.25208599785E-01 -0.21320249031E-01  0.38696566753E-01  0.51100000000E-03 0. -1.
</event>
<event>
 8    1  0.1123361E+005  0.1043930E+01  0.7957747E-01            NaN
         13   -1    0    0    0    0  0.00000000000E+00  0.00000000000E+00  0.74505805969E-08  0.10566000000E+00  0.10566000000E+00 0.  1.
     999900   -1    0    0    0    0 -0.00000000000E+00 -0.00000000000E+00 -0.74505805969E-08  0.93827000000E+00  0.93827000000E+00 0. -1.
     999902    2    1    2    0    0  0.16562261710E-01  0.16521835938E-01 -0.62951176008E-02  0.10197038141E+01  0.10194159899E+01 0.  0.
     999903    2    3    3    0    0 -0.34801462981E-01  0.92433464303E-01  0.82799900566E-01  0.13046890153E+00  0.20278648506E-01 0.  0.
         14    1    1    2    0    0 -0.16562261710E-01 -0.16521835938E-01  0.62951176008E-02  0.24226185860E-01  0.00000000000E+00 0. -1.
     999901    1    3    3    0    0  0.51363724690E-01 -0.75911628365E-01 -0.89095018166E-01  0.88923491261E+00  0.88000000000E+00 0. -1.
        -11    1    4    4    0    0 -0.13545289765E-01  0.62828377528E-01  0.49953044570E-01  0.81402995525E-01  0.51100000000E-03 0.  1.
         11    1    4    4    0    0 -0.21256173215E-01  0.29605086775E-01  0.32846855996E-01  0.49065906009E-01  0.51100000000E-03 0. -1.
</event>
<event>
 8    1  0.1123361E+005  0.1043930E+01  0.7957747E-01            NaN
         13   -1    0    0    0    0  0.00000000000E+00  0.00000000000E+00  0.74505805969E-08  0.10566000000E+00  0.10566000000E+00 0.  1.
     999900   -1    0    0    0    0 -0.00000000000E+00 -0.00000000000E+00 -0.74505805969E-08  0.93827000000E+00  0.93827000000E+00 0.  1.
     999902    2    1    2    0    0  0.16895341968E-01 -0.88035688712E-04 -0.12774503378E-01  0.10227486812E+01  0.10225293231E+01 0.  0.
     999903    2    3    3    0    0  0.42666337304E-01 -0.10386175114E+00 -0.71567778902E-01  0.13432886067E+00  0.17737422141E-01 0.  0.
         14    1    1    2    0    0 -0.16895341968E-01  0.88035688712E-04  0.12774503378E-01  0.21181318822E-01  0.00000000000E+00 0.  1.
     999901    1    3    3    0    0 -0.25770995335E-01  0.10377371545E+00  0.58793275524E-01  0.88841982050E+00  0.88000000000E+00 0. -1.
        -11    1    4    4    0    0  0.27604349966E-01 -0.57467502246E-01 -0.31044914131E-01  0.70912352703E-01  0.51100000000E-03 0.  1.
         11    1    4    4    0    0  0.15061987337E-01 -0.46394248892E-01 -0.40522864771E-01  0.63416507970E-01  0.51100000000E-03 0. -1.
</event>
<event>
 8    1  0.1123361E+005  0.1043930E+01  0.7957747E-01            NaN
         13   -1    0    0    0    0  0.00000000000E+00  0.00000000000E+00  0.74505805969E-08  0.10566000000E+00  0.10566000000E+00 0. -1.
     999900   -1    0    0    0    0 -0.00000000000E+00 -0.00000000000E+00 -0.74505805969E-08  0.93827000000E+00  0.93827000000E+00 0. -1.
     999902    2    1    2    0    0 -0.86270418728E-02 -0.16139158347E-01  0.96832717957E-02  0.10232257967E+01  0.10230163082E+01 0.  0.
     999903    2    3    3    0    0  0.24299558043E-01  0.12006956823E+00 -0.40637896635E-01  0.13071854280E+00  0.20705773434E-01 0.  0.
         14    1    1    2    0    0  0.86270418728E-02  0.16139158347E-01 -0.96832717957E-02  0.20704203349E-01  0.00000000000E+00 0.  1.
     999901    1    3    3    0    0 -0.32926599916E-01 -0.13620872658E+00  0.50321168431E-01  0.89250725385E+00  0.88000000000E+00 0.  1.
        -11    1    4    4    0    0  0.18299952535E-01  0.91796687238E-01 -0.21473497989E-01  0.96035890622E-01  0.51100000000E-03 0.  1.
         11    1    4    4    0    0  0.59996055079E-02  0.28272880994E-01 -0.19164398646E-01  0.34682652182E-01  0.51100000000E-03 0. -1.
</event>
<event>
 8    1  0.1123361E+005  0.1043930E+01  0.7957747E-01            NaN
         13   -1    0    0    0    0  0.00000000000E+00  0.00000000000E+00  0.74505805969E-08  0.10566000000E+00  0.10566000000E+00 0.  1.
     999900   -1    0    0    0    0 -0.00000000000E+00 -0.00000000000E+00 -0.74505805969E-08  0.93827000000E+00  0.93827000000E+00 0.  1.
     999902    2    1    2    0    0  0.46851494905E-02 -0.22688924572E-01 -0.11908526518E-01  0.10178809899E+01  0.10175476198E+01 0.  0.
     999903    2    3    3    0    0  0.55926449226E-01 -0.40773894986E-01 -0.10963648271E+00  0.13080518119E+00  0.17307768510E-01 0.  0.
         14    1    1    2    0    0 -0.46851494905E-02  0.22688924572E-01  0.11908526518E-01  0.26049010112E-01  0.00000000000E+00 0.  1.
     999901    1    3    3    0    0 -0.51241299735E-01  0.18084970414E-01  0.97727956190E-01  0.88707580870E+00  0.88000000000E+00 0. -1.
        -11    1    4    4    0    0  0.31767399489E-01 -0.14018124033E-01 -0.45602236860E-01  0.57319286451E-01  0.51100000000E-03 0. -1.
         11    1    4    4    0    0  0.24159049737E-01 -0.26755770953E-01 -0.64034245848E-01  0.73485894740E-01  0.51100000000E-03 0.  1.
</event>
<event>
 8    1  0.1123361E+005  0.1043930E+01  0.7957747E-01            NaN
         13   -1    0    0    0    0  0.00000000000E+00  0.00000000000E+00  0.74505805969E-08  0.10566000000E+00  0.10566000000E+00 0. -1.
     999900   -1    0    0    0    0 -0.00000000000E+00 -0.00000000000E+00 -0.74505805969E-08  0.93827000000E+00  0.93827000000E+00 0.  1.
     999902    2    1    2    0    0 -0.13649592643E-01 -0.19025678488E-01  0.39896752257E-02  0.10201769933E+01  0.10199004325E+01 0.  0.
     999903    2    3    3    0    0 -0.10608086649E+00  0.70298742808E-01  0.20884538883E-01  0.13067835410E+00  0.21109353150E-01 0.  0.
         14    1    1    2    0    0  0.13649592643E-01  0.19025678488E-01 -0.39896752257E-02  0.23753006749E-01  0.00000000000E+00 0. -1.
     999901    1    3    3    0    0  0.92431273851E-01 -0.89324421296E-01 -0.16894863658E-01  0.88949863915E+00  0.88000000000E+00 0.  1.
        -11    1    4    4    0    0 -0.66239990525E-01  0.34645338809E-01  0.19216608923E-01  0.77185329081E-01  0.51100000000E-03 0. -1.
         11    1    4    4    0    0 -0.39840875969E-01  0.35653403999E-01  0.16679299605E-02  0.53493025023E-01  0.51100000000E-03 0.  1.
</event>
<event>
 8    1  0.1123361E+005  0.1043930E+01  0.7957747E-01            NaN
         13   -1    0    0    0    0  0.00000000000E+00  0.00000000000E+00  0.74505805969E-08  0.10566000000E+00  0.10566000000E+00 0. -1.
     999900   -1    0    0    0    0 -0.00000000000E+00 -0.00000000000E+00 -0.74505805969E-08  0.93827000000E+00  0.93827000000E+00 0.  1.
     999902    2    1    2    0    0  0.10659493780E-01  0.12322751046E-01 -0.16569137058E-01  0.10206918567E+01  0.10204272904E+01 0.  0.
     999903    2    3    3    0    0  0.83337234503E-01  0.68328990589E-01 -0.76760516949E-01  0.13387634315E+00  0.20414521400E-01 0.  0.
         14    1    1    2    0    0 -0.10659493780E-01 -0.12322751046E-01  0.16569137058E-01  0.23238143296E-01  0.00000000000E+00 0. -1.
     999901    1    3    3    0    0 -0.72677740724E-01 -0.56006239543E-01  0.60191379891E-01  0.88681551355E+00  0.88000000000E+00 0. -1.
        -11    1    4    4    0    0  0.46832469547E-01  0.44466232084E-01 -0.56401874043E-01  0.85743562535E-01  0.51100000000E-03 0.  1.
         11    1    4    4    0    0  0.36504764956E-01  0.23862758505E-01 -0.20358642906E-01  0.48132780617E-01  0.51100000000E-03 0. -1.
</event>
<event>
 8    1  0.1123361E+005  0.1043930E+01  0.7957747E-01            NaN
         13   -1    0    0    0    0  0.00000000000E+00  0.00000000000E+00  0.74505805969E-08  0.10566000000E+00  0.10566000000E+00 0.  1.
     999900   -1    0    0    0    0 -0.00000000000E+00 -0.00000000000E+00 -0.74505805969E-08  0.93827000000E+00  0.93827000000E+00 0.  1.
     999902    2    1    2    0    0  0.73949485738E-02 -0.10138928803E-01  0.20723958767E-01  0.10197026269E+01  0.10194147741E+01 0.  0.
     999903    2    3    3    0    0 -0.38233096362E-01  0.87367022253E-01  0.86985274652E-01  0.13066950547E+00  0.20330160294E-01 0.  0.
         14    1    1    2    0    0 -0.73949485738E-02  0.10138928803E-01 -0.20723958767E-01  0.24227373127E-01  0.00000000000E+00 0. -1.
     999901    1    3    3    0    0  0.45628044936E-01 -0.97505951056E-01 -0.66261315885E-01  0.88903312141E+00  0.88000000000E+00 0.  1.
        -11    1    4    4    0    0 -0.25167353576E-01  0.39805657912E-01  0.32787625213E-01  0.57386196737E-01  0.51100000000E-03 0.  1.
         11    1    4    4    0    0 -0.13065742786E-01  0.47561364341E-01  0.54197649438E-01  0.73283308728E-01  0.51100000000E-03 0. -1.
</event>
<event>
 8    1  0.1123361E+005  0.1043930E+01  0.7957747E-01            NaN
         13   -1    0    0    0    0  0.00000000000E+00  0.00000000000E+00  0.74505805969E-08  0.10566000000E+00  0.10566000000E+00 0.  1.
     999900   -1    0    0    0    0 -0.00000000000E+00 -0.00000000000E+00 -0.74505805969E-08  0.93827000000E+00  0.93827000000E+00 0. -1.
     999902    2    1    2    0    0  0.22504347972E-01 -0.18062883226E-02 -0.46729323696E-02  0.10208747478E+01  0.10206143768E+01 0.  0.
     999903    2    3    3    0    0 -0.14739361931E-01 -0.10748711476E+00 -0.71300678167E-01  0.13127102285E+00  0.19431060315E-01 0.  0.
         14    1    1    2    0    0 -0.22504347972E-01  0.18062883226E-02  0.46729323696E-02  0.23055252158E-01  0.00000000000E+00 0.  1.
     999901    1    3    3    0    0  0.37243709903E-01  0.10568082643E+00  0.66627745798E-01  0.88960372499E+00  0.88000000000E+00 0.  1.
        -11    1    4    4    0    0  0.18621443617E-02 -0.53948410511E-01 -0.31227390967E-01  0.62364329916E-01  0.51100000000E-03 0. -1.
         11    1    4    4    0    0 -0.16601506293E-01 -0.53538704246E-01 -0.40073287200E-01  0.68906692937E-01  0.51100000000E-03 0.  1.
</event>
<event>
 8    1  0.1123361E+005  0.1043930E+01  0.7957747E-01            NaN
         13   -1    0    0    0    0  0.00000000000E+00  0.00000000000E+00  0.74505805969E-08  0.10566000000E+00  0.10566000000E+00 0. -1.
     999900   -1    0    0    0    0 -0.00000000000E+00 -0.00000000000E+00 -0.74505805969E-08  0.93827000000E+00  0.93827000000E+00 0. -1.
     999902    2    1    2    0    0  0.66855389778E-03  0.12733518137E-01  0.19500882580E-01  0.10206303461E+01  0.10203643612E+01 0.  0.
     999903    2    3    3    0    0 -0.95940603026E-01  0.17792550265E-01 -0.82586450973E-01  0.12946215400E+00  0.20463462105E-01 0.  0.
         14    1    1    2    0    0 -0.66855389778E-03 -0.12733518137E-01 -0.19500882580E-01  0.23299653857E-01  0.00000000000E+00 0.  1.
     999901    1    3    3    0    0  0.96609156924E-01 -0.50590321281E-02  0.10208733355E+00  0.89116819214E+00  0.88000000000E+00 0. -1.
        -11    1    4    4    0    0 -0.89330493878E-01  0.21568512734E-01 -0.78158818211E-01  0.12064078855E+00  0.51100000000E-03 0. -1.
         11    1    4    4    0    0 -0.66101091476E-02 -0.37759624696E-02 -0.44276327619E-02  0.88213654492E-02  0.51100000000E-03 0.  1.
</event>
<event>
 8    1  0.1123361E+005  0.1043930E+01  0.7957747E-01            NaN
         13   -1    0    0    0    0  0.00000000000E+00  0.00000000000E+00  0.74505805969E-08  0.10566000000E+00  0.10566000000E+00 0.  1.
     999900   -1    0    0    0    0 -0.00000000000E+00 -0.00000000000E+00 -0.74505805969E-08  0.93827000000E+00  0.93827000000E+00 0. -1.
     999902    2    1    2    0    0  0.61777620122E-02  0.16393067227E-01 -0.15305885618E-01  0.10206669922E+01  0.10204018529E+01 0.  0.
     999903    2    3    3    0    0  0.84367538473E-01  0.80917308777E-01  0.57111101049E-01  0.13189185820E+00  0.21640055182E-01 0.  0.
         14    1    1    2    0    0 -0.61777620122E-02 -0.16393067227E-01  0.15305885618E-01  0.23263007783E-01  0.00000000000E+00 0.  1.
     999901    1    3    3    0    0 -0.78189776461E-01 -0.64524241551E-01 -0.72416986667E-01  0.88877513402E+00  0.88000000000E+00 0. -1.
        -11    1    4    4    0    0  0.53559521103E-01  0.45991225564E-01  0.23319395023E-01  0.74349649864E-01  0.51100000000E-03 0.  1.
         11    1    4    4    0    0  0.30808017371E-01  0.34926083213E-01  0.33791706026E-01  0.57542208335E-01  0.51100000000E-03 0. -1.
</event>
<event>
 8    1  0.1123361E+005  0.1043930E+01  0.7957747E-01            NaN
         13   -1    0    0    0    0  0.00000000000E+00  0.00000000000E+00  0.74505805969E-08  0.10566000000E+00  0.10566000000E+00 0.  1.
     999900   -1    0    0    0    0 -0.00000000000E+00 -0.00000000000E+00 -0.74505805969E-08  0.93827000000E+00  0.93827000000E+00 0. -1.
     999902    2    1    2    0    0 -0.19012839320E-01 -0.99491918969E-02 -0.80062608505E-02  0.10210264044E+01  0.10207694861E+01 0.  0.
     999903    2    3    3    0    0 -0.95266206420E-01 -0.20242788554E-01 -0.89655344039E-01  0.13390346652E+00  0.20165243822E-01 0.  0.
         14    1    1    2    0    0  0.19012839320E-01  0.99491918969E-02  0.80062608505E-02  0.22903595596E-01  0.00000000000E+00 0. -1.
     999901    1    3    3    0    0  0.76253367100E-01  0.10293596657E-01  0.81649083189E-01  0.88712293788E+00  0.88000000000E+00 0.  1.
        -11    1    4    4    0    0 -0.16046213907E-01 -0.11424153923E-01 -0.19376511606E-01  0.27635169561E-01  0.51100000000E-03 0. -1.
         11    1    4    4    0    0 -0.79219992513E-01 -0.88186346305E-02 -0.70278832433E-01  0.10626829696E+00  0.51100000000E-03 0.  1.
</event>
<event>
 8    1  0.1123361E+005  0.1043930E+01  0.7957747E-01            NaN
         13   -1    0    0    0    0  0.00000000000E+00  0.00000000000E+00  0.74505805969E-08  0.10566000000E+00  0.10566000000E+00 0. -1.
     999900   -1    0    0    0    0 -0.00000000000E+00 -0.00000000000E+00 -0.74505805969E-08  0.93827000000E+00  0.93827000000E+00 0. -1.
     999902    2    1    2    0    0 -0.22498740281E-01 -0.11427832042E-04 -0.73071848764E-02  0.10202743792E+01  0.10200001081E+01 0.  0.
     999903    2    3    3    0    0 -0.11166289146E+00 -0.56658410691E-01 -0.40692414418E-01  0.13332810119E+00  0.21017448537E-01 0.  0.
         14    1    1    2    0    0  0.22498740281E-01  0.11427832042E-04  0.73071848764E-02  0.23655620805E-01  0.00000000000E+00 0.  1.
     999901    1    3    3    0    0  0.89164151181E-01  0.56646982859E-01  0.33385229542E-01  0.88694627801E+00  0.88000000000E+00 0. -1.
        -11    1    4    4    0    0 -0.46811608985E-01 -0.27664194468E-01 -0.74147090112E-02  0.54880537734E-01  0.51100000000E-03 0.  1.
         11    1    4    4    0    0 -0.64851282477E-01 -0.28994216223E-01 -0.33277705407E-01  0.78447563452E-01  0.51100000000E-03 0. -1.
</event>
<event>
 8    1  0.1123361E+005  0.1043930E+01  0.7957747E-01            NaN
         13   -1    0    0    0    0  0.00000000000E+00  0.00000000000E+00  0.74505805969E-08  0.10566000000E+00  0.10566000000E+00 0. -1.
     999900   -1    0    0    0    0 -0.00000000000E+00 -0.00000000000E+00 -0.74505805969E-08  0.93827000000E+00  0.93827000000E+00 0. -1.
     999902    2    1    2    0    0  0.18222744855E-02 -0.81933605059E-02  0.22602274711E-01  0.10198195321E+01  0.10195344837E+01 0.  0.
     999903    2    3    3    0    0  0.77996830462E-01  0.45585956990E-01  0.94075945037E-01  0.13201140895E+00  0.20375073526E-01 0.  0.
         14    1    1    2    0    0 -0.18222744855E-02  0.81933605059E-02 -0.22602274711E-01  0.24110467909E-01  0.00000000000E+00 0.  1.
     999901    1    3    3    0    0 -0.76174555976E-01 -0.53779317495E-01 -0.71473670325E-01  0.88780812314E+00  0.88000000000E+00 0.  1.
        -11    1    4    4    0    0  0.53000822221E-01  0.33820109661E-01  0.51590671614E-01  0.81331085645E-01  0.51100000000E-03 0.  1.
         11    1    4    4    0    0  0.24996008240E-01  0.11765847329E-01  0.42485273423E-01  0.50680323303E-01  0.51100000000E-03 0. -1.
</event>
<event>
 8    1  0.1123361E+005  0.1043930E+01  0.7957747E-01            NaN
         13   -1    0    0    0    0  0.00000000000E+00  0.00000000000E+00  0.74505805969E-08  0.10566000000E+00  0.10566000000E+00 0.  1.
     999900   -1    0    0    0    0 -0.00000000000E+00 -0.00000000000E+00 -0.74505805969E-08  0.93827000000E+00  0.93827000000E+00 0. -1.
     999902    2    1    2    0    0  0.15671076750E-02 -0.10450614336E-01 -0.21538962525E-01  0.10199383749E+01  0.10196561629E+01 0.  0.
     999903    2    3    3    0    0 -0.47352673653E-02 -0.12752046443E+00  0.22513367172E-01  0.13107073716E+00  0.19717881058E-01 0.  0.
         14    1    1    2    0    0 -0.15671076750E-02  0.10450614336E-01  0.21538962525E-01  0.23991625062E-01  0.00000000000E+00 0.  1.
     999901    1    3    3    0    0  0.63023750403E-02  0.11706985009E+00 -0.44052329698E-01  0.88886763778E+00  0.88000000000E+00 0. -1.
        -11    1    4    4    0    0 -0.80580621132E-03 -0.88317694941E-02 -0.34173624681E-02  0.95178234532E-02  0.51100000000E-03 0. -1.
         11    1    4    4    0    0 -0.39294611539E-02 -0.11868869494E+00  0.25930729641E-01  0.12155291371E+00  0.51100000000E-03 0.  1.
</event>
<event>
 8    1  0.1123361E+005  0.1043930E+01  0.7957747E-01            NaN
         13   -1    0    0    0    0  0.00000000000E+00  0.00000000000E+00  0.74505805969E-08  0.10566000000E+00  0.10566000000E+00 0.  1.
     999900   -1    0    0    0    0 -0.00000000000E+00 -0.00000000000E+00 -0.74505805969E-08  0.93827000000E+00  0.93827000000E+00 0.  1.
     999902    2    1    2    0    0 -0.16967247394E-01  0.24391690575E-02  0.16670737942E-01  0.10200186944E+01  0.10197383912E+01 0.  0.
     999903    2    3    3    0    0 -0.10431224532E+00 -0.23539463623E-01  0.76674988163E-01  0.13328054366E+00  0.21201382860E-01 0.  0.
         14    1    1    2    0    0  0.16967247394E-01 -0.24391690575E-02 -0.16670737942E-01  0.23911305556E-01  0.00000000000E+00 0.  1.
     999901    1    3    3    0    0  0.87344997930E-01  0.25978632680E-01 -0.60004250221E-01  0.88673815079E+00  0.88000000000E+00 0. -1.
        -11    1    4    4    0    0 -0.61865187393E-01 -0.24299636923E-01  0.49437116688E-01  0.82837572352E-01  0.51100000000E-03 0.  1.
         11    1    4    4    0    0 -0.42447057932E-01  0.76017330014E-03  0.27237871475E-01  0.50442971304E-01  0.51100000000E-03 0. -1.
</event>
<event>
 8    1  0.1123361E+005  0.1043930E+01  0.7957747E-01            NaN
         13   -1    0    0    0    0  0.00000000000E+00  0.00000000000E+00  0.74505805969E-08  0.10566000000E+00  0.10566000000E+00 0. -1.
     999900   -1    0    0    0    0 -0.00000000000E+00 -0.00000000000E+00 -0.74505805969E-08  0.93827000000E+00  0.93827000000E+00 0.  1.
     999902    2    1    2    0    0 -0.14673176204E-01 -0.10430862416E-01 -0.15518613504E-01  0.10201616943E+01  0.10198847730E+01 0.  0.
     999903    2    3    3    0    0 -0.90562111967E-01 -0.10612968179E-01 -0.95306500931E-01  0.13329909462E+00  0.19266247417E-01 0.  0.
         14    1    1    2    0    0  0.14673176204E-01  0.10430862416E-01  0.15518613504E-01  0.23768305697E-01  0.00000000000E+00 0. -1.
     999901    1    3    3    0    0  0.75888935763E-01  0.18210576279E-03  0.79787887428E-01  0.88686259968E+00  0.88000000000E+00 0. -1.
        -11    1    4    4    0    0 -0.38120162330E-01  0.50603506966E-02 -0.39073656117E-01  0.54824863416E-01  0.51100000000E-03 0.  1.
         11    1    4    4    0    0 -0.52441949637E-01 -0.15673318875E-01 -0.56232844815E-01  0.78474231205E-01  0.51100000000E-03 0. -1.
</event>
<event>
 8    1  0.1123361E+005  0.1043930E+01  0.7957747E-01            NaN
         13   -1    0    0    0    0  0.00000000000E+00  0.00000000000E+00  0.74505805969E-08  0.10566000000E+00  0.10566000000E+00 0. -1.
     999900   -1    0    0    0    0 -0.00000000000E+00 -0.00000000000E+00 -0.74505805969E-08  0.93827000000E+00  0.93827000000E+00 0. -1.
     999902    2    1    2    0    0  0.13782954687E-02  0.16998353863E-01 -0.24673107173E-01  0.10139365682E+01  0.10134928507E+01 0.  0.
     999903    2    3    3    0    0  0.67133607110E-01  0.10487237200E+00 -0.15798947886E-01  0.12707448493E+00  0.19828826341E-01 0.  0.
         14    1    1    2    0    0 -0.13782954687E-02 -0.16998353863E-01  0.24673107173E-01  0.29993431781E-01  0.00000000000E+00 0. -1.
     999901    1    3    3    0    0 -0.65755311642E-01 -0.87874018134E-01 -0.88741592865E-02  0.88686208329E+00  0.88000000000E+00 0. -1.
        -11    1    4    4    0    0  0.15442372632E-01  0.41509288625E-01 -0.44170240955E-02  0.44511337180E-01  0.51100000000E-03 0. -1.
         11    1    4    4    0    0  0.51691234479E-01  0.63363083372E-01 -0.11381923791E-01  0.82563147751E-01  0.51100000000E-03 0.  1.
</event>
<event>
 8    1  0.1123361E+005  0.1043930E+01  0.7957747E-01            NaN
         13   -1    0    0    0    0  0.00000000000E+00  0.00000000000E+00  0.74505805969E-08  0.10566000000E+00  0.10566000000E+00 0. -1.
     999900   -1    0    0    0    0 -0.00000000000E+00 -0.00000000000E+00 -0.74505805969E-08  0.93827000000E+00  0.93827000000E+00 0. -1.
     999902    2    1    2    0    0 -0.12597641240E-01 -0.18620187253E-01  0.79461762847E-02  0.10200856368E+01  0.10198069194E+01 0.  0.
     999903    2    3    3    0    0 -0.11776718091E+00 -0.21841210266E-01 -0.51870552844E-01  0.13180130838E+00  0.18299816179E-01 0.  0.
         14    1    1    2    0    0  0.12597641240E-01  0.18620187253E-01 -0.79461762847E-02  0.23844363185E-01  0.00000000000E+00 0.  1.
     999901    1    3    3    0    0  0.10516953967E+00  0.32210230128E-02  0.59816729129E-01  0.88828432844E+00  0.88000000000E+00 0.  1.
        -11    1    4    4    0    0 -0.36174058663E-01 -0.98723761219E-02 -0.24985278760E-01  0.45061642293E-01  0.51100000000E-03 0. -1.
         11    1    4    4    0    0 -0.81593122247E-01 -0.11968834144E-01 -0.26885274085E-01  0.86739666084E-01  0.51100000000E-03 0.  1.
</event>
<event>
 8    1  0.1123361E+005  0.1043930E+01  0.7957747E-01            NaN
         13   -1    0    0    0    0  0.00000000000E+00  0.00000000000E+00  0.74505805969E-08  0.10566000000E+00  0.10566000000E+00 0. -1.
     999900   -1    0    0    0    0 -0.00000000000E+00 -0.00000000000E+00 -0.74505805969E-08  0.93827000000E+00  0.93827000000E+00 0.  1.
     999902    2    1    2    0    0 -0.15606563298E-01  0.35200562726E-02 -0.16869946386E-01  0.10206802537E+01  0.10204154201E+01 0.  0.
     999903    2    3    3    0    0  0.80951384314E-01 -0.92676545713E-01 -0.36450851784E-01  0.12997231312E+00  0.20544313887E-01 0.  0.
         14    1    1    2    0    0  0.15606563298E-01 -0.35200562726E-02  0.16869946386E-01  0.23249746347E-01  0.00000000000E+00 0. -1.
     999901    1    3    3    0    0 -0.96557947612E-01  0.96196601986E-01  0.19580905397E-01  0.89070794054E+00  0.88000000000E+00 0. -1.
        -11    1    4    4    0    0  0.58104692650E-01 -0.72136980270E-01 -0.35598642479E-01  0.99234186135E-01  0.51100000000E-03 0.  1.
         11    1    4    4    0    0  0.22846691664E-01 -0.20539565443E-01 -0.85220930474E-03  0.30738126980E-01  0.51100000000E-03 0. -1.
</event>
<event>
 8    1  0.1123361E+005  0.1043930E+01  0.7957747E-01            NaN
         13   -1    0    0    0    0  0.00000000000E+00  0.00000000000E+00  0.74505805969E-08  0.10566000000E+00  0.10566000000E+00 0.  1.
     999900   -1    0    0    0    0 -0.00000000000E+00 -0.00000000000E+00 -0.74505805969E-08  0.93827000000E+00  0.93827000000E+00 0. -1.
     999902    2    1    2    0    0 -0.12911973707E-01 -0.20213112606E-01  0.39333171829E-02  0.10196244457E+01  0.10193347096E+01 0.  0.
     999903    2    3    3    0    0 -0.14750791530E-01  0.80063891394E-01 -0.97071140084E-01  0.12818697779E+00  0.19526455971E-01 0.  0.
         14    1    1    2    0    0  0.12911973707E-01  0.20213112606E-01 -0.39333171829E-02  0.24305554310E-01  0.00000000000E+00 0. -1.
     999901    1    3    3    0    0  0.18388178231E-02 -0.10027700400E+00  0.10100445727E+00  0.89143746790E+00  0.88000000000E+00 0.  1.
        -11    1    4    4    0    0 -0.13562837594E-01  0.25647078279E-01 -0.38760653445E-01  0.48418721217E-01  0.51100000000E-03 0. -1.
         11    1    4    4    0    0 -0.11879539362E-02  0.54416813116E-01 -0.58310486639E-01  0.79768256577E-01  0.51100000000E-03 0.  1.
</event>
<event>
 8    1  0.1123361E+005  0.1043930E+01  0.7957747E-01            NaN
         13   -1    0    0    0    0  0.00000000000E+00  0.00000000000E+00  0.74505805969E-08  0.10566000000E+00  0.10566000000E+00 0. -1.
     999900   -1    0    0    0    0 -0.00000000000E+00 -0.00000000000E+00 -0.74505805969E-08  0.93827000000E+00  0.93827000000E+00 0.  1.
     999902    2    1    2    0    0  0.11978254296E-01 -0.18532555156E-01  0.90684119231E-02  0.10200727103E+01  0.10197936870E+01 0.  0.
     999903    2    3    3    0    0  0.19296099764E-02 -0.77278683162E-01 -0.10371586063E+00  0.13087510857E+00  0.19889596022E-01 0.  0.
         14    1    1    2    0    0 -0.11978254296E-01  0.18532555156E-01 -0.90684119231E-02  0.23857289691E-01  0.00000000000E+00 0. -1.
     999901    1    3    3    0    0  0.10048644319E-01  0.58746128006E-01  0.11278427255E+00  0.88919760174E+00  0.88000000000E+00 0. -1.
        -11    1    4    4    0    0 -0.41633612789E-02 -0.13090926793E-01 -0.29608416964E-01  0.32643918539E-01  0.51100000000E-03 0.  1.
         11    1    4    4    0    0  0.60929712553E-02 -0.64187756369E-01 -0.74107443668E-01  0.98231190029E-01  0.51100000000E-03 0. -1.
</event>
<event>
 8    1  0.1123361E+005  0.1043930E+01  0.7957747E-01            NaN
         13   -1    0    0    0    0  0.00000000000E+00  0.00000000000E+00  0.74505805969E-08  0.10566000000E+00  0.10566000000E+00 0. -1.
     999900   -1    0    0    0    0 -0.00000000000E+00 -0.00000000000E+00 -0.74505805969E-08  0.93827000000E+00  0.93827000000E+00 0. -1.
     999902    2    1    2    0    0  0.32055750118E-02  0.23557169700E-01 -0.13454671483E-03  0.10201553484E+01  0.10198782775E+01 0.  0.
     999903    2    3    3    0    0  0.93848347281E-01  0.88002407887E-01  0.25569531920E-01  0.13278282204E+00  0.20628639948E-01 0.  0.
         14    1    1    2    0    0 -0.32055750118E-02 -0.23557169700E-01  0.13454671483E-03  0.23774651591E-01  0.00000000000E+00 0.  1.
     999901    1    3    3    0    0 -0.90642772269E-01 -0.64445238187E-01 -0.25704078635E-01  0.88737252637E+00  0.88000000000E+00 0.  1.
        -11    1    4    4    0    0  0.74304467580E-01  0.65714212012E-01  0.27897337929E-01  0.10304384575E+00  0.51100000000E-03 0.  1.
         11    1    4    4    0    0  0.19543879701E-01  0.22288195875E-01 -0.23278060087E-02  0.29738976293E-01  0.51100000000E-03 0. -1.
</event>
<event>
 8    1  0.1123361E+005  0.1043930E+01  0.7957747E-01            NaN
         13   -1    0    0    0    0  0.00000000000E+00  0.00000000000E+00  0.74505805969E-08  0.10566000000E+00  0.10566000000E+00 0.  1.
     999900   -1    0    0    0    0 -0.00000000000E+00 -0.00000000000E+00 -0.74505805969E-08  0.93827000000E+00  0.93827000000E+00 0. -1.
     999902    2    1    2    0    0 -0.47931523141E-02  0.20641969427E-01 -0.11116073851E-01  0.10200002631E+01  0.10197195224E+01 0.  0.
     999903    2    3    3    0    0 -0.93783245804E-01  0.86040303818E-01 -0.31799581608E-01  0.13285653946E+00  0.21009893181E-01 0.  0.
         14    1    1    2    0    0  0.47931523141E-02 -0.20641969427E-01  0.11116073851E-01  0.23929736914E-01  0.00000000000E+00 0.  1.
     999901    1    3    3    0    0  0.88990093490E-01 -0.65398334392E-01  0.20683507757E-01  0.88714372363E+00  0.88000000000E+00 0.  1.
        -11    1    4    4    0    0 -0.54498391175E-01  0.62165333735E-01 -0.15737302581E-01  0.84157751708E-01  0.51100000000E-03 0. -1.
         11    1    4    4    0    0 -0.39284854629E-01  0.23874970083E-01 -0.16062279027E-01  0.48698787749E-01  0.51100000000E-03 0.  1.
</event>
<event>
 8    1  0.1123361E+005  0.1043930E+01  0.7957747E-01            NaN
         13   -1    0    0    0    0  0.00000000000E+00  0.00000000000E+00  0.74505805969E-08  0.10566000000E+00  0.10566000000E+00 0.  1.
     999900   -1    0    0    0    0 -0.00000000000E+00 -0.00000000000E+00 -0.74505805969E-08  0.93827000000E+00  0.93827000000E+00 0.  1.
     999902    2    1    2    0    0  0.14482509612E-01 -0.18334445598E-01  0.40819865356E-02  0.10202117034E+01  0.10199359598E+01 0.  0.
     999903    2    3    3    0    0  0.38347537811E-01 -0.63487666177E-01  0.10809513180E+00  0.13261546225E+00  0.20027128994E-01 0.  0.
         14    1    1    2    0    0 -0.14482509612E-01  0.18334445598E-01 -0.40819865356E-02  0.23718296611E-01  0.00000000000E+00 0. -1.
     999901    1    3    3    0    0 -0.23865028200E-01  0.45153220579E-01 -0.10401314526E+00  0.88759624114E+00  0.88000000000E+00 0.  1.
        -11    1    4    4    0    0  0.23166526711E-01 -0.54157382279E-01  0.85678046337E-01  0.10397451015E+00  0.51100000000E-03 0. -1.
         11    1    4    4    0    0  0.15181011100E-01 -0.93302838987E-02  0.22417085462E-01  0.28640952101E-01  0.51100000000E-03 0.  1.
</event>
<event>
 8    1  0.1123361E+005  0.1043930E+01  0.7957747E-01            NaN
         13   -1    0    0    0    0  0.00000000000E+00  0.00000000000E+00  0.74505805969E-08  0.10566000000E+00  0.10566000000E+00 0.  1.
     999900   -1    0    0    0    0 -0.00000000000E+00 -0.00000000000E+00 -0.74505805969E-08  0.93827000000E+00  0.93827000000E+00 0. -1.
     999902    2    1    2    0    0  0.12771617245E-01 -0.18140170641E-01  0.58174923227E-02  0.10209948040E+01  0.10207371682E+01 0.  0.
     999903    2    3    3    0    0 -0.98379247045E-01  0.36809854350E-01  0.73383571180E-01  0.12973771715E+00  0.20329414779E-01 0.  0.
         14    1    1    2    0    0 -0.12771617245E-01  0.18140170641E-01 -0.58174923227E-02  0.22935195985E-01  0.00000000000E+00 0. -1.
     999901    1    3    3    0    0  0.11115086429E+00 -0.54950024991E-01 -0.67566078857E-01  0.89125708687E+00  0.88000000000E+00 0. -1.
        -11    1    4    4    0    0 -0.41339788957E-01  0.22188450150E-01  0.42191873158E-01  0.63100877590E-01  0.51100000000E-03 0.  1.
         11    1    4    4    0    0 -0.57039458088E-01  0.14621404200E-01  0.31191698021E-01  0.66636839558E-01  0.51100000000E-03 0. -1.
</event>
<event>
 7    1  0.1123361E+005  0.1043930E+01  0.7957747E-01            NaN
         13   -1    0    0    0    0  0.00000000000E+00  0.00000000000E+00  0.74505805969E-08  0.10566000000E+00  0.10566000000E+00 0. -1.
     999900   -1    0    0    0    0 -0.00000000000E+00 -0.00000000000E+00 -0.74505805969E-08  0.93827000000E+00  0.93827000000E+00 0. -1.
     999903    2    1    2    0    0 -0.24064719536E-01  0.16124483664E-01  0.38483224819E-01  0.52381346687E-01  0.20584877666E-01 0.  0.
         14    1    1    2    0    0 -0.98962353036E-01 -0.22106305503E-01  0.82935709367E-02  0.10173995960E+00  0.00000000000E+00 0.  1.
     999901    1    1    2    0    0  0.12302707257E+00  0.59818218384E-02 -0.46776795756E-01  0.88980869371E+00  0.88000000000E+00 0. -1.
        -11    1    3    3    0    0 -0.13404272422E-01  0.56931833380E-02  0.33690460903E-01  0.36706881270E-01  0.51100000000E-03 0. -1.
         11    1    3    3    0    0 -0.10660447114E-01  0.10431300326E-01  0.47927639155E-02  0.15674465417E-01  0.51100000000E-03 0.  1.
</event>
<event>
 8    1  0.1123361E+005  0.1043930E+01  0.7957747E-01            NaN
         13   -1    0    0    0    0  0.00000000000E+00  0.00000000000E+00  0.74505805969E-08  0.10566000000E+00  0.10566000000E+00 0. -1.
     999900   -1    0    0    0    0 -0.00000000000E+00 -0.00000000000E+00 -0.74505805969E-08  0.93827000000E+00  0.93827000000E+00 0.  1.
     999902    2    1    2    0    0 -0.16989904384E-01  0.68159546983E-02 -0.16167585693E-01  0.10195065499E+01  0.10192139620E+01 0.  0.
     999903    2    3    3    0    0 -0.11523179173E+00 -0.36524592936E-01  0.45871070324E-01  0.13081162677E+00  0.19877497050E-01 0.  0.
         14    1    1    2    0    0  0.16989904384E-01 -0.68159546983E-02  0.16167585693E-01  0.24423450136E-01  0.00000000000E+00 0. -1.
     999901    1    3    3    0    0  0.98241887351E-01  0.43340547634E-01 -0.62038656017E-01  0.88869492310E+00  0.88000000000E+00 0.  1.
        -11    1    4    4    0    0 -0.28981625295E-01 -0.87163381172E-02  0.25780913313E-02  0.30377900369E-01  0.51100000000E-03 0.  1.
         11    1    4    4    0    0 -0.86250166440E-01 -0.27808254819E-01  0.43292978992E-01  0.10043372640E+00  0.51100000000E-03 0. -1.
</event>
<event>
 8    1  0.1123361E+005  0.1043930E+01  0.7957747E-01            NaN
         13   -1    0    0    0    0  0.00000000000E+00  0.00000000000E+00  0.74505805969E-08  0.10566000000E+00  0.10566000000E+00 0.  1.
     999900   -1    0    0    0    0 -0.00000000000E+00 -0.00000000000E+00 -0.74505805969E-08  0.93827000000E+00  0.93827000000E+00 0. -1.
     999902    2    1    2    0    0 -0.31262620309E-02  0.23916004053E-01  0.19905416380E-02  0.10197285327E+01  0.10194413026E+01 0.  0.
     999903    2    3    3    0    0 -0.86237339062E-01  0.74626135528E-01  0.63808876309E-01  0.13220361751E+00  0.20007124585E-01 0.  0.
         14    1    1    2    0    0  0.31262620309E-02 -0.23916004053E-01 -0.19905416380E-02  0.24201467314E-01  0.00000000000E+00 0. -1.
     999901    1    3    3    0    0  0.83111077031E-01 -0.50710131475E-01 -0.61818334671E-01  0.88752491518E+00  0.88000000000E+00 0. -1.
        -11    1    4    4    0    0 -0.45316754128E-01  0.49466039045E-01  0.44065313654E-01  0.80265249092E-01  0.51100000000E-03 0. -1.
         11    1    4    4    0    0 -0.40920584934E-01  0.25160096483E-01  0.19743562655E-01  0.51938368416E-01  0.51100000000E-03 0.  1.
</event>
<event>
 8    1  0.1123361E+005  0.1043930E+01  0.7957747E-01            NaN
         13   -1    0    0    0    0  0.00000000000E+00  0.00000000000E+00  0.74505805969E-08  0.10566000000E+00  0.10566000000E+00 0.  1.
     999900   -1    0    0    0    0 -0.00000000000E+00 -0.00000000000E+00 -0.74505805969E-08  0.93827000000E+00  0.93827000000E+00 0. -1.
     999902    2    1    2    0    0  0.18219382537E-02  0.13625870388E-01 -0.19261148862E-01  0.10202661952E+01  0.10199917320E+01 0.  0.
     999903    2    3    3    0    0  0.75115452954E-01 -0.88560722119E-01  0.51131894200E-01  0.12854358165E+00  0.20582735562E-01 0.  0.
         14    1    1    2    0    0 -0.18219382537E-02 -0.13625870388E-01  0.19261148862E-01  0.23663804815E-01  0.00000000000E+00 0. -1.
     999901    1    3    3    0    0 -0.73293514700E-01  0.10218659251E+00 -0.70393043062E-01  0.89172261354E+00  0.88000000000E+00 0.  1.
        -11    1    4    4    0    0  0.24533394064E-01 -0.16645585938E-01  0.86047277296E-02  0.30874996612E-01  0.51100000000E-03 0.  1.
         11    1    4    4    0    0  0.50582058890E-01 -0.71915136181E-01  0.42527166470E-01  0.97668585034E-01  0.51100000000E-03 0. -1.
</event>
<event>
 8    1  0.1123361E+005  0.1043930E+01  0.7957747E-01            NaN
         13   -1    0    0    0    0  0.00000000000E+00  0.00000000000E+00  0.74505805969E-08  0.10566000000E+00  0.10566000000E+00 0.  1.
     999900   -1    0    0    0    0 -0.00000000000E+00 -0.00000000000E+00 -0.74505805969E-08  0.93827000000E+00  0.93827000000E+00 0.  1.
     999902    2    1    2    0    0 -0.90789636099E-02  0.22244482366E-01 -0.12790154496E-02  0.10198700653E+01  0.10195862247E+01 0.  0.
     999903    2    3    3    0    0 -0.10505728742E+00  0.16477603284E-01 -0.75339184245E-01  0.13154016932E+00  0.17840359084E-01 0.  0.
         14    1    1    2    0    0  0.90789636099E-02 -0.22244482366E-01  0.12790154496E-02  0.24059934673E-01  0.00000000000E+00 0. -1.
     999901    1    3    3    0    0  0.95978323810E-01  0.57668790819E-02  0.74060168795E-01  0.88832989601E+00  0.88000000000E+00 0. -1.
        -11    1    4    4    0    0 -0.74859549134E-01  0.66718169484E-02 -0.44874225384E-01  0.87535264110E-01  0.51100000000E-03 0.  1.
         11    1    4    4    0    0 -0.30197738286E-01  0.98057863352E-02 -0.30464958861E-01  0.44004905211E-01  0.51100000000E-03 0. -1.
</event>
<event>
 8    1  0.1123361E+005  0.1043930E+01  0.7957747E-01            NaN
         13   -1    0    0    0    0  0.00000000000E+00  0.00000000000E+00  0.74505805969E-08  0.10566000000E+00  0.10566000000E+00 0. -1.
     999900   -1    0    0    0    0 -0.00000000000E+00 -0.00000000000E+00 -0.74505805969E-08  0.93827000000E+00  0.93827000000E+00 0. -1.
     999902    2    1    2    0    0  0.94662126617E-02 -0.15144640038E-01  0.15523594482E-01  0.10202667101E+01  0.10199922590E+01 0.  0.
     999903    2    3    3    0    0 -0.27526465655E-01  0.11444090985E+00 -0.44994979941E-01  0.12795321650E+00  0.22204711948E-01 0.  0.
         14    1    1    2    0    0 -0.94662126617E-02  0.15144640038E-01 -0.15523594482E-01  0.23663289917E-01  0.00000000000E+00 0. -1.
     999901    1    3    3    0    0  0.36992678316E-01 -0.12958554989E+00  0.60518574424E-01  0.89231349359E+00  0.88000000000E+00 0.  1.
        -11    1    4    4    0    0 -0.76637234618E-02  0.77103878449E-01 -0.28892262902E-01  0.82696824037E-01  0.51100000000E-03 0. -1.
         11    1    4    4    0    0 -0.19862742193E-01  0.37337031402E-01 -0.16102717040E-01  0.45256392459E-01  0.51100000000E-03 0.  1.
</event>
<event>
 7    1  0.1123361E+005  0.1043930E+01  0.7957747E-01            NaN
         13   -1    0    0    0    0  0.00000000000E+00  0.00000000000E+00  0.74505805969E-08  0.10566000000E+00  0.10566000000E+00 0. -1.
     999900   -1    0    0    0    0 -0.00000000000E+00 -0.00000000000E+00 -0.74505805969E-08  0.93827000000E+00  0.93827000000E+00 0. -1.
     999902    2    1    2    0    0  0.88130763070E-02  0.21557450866E-01  0.24453482954E-02  0.10205126191E+01  0.10202439081E+01 0.  0.
         14    1    1    2    0    0 -0.88130763070E-02 -0.21557450866E-01 -0.24453482954E-02  0.23417380941E-01  0.00000000000E+00 0.  1.
     999901    1    3    3    0    0 -0.86046470608E-01  0.80588635427E-01  0.58589223381E-01  0.88979279631E+00  0.88000000000E+00 0.  1.
        -11    1    3    3    0    0  0.58943327536E-01 -0.54305804259E-01 -0.28194521859E-01  0.84962511858E-01  0.51100000000E-03 0. -1.
         11    1    3    3    0    0  0.35916219379E-01 -0.47253803011E-02 -0.27949353227E-01  0.45757310894E-01  0.51100000000E-03 0.  1.
</event>
<event>
 8    1  0.1123361E+005  0.1043930E+01  0.7957747E-01            NaN
         13   -1    0    0    0    0  0.00000000000E+00  0.00000000000E+00  0.74505805969E-08  0.10566000000E+00  0.10566000000E+00 0. -1.
     999900   -1    0    0    0    0 -0.00000000000E+00 -0.00000000000E+00 -0.74505805969E-08  0.93827000000E+00  0.93827000000E+00 0.  1.
     999902    2    1    2    0    0  0.18522406226E-01 -0.19561348471E-02  0.14713375873E-01  0.10201941742E+01  0.10199180181E+01 0.  0.
     999903    2    3    3    0    0  0.22427728113E-01  0.12135481109E+00  0.39905739137E-01  0.13123101632E+00  0.19977949491E-01 0.  0.
         14    1    1    2    0    0 -0.18522406226E-01  0.19561348471E-02 -0.14713375873E-01  0.23735825782E-01  0.00000000000E+00 0. -1.
     999901    1    3    3    0    0 -0.39053218868E-02 -0.12331094594E+00 -0.25192363264E-01  0.88896315789E+00  0.88000000000E+00 0.  1.
        -11    1    4    4    0    0  0.13970718783E-01  0.33432132797E-01  0.16719969171E-01  0.39908733088E-01  0.51100000000E-03 0.  1.
         11    1    4    4    0    0  0.84570093302E-02  0.87922678295E-01  0.23185769966E-01  0.91322283235E-01  0.51100000000E-03 0. -1.
</event>
<event>
 8    1  0.1123361E+005  0.1043930E+01  0.7957747E-01            NaN
         13   -1    0    0    0    0  0.00000000000E+00  0.00000000000E+00  0.74505805969E-08  0.10566000000E+00  0.10566000000E+00 0. -1.
     999900   -1    0    0    0    0 -0.00000000000E+00 -0.00000000000E+00 -0.74505805969E-08  0.93827000000E+00  0.93827000000E+00 0.  1.
     999902    2    1    2    0    0  0.91588523775E-02  0.14508247954E-01  0.16641674302E-01  0.10200277164E+01  0.10197476272E+01 0.  0.
     999903    2    3    3    0    0 -0.11430882981E+00 -0.22055406426E-01  0.53662820667E-01  0.12988630372E+00  0.20923767495E-01 0.  0.
         14    1    1    2    0    0 -0.91588523775E-02 -0.14508247954E-01 -0.16641674302E-01  0.23902283555E-01  0.00000000000E+00 0.  1.
     999901    1    3    3    0    0  0.12346768219E+00  0.36563654380E-01 -0.37021146365E-01  0.89014141272E+00  0.88000000000E+00 0.  1.
        -11    1    4    4    0    0 -0.99590007460E-01 -0.23668236781E-01  0.40560099256E-01  0.11010784618E+00  0.51100000000E-03 0. -1.
         11    1    4    4    0    0 -0.14718822355E-01  0.16128303546E-02  0.13102721411E-01  0.19778457539E-01  0.51100000000E-03 0.  1.
</event>
<event>
 8    1  0.1123361E+005  0.1043930E+01  0.7957747E-01            NaN
         13   -1    0    0    0    0  0.00000000000E+00  0.00000000000E+00  0.74505805969E-08  0.10566000000E+00  0.10566000000E+00 0.  1.
     999900   -1    0    0    0    0 -0.00000000000E+00 -0.00000000000E+00 -0.74505805969E-08  0.93827000000E+00  0.93827000000E+00 0. -1.
     999902    2    1    2    0    0  0.16503035963E-01 -0.11656141506E-01  0.13831025482E-01  0.10194450435E+01  0.10191509621E+01 0.  0.
     999903    2    3    3    0    0  0.50729994840E-01  0.11286603569E+00 -0.32423981598E-01  0.12881785827E+00  0.15180633601E-01 0.  0.
         14    1    1    2    0    0 -0.16503035963E-01  0.11656141506E-01 -0.13831025482E-01  0.24484956538E-01  0.00000000000E+00 0. -1.
     999901    1    3    3    0    0 -0.34226958877E-01 -0.12452217720E+00  0.46255007080E-01  0.89062718519E+00  0.88000000000E+00 0. -1.
        -11    1    4    4    0    0  0.12132054823E-01  0.44760119981E-01 -0.11362079110E-01  0.47749482276E-01  0.51100000000E-03 0.  1.
         11    1    4    4    0    0  0.38597940017E-01  0.68105915711E-01 -0.21061902487E-01  0.81068375991E-01  0.51100000000E-03 0. -1.
</event>
<event>
 8    1  0.1123361E+005  0.1043930E+01  0.7957747E-01            NaN
         13   -1    0    0    0    0  0.00000000000E+00  0.00000000000E+00  0.74505805969E-08  0.10566000000E+00  0.10566000000E+00 0.  1.
     999900   -1    0    0    0    0 -0.00000000000E+00 -0.00000000000E+00 -0.74505805969E-08  0.93827000000E+00  0.93827000000E+00 0. -1.
     999902    2    1    2    0    0 -0.42920806876E-02  0.20669917707E-01 -0.10612247890E-01  0.10203018968E+01  0.10200282709E+01 0.  0.
     999903    2    3    3    0    0 -0.53009913101E-01 -0.11530268278E+00 -0.19867584456E-02  0.12848556240E+00  0.19995824373E-01 0.  0.
         14    1    1    2    0    0  0.42920806876E-02 -0.20669917707E-01  0.10612247890E-01  0.23628103181E-01  0.00000000000E+00 0.  1.
     999901    1    3    3    0    0  0.48717832413E-01  0.13597260048E+00 -0.86254894446E-02  0.89181633442E+00  0.88000000000E+00 0. -1.
        -11    1    4    4    0    0 -0.32434037723E-01 -0.75050916102E-01 -0.10657800118E-01  0.82452753957E-01  0.51100000000E-03 0.  1.
         11    1    4    4    0    0 -0.20575875378E-01 -0.40251766675E-01  0.86710416720E-02  0.46032808438E-01  0.51100000000E-03 0. -1.
</event>
<event>
 8    1  0.1123361E+005  0.1043930E+01  0.7957747E-01            NaN
         13   -1    0    0    0    0  0.00000000000E+00  0.00000000000E+00  0.74505805969E-08  0.10566000000E+00  0.10566000000E+00 0.  1.
     999900   -1    0    0    0    0 -0.00000000000E+00 -0.00000000000E+00 -0.74505805969E-08  0.93827000000E+00  0.93827000000E+00 0.  1.
     999902    2    1    2    0    0 -0.19367792300E-01 -0.12576753822E-01  0.46124832840E-02  0.10203808786E+01  0.10201091002E+01 0.  0.
     999903    2    3    3    0    0  0.10065190725E+00  0.44577155271E-01  0.62936904593E-01  0.12848792781E+00  0.20740405650E-01 0.  0.
         14    1    1    2    0    0  0.19367792300E-01  0.12576753822E-01 -0.46124832840E-02  0.23549121371E-01  0.00000000000E+00 0.  1.
     999901    1    3    3    0    0 -0.12001969955E+00 -0.57153909093E-01 -0.58324421309E-01  0.89189295082E+00  0.88000000000E+00 0.  1.
        -11    1    4    4    0    0  0.60343717182E-01  0.26839130206E-01  0.49190989772E-01  0.82351185233E-01  0.51100000000E-03 0.  1.
         11    1    4    4    0    0  0.40308190071E-01  0.17738025065E-01  0.13745914821E-01  0.46136742573E-01  0.51100000000E-03 0. -1.
</event>
<event>
 7    1  0.2136560E+005  0.1043930E+01  0.7957747E-01            NaN
         13   -1    0    0    0    0  0.00000000000E+00  0.00000000000E+00  0.74505805969E-08  0.10566000000E+00  0.10566000000E+00 0.  1.
     999900   -1    0    0    0    0 -0.00000000000E+00 -0.00000000000E+00 -0.74505805969E-08  0.93827000000E+00  0.93827000000E+00 0.  1.
     999903    2    1    2    0    0 -0.99416155298E-02  0.38536925888E-01 -0.79030382192E-01  0.90350354210E-01  0.18260745333E-01 0.  0.
         14    1    1    2    0    0  0.37149232248E-01 -0.19109700065E-01  0.59533747751E-01  0.72729039691E-01  0.00000000000E+00 0.  1.
     999901    1    1    2    0    0 -0.27207616718E-01 -0.19427225824E-01  0.19496634441E-01  0.88085060610E+00  0.88000000000E+00 0. -1.
        -11    1    3    3    0    0 -0.26324611486E-02  0.28692622778E-01 -0.39070212963E-01  0.48548317330E-01  0.51100000000E-03 0. -1.
         11    1    3    3    0    0 -0.73091543812E-02  0.98443031108E-02 -0.39960169229E-01  0.41802036880E-01  0.51100000000E-03 0.  1.
</event>
<event>
 8    1  0.1123361E+005  0.1043930E+01  0.7957747E-01            NaN
         13   -1    0    0    0    0  0.00000000000E+00  0.00000000000E+00  0.74505805969E-08  0.10566000000E+00  0.10566000000E+00 0. -1.
     999900   -1    0    0    0    0 -0.00000000000E+00 -0.00000000000E+00 -0.74505805969E-08  0.93827000000E+00  0.93827000000E+00 0. -1.
     999902    2    1    2    0    0  0.11308923960E-01 -0.12615544048E-01  0.17544502174E-01  0.10195403860E+01  0.10192486181E+01 0.  0.
     999903    2    3    3    0    0 -0.64417444005E-01 -0.43297443344E-01  0.10390161643E+00  0.13154634724E+00  0.22014083757E-01 0.  0.
         14    1    1    2    0    0 -0.11308923960E-01  0.12615544048E-01 -0.17544502174E-01  0.24389613964E-01  0.00000000000E+00 0.  1.
     999901    1    3    3    0    0  0.75726367966E-01  0.30681899296E-01 -0.86357114256E-01  0.88799403879E+00  0.88000000000E+00 0. -1.
        -11    1    4    4    0    0 -0.51711224990E-01 -0.25720243740E-01  0.85037918351E-01  0.10279732685E+00  0.51100000000E-03 0.  1.
         11    1    4    4    0    0 -0.12706219015E-01 -0.17577199604E-01  0.18863698079E-01  0.28749020397E-01  0.51100000000E-03 0. -1.
</event>
<event>
 8    1  0.1123361E+005  0.1043930E+01  0.7957747E-01            NaN
         13   -1    0    0    0    0  0.00000000000E+00  0.00000000000E+00  0.74505805969E-08  0.10566000000E+00  0.10566000000E+00 0.  1.
     999900   -1    0    0    0    0 -0.00000000000E+00 -0.00000000000E+00 -0.74505805969E-08  0.93827000000E+00  0.93827000000E+00 0.  1.
     999902    2    1    2    0    0 -0.15613423315E-01  0.17086804782E-01  0.36906470292E-02  0.10204915965E+01  0.10202223972E+01 0.  0.
     999903    2    3    3    0    0 -0.52701431373E-01 -0.11666705098E+00  0.18088312363E-02  0.12961048458E+00  0.20173353453E-01 0.  0.
         14    1    1    2    0    0  0.15613423315E-01 -0.17086804782E-01 -0.36906470292E-02  0.23438403546E-01  0.00000000000E+00 0. -1.
     999901    1    3    3    0    0  0.37088008058E-01  0.13375385576E+00  0.18818157930E-02  0.89088111188E+00  0.88000000000E+00 0. -1.
        -11    1    4    4    0    0 -0.28006256511E-01 -0.74396818214E-01 -0.72362929552E-02  0.79823943907E-01  0.51100000000E-03 0.  1.
         11    1    4    4    0    0 -0.24695174862E-01 -0.42270232761E-01  0.90451241914E-02  0.49786540669E-01  0.51100000000E-03 0. -1.
</event>
<event>
 8    1  0.1123361E+005  0.1043930E+01  0.7957747E-01            NaN
         13   -1    0    0    0    0  0.00000000000E+00  0.00000000000E+00  0.74505805969E-08  0.10566000000E+00  0.10566000000E+00 0. -1.
     999900   -1    0    0    0    0 -0.00000000000E+00 -0.00000000000E+00 -0.74505805969E-08  0.93827000000E+00  0.93827000000E+00 0.  1.
     999902    2    1    2    0    0 -0.41941944923E-02 -0.11612946563E-01 -0.17680087294E-01  0.10223652769E+01  0.10221378195E+01 0.  0.
     999903    2    3    3    0    0  0.49627284110E-01  0.20431613271E-01 -0.12130956463E+00  0.13407327878E+00  0.19476022764E-01 0.  0.
         14    1    1    2    0    0  0.41941944923E-02  0.11612946563E-01  0.17680087294E-01  0.21564723092E-01  0.00000000000E+00 0. -1.
     999901    1    3    3    0    0 -0.53821478602E-01 -0.32044559834E-01  0.10362947733E+00  0.88829199813E+00  0.88000000000E+00 0. -1.
        -11    1    4    4    0    0  0.33530195536E-01  0.20288020164E-01 -0.69164506054E-01  0.79497596150E-01  0.51100000000E-03 0. -1.
         11    1    4    4    0    0  0.16097088574E-01  0.14359310698E-03 -0.52145058572E-01  0.54575682626E-01  0.51100000000E-03 0.  1.
</event>
<event>
 8    1  0.1123361E+005  0.1043930E+01  0.7957747E-01            NaN
         13   -1    0    0    0    0  0.00000000000E+00  0.00000000000E+00  0.74505805969E-08  0.10566000000E+00  0.10566000000E+00 0. -1.
     999900   -1    0    0    0    0 -0.00000000000E+00 -0.00000000000E+00 -0.74505805969E-08  0.93827000000E+00  0.93827000000E+00 0. -1.
     999902    2    1    2    0    0  0.17148963266E-01  0.87127072932E-02  0.17130859199E-01  0.10181721945E+01  0.10178463307E+01 0.  0.
     999903    2    3    3    0    0 -0.74842400759E-01 -0.10757536066E-01  0.10407370618E+00  0.12890251653E+00  0.82105369608E-02 0.  0.
         14    1    1    2    0    0 -0.17148963266E-01 -0.87127072932E-02 -0.17130859199E-01  0.25757805543E-01  0.00000000000E+00 0.  1.
     999901    1    3    3    0    0  0.91991364026E-01  0.19470243359E-01 -0.86942846981E-01  0.88926967792E+00  0.88000000000E+00 0.  1.
        -11    1    4    4    0    0 -0.23746702563E-01 -0.42522723240E-02  0.27128535238E-01  0.36307110154E-01  0.51100000000E-03 0.  1.
         11    1    4    4    0    0 -0.51095698196E-01 -0.65052637417E-02  0.76945170942E-01  0.92595406381E-01  0.51100000000E-03 0. -1.
</event>
<event>
 8    1  0.1123361E+005  0.1043930E+01  0.7957747E-01            NaN
         13   -1    0    0    0    0  0.00000000000E+00  0.00000000000E+00  0.74505805969E-08  0.10566000000E+00  0.10566000000E+00 0. -1.
     999900   -1    0    0    0    0 -0.00000000000E+00 -0.00000000000E+00 -0.74505805969E-08  0.93827000000E+00  0.93827000000E+00 0. -1.
     999902    2    1    2    0    0 -0.62091939968E-03  0.98731240481E-02 -0.22808935531E-01  0.10190681485E+01  0.10187648304E+01 0.  0.
     999903    2    3    3    0    0  0.50193192307E-02 -0.84686441501E-01 -0.97608937895E-01  0.13082923691E+00  0.19793876169E-01 0.  0.
         14    1    1    2    0    0  0.62091939968E-03 -0.98731240481E-02  0.22808935531E-01  0.24861851489E-01  0.00000000000E+00 0. -1.
     999901    1    3    3    0    0 -0.56402386304E-02  0.94559565549E-01  0.74800002364E-01  0.88823891160E+00  0.88000000000E+00 0.  1.
        -11    1    4    4    0    0 -0.18059380076E-02 -0.69729997565E-01 -0.70897434644E-01  0.99459747298E-01  0.51100000000E-03 0. -1.
         11    1    4    4    0    0  0.68252572383E-02 -0.14956443936E-01 -0.26711503251E-01  0.31369489612E-01  0.51100000000E-03 0.  1.
</event>
<event>
 8    1  0.1123361E+005  0.1043930E+01  0.7957747E-01            NaN
         13   -1    0    0    0    0  0.00000000000E+00  0.00000000000E+00  0.74505805969E-08  0.10566000000E+00  0.10566000000E+00 0.  1.
     999900   -1    0    0    0    0 -0.00000000000E+00 -0.00000000000E+00 -0.74505805969E-08  0.93827000000E+00  0.93827000000E+00 0. -1.
     999902    2    1    2    0    0  0.41357717307E-02 -0.18991209242E-01 -0.11766545823E-01  0.10212094754E+01  0.10209566937E+01 0.  0.
     999903    2    3    3    0    0 -0.67981609684E-01  0.31399688751E-01 -0.10647716963E+00  0.13176568206E+00  0.20429576775E-01 0.  0.
         14    1    1    2    0    0 -0.41357717307E-02  0.18991209242E-01  0.11766545823E-01  0.22720524573E-01  0.00000000000E+00 0.  1.
     999901    1    3    3    0    0  0.72117381415E-01 -0.50390897993E-01  0.94710623804E-01  0.88944379337E+00  0.88000000000E+00 0.  1.
        -11    1    4    4    0    0 -0.31193558884E-01  0.43571524342E-02 -0.36555638170E-01  0.48255556118E-01  0.51100000000E-03 0.  1.
         11    1    4    4    0    0 -0.36788050800E-01  0.27042536317E-01 -0.69921531457E-01  0.83510125939E-01  0.51100000000E-03 0. -1.
</event>
<event>
 8    1  0.1123361E+005  0.1043930E+01  0.7957747E-01            NaN
         13   -1    0    0    0    0  0.00000000000E+00  0.00000000000E+00  0.74505805969E-08  0.10566000000E+00  0.10566000000E+00 0. -1.
     999900   -1    0    0    0    0 -0.00000000000E+00 -0.00000000000E+00 -0.74505805969E-08  0.93827000000E+00  0.93827000000E+00 0.  1.
     999902    2    1    2    0    0  0.17235186821E-01  0.22178472849E-01 -0.13581797695E-01  0.10127306162E+01  0.10122499194E+01 0.  0.
     999903    2    3    3    0    0 -0.11906295268E+00  0.17111334631E-01  0.52349297834E-02  0.12202475678E+00  0.19845712493E-01 0.  0.
         14    1    1    2    0    0 -0.17235186821E-01 -0.22178472849E-01  0.13581797695E-01  0.31199383829E-01  0.00000000000E+00 0.  1.
     999901    1    3    3    0    0  0.13629813950E+00  0.50671382176E-02 -0.18816727479E-01  0.89070585939E+00  0.88000000000E+00 0.  1.
        -11    1    4    4    0    0 -0.75970674454E-01  0.36524478502E-02  0.96116914336E-02  0.76665047352E-01  0.51100000000E-03 0.  1.
         11    1    4    4    0    0 -0.43092278223E-01  0.13458886781E-01 -0.43767616502E-02  0.45359709428E-01  0.51100000000E-03 0. -1.
</event>
<event>
 8    1  0.1123361E+005  0.1043930E+01  0.7957747E-01            NaN
         13   -1    0    0    0    0  0.00000000000E+00  0.00000000000E+00  0.74505805969E-08  0.10566000000E+00  0.10566000000E+00 0. -1.
     999900   -1    0    0    0    0 -0.00000000000E+00 -0.00000000000E+00 -0.74505805969E-08  0.93827000000E+00  0.93827000000E+00 0.  1.
     999902    2    1    2    0    0 -0.14065006922E-01  0.17449405191E-01  0.59386493409E-02  0.10207443640E+01  0.10204810057E+01 0.  0.
     999903    2    3    3    0    0  0.15984208059E-01  0.12273648030E-01  0.12899898961E+00  0.13165854635E+00  0.16943912291E-01 0.  0.
         14    1    1    2    0    0  0.14065006922E-01 -0.17449405191E-01 -0.59386493409E-02  0.23185636010E-01  0.00000000000E+00 0. -1.
     999901    1    3    3    0    0 -0.30049214981E-01  0.51757571605E-02 -0.12306034027E+00  0.88908581764E+00  0.88000000000E+00 0.  1.
        -11    1    4    4    0    0  0.52906415231E-02  0.24671294785E-02  0.87448816680E-01  0.87644932970E-01  0.51100000000E-03 0.  1.
         11    1    4    4    0    0  0.10693566536E-01  0.98065185515E-02  0.41550172927E-01  0.44013613379E-01  0.51100000000E-03 0. -1.
</event>
<event>
 8    1  0.1123361E+005  0.1043930E+01  0.7957747E-01            NaN
         13   -1    0    0    0    0  0.00000000000E+00  0.00000000000E+00  0.74505805969E-08  0.10566000000E+00  0.10566000000E+00 0. -1.
     999900   -1    0    0    0    0 -0.00000000000E+00 -0.00000000000E+00 -0.74505805969E-08  0.93827000000E+00  0.93827000000E+00 0.  1.
     999902    2    1    2    0    0 -0.84440294300E-03  0.19457593412E-01 -0.13148955455E-01  0.10204309365E+01  0.10201603257E+01 0.  0.
     999903    2    3    3    0    0 -0.12544915600E+00  0.11420581426E-02 -0.32922001961E-01  0.13124435498E+00  0.20060594816E-01 0.  0.
         14    1    1    2    0    0  0.84440294300E-03 -0.19457593412E-01  0.13148955455E-01  0.23499063540E-01  0.00000000000E+00 0. -1.
     999901    1    3    3    0    0  0.12460475305E+00  0.18315535269E-01  0.19773046506E-01  0.88918658148E+00  0.88000000000E+00 0. -1.
        -11    1    4    4    0    0 -0.25072113927E-01 -0.23311565807E-02  0.10744675980E-02  0.25208347613E-01  0.51100000000E-03 0.  1.
         11    1    4    4    0    0 -0.10037704207E+00  0.34732147233E-02 -0.33996469559E-01  0.10603600737E+00  0.51100000000E-03 0. -1.
</event>
<event>
 8    1  0.1123361E+005  0.1043930E+01  0.7957747E-01            NaN
         13   -1    0    0    0    0  0.00000000000E+00  0.00000000000E+00  0.74505805969E-08  0.10566000000E+00  0.10566000000E+00 0.  1.
     999900   -1    0    0    0    0 -0.00000000000E+00 -0.00000000000E+00 -0.74505805969E-08  0.93827000000E+00  0.93827000000E+00 0. -1.
     999902    2    1    2    0    0 -0.11589917060E-01  0.17128018409E-01  0.10624962608E-01  0.10206795157E+01  0.10204146650E+01 0.  0.
     999903    2    3    3    0    0  0.22123641469E-01  0.71475501366E-01 -0.10553118916E+00  0.13074552679E+00  0.18956742428E-01 0.  0.
         14    1    1    2    0    0  0.11589917060E-01 -0.17128018409E-01 -0.10624962608E-01  0.23250484350E-01  0.00000000000E+00 0.  1.
     999901    1    3    3    0    0 -0.33713558529E-01 -0.54347482957E-01  0.11615615177E+00  0.88993398886E+00  0.88000000000E+00 0.  1.
        -11    1    4    4    0    0  0.17290495001E-01  0.38997990805E-01 -0.72804502986E-01  0.84383418278E-01  0.51100000000E-03 0. -1.
         11    1    4    4    0    0  0.48331464678E-02  0.32477510561E-01 -0.32726686173E-01  0.46362108514E-01  0.51100000000E-03 0.  1.
</event>
<event>
 8    1  0.1123361E+005  0.1043930E+01  0.7957747E-01            NaN
         13   -1    0    0    0    0  0.00000000000E+00  0.00000000000E+00  0.74505805969E-08  0.10566000000E+00  0.10566000000E+00 0.  1.
     999900   -1    0    0    0    0 -0.00000000000E+00 -0.00000000000E+00 -0.74505805969E-08  0.93827000000E+00  0.93827000000E+00 0. -1.
     999902    2    1    2    0    0 -0.19836741347E-01 -0.90265441777E-02  0.41802151678E-02  0.10217388079E+01  0.10214977937E+01 0.  0.
     999903    2    3    3    0    0 -0.57492536969E-01 -0.53315773295E-01 -0.10561520130E+00  0.13301245620E+00  0.19742828342E-01 0.  0.
         14    1    1    2    0    0  0.19836741347E-01  0.90265441777E-02 -0.41802151678E-02  0.22191192079E-01  0.00000000000E+00 0.  1.
     999901    1    3    3    0    0  0.37655795623E-01  0.44289229117E-01  0.10979541647E+00  0.88872635172E+00  0.88000000000E+00 0.  1.
        -11    1    4    4    0    0 -0.80892159384E-02 -0.10219962676E-01 -0.76130018586E-02  0.15103045054E-01  0.51100000000E-03 0. -1.
         11    1    4    4    0    0 -0.49403321031E-01 -0.43095810619E-01 -0.98002199439E-01  0.11790941115E+00  0.51100000000E-03 0.  1.
</event>
<event>
 8    1  0.1123361E+005  0.1043930E+01  0.7957747E-01            NaN
         13   -1    0    0    0    0  0.00000000000E+00  0.00000000000E+00  0.74505805969E-08  0.10566000000E+00  0.10566000000E+00 0. -1.
     999900   -1    0    0    0    0 -0.00000000000E+00 -0.00000000000E+00 -0.74505805969E-08  0.93827000000E+00  0.93827000000E+00 0.  1.
     999902    2    1    2    0    0  0.75976398767E-02  0.37877934258E-02  0.21844210692E-01  0.10204941076E+01  0.10202249667E+01 0.  0.
     999903    2    3    3    0    0  0.40892282354E-01 -0.91418067531E-01  0.84385347818E-01  0.13252784531E+00  0.20329806401E-01 0.  0.
         14    1    1    2    0    0 -0.75976398767E-02 -0.37877934258E-02 -0.21844210692E-01  0.23435892376E-01  0.00000000000E+00 0. -1.
     999901    1    3    3    0    0 -0.33294642478E-01  0.95205860957E-01 -0.62541137127E-01  0.88796626232E+00  0.88000000000E+00 0. -1.
        -11    1    4    4    0    0  0.22546820239E-01 -0.50648583897E-01  0.33443461095E-01  0.64748469979E-01  0.51100000000E-03 0.  1.
         11    1    4    4    0    0  0.18345462115E-01 -0.40769483634E-01  0.50941886723E-01  0.67779375329E-01  0.51100000000E-03 0. -1.
</event>
<event>
 8    1  0.1123361E+005  0.1043930E+01  0.7957747E-01            NaN
         13   -1    0    0    0    0  0.00000000000E+00  0.00000000000E+00  0.74505805969E-08  0.10566000000E+00  0.10566000000E+00 0.  1.
     999900   -1    0    0    0    0 -0.00000000000E+00 -0.00000000000E+00 -0.74505805969E-08  0.93827000000E+00  0.93827000000E+00 0.  1.
     999902    2    1    2    0    0  0.39532935724E-02  0.19680025041E-01  0.11405371622E-01  0.10208428950E+01  0.10205817958E+01 0.  0.
     999903    2    3    3    0    0  0.12871872764E+00 -0.18956191233E-03 -0.17044713489E-01  0.13136517106E+00  0.19943398174E-01 0.  0.
         14    1    1    2    0    0 -0.39532935724E-02 -0.19680025041E-01 -0.11405371622E-01  0.23087105005E-01  0.00000000000E+00 0. -1.
     999901    1    3    3    0    0 -0.12476543407E+00  0.19869586953E-01  0.28450085111E-01  0.88947772393E+00  0.88000000000E+00 0.  1.
        -11    1    4    4    0    0  0.64697302278E-01  0.10932041166E-02 -0.18537414836E-01  0.67311461781E-01  0.51100000000E-03 0.  1.
         11    1    4    4    0    0  0.64021425367E-01 -0.12827660290E-02  0.14927013473E-02  0.64053709284E-01  0.51100000000E-03 0. -1.
</event>
<event>
 8    1  0.1123361E+005  0.1043930E+01  0.7957747E-01            NaN
         13   -1    0    0    0    0  0.00000000000E+00  0.00000000000E+00  0.74505805969E-08  0.10566000000E+00  0.10566000000E+00 0.  1.
     999900   -1    0    0    0    0 -0.00000000000E+00 -0.00000000000E+00 -0.74505805969E-08  0.93827000000E+00  0.93827000000E+00 0. -1.
     999902    2    1    2    0    0  0.10610052480E-01 -0.20523565282E-01 -0.32130809393E-02  0.10206037522E+01  0.10203371527E+01 0.  0.
     999903    2    3    3    0    0 -0.36984031878E-01  0.95739347911E-02 -0.12329066318E+00  0.13066573073E+00  0.20333881045E-01 0.  0.
         14    1    1    2    0    0 -0.10610052480E-01  0.20523565282E-01  0.32130809393E-02  0.23326247762E-01  0.00000000000E+00 0.  1.
     999901    1    3    3    0    0  0.47594084358E-01 -0.30097500073E-01  0.12007758224E+00  0.88993802151E+00  0.88000000000E+00 0.  1.
        -11    1    4    4    0    0 -0.12829655806E-01  0.23554814354E-02 -0.75606789733E-01  0.76725459501E-01  0.51100000000E-03 0.  1.
         11    1    4    4    0    0 -0.24154376072E-01  0.72184533557E-02 -0.47683873444E-01  0.53940271225E-01  0.51100000000E-03 0. -1.
</event>
<event>
 8    1  0.1123361E+005  0.1043930E+01  0.7957747E-01            NaN
         13   -1    0    0    0    0  0.00000000000E+00  0.00000000000E+00  0.74505805969E-08  0.10566000000E+00  0.10566000000E+00 0.  1.
     999900   -1    0    0    0    0 -0.00000000000E+00 -0.00000000000E+00 -0.74505805969E-08  0.93827000000E+00  0.93827000000E+00 0. -1.
     999902    2    1    2    0    0  0.23551931346E-01 -0.38157468480E-03  0.15334553679E-02  0.10203251159E+01  0.10200520337E+01 0.  0.
     999903    2    3    3    0    0 -0.54975968714E-01 -0.61606657021E-01  0.97692739295E-01  0.12950428670E+00  0.20242322938E-01 0.  0.
         14    1    1    2    0    0 -0.23551931346E-01  0.38157468480E-03 -0.15334553679E-02  0.23604884129E-01  0.00000000000E+00 0. -1.
     999901    1    3    3    0    0  0.78527900060E-01  0.61225082336E-01 -0.96159283927E-01  0.89082082917E+00  0.88000000000E+00 0. -1.
        -11    1    4    4    0    0 -0.52076650983E-01 -0.62874907566E-01  0.92262306753E-01  0.12319831958E+00  0.51100000000E-03 0. -1.
         11    1    4    4    0    0 -0.28993177312E-02  0.12682505448E-02  0.54304325423E-02  0.63059671223E-02  0.51100000000E-03 0.  1.
</event>
<event>
 8    1  0.1123361E+005  0.1043930E+01  0.7957747E-01            NaN
         13   -1    0    0    0    0  0.00000000000E+00  0.00000000000E+00  0.74505805969E-08  0.10566000000E+00  0.10566000000E+00 0. -1.
     999900   -1    0    0    0    0 -0.00000000000E+00 -0.00000000000E+00 -0.74505805969E-08  0.93827000000E+00  0.93827000000E+00 0.  1.
     999902    2    1    2    0    0  0.58288281709E-02 -0.22343238909E-01  0.43440461039E-02  0.10204339088E+01  0.10201633673E+01 0.  0.
     999903    2    3    3    0    0 -0.52909025334E-01 -0.86007404898E-02  0.11703831844E+00  0.13119884953E+00  0.25334412104E-01 0.  0.
         14    1    1    2    0    0 -0.58288281709E-02  0.22343238909E-01 -0.43440461039E-02  0.23496091151E-01  0.00000000000E+00 0.  1.
     999901    1    3    3    0    0  0.58737853505E-01 -0.13742498419E-01 -0.11269427234E+00  0.88923505932E+00  0.88000000000E+00 0.  1.
        -11    1    4    4    0    0 -0.49143780052E-02 -0.69366786075E-02  0.66152048142E-02  0.10783815513E-01  0.51100000000E-03 0.  1.
         11    1    4    4    0    0 -0.47994647329E-01 -0.16640618823E-02  0.11042311363E+00  0.12041503402E+00  0.51100000000E-03 0. -1.
</event>
<event>
 8    1  0.1123361E+005  0.1043930E+01  0.7957747E-01            NaN
         13   -1    0    0    0    0  0.00000000000E+00  0.00000000000E+00  0.74505805969E-08  0.10566000000E+00  0.10566000000E+00 0. -1.
     999900   -1    0    0    0    0 -0.00000000000E+00 -0.00000000000E+00 -0.74505805969E-08  0.93827000000E+00  0.93827000000E+00 0.  1.
     999902    2    1    2    0    0  0.64526525536E-02  0.21055509931E-01  0.80845211912E-02  0.10204708716E+01  0.10202011905E+01 0.  0.
     999903    2    3    3    0    0  0.41085851210E-01  0.10571435622E+00 -0.65850618966E-01  0.13264601067E+00  0.19876816820E-01 0.  0.
         14    1    1    2    0    0 -0.64526525536E-02 -0.21055509931E-01 -0.80845211912E-02  0.23459128422E-01  0.00000000000E+00 0.  1.
     999901    1    3    3    0    0 -0.34633198657E-01 -0.84658846288E-01  0.73935140157E-01  0.88782486091E+00  0.88000000000E+00 0. -1.
        -11    1    4    4    0    0  0.97118043116E-02  0.33636135856E-01 -0.30565417238E-01  0.46478109151E-01  0.51100000000E-03 0.  1.
         11    1    4    4    0    0  0.31374046899E-01  0.72078220363E-01 -0.35285201728E-01  0.86167901515E-01  0.51100000000E-03 0. -1.
</event>
<event>
 8    1  0.1123361E+005  0.1043930E+01  0.7957747E-01            NaN
         13   -1    0    0    0    0  0.00000000000E+00  0.00000000000E+00  0.74505805969E-08  0.10566000000E+00  0.10566000000E+00 0. -1.
     999900   -1    0    0    0    0 -0.00000000000E+00 -0.00000000000E+00 -0.74505805969E-08  0.93827000000E+00  0.93827000000E+00 0.  1.
     999902    2    1    2    0    0  0.33496022469E-02  0.22297906903E-01  0.69915439883E-03  0.10213710704E+01  0.10211219115E+01 0.  0.
     999903    2    3    3    0    0 -0.88373710011E-01 -0.53211029717E-01  0.77216249335E-01  0.13009690869E+00  0.17931262802E-01 0.  0.
         14    1    1    2    0    0 -0.33496022469E-02 -0.22297906903E-01 -0.69915439883E-03  0.22558929592E-01  0.00000000000E+00 0.  1.
     999901    1    3    3    0    0  0.91723312258E-01  0.75508936620E-01 -0.76517094936E-01  0.89127416171E+00  0.88000000000E+00 0.  1.
        -11    1    4    4    0    0 -0.42482996666E-01 -0.26437994657E-01  0.48564195063E-01  0.69731734026E-01  0.51100000000E-03 0. -1.
         11    1    4    4    0    0 -0.45890713345E-01 -0.26773035059E-01  0.28652054272E-01  0.60365174667E-01  0.51100000000E-03 0.  1.
</event>
<event>
 8    1  0.1123361E+005  0.1043930E+01  0.7957747E-01            NaN
         13   -1    0    0    0    0  0.00000000000E+00  0.00000000000E+00  0.74505805969E-08  0.10566000000E+00  0.10566000000E+00 0. -1.
     999900   -1    0    0    0    0 -0.00000000000E+00 -0.00000000000E+00 -0.74505805969E-08  0.93827000000E+00  0.93827000000E+00 0. -1.
     999902    2    1    2    0    0  0.14159656850E-02  0.11475196320E-01 -0.14156193473E-01  0.10256520651E+01  0.10254891885E+01 0.  0.
     999903    2    3    3    0    0  0.54574600942E-01 -0.11495920848E+00 -0.39729947687E-01  0.13466075422E+00  0.19001139499E-01 0.  0.
         14    1    1    2    0    0 -0.14159656850E-02 -0.11475196320E-01  0.14156193473E-01  0.18277934868E-01  0.00000000000E+00 0. -1.
     999901    1    3    3    0    0 -0.53158635257E-01  0.12643440480E+00  0.25573754214E-01  0.89099131091E+00  0.88000000000E+00 0. -1.
        -11    1    4    4    0    0  0.35469962822E-01 -0.52661936370E-01 -0.20368663075E-01  0.66682391689E-01  0.51100000000E-03 0.  1.
         11    1    4    4    0    0  0.19104638120E-01 -0.62297272105E-01 -0.19361284611E-01  0.67978362530E-01  0.51100000000E-03 0. -1.
</event>
<event>
 8    1  0.1123361E+005  0.1043930E+01  0.7957747E-01            NaN
         13   -1    0    0    0    0  0.00000000000E+00  0.00000000000E+00  0.74505805969E-08  0.10566000000E+00  0.10566000000E+00 0. -1.
     999900   -1    0    0    0    0 -0.00000000000E+00 -0.00000000000E+00 -0.74505805969E-08  0.93827000000E+00  0.93827000000E+00 0. -1.
     999902    2    1    2    0    0 -0.87739451592E-02 -0.14179112873E-01  0.16964686893E-01  0.10201428195E+01  0.10198654530E+01 0.  0.
     999903    2    3    3    0    0 -0.76793071346E-01  0.99406363830E-01  0.28861728194E-01  0.13015978502E+00  0.18159551341E-01 0.  0.
         14    1    1    2    0    0  0.87739451592E-02  0.14179112873E-01 -0.16964686893E-01  0.23787180516E-01  0.00000000000E+00 0.  1.
     999901    1    3    3    0    0  0.68019126187E-01 -0.11358547670E+00 -0.11897041301E-01  0.88998303447E+00  0.88000000000E+00 0. -1.
        -11    1    4    4    0    0 -0.46416890396E-01  0.55070280082E-01  0.78449338898E-02  0.72450449075E-01  0.51100000000E-03 0. -1.
         11    1    4    4    0    0 -0.30376180950E-01  0.44336083748E-01  0.21016794304E-01  0.57709335943E-01  0.51100000000E-03 0.  1.
</event>
<event>
 8    1  0.1123361E+005  0.1043930E+01  0.7957747E-01            NaN
         13   -1    0    0    0    0  0.00000000000E+00  0.00000000000E+00  0.74505805969E-08  0.10566000000E+00  0.10566000000E+00 0. -1.
     999900   -1    0    0    0    0 -0.00000000000E+00 -0.00000000000E+00 -0.74505805969E-08  0.93827000000E+00  0.93827000000E+00 0.  1.
     999902    2    1    2    0    0  0.70639682187E-02  0.20851482129E-01 -0.75962114029E-02  0.10206408098E+01  0.10203750664E+01 0.  0.
     999903    2    3    3    0    0  0.77328098229E-01  0.62981653393E-01 -0.86230732701E-01  0.13334413602E+00  0.19964866895E-01 0.  0.
         14    1    1    2    0    0 -0.70639682187E-02 -0.20851482129E-01  0.75962114029E-02  0.23289190232E-01  0.00000000000E+00 0. -1.
     999901    1    3    3    0    0 -0.70264130010E-01 -0.42130171264E-01  0.78634521298E-01  0.88729667374E+00  0.88000000000E+00 0. -1.
        -11    1    4    4    0    0  0.51331878473E-01  0.49518674842E-01 -0.51822467636E-01  0.88163995931E-01  0.51100000000E-03 0.  1.
         11    1    4    4    0    0  0.25996219756E-01  0.13462978551E-01 -0.34408265065E-01  0.45180140093E-01  0.51100000000E-03 0. -1.
</event>
<event>
 7    1  0.1123361E+005  0.1043930E+01  0.7957747E-01            NaN
         13   -1    0    0    0    0  0.00000000000E+00  0.00000000000E+00  0.74505805969E-08  0.10566000000E+00  0.10566000000E+00 0. -1.
     999900   -1    0    0    0    0 -0.00000000000E+00 -0.00000000000E+00 -0.74505805969E-08  0.93827000000E+00  0.93827000000E+00 0. -1.
     999903    2    1    2    0    0 -0.68343103855E-01  0.89879498648E-01  0.13721744198E-01  0.11572327065E+00  0.21318653421E-01 0.  0.
         14    1    1    2    0    0  0.35755702209E-01  0.99887712476E-02  0.18279749331E-01  0.41381095045E-01  0.00000000000E+00 0. -1.
     999901    1    1    2    0    0  0.32587401646E-01 -0.99868269896E-01 -0.32001493529E-01  0.88682563431E+00  0.88000000000E+00 0. -1.
        -11    1    3    3    0    0 -0.33625021408E-01  0.37969599508E-01 -0.37913528855E-02  0.50862245617E-01  0.51100000000E-03 0.  1.
         11    1    3    3    0    0 -0.34718082447E-01  0.51909899140E-01  0.17513097084E-01  0.64861025030E-01  0.51100000000E-03 0. -1.
</event>
<event>
 8    1  0.1123361E+005  0.1043930E+01  0.7957747E-01            NaN
         13   -1    0    0    0    0  0.00000000000E+00  0.00000000000E+00  0.74505805969E-08  0.10566000000E+00  0.10566000000E+00 0.  1.
     999900   -1    0    0    0    0 -0.00000000000E+00 -0.00000000000E+00 -0.74505805969E-08  0.93827000000E+00  0.93827000000E+00 0.  1.
     999902    2    1    2    0    0  0.93657793118E-02  0.15827370269E-01  0.14325501653E-01  0.10206181260E+01  0.10203518587E+01 0.  0.
     999903    2    3    3    0    0  0.11984393755E-01 -0.90259732796E-02 -0.12670062903E+00  0.12903923697E+00  0.19312726253E-01 0.  0.
         14    1    1    2    0    0 -0.93657793118E-02 -0.15827370269E-01 -0.14325501653E-01  0.23311873999E-01  0.00000000000E+00 0. -1.
     999901    1    3    3    0    0 -0.26186144435E-02  0.24853343549E-01  0.14102613068E+00  0.89157888903E+00  0.88000000000E+00 0. -1.
        -11    1    4    4    0    0 -0.19946686890E-02  0.31734680741E-02 -0.49273283467E-01  0.49418287985E-01  0.51100000000E-03 0.  1.
         11    1    4    4    0    0  0.13979062444E-01 -0.12199441354E-01 -0.77427345559E-01  0.79620948987E-01  0.51100000000E-03 0. -1.
</event>
<event>
 8    1  0.1123361E+005  0.1043930E+01  0.7957747E-01            NaN
         13   -1    0    0    0    0  0.00000000000E+00  0.00000000000E+00  0.74505805969E-08  0.10566000000E+00  0.10566000000E+00 0.  1.
     999900   -1    0    0    0    0 -0.00000000000E+00 -0.00000000000E+00 -0.74505805969E-08  0.93827000000E+00  0.93827000000E+00 0. -1.
     999902    2    1    2    0    0  0.83194240681E-02 -0.18742413960E-01 -0.12291416062E-01  0.10200224738E+01  0.10197422603E+01 0.  0.
     999903    2    3    3    0    0  0.11029827399E+00 -0.25798458390E-02 -0.69978693606E-01  0.13210990133E+00  0.19586822638E-01 0.  0.
         14    1    1    2    0    0 -0.83194240681E-02  0.18742413960E-01  0.12291416062E-01  0.23907526151E-01  0.00000000000E+00 0.  1.
     999901    1    3    3    0    0 -0.10197884993E+00 -0.16162568121E-01  0.57687277544E-01  0.88791257252E+00  0.88000000000E+00 0. -1.
        -11    1    4    4    0    0  0.11327089301E-01 -0.91418395160E-03 -0.91648283695E-03  0.11412262971E-01  0.51100000000E-03 0. -1.
         11    1    4    4    0    0  0.98971184693E-01 -0.16656618874E-02 -0.69062210769E-01  0.12069763836E+00  0.51100000000E-03 0.  1.
</event>
<event>
 8    1  0.1123361E+005  0.1043930E+01  0.7957747E-01            NaN
         13   -1    0    0    0    0  0.00000000000E+00  0.00000000000E+00  0.74505805969E-08  0.10566000000E+00  0.10566000000E+00 0. -1.
     999900   -1    0    0    0    0 -0.00000000000E+00 -0.00000000000E+00 -0.74505805969E-08  0.93827000000E+00  0.93827000000E+00 0.  1.
     999902    2    1    2    0    0  0.11582252327E-01  0.10128784955E-01  0.18759599758E-01  0.10196676127E+01  0.10193789173E+01 0.  0.
     999903    2    3    3    0    0  0.72725858175E-01  0.33099806827E-01  0.10413930708E+00  0.13312607235E+00  0.22201535982E-01 0.  0.
         14    1    1    2    0    0 -0.11582252327E-01 -0.10128784955E-01 -0.18759599758E-01  0.24262387283E-01  0.00000000000E+00 0. -1.
     999901    1    3    3    0    0 -0.61143605849E-01 -0.22971021872E-01 -0.85379707321E-01  0.88654154037E+00  0.88000000000E+00 0. -1.
        -11    1    4    4    0    0  0.16107919092E-01 -0.94354579098E-03  0.27989357124E-01  0.32311307143E-01  0.51100000000E-03 0.  1.
         11    1    4    4    0    0  0.56617939084E-01  0.34043352618E-01  0.76149949955E-01  0.10081476520E+00  0.51100000000E-03 0. -1.
</event>
<event>
 8    1  0.1123361E+005  0.1043930E+01  0.7957747E-01            NaN
         13   -1    0    0    0    0  0.00000000000E+00  0.00000000000E+00  0.74505805969E-08  0.10566000000E+00  0.10566000000E+00 0.  1.
     999900   -1    0    0    0    0 -0.00000000000E+00 -0.00000000000E+00 -0.74505805969E-08  0.93827000000E+00  0.93827000000E+00 0. -1.
     999902    2    1    2    0    0  0.21261914313E-02 -0.18321183008E-01  0.15148198192E-01  0.10200625673E+01  0.10197833038E+01 0.  0.
     999903    2    3    3    0    0  0.44212285340E-01  0.11265368352E+00 -0.36254778081E-01  0.12789222426E+00  0.19910638046E-01 0.  0.
         14    1    1    2    0    0 -0.21261914313E-02  0.18321183008E-01 -0.15148198192E-01  0.23867432733E-01  0.00000000000E+00 0. -1.
     999901    1    3    3    0    0 -0.42086093909E-01 -0.13097486653E+00  0.51402976273E-01  0.89217034300E+00  0.88000000000E+00 0. -1.
        -11    1    4    4    0    0  0.30103663134E-01  0.50074389051E-01 -0.19360611551E-01  0.61552980216E-01  0.51100000000E-03 0. -1.
         11    1    4    4    0    0  0.14108622207E-01  0.62579294472E-01 -0.16894166530E-01  0.66339244048E-01  0.51100000000E-03 0.  1.
</event>
<event>
 8    1  0.1123361E+005  0.1043930E+01  0.7957747E-01            NaN
         13   -1    0    0    0    0  0.00000000000E+00  0.00000000000E+00  0.74505805969E-08  0.10566000000E+00  0.10566000000E+00 0.  1.
     999900   -1    0    0    0    0 -0.00000000000E+00 -0.00000000000E+00 -0.74505805969E-08  0.93827000000E+00  0.93827000000E+00 0. -1.
     999902    2    1    2    0    0 -0.19700139023E-01  0.53971637429E-02  0.97981159196E-02  0.10212754656E+01  0.10210241665E+01 0.  0.
     999903    2    3    3    0    0 -0.33150407065E-01  0.28894390989E-01 -0.12157788165E+00  0.13111105261E+00  0.21796593553E-01 0.  0.
         14    1    1    2    0    0  0.19700139023E-01 -0.53971637429E-02 -0.97981159196E-02  0.22654534415E-01  0.00000000000E+00 0. -1.
     999901    1    3    3    0    0  0.13450268042E-01 -0.23497227246E-01  0.13137599757E+00  0.89016441298E+00  0.88000000000E+00 0.  1.
        -11    1    4    4    0    0 -0.16720545500E-01  0.23877286511E-01 -0.53837611394E-01  0.61224594523E-01  0.51100000000E-03 0.  1.
         11    1    4    4    0    0 -0.16429861565E-01  0.50171044776E-02 -0.67740270253E-01  0.69886458082E-01  0.51100000000E-03 0. -1.
</event>
<event>
 8    1  0.1123361E+005  0.1043930E+01  0.7957747E-01            NaN
         13   -1    0    0    0    0  0.00000000000E+00  0.00000000000E+00  0.74505805969E-08  0.10566000000E+00  0.10566000000E+00 0. -1.
     999900   -1    0    0    0    0 -0.00000000000E+00 -0.00000000000E+00 -0.74505805969E-08  0.93827000000E+00  0.93827000000E+00 0. -1.
     999902    2    1    2    0    0 -0.17318331350E-01  0.13755334986E-01  0.76912140549E-02  0.10205144365E+01  0.10202457677E+01 0.  0.
     999903    2    3    3    0    0 -0.92028704646E-02 -0.69567143587E-02 -0.12822459641E+00  0.12980238580E+00  0.16553656235E-01 0.  0.
         14    1    1    2    0    0  0.17318331350E-01 -0.13755334986E-01 -0.76912140549E-02  0.23415563520E-01  0.00000000000E+00 0.  1.
     999901    1    3    3    0    0 -0.81154608858E-02  0.20712049344E-01  0.13591581047E+00  0.89071205068E+00  0.88000000000E+00 0.  1.
        -11    1    4    4    0    0 -0.90550105496E-02  0.34776722135E-02 -0.59216345880E-01  0.60007700843E-01  0.51100000000E-03 0. -1.
         11    1    4    4    0    0 -0.14785991507E-03 -0.10434386572E-01 -0.69008250531E-01  0.69794684956E-01  0.51100000000E-03 0.  1.
</event>
<event>
 8    1  0.1123361E+005  0.1043930E+01  0.7957747E-01            NaN
         13   -1    0    0    0    0  0.00000000000E+00  0.00000000000E+00  0.74505805969E-08  0.10566000000E+00  0.10566000000E+00 0.  1.
     999900   -1    0    0    0    0 -0.00000000000E+00 -0.00000000000E+00 -0.74505805969E-08  0.93827000000E+00  0.93827000000E+00 0. -1.
     999902    2    1    2    0    0 -0.17019019222E-01 -0.97080707519E-03  0.19977707676E-01  0.10176678926E+01  0.10173289740E+01 0.  0.
     999903    2    3    3    0    0  0.28979781932E-01 -0.74200639037E-01  0.10048257514E+00  0.12977176596E+00  0.19959978435E-01 0.  0.
         14    1    1    2    0    0  0.17019019222E-01  0.97080707519E-03 -0.19977707676E-01  0.26262107410E-01  0.00000000000E+00 0. -1.
     999901    1    3    3    0    0 -0.45998801154E-01  0.73229831962E-01 -0.80504867466E-01  0.88789612663E+00  0.88000000000E+00 0. -1.
        -11    1    4    4    0    0 -0.23331419187E-02 -0.14452013385E-01  0.18888448440E-01  0.23902695403E-01  0.51100000000E-03 0. -1.
         11    1    4    4    0    0  0.31312923851E-01 -0.59748625653E-01  0.81594126702E-01  0.10586907056E+00  0.51100000000E-03 0.  1.
</event>
<event>
 8    1  0.1123361E+005  0.1043930E+01  0.7957747E-01            NaN
         13   -1    0    0    0    0  0.00000000000E+00  0.00000000000E+00  0.74505805969E-08  0.10566000000E+00  0.10566000000E+00 0. -1.
     999900   -1    0    0    0    0 -0.00000000000E+00 -0.00000000000E+00 -0.74505805969E-08  0.93827000000E+00  0.93827000000E+00 0. -1.
     999902    2    1    2    0    0  0.17390820066E-02 -0.13223284116E-01  0.19887642767E-01  0.10199842700E+01  0.10197031495E+01 0.  0.
     999903    2    3    3    0    0 -0.44746570862E-01 -0.12218803266E+00 -0.69701792599E-02  0.13163998151E+00  0.18663611714E-01 0.  0.
         14    1    1    2    0    0 -0.17390820066E-02  0.13223284116E-01 -0.19887642767E-01  0.23945729972E-01  0.00000000000E+00 0.  1.
     999901    1    3    3    0    0  0.46485652868E-01  0.10896474854E+00  0.26857822027E-01  0.88834428852E+00  0.88000000000E+00 0.  1.
        -11    1    4    4    0    0 -0.26748961366E-01 -0.85250362957E-01 -0.12341878212E-01  0.90198195089E-01  0.51100000000E-03 0.  1.
         11    1    4    4    0    0 -0.17997609495E-01 -0.36937669704E-01  0.53716989522E-02  0.41441786416E-01  0.51100000000E-03 0. -1.
</event>
<event>
 8    1  0.1123361E+005  0.1043930E+01  0.7957747E-01            NaN
         13   -1    0    0    0    0  0.00000000000E+00  0.00000000000E+00  0.74505805969E-08  0.10566000000E+00  0.10566000000E+00 0.  1.
     999900   -1    0    0    0    0 -0.00000000000E+00 -0.00000000000E+00 -0.74505805969E-08  0.93827000000E+00  0.93827000000E+00 0.  1.
     999902    2    1    2    0    0  0.73134781980E-02  0.17926237497E-01 -0.11679333831E-01  0.10213192992E+01  0.10210689825E+01 0.  0.
     999903    2    3    3    0    0  0.87930505952E-01 -0.70580961822E-01 -0.65199871555E-01  0.13160188477E+00  0.18830474649E-01 0.  0.
         14    1    1    2    0    0 -0.73134781980E-02 -0.17926237497E-01  0.11679333831E-01  0.22610700849E-01  0.00000000000E+00 0. -1.
     999901    1    3    3    0    0 -0.80617027754E-01  0.88507199319E-01  0.53520537724E-01  0.88971741438E+00  0.88000000000E+00 0. -1.
        -11    1    4    4    0    0  0.69420102686E-01 -0.48880947307E-01 -0.41447483886E-01  0.94480964792E-01  0.51100000000E-03 0. -1.
         11    1    4    4    0    0  0.18510403266E-01 -0.21700014515E-01 -0.23752387669E-01  0.37120919978E-01  0.51100000000E-03 0.  1.
</event>
<event>
 8    1  0.1123361E+005  0.1043930E+01  0.7957747E-01            NaN
         13   -1    0    0    0    0  0.00000000000E+00  0.00000000000E+00  0.74505805969E-08  0.10566000000E+00  0.10566000000E+00 0. -1.
     999900   -1    0    0    0    0 -0.00000000000E+00 -0.00000000000E+00 -0.74505805969E-08  0.93827000000E+00  0.93827000000E+00 0. -1.
     999902    2    1    2    0    0 -0.83545007186E-02  0.11238786546E-01 -0.19074510515E-01  0.10202668439E+01  0.10199923960E+01 0.  0.
     999903    2    3    3    0    0  0.18054074861E-01  0.60535759539E-01  0.11077267538E+00  0.12898243581E+00  0.19374089287E-01 0.  0.
         14    1    1    2    0    0  0.83545007186E-02 -0.11238786546E-01  0.19074510515E-01  0.23663156101E-01  0.00000000000E+00 0. -1.
     999901    1    3    3    0    0 -0.26408575580E-01 -0.49296972994E-01 -0.12984718589E+00  0.89128440808E+00  0.88000000000E+00 0. -1.
        -11    1    4    4    0    0 -0.74967523423E-03  0.44867629864E-02  0.20983203690E-01  0.21476708620E-01  0.51100000000E-03 0. -1.
         11    1    4    4    0    0  0.18803750096E-01  0.56048996553E-01  0.89789471689E-01  0.10750572719E+00  0.51100000000E-03 0.  1.
</event>
<event>
 8    1  0.1123361E+005  0.1043930E+01  0.7957747E-01            NaN
         13   -1    0    0    0    0  0.00000000000E+00  0.00000000000E+00  0.74505805969E-08  0.10566000000E+00  0.10566000000E+00 0. -1.
     999900   -1    0    0    0    0 -0.00000000000E+00 -0.00000000000E+00 -0.74505805969E-08  0.93827000000E+00  0.93827000000E+00 0. -1.
     999902    2    1    2    0    0 -0.21885327575E-01 -0.10449187704E-01  0.18755322969E-03  0.10196774071E+01  0.10193889475E+01 0.  0.
     999903    2    3    3    0    0 -0.11585654873E+00  0.37299544261E-01  0.47235105539E-01  0.13213923665E+00  0.20386926693E-01 0.  0.
         14    1    1    2    0    0  0.21885327575E-01  0.10449187704E-01 -0.18755322969E-03  0.24252592911E-01  0.00000000000E+00 0.  1.
     999901    1    3    3    0    0  0.93971221159E-01 -0.47748731965E-01 -0.47047552310E-01  0.88753817044E+00  0.88000000000E+00 0.  1.
        -11    1    4    4    0    0 -0.29975030288E-01  0.23696545635E-02  0.59866376404E-02  0.30662985092E-01  0.51100000000E-03 0. -1.
         11    1    4    4    0    0 -0.85881518446E-01  0.34929889698E-01  0.41248467899E-01  0.10147625156E+00  0.51100000000E-03 0.  1.
</event>
<event>
 8    1  0.1123361E+005  0.1043930E+01  0.7957747E-01            NaN
         13   -1    0    0    0    0  0.00000000000E+00  0.00000000000E+00  0.74505805969E-08  0.10566000000E+00  0.10566000000E+00 0. -1.
     999900   -1    0    0    0    0 -0.00000000000E+00 -0.00000000000E+00 -0.74505805969E-08  0.93827000000E+00  0.93827000000E+00 0. -1.
     999902    2    1    2    0    0  0.26199410739E-02 -0.21663197288E-01 -0.90573315967E-02  0.10203038817E+01  0.10200303023E+01 0.  0.
     999903    2    3    3    0    0  0.18147217505E-01  0.40536257250E-01  0.11954108733E+00  0.12864956431E+00  0.16974368372E-01 0.  0.
         14    1    1    2    0    0 -0.26199410739E-02  0.21663197288E-01  0.90573315967E-02  0.23626118251E-01  0.00000000000E+00 0. -1.
     999901    1    3    3    0    0 -0.15527276431E-01 -0.62199454538E-01 -0.12859841893E+00  0.89165431744E+00  0.88000000000E+00 0. -1.
        -11    1    4    4    0    0  0.18313209211E-01  0.34098903049E-01  0.83523571207E-01  0.92057356517E-01  0.51100000000E-03 0. -1.
         11    1    4    4    0    0 -0.16599170520E-03  0.64373542014E-02  0.36017516125E-01  0.36592207793E-01  0.51100000000E-03 0.  1.
</event>
<event>
 8    1  0.1123361E+005  0.1043930E+01  0.7957747E-01            NaN
         13   -1    0    0    0    0  0.00000000000E+00  0.00000000000E+00  0.74505805969E-08  0.10566000000E+00  0.10566000000E+00 0.  1.
     999900   -1    0    0    0    0 -0.00000000000E+00 -0.00000000000E+00 -0.74505805969E-08  0.93827000000E+00  0.93827000000E+00 0.  1.
     999902    2    1    2    0    0 -0.20935620215E-01 -0.11481558017E-01  0.28571095441E-02  0.10198823506E+01  0.10195988032E+01 0.  0.
     999903    2    3    3    0    0  0.56937741394E-01  0.24655034134E-01 -0.11091781699E+00  0.12841454540E+00  0.18378145724E-01 0.  0.
         14    1    1    2    0    0  0.20935620215E-01  0.11481558017E-01 -0.28571095441E-02  0.24047649433E-01  0.00000000000E+00 0.  1.
     999901    1    3    3    0    0 -0.77873361609E-01 -0.36136592151E-01  0.11377492654E+00  0.89146780517E+00  0.88000000000E+00 0. -1.
        -11    1    4    4    0    0  0.38227056120E-01  0.77576550528E-02 -0.59525086299E-01  0.71168715398E-01  0.51100000000E-03 0. -1.
         11    1    4    4    0    0  0.18710685274E-01  0.16897379081E-01 -0.51392730696E-01  0.57245830002E-01  0.51100000000E-03 0.  1.
</event>
<event>
 8    1  0.1123361E+005  0.1043930E+01  0.7957747E-01            NaN
         13   -1    0    0    0    0  0.00000000000E+00  0.00000000000E+00  0.74505805969E-08  0.10566000000E+00  0.10566000000E+00 0. -1.
     999900   -1    0    0    0    0 -0.00000000000E+00 -0.00000000000E+00 -0.74505805969E-08  0.93827000000E+00  0.93827000000E+00 0. -1.
     999902    2    1    2    0    0  0.13663596921E-01  0.22721729854E-01  0.27363002189E-02  0.10172755777E+01  0.10169263212E+01 0.  0.
     999903    2    3    3    0    0 -0.22436157381E-01  0.29214273579E-01  0.12144187969E+00  0.12854819545E+00  0.20485445405E-01 0.  0.
         14    1    1    2    0    0 -0.13663596921E-01 -0.22721729854E-01 -0.27363002189E-02  0.26654422284E-01  0.00000000000E+00 0. -1.
     999901    1    3    3    0    0  0.36099754302E-01 -0.64925437247E-02 -0.11870557947E+00  0.88872738226E+00  0.88000000000E+00 0. -1.
        -11    1    4    4    0    0 -0.21846726222E-01  0.15774335109E-01  0.96644017639E-01  0.10033163191E+00  0.51100000000E-03 0.  1.
         11    1    4    4    0    0 -0.58943115934E-03  0.13439938470E-01  0.24797862050E-01  0.28216563548E-01  0.51100000000E-03 0. -1.
</event>
<event>
 8    1  0.1123361E+005  0.1043930E+01  0.7957747E-01            NaN
         13   -1    0    0    0    0  0.00000000000E+00  0.00000000000E+00  0.74505805969E-08  0.10566000000E+00  0.10566000000E+00 0. -1.
     999900   -1    0    0    0    0 -0.00000000000E+00 -0.00000000000E+00 -0.74505805969E-08  0.93827000000E+00  0.93827000000E+00 0.  1.
     999902    2    1    2    0    0 -0.66799678561E-02  0.19766645969E-01 -0.99266470948E-02  0.10208241439E+01  0.10205626155E+01 0.  0.
     999903    2    3    3    0    0  0.29692959405E-01 -0.92727912947E-01  0.81065579292E-01  0.12826736650E+00  0.20018778322E-01 0.  0.
         14    1    1    2    0    0  0.66799678561E-02 -0.19766645969E-01  0.99266470948E-02  0.23105856096E-01  0.00000000000E+00 0.  1.
     999901    1    3    3    0    0 -0.36372927262E-01  0.11249455892E+00 -0.90992226387E-01  0.89255677740E+00  0.88000000000E+00 0.  1.
        -11    1    4    4    0    0  0.11795323101E-01 -0.66812228880E-01  0.53343409033E-01  0.86306338025E-01  0.51100000000E-03 0. -1.
         11    1    4    4    0    0  0.17897636305E-01 -0.25915684067E-01  0.27722170259E-01  0.41961028477E-01  0.51100000000E-03 0.  1.
</event>
<event>
 8    1  0.1123361E+005  0.1043930E+01  0.7957747E-01            NaN
         13   -1    0    0    0    0  0.00000000000E+00  0.00000000000E+00  0.74505805969E-08  0.10566000000E+00  0.10566000000E+00 0. -1.
     999900   -1    0    0    0    0 -0.00000000000E+00 -0.00000000000E+00 -0.74505805969E-08  0.93827000000E+00  0.93827000000E+00 0.  1.
     999902    2    1    2    0    0 -0.97959746899E-02 -0.87549689504E-02  0.34377078225E-02  0.10303495568E+01  0.10302600550E+01 0.  0.
     999903    2    3    3    0    0 -0.51745618476E-01  0.46032922930E-01  0.11992878802E+00  0.13999476380E+00  0.20469017345E-01 0.  0.
         14    1    1    2    0    0  0.97959746899E-02  0.87549689504E-02 -0.34377078225E-02  0.13580443164E-01  0.00000000000E+00 0.  1.
     999901    1    3    3    0    0  0.41949643786E-01 -0.54787891880E-01 -0.11649108020E+00  0.89035479303E+00  0.88000000000E+00 0.  1.
        -11    1    4    4    0    0 -0.35819478315E-01  0.33236905732E-01  0.64518222683E-01  0.80935709724E-01  0.51100000000E-03 0. -1.
         11    1    4    4    0    0 -0.15926140161E-01  0.12796017198E-01  0.55410565339E-01  0.59059054080E-01  0.51100000000E-03 0.  1.
</event>
<event>
 8    1  0.1123361E+005  0.1043930E+01  0.7957747E-01            NaN
         13   -1    0    0    0    0  0.00000000000E+00  0.00000000000E+00  0.74505805969E-08  0.10566000000E+00  0.10566000000E+00 0.  1.
     999900   -1    0    0    0    0 -0.00000000000E+00 -0.00000000000E+00 -0.74505805969E-08  0.93827000000E+00  0.93827000000E+00 0.  1.
     999902    2    1    2    0    0  0.13479774333E-01 -0.10751791502E-02 -0.20527832396E-01  0.10193484576E+01  0.10190520231E+01 0.  0.
     999903    2    3    3    0    0 -0.54417764080E-01  0.28548875314E-01  0.10935831542E+00  0.12673539932E+00  0.18063470340E-01 0.  0.
         14    1    1    2    0    0 -0.13479774333E-01  0.10751791502E-02  0.20527832396E-01  0.24581542449E-01  0.00000000000E+00 0.  1.
     999901    1    3    3    0    0  0.67897538413E-01 -0.29624054464E-01 -0.12988614782E+00  0.89261305823E+00  0.88000000000E+00 0.  1.
        -11    1    4    4    0    0 -0.17812132600E-01  0.17244904388E-01  0.32739464229E-01  0.41070578692E-01  0.51100000000E-03 0.  1.
         11    1    4    4    0    0 -0.36605631480E-01  0.11303970926E-01  0.76618851192E-01  0.85664820630E-01  0.51100000000E-03 0. -1.
</event>
<event>
 8    1  0.1123361E+005  0.1043930E+01  0.7957747E-01            NaN
         13   -1    0    0    0    0  0.00000000000E+00  0.00000000000E+00  0.74505805969E-08  0.10566000000E+00  0.10566000000E+00 0. -1.
     999900   -1    0    0    0    0 -0.00000000000E+00 -0.00000000000E+00 -0.74505805969E-08  0.93827000000E+00  0.93827000000E+00 0.  1.
     999902    2    1    2    0    0  0.61055276385E-03 -0.21188325788E-01  0.75786057505E-02  0.10214188208E+01  0.10211707273E+01 0.  0.
     999903    2    3    3    0    0  0.29504253640E-01 -0.17800900455E-01 -0.12480876625E+00  0.13104095894E+00  0.20177506002E-01 0.  0.
         14    1    1    2    0    0 -0.61055276385E-03  0.21188325788E-01 -0.75786057505E-02  0.22511179211E-01  0.00000000000E+00 0.  1.
     999901    1    3    3    0    0 -0.28893700876E-01 -0.33874253326E-02  0.13238737200E+00  0.89037786185E+00  0.88000000000E+00 0. -1.
        -11    1    4    4    0    0  0.60140048753E-02 -0.77381659986E-02 -0.12670193000E-01  0.16026302734E-01  0.51100000000E-03 0. -1.
         11    1    4    4    0    0  0.23490248764E-01 -0.10062734456E-01 -0.11213857325E+00  0.11501465621E+00  0.51100000000E-03 0.  1.
</event>
<event>
 8    1  0.1123361E+005  0.1043930E+01  0.7957747E-01            NaN
         13   -1    0    0    0    0  0.00000000000E+00  0.00000000000E+00  0.74505805969E-08  0.10566000000E+00  0.10566000000E+00 0.  1.
     999900   -1    0    0    0    0 -0.00000000000E+00 -0.00000000000E+00 -0.74505805969E-08  0.93827000000E+00  0.93827000000E+00 0. -1.
     999902    2    1    2    0    0  0.43484433868E-02 -0.11544084952E-01 -0.20861574338E-01  0.10196940733E+01  0.10194060148E+01 0.  0.
     999903    2    3    3    0    0 -0.68179270323E-01  0.25048917212E-01  0.10248235731E+00  0.12738636714E+00  0.21184707192E-01 0.  0.
         14    1    1    2    0    0 -0.43484433868E-02  0.11544084952E-01  0.20861574338E-01  0.24235926661E-01  0.00000000000E+00 0.  1.
     999901    1    3    3    0    0  0.72527713710E-01 -0.36593002164E-01 -0.12334393165E+00  0.89230770620E+00  0.88000000000E+00 0. -1.
        -11    1    4    4    0    0 -0.65265082169E-01  0.17541083788E-01  0.90951416461E-01  0.11331214343E+00  0.51100000000E-03 0. -1.
         11    1    4    4    0    0 -0.29141881541E-02  0.75078334239E-02  0.11530940848E-01  0.14074223715E-01  0.51100000000E-03 0.  1.
</event>
<event>
 8    1  0.1123361E+005  0.1043930E+01  0.7957747E-01            NaN
         13   -1    0    0    0    0  0.00000000000E+00  0.00000000000E+00  0.74505805969E-08  0.10566000000E+00  0.10566000000E+00 0. -1.
     999900   -1    0    0    0    0 -0.00000000000E+00 -0.00000000000E+00 -0.74505805969E-08  0.93827000000E+00  0.93827000000E+00 0. -1.
     999902    2    1    2    0    0  0.20543078435E-01 -0.52409426313E-02 -0.11816646217E-01  0.10196582329E+01  0.10193693115E+01 0.  0.
     999903    2    3    3    0    0 -0.31101294158E-01 -0.99148472341E-01 -0.76907677758E-01  0.13076982158E+00  0.19703940527E-01 0.  0.
         14    1    1    2    0    0 -0.20543078435E-01  0.52409426313E-02  0.11816646217E-01  0.24271767119E-01  0.00000000000E+00 0. -1.
     999901    1    3    3    0    0  0.51644372593E-01  0.93907529710E-01  0.65091031541E-01  0.88888841130E+00  0.88000000000E+00 0.  1.
        -11    1    4    4    0    0 -0.56733035334E-02 -0.74291589790E-02 -0.18201179654E-02  0.95369138889E-02  0.51100000000E-03 0. -1.
         11    1    4    4    0    0 -0.25427990625E-01 -0.91719313362E-01 -0.75087559792E-01  0.12123290769E+00  0.51100000000E-03 0.  1.
</event>
<event>
 8    1  0.1123361E+005  0.1043930E+01  0.7957747E-01            NaN
         13   -1    0    0    0    0  0.00000000000E+00  0.00000000000E+00  0.74505805969E-08  0.10566000000E+00  0.10566000000E+00 0. -1.
     999900   -1    0    0    0    0 -0.00000000000E+00 -0.00000000000E+00 -0.74505805969E-08  0.93827000000E+00  0.93827000000E+00 0.  1.
     999902    2    1    2    0    0  0.71355019380E-02 -0.20541554281E-01  0.75074641080E-02  0.10209249384E+01  0.10206657127E+01 0.  0.
     999903    2    3    3    0    0 -0.42184973971E-01  0.41190957864E-02 -0.12103302620E+00  0.12987874735E+00  0.20565908717E-01 0.  0.
         14    1    1    2    0    0 -0.71355019380E-02  0.20541554281E-01 -0.75074641080E-02  0.23005061563E-01  0.00000000000E+00 0.  1.
     999901    1    3    3    0    0  0.49320475908E-01 -0.24660650068E-01  0.12854049031E+00  0.89104619109E+00  0.88000000000E+00 0. -1.
        -11    1    4    4    0    0 -0.27277136588E-01 -0.11570520111E-02 -0.48677255716E-01  0.55813235839E-01  0.51100000000E-03 0.  1.
         11    1    4    4    0    0 -0.14907837382E-01  0.52761477976E-02 -0.72355770488E-01  0.74065511508E-01  0.51100000000E-03 0. -1.
</event>
<event>
 8    1  0.1123361E+005  0.1043930E+01  0.7957747E-01            NaN
         13   -1    0    0    0    0  0.00000000000E+00  0.00000000000E+00  0.74505805969E-08  0.10566000000E+00  0.10566000000E+00 0. -1.
     999900   -1    0    0    0    0 -0.00000000000E+00 -0.00000000000E+00 -0.74505805969E-08  0.93827000000E+00  0.93827000000E+00 0.  1.
     999902    2    1    2    0    0 -0.43967311010E-02 -0.91397828943E-02 -0.19994941858E-01  0.10215098177E+01  0.10212637480E+01 0.  0.
     999903    2    3    3    0    0  0.26941079682E-01 -0.33424569336E-01 -0.12564590766E+00  0.13430412799E+00  0.20191113700E-01 0.  0.
         14    1    1    2    0    0  0.43967311010E-02  0.91397828943E-02  0.19994941858E-01  0.22420182328E-01  0.00000000000E+00 0. -1.
     999901    1    3    3    0    0 -0.31337810783E-01  0.24284786441E-01  0.10565096580E+00  0.88720568969E+00  0.88000000000E+00 0. -1.
        -11    1    4    4    0    0 -0.19605492543E-02 -0.99290436730E-02 -0.29666817569E-01  0.31349814151E-01  0.51100000000E-03 0. -1.
         11    1    4    4    0    0  0.28901628936E-01 -0.23495525663E-01 -0.95979090091E-01  0.10295431383E+00  0.51100000000E-03 0.  1.
</event>
<event>
 8    1  0.1123361E+005  0.1043930E+01  0.7957747E-01            NaN
         13   -1    0    0    0    0  0.00000000000E+00  0.00000000000E+00  0.74505805969E-08  0.10566000000E+00  0.10566000000E+00 0.  1.
     999900   -1    0    0    0    0 -0.00000000000E+00 -0.00000000000E+00 -0.74505805969E-08  0.93827000000E+00  0.93827000000E+00 0. -1.
     999902    2    1    2    0    0 -0.91940121886E-02  0.40913306704E-02 -0.21261962014E-01  0.10204068226E+01  0.10201356497E+01 0.  0.
     999903    2    3    3    0    0  0.58431794284E-01  0.62268609582E-01  0.93649581738E-01  0.12846371433E+00  0.21000652786E-01 0.  0.
         14    1    1    2    0    0  0.91940121886E-02 -0.40913306704E-02  0.21261962014E-01  0.23523177410E-01  0.00000000000E+00 0.  1.
     999901    1    3    3    0    0 -0.67625806473E-01 -0.58177278911E-01 -0.11491154375E+00  0.89194310826E+00  0.88000000000E+00 0. -1.
        -11    1    4    4    0    0  0.10617730598E-01  0.18343652437E-01  0.35250849875E-01  0.41135256480E-01  0.51100000000E-03 0. -1.
         11    1    4    4    0    0  0.47814063686E-01  0.43924957145E-01  0.58398731864E-01  0.87328457851E-01  0.51100000000E-03 0.  1.
</event>
<event>
 7    1  0.1123361E+005  0.1043930E+01  0.7957747E-01            NaN
         13   -1    0    0    0    0  0.00000000000E+00  0.00000000000E+00  0.74505805969E-08  0.10566000000E+00  0.10566000000E+00 0.  1.
     999900   -1    0    0    0    0 -0.00000000000E+00 -0.00000000000E+00 -0.74505805969E-08  0.93827000000E+00  0.93827000000E+00 0.  1.
     999902    2    1    2    0    0  0.10481679895E-01  0.16034191765E-01  0.13877612981E-01  0.10202752106E+01  0.10200009590E+01 0.  0.
         14    1    1    2    0    0 -0.10481679895E-01 -0.16034191765E-01 -0.13877612981E-01  0.23654789388E-01  0.00000000000E+00 0. -1.
     999901    1    3    3    0    0  0.19227665576E-01  0.78960621219E-01 -0.85630217276E-02  0.88378606471E+00  0.88000000000E+00 0.  1.
        -11    1    3    3    0    0  0.12515672550E-01 -0.13035561900E-01  0.65051830793E-01  0.67517181102E-01  0.51100000000E-03 0. -1.
         11    1    3    3    0    0 -0.21261658231E-01 -0.49890867555E-01 -0.42611196085E-01  0.68971964804E-01  0.51100000000E-03 0.  1.
</event>
<event>
 8    1  0.1123361E+005  0.1043930E+01  0.7957747E-01            NaN
         13   -1    0    0    0    0  0.00000000000E+00  0.00000000000E+00  0.74505805969E-08  0.10566000000E+00  0.10566000000E+00 0. -1.
     999900   -1    0    0    0    0 -0.00000000000E+00 -0.00000000000E+00 -0.74505805969E-08  0.93827000000E+00  0.93827000000E+00 0.  1.
     999902    2    1    2    0    0  0.62033878397E-02 -0.14139773048E-01  0.17867386799E-01  0.10203152014E+01  0.10200418871E+01 0.  0.
     999903    2    3    3    0    0  0.10076037572E+00  0.77445645914E-01 -0.17662397320E-01  0.12981462391E+00  0.19733091917E-01 0.  0.
         14    1    1    2    0    0 -0.62033878397E-02  0.14139773048E-01 -0.17867386799E-01  0.23614798614E-01  0.00000000000E+00 0.  1.
     999901    1    3    3    0    0 -0.94556987877E-01 -0.91585418962E-01  0.35529784119E-01  0.89050057747E+00  0.88000000000E+00 0. -1.
        -11    1    4    4    0    0  0.84370767643E-01  0.73107395176E-01 -0.15763605002E-01  0.11274692912E+00  0.51100000000E-03 0.  1.
         11    1    4    4    0    0  0.16389608074E-01  0.43382507383E-02 -0.18987923184E-02  0.17067694793E-01  0.51100000000E-03 0. -1.
</event>
<event>
 8    1  0.1123361E+005  0.1043930E+01  0.7957747E-01            NaN
         13   -1    0    0    0    0  0.00000000000E+00  0.00000000000E+00  0.74505805969E-08  0.10566000000E+00  0.10566000000E+00 0. -1.
     999900   -1    0    0    0    0 -0.00000000000E+00 -0.00000000000E+00 -0.74505805969E-08  0.93827000000E+00  0.93827000000E+00 0.  1.
     999902    2    1    2    0    0  0.12004025252E-01  0.20666669390E-01 -0.42648886081E-02  0.10196524976E+01  0.10193634380E+01 0.  0.
     999903    2    3    3    0    0  0.27458544089E-01  0.11956654052E+00 -0.46873109722E-01  0.13295328868E+00  0.20720986984E-01 0.  0.
         14    1    1    2    0    0 -0.12004025252E-01 -0.20666669390E-01  0.42648886081E-02  0.24277502359E-01  0.00000000000E+00 0. -1.
     999901    1    3    3    0    0 -0.15454518837E-01 -0.98899871127E-01  0.42608221114E-01  0.88669920896E+00  0.88000000000E+00 0.  1.
        -11    1    4    4    0    0  0.68112061641E-02  0.44219625498E-01 -0.27291023696E-01  0.52410198473E-01  0.51100000000E-03 0. -1.
         11    1    4    4    0    0  0.20647337925E-01  0.75346915020E-01 -0.19582086027E-01  0.80543090210E-01  0.51100000000E-03 0.  1.
</event>
<event>
 8    1  0.1123361E+005  0.1043930E+01  0.7957747E-01            NaN
         13   -1    0    0    0    0  0.00000000000E+00  0.00000000000E+00  0.74505805969E-08  0.10566000000E+00  0.10566000000E+00 0. -1.
     999900   -1    0    0    0    0 -0.00000000000E+00 -0.00000000000E+00 -0.74505805969E-08  0.93827000000E+00  0.93827000000E+00 0.  1.
     999902    2    1    2    0    0 -0.57354540758E-02  0.34100503779E-02  0.22737963766E-01  0.10202331885E+01  0.10199579502E+01 0.  0.
     999903    2    3    3    0    0  0.11118205407E-02 -0.97871689084E-01  0.86499688380E-01  0.13210570139E+00  0.19738707653E-01 0.  0.
         14    1    1    2    0    0  0.57354540758E-02 -0.34100503779E-02 -0.22737963766E-01  0.23696811457E-01  0.00000000000E+00 0.  1.
     999901    1    3    3    0    0 -0.68472746166E-02  0.10128173946E+00 -0.63761724614E-01  0.88812748716E+00  0.88000000000E+00 0. -1.
        -11    1    4    4    0    0  0.72749299433E-02 -0.56403721354E-01  0.40215641550E-01  0.69655318063E-01  0.51100000000E-03 0. -1.
         11    1    4    4    0    0 -0.61631094026E-02 -0.41467967729E-01  0.46284046830E-01  0.62450383322E-01  0.51100000000E-03 0.  1.
</event>
<event>
 8    1  0.1123361E+005  0.1043930E+01  0.7957747E-01            NaN
         13   -1    0    0    0    0  0.00000000000E+00  0.00000000000E+00  0.74505805969E-08  0.10566000000E+00  0.10566000000E+00 0. -1.
     999900   -1    0    0    0    0 -0.00000000000E+00 -0.00000000000E+00 -0.74505805969E-08  0.93827000000E+00  0.93827000000E+00 0. -1.
     999902    2    1    2    0    0  0.20489811723E-01 -0.91064919691E-02 -0.60293319431E-02  0.10207111838E+01  0.10204470625E+01 0.  0.
     999903    2    3    3    0    0  0.10543721633E+00  0.73610602302E-01  0.23443117639E-01  0.13227052486E+00  0.20257952097E-01 0.  0.
         14    1    1    2    0    0 -0.20489811723E-01  0.91064919691E-02  0.60293319431E-02  0.23218816165E-01  0.00000000000E+00 0. -1.
     999901    1    3    3    0    0 -0.84947404608E-01 -0.82717094271E-01 -0.29472449582E-01  0.88844065897E+00  0.88000000000E+00 0. -1.
        -11    1    4    4    0    0  0.22289418386E-01  0.65677441838E-02  0.64083971773E-02  0.24109792845E-01  0.51100000000E-03 0. -1.
         11    1    4    4    0    0  0.83147797946E-01  0.67042858118E-01  0.17034720462E-01  0.10816073202E+00  0.51100000000E-03 0.  1.
</event>
<event>
 8    1  0.1123361E+005  0.1043930E+01  0.7957747E-01            NaN
         13   -1    0    0    0    0  0.00000000000E+00  0.00000000000E+00  0.74505805969E-08  0.10566000000E+00  0.10566000000E+00 0.  1.
     999900   -1    0    0    0    0 -0.00000000000E+00 -0.00000000000E+00 -0.74505805969E-08  0.93827000000E+00  0.93827000000E+00 0. -1.
     999902    2    1    2    0    0 -0.10591189861E-01 -0.20181776153E-01  0.54137101237E-02  0.10205038256E+01  0.10202349104E+01 0.  0.
     999903    2    3    3    0    0  0.67217858758E-01  0.94316232000E-01 -0.50822660565E-01  0.12790841257E+00  0.19074250275E-01 0.  0.
         14    1    1    2    0    0  0.10591189861E-01  0.20181776153E-01 -0.54137101237E-02  0.23426174435E-01  0.00000000000E+00 0. -1.
     999901    1    3    3    0    0 -0.77809048619E-01 -0.11449800815E+00  0.56236370689E-01  0.89259541300E+00  0.88000000000E+00 0.  1.
        -11    1    4    4    0    0  0.44438676551E-01  0.46117574783E-01 -0.28887779427E-01  0.70259459141E-01  0.51100000000E-03 0. -1.
         11    1    4    4    0    0  0.22779182207E-01  0.48198657216E-01 -0.21934881138E-01  0.57648953425E-01  0.51100000000E-03 0.  1.
</event>
<event>
 8    1  0.1123361E+005  0.1043930E+01  0.7957747E-01            NaN
         13   -1    0    0    0    0  0.00000000000E+00  0.00000000000E+00  0.74505805969E-08  0.10566000000E+00  0.10566000000E+00 0. -1.
     999900   -1    0    0    0    0 -0.00000000000E+00 -0.00000000000E+00 -0.74505805969E-08  0.93827000000E+00  0.93827000000E+00 0.  1.
     999902    2    1    2    0    0  0.78992862228E-02 -0.81482241950E-02  0.21135781294E-01  0.10199401369E+01  0.10196579668E+01 0.  0.
     999903    2    3    3    0    0 -0.39236400804E-01 -0.10540226050E+00 -0.62872576007E-01  0.12935744862E+00  0.11456746238E-01 0.  0.
         14    1    1    2    0    0 -0.78992862228E-02  0.81482241950E-02 -0.21135781294E-01  0.23989863094E-01  0.00000000000E+00 0.  1.
     999901    1    3    3    0    0  0.47135687027E-01  0.97254036306E-01  0.84008357301E-01  0.89058268828E+00  0.88000000000E+00 0. -1.
        -11    1    4    4    0    0 -0.19521409953E-01 -0.38256910974E-01 -0.21084506693E-01  0.47848659618E-01  0.51100000000E-03 0.  1.
         11    1    4    4    0    0 -0.19714990852E-01 -0.67145349527E-01 -0.41788069313E-01  0.81508789007E-01  0.51100000000E-03 0. -1.
</event>
<event>
 8    1  0.1123361E+005  0.1043930E+01  0.7957747E-01            NaN
         13   -1    0    0    0    0  0.00000000000E+00  0.00000000000E+00  0.74505805969E-08  0.10566000000E+00  0.10566000000E+00 0.  1.
     999900   -1    0    0    0    0 -0.00000000000E+00 -0.00000000000E+00 -0.74505805969E-08  0.93827000000E+00  0.93827000000E+00 0.  1.
     999902    2    1    2    0    0 -0.10557227282E-01 -0.21988636585E-01  0.32006005754E-02  0.10193292067E+01  0.10190323020E+01 0.  0.
     999903    2    3    3    0    0  0.95204452317E-02 -0.20101971447E-02  0.12807163563E+00  0.13006264016E+00  0.20476004101E-01 0.  0.
         14    1    1    2    0    0  0.10557227282E-01  0.21988636585E-01 -0.32006005754E-02  0.24600793296E-01  0.00000000000E+00 0.  1.
     999901    1    3    3    0    0 -0.20077672513E-01 -0.19978439441E-01 -0.12487103505E+00  0.88926656654E+00  0.88000000000E+00 0.  1.
        -11    1    4    4    0    0  0.61578872026E-02  0.33344128004E-02  0.11770043287E+00  0.11790967264E+00  0.51100000000E-03 0.  1.
         11    1    4    4    0    0  0.33625580291E-02 -0.53446099451E-02  0.10371202759E-01  0.12152967524E-01  0.51100000000E-03 0. -1.
</event>
<event>
 8    1  0.1123361E+005  0.1043930E+01  0.7957747E-01            NaN
         13   -1    0    0    0    0  0.00000000000E+00  0.00000000000E+00  0.74505805969E-08  0.10566000000E+00  0.10566000000E+00 0. -1.
     999900   -1    0    0    0    0 -0.00000000000E+00 -0.00000000000E+00 -0.74505805969E-08  0.93827000000E+00  0.93827000000E+00 0. -1.
     999902    2    1    2    0    0  0.25130413824E-02  0.90974715785E-02 -0.15239294486E-01  0.10260047256E+01  0.10258481279E+01 0.  0.
     999903    2    3    3    0    0 -0.10691444734E+00 -0.16505683083E-02  0.78930548067E-01  0.13417634810E+00  0.18434683276E-01 0.  0.
         14    1    1    2    0    0 -0.25130413824E-02 -0.90974715785E-02  0.15239294486E-01  0.17925274407E-01  0.00000000000E+00 0. -1.
     999901    1    3    3    0    0  0.10942748872E+00  0.10748039887E-01 -0.94169842553E-01  0.89182837749E+00  0.88000000000E+00 0. -1.
        -11    1    4    4    0    0 -0.10326571049E+00  0.13874595645E-02  0.72574039738E-01  0.12622592591E+00  0.51100000000E-03 0.  1.
         11    1    4    4    0    0 -0.36487368472E-02 -0.30380278727E-02  0.63565083295E-02  0.79504221950E-02  0.51100000000E-03 0. -1.
</event>
<event>
 8    1  0.1123361E+005  0.1043930E+01  0.7957747E-01            NaN
         13   -1    0    0    0    0  0.00000000000E+00  0.00000000000E+00  0.74505805969E-08  0.10566000000E+00  0.10566000000E+00 0.  1.
     999900   -1    0    0    0    0 -0.00000000000E+00 -0.00000000000E+00 -0.74505805969E-08  0.93827000000E+00  0.93827000000E+00 0.  1.
     999902    2    1    2    0    0  0.22116557578E-01 -0.78296702569E-02 -0.13154643672E-02  0.10204315681E+01  0.10201609720E+01 0.  0.
     999903    2    3    3    0    0 -0.16565130116E-01 -0.11393224293E+00 -0.59811868699E-01  0.13128823982E+00  0.20104297168E-01 0.  0.
         14    1    1    2    0    0 -0.22116557578E-01  0.78296702569E-02  0.13154643672E-02  0.23498431904E-01  0.00000000000E+00 0.  1.
     999901    1    3    3    0    0  0.38681687694E-01  0.10610257267E+00  0.58496404331E-01  0.88914332827E+00  0.88000000000E+00 0. -1.
        -11    1    4    4    0    0 -0.98836791103E-02 -0.18332031489E-01 -0.77699201692E-02  0.22234731204E-01  0.51100000000E-03 0.  1.
         11    1    4    4    0    0 -0.66814510054E-02 -0.95600211439E-01 -0.52041948529E-01  0.10905350862E+00  0.51100000000E-03 0. -1.
</event>
<event>
 8    1  0.1123361E+005  0.1043930E+01  0.7957747E-01            NaN
         13   -1    0    0    0    0  0.00000000000E+00  0.00000000000E+00  0.74505805969E-08  0.10566000000E+00  0.10566000000E+00 0.  1.
     999900   -1    0    0    0    0 -0.00000000000E+00 -0.00000000000E+00 -0.74505805969E-08  0.93827000000E+00  0.93827000000E+00 0. -1.
     999902    2    1    2    0    0 -0.23916127155E-01 -0.99115671437E-03 -0.44202962397E-02  0.10195886248E+01  0.10192980237E+01 0.  0.
     999903    2    3    3    0    0  0.24104534910E-01 -0.79452965818E-01  0.96483103279E-01  0.12905859410E+00  0.21291526769E-01 0.  0.
         14    1    1    2    0    0  0.23916127155E-01  0.99115671437E-03  0.44202962397E-02  0.24341375240E-01  0.00000000000E+00 0. -1.
     999901    1    3    3    0    0 -0.48020662066E-01  0.78461809103E-01 -0.10090339952E+00  0.89053003066E+00  0.88000000000E+00 0. -1.
        -11    1    4    4    0    0  0.19711380246E-01 -0.60982134766E-01  0.86337367300E-01  0.10752563129E+00  0.51100000000E-03 0.  1.
         11    1    4    4    0    0  0.43931546647E-02 -0.18470831052E-01  0.10145735979E-01  0.21532962806E-01  0.51100000000E-03 0. -1.
</event>
<event>
 8    1  0.1123361E+005  0.1043930E+01  0.7957747E-01            NaN
         13   -1    0    0    0    0  0.00000000000E+00  0.00000000000E+00  0.74505805969E-08  0.10566000000E+00  0.10566000000E+00 0. -1.
     999900   -1    0    0    0    0 -0.00000000000E+00 -0.00000000000E+00 -0.74505805969E-08  0.93827000000E+00  0.93827000000E+00 0. -1.
     999902    2    1    2    0    0 -0.11309902377E-01 -0.80688888741E-02  0.19467909640E-01  0.10200130528E+01  0.10197326157E+01 0.  0.
     999903    2    3    3    0    0  0.71639616411E-01 -0.10633392881E+00  0.10489961037E-01  0.13062155050E+00  0.22645333181E-01 0.  0.
         14    1    1    2    0    0  0.11309902377E-01  0.80688888741E-02 -0.19467909640E-01  0.23916947238E-01  0.00000000000E+00 0.  1.
     999901    1    3    3    0    0 -0.82949518789E-01  0.98265039940E-01  0.89779486028E-02  0.88939150227E+00  0.88000000000E+00 0.  1.
        -11    1    4    4    0    0  0.22794840923E-01 -0.25047234720E-01  0.11535345152E-01  0.35781196858E-01  0.51100000000E-03 0. -1.
         11    1    4    4    0    0  0.48844775489E-01 -0.81286694094E-01 -0.10453841150E-02  0.94840353638E-01  0.51100000000E-03 0.  1.
</event>
<event>
 8    1  0.1123361E+005  0.1043930E+01  0.7957747E-01            NaN
         13   -1    0    0    0    0  0.00000000000E+00  0.00000000000E+00  0.74505805969E-08  0.10566000000E+00  0.10566000000E+00 0. -1.
     999900   -1    0    0    0    0 -0.00000000000E+00 -0.00000000000E+00 -0.74505805969E-08  0.93827000000E+00  0.93827000000E+00 0.  1.
     999902    2    1    2    0    0  0.43891823654E-02 -0.16374032249E-01  0.16739330212E-01  0.10201060828E+01  0.10198278488E+01 0.  0.
     999903    2    3    3    0    0 -0.11524145703E+00  0.13089597695E-01  0.56780119971E-01  0.13062147912E+00  0.19648353562E-01 0.  0.
         14    1    1    2    0    0 -0.43891823654E-02  0.16374032249E-01 -0.16739330212E-01  0.23823917182E-01  0.00000000000E+00 0.  1.
     999901    1    3    3    0    0  0.11963063939E+00 -0.29463629944E-01 -0.40040789759E-01  0.88948460370E+00  0.88000000000E+00 0. -1.
        -11    1    4    4    0    0 -0.23007613469E-01  0.10233961980E-01  0.93438294397E-02  0.26863591066E-01  0.51100000000E-03 0.  1.
         11    1    4    4    0    0 -0.92233843560E-01  0.28556357146E-02  0.47436290531E-01  0.10375788805E+00  0.51100000000E-03 0. -1.
</event>
<event>
 8    1  0.1236154E+005  0.1043930E+01  0.7957747E-01            NaN
         13   -1    0    0    0    0  0.00000000000E+00  0.00000000000E+00  0.74505805969E-08  0.10566000000E+00  0.10566000000E+00 0. -1.
     999900   -1    0    0    0    0 -0.00000000000E+00 -0.00000000000E+00 -0.74505805969E-08  0.93827000000E+00  0.93827000000E+00 0.  1.
     999902    2    1    2    0    0 -0.35562876171E-02  0.17397439383E-01  0.14935626288E-01  0.10207267457E+01  0.10204629823E+01 0.  0.
     999903    2    3    3    0    0  0.22635914740E-01 -0.66286281804E-02 -0.12527764908E+00  0.12891788388E+00  0.19209582933E-01 0.  0.
         14    1    1    2    0    0  0.35562876171E-02 -0.17397439383E-01 -0.14935626288E-01  0.23203254326E-01  0.00000000000E+00 0.  1.
     999901    1    3    3    0    0 -0.26192202357E-01  0.24026067563E-01  0.14021327537E+00  0.89180886180E+00  0.88000000000E+00 0. -1.
        -11    1    4    4    0    0  0.15677295729E-01  0.53050107894E-02 -0.71433045851E-01  0.73327088456E-01  0.51100000000E-03 0.  1.
         11    1    4    4    0    0  0.69586190109E-02 -0.11933638970E-01 -0.53844603231E-01  0.55590795423E-01  0.51100000000E-03 0. -1.
</event>
<event>
 8    1  0.1123361E+005  0.1043930E+01  0.7957747E-01            NaN
         13   -1    0    0    0    0  0.00000000000E+00  0.00000000000E+00  0.74505805969E-08  0.10566000000E+00  0.10566000000E+00 0. -1.
     999900   -1    0    0    0    0 -0.00000000000E+00 -0.00000000000E+00 -0.74505805969E-08  0.93827000000E+00  0.93827000000E+00 0. -1.
     999902    2    1    2    0    0  0.14313596067E-01  0.14721184051E-01  0.21894225655E-02  0.10232808871E+01  0.10230725234E+01 0.  0.
     999903    2    3    3    0    0  0.12525048781E+00 -0.93628498615E-02  0.45227231458E-01  0.13494576586E+00  0.19735997659E-01 0.  0.
         14    1    1    2    0    0 -0.14313596067E-01 -0.14721184051E-01 -0.21894225655E-02  0.20649112896E-01  0.00000000000E+00 0. -1.
     999901    1    3    3    0    0 -0.11093689175E+00  0.24084033912E-01 -0.43037808893E-01  0.88833512124E+00  0.88000000000E+00 0.  1.
        -11    1    4    4    0    0  0.90747961771E-01  0.15872753555E-02  0.35507733657E-01  0.97461645169E-01  0.51100000000E-03 0.  1.
         11    1    4    4    0    0  0.34502526042E-01 -0.10950125217E-01  0.97194978010E-02  0.37484120692E-01  0.51100000000E-03 0. -1.
</event>
<event>
 8    1  0.1123361E+005  0.1043930E+01  0.7957747E-01            NaN
         13   -1    0    0    0    0  0.00000000000E+00  0.00000000000E+00  0.74505805969E-08  0.10566000000E+00  0.10566000000E+00 0.  1.
     999900   -1    0    0    0    0 -0.00000000000E+00 -0.00000000000E+00 -0.74505805969E-08  0.93827000000E+00  0.93827000000E+00 0.  1.
     999902    2    1    2    0    0 -0.81520057164E-02 -0.80371648627E-02 -0.13545883824E-01  0.10261946628E+01  0.10260413948E+01 0.  0.
     999903    2    3    3    0    0  0.68976964663E-01 -0.28794853666E-01  0.10936841125E+00  0.13406928842E+00  0.20643630199E-01 0.  0.
         14    1    1    2    0    0  0.81520057164E-02  0.80371648627E-02  0.13545883824E-01  0.17735337178E-01  0.00000000000E+00 0.  1.
     999901    1    3    3    0    0 -0.77128970379E-01  0.20757688803E-01 -0.12291429507E+00  0.89212537440E+00  0.88000000000E+00 0.  1.
        -11    1    4    4    0    0  0.38279599721E-01 -0.26115838601E-01  0.59053257496E-01  0.75066058392E-01  0.51100000000E-03 0. -1.
         11    1    4    4    0    0  0.30697364943E-01 -0.26790150648E-02  0.50315153750E-01  0.59003230031E-01  0.51100000000E-03 0.  1.
</event>
<event>
 8    1  0.1123361E+005  0.1043930E+01  0.7957747E-01            NaN
         13   -1    0    0    0    0  0.00000000000E+00  0.00000000000E+00  0.74505805969E-08  0.10566000000E+00  0.10566000000E+00 0. -1.
     999900   -1    0    0    0    0 -0.00000000000E+00 -0.00000000000E+00 -0.74505805969E-08  0.93827000000E+00  0.93827000000E+00 0. -1.
     999902    2    1    2    0    0 -0.10988562795E-01  0.11243677032E-01 -0.18132817657E-01  0.10199306696E+01  0.10196482741E+01 0.  0.
     999903    2    3    3    0    0  0.47656512831E-01  0.11843949322E+00  0.19719438720E-01  0.13068212094E+00  0.19745979352E-01 0.  0.
         14    1    1    2    0    0  0.10988562795E-01 -0.11243677032E-01  0.18132817657E-01  0.23999330442E-01  0.00000000000E+00 0. -1.
     999901    1    3    3    0    0 -0.58645075626E-01 -0.10719581619E+00 -0.37852256377E-01  0.88924854862E+00  0.88000000000E+00 0.  1.
        -11    1    4    4    0    0  0.33195870319E-01  0.68407395153E-01  0.19901229652E-01  0.78599348474E-01  0.51100000000E-03 0.  1.
         11    1    4    4    0    0  0.14460642512E-01  0.50032098068E-01 -0.18179093179E-03  0.52082772467E-01  0.51100000000E-03 0. -1.
</event>
<event>
 8    1  0.1123361E+005  0.1043930E+01  0.7957747E-01            NaN
         13   -1    0    0    0    0  0.00000000000E+00  0.00000000000E+00  0.74505805969E-08  0.10566000000E+00  0.10566000000E+00 0. -1.
     999900   -1    0    0    0    0 -0.00000000000E+00 -0.00000000000E+00 -0.74505805969E-08  0.93827000000E+00  0.93827000000E+00 0.  1.
     999902    2    1    2    0    0  0.21276498831E-01 -0.81775711218E-02 -0.10879704942E-02  0.10211101457E+01  0.10208551238E+01 0.  0.
     999903    2    3    3    0    0 -0.40594217212E-01 -0.11850884145E+00 -0.33709059118E-01  0.13146689686E+00  0.21330924278E-01 0.  0.
         14    1    1    2    0    0 -0.21276498831E-01  0.81775711218E-02  0.10879704942E-02  0.22819854333E-01  0.00000000000E+00 0.  1.
     999901    1    3    3    0    0  0.61870716043E-01  0.11033127033E+00  0.32621088624E-01  0.88964324880E+00  0.88000000000E+00 0.  1.
        -11    1    4    4    0    0 -0.91949082597E-02 -0.29619423372E-01 -0.18091399877E-01  0.35908445376E-01  0.51100000000E-03 0. -1.
         11    1    4    4    0    0 -0.31399308952E-01 -0.88889418083E-01 -0.15617659241E-01  0.95558451489E-01  0.51100000000E-03 0.  1.
</event>
<event>
 8    1  0.1155332E+005  0.1043930E+01  0.7957747E-01            NaN
         13   -1    0    0    0    0  0.00000000000E+00  0.00000000000E+00  0.74505805969E-08  0.10566000000E+00  0.10566000000E+00 0.  1.
     999900   -1    0    0    0    0 -0.00000000000E+00 -0.00000000000E+00 -0.74505805969E-08  0.93827000000E+00  0.93827000000E+00 0.  1.
     999902    2    1    2    0    0 -0.20242509136E-01  0.87719608012E-02  0.57147296343E-02  0.10211404277E+01  0.10208860898E+01 0.  0.
     999903    2    3    3    0    0 -0.75337757715E-01 -0.47007939660E-01 -0.95845868417E-01  0.13183652079E+00  0.17575937871E-01 0.  0.
         14    1    1    2    0    0  0.20242509136E-01 -0.87719608012E-02 -0.57147296343E-02  0.22789572335E-01  0.00000000000E+00 0. -1.
     999901    1    3    3    0    0  0.55095248579E-01  0.55779900461E-01  0.10156059805E+00  0.88930390688E+00  0.88000000000E+00 0. -1.
        -11    1    4    4    0    0 -0.47830277256E-01 -0.24718319360E-01 -0.46761564964E-01  0.71313643949E-01  0.51100000000E-03 0. -1.
         11    1    4    4    0    0 -0.27507480459E-01 -0.22289620301E-01 -0.49084303453E-01  0.60522876838E-01  0.51100000000E-03 0.  1.
</event>
<event>
 8    1  0.1123361E+005  0.1043930E+01  0.7957747E-01            NaN
         13   -1    0    0    0    0  0.00000000000E+00  0.00000000000E+00  0.74505805969E-08  0.10566000000E+00  0.10566000000E+00 0. -1.
     999900   -1    0    0    0    0 -0.00000000000E+00 -0.00000000000E+00 -0.74505805969E-08  0.93827000000E+00  0.93827000000E+00 0. -1.
     999902    2    1    2    0    0  0.81375922936E-02  0.15574065010E-02 -0.21995943838E-01  0.10204253735E+01  0.10201546331E+01 0.  0.
     999903    2    3    3    0    0 -0.19580343907E-01  0.77729264076E-02  0.12443077244E+00  0.12787414249E+00  0.20614823166E-01 0.  0.
         14    1    1    2    0    0 -0.81375922936E-02 -0.15574065010E-02  0.21995943838E-01  0.23504626537E-01  0.00000000000E+00 0. -1.
     999901    1    3    3    0    0  0.27717936201E-01 -0.62155199066E-02 -0.14642671628E+00  0.89255123098E+00  0.88000000000E+00 0. -1.
        -11    1    4    4    0    0 -0.13973828939E-01  0.13529050365E-01  0.63507435625E-01  0.66421070449E-01  0.51100000000E-03 0.  1.
         11    1    4    4    0    0 -0.56065149682E-02 -0.57561239574E-02  0.60923336816E-01  0.61453072038E-01  0.51100000000E-03 0. -1.
</event>
<event>
 8    1  0.1123361E+005  0.1043930E+01  0.7957747E-01            NaN
         13   -1    0    0    0    0  0.00000000000E+00  0.00000000000E+00  0.74505805969E-08  0.10566000000E+00  0.10566000000E+00 0. -1.
     999900   -1    0    0    0    0 -0.00000000000E+00 -0.00000000000E+00 -0.74505805969E-08  0.93827000000E+00  0.93827000000E+00 0.  1.
     999902    2    1    2    0    0 -0.34309868017E-04 -0.51819211318E-02 -0.22934013271E-01  0.10204178234E+01  0.10201469070E+01 0.  0.
     999903    2    3    3    0    0  0.29529819592E-02  0.12842500819E+00  0.73927797715E-03  0.13001333094E+00  0.20030398341E-01 0.  0.
         14    1    1    2    0    0  0.34309868017E-04  0.51819211318E-02  0.22934013271E-01  0.23512176601E-01  0.00000000000E+00 0. -1.
     999901    1    3    3    0    0 -0.29872918272E-02 -0.13360692933E+00 -0.23673291248E-01  0.89040449246E+00  0.88000000000E+00 0.  1.
        -11    1    4    4    0    0 -0.66623324061E-02  0.71251363868E-01  0.58913299671E-02  0.71806075063E-01  0.51100000000E-03 0. -1.
         11    1    4    4    0    0  0.96153143654E-02  0.57173644326E-01 -0.51520519900E-02  0.58207255875E-01  0.51100000000E-03 0.  1.
</event>
<event>
 8    1  0.1123361E+005  0.1043930E+01  0.7957747E-01            NaN
         13   -1    0    0    0    0  0.00000000000E+00  0.00000000000E+00  0.74505805969E-08  0.10566000000E+00  0.10566000000E+00 0. -1.
     999900   -1    0    0    0    0 -0.00000000000E+00 -0.00000000000E+00 -0.74505805969E-08  0.93827000000E+00  0.93827000000E+00 0. -1.
     999902    2    1    2    0    0  0.17730418812E-01  0.12997586212E-01 -0.91562048959E-02  0.10201152758E+01  0.10198372590E+01 0.  0.
     999903    2    3    3    0    0 -0.32916824560E-02 -0.71205293078E-01 -0.10696619234E+00  0.13045306620E+00  0.22253252395E-01 0.  0.
         14    1    1    2    0    0 -0.17730418812E-01 -0.12997586212E-01  0.91562048959E-02  0.23814724157E-01  0.00000000000E+00 0.  1.
     999901    1    3    3    0    0  0.21022101268E-01  0.84202879291E-01  0.97809987442E-01  0.88966220964E+00  0.88000000000E+00 0.  1.
        -11    1    4    4    0    0 -0.63011856241E-03 -0.51712152853E-01 -0.92680214549E-01  0.10613400535E+00  0.51100000000E-03 0.  1.
         11    1    4    4    0    0 -0.26615638936E-02 -0.19493140225E-01 -0.14285977788E-01  0.24319060849E-01  0.51100000000E-03 0. -1.
</event>
<event>
 8    1  0.1123361E+005  0.1043930E+01  0.7957747E-01            NaN
         13   -1    0    0    0    0  0.00000000000E+00  0.00000000000E+00  0.74505805969E-08  0.10566000000E+00  0.10566000000E+00 0.  1.
     999900   -1    0    0    0    0 -0.00000000000E+00 -0.00000000000E+00 -0.74505805969E-08  0.93827000000E+00  0.93827000000E+00 0. -1.
     999902    2    1    2    0    0 -0.18453118845E-01 -0.48999546340E-02  0.93762085190E-02  0.10226593527E+01  0.10224381210E+01 0.  0.
     999903    2    3    3    0    0  0.99325934367E-01 -0.22126995466E-01  0.81595594389E-01  0.13171361024E+00  0.18313626941E-01 0.  0.
         14    1    1    2    0    0  0.18453118845E-01  0.48999546340E-02 -0.93762085190E-02  0.21270647303E-01  0.00000000000E+00 0. -1.
     999901    1    3    3    0    0 -0.11777905321E+00  0.17227040832E-01 -0.72219385870E-01  0.89094574246E+00  0.88000000000E+00 0. -1.
        -11    1    4    4    0    0  0.41020397740E-01 -0.23280654510E-02  0.40419218468E-01  0.57637377300E-01  0.51100000000E-03 0. -1.
         11    1    4    4    0    0  0.58305536627E-01 -0.19798930015E-01  0.41176375921E-01  0.74076232937E-01  0.51100000000E-03 0.  1.
</event>
<event>
 8    1  0.1123361E+005  0.1043930E+01  0.7957747E-01            NaN
         13   -1    0    0    0    0  0.00000000000E+00  0.00000000000E+00  0.74505805969E-08  0.10566000000E+00  0.10566000000E+00 0.  1.
     999900   -1    0    0    0    0 -0.00000000000E+00 -0.00000000000E+00 -0.74505805969E-08  0.93827000000E+00  0.93827000000E+00 0.  1.
     999902    2    1    2    0    0  0.98436147691E-02 -0.21127272233E-01 -0.38019384495E-02  0.10203140495E+01  0.10200407082E+01 0.  0.
     999903    2    3    3    0    0  0.89379575800E-01  0.60425512917E-01  0.69985981224E-01  0.12990881422E+00  0.18393239584E-01 0.  0.
         14    1    1    2    0    0 -0.98436147691E-02  0.21127272233E-01  0.38019384495E-02  0.23615950536E-01  0.00000000000E+00 0. -1.
     999901    1    3    3    0    0 -0.79535961030E-01 -0.81552785150E-01 -0.73787919674E-01  0.89040523525E+00  0.88000000000E+00 0.  1.
        -11    1    4    4    0    0  0.28335874391E-01  0.10027542626E-01  0.15634537888E-01  0.33884705762E-01  0.51100000000E-03 0. -1.
         11    1    4    4    0    0  0.61043701408E-01  0.50397970291E-01  0.54351443337E-01  0.96024108456E-01  0.51100000000E-03 0.  1.
</event>
<event>
 8    1  0.1123361E+005  0.1043930E+01  0.7957747E-01            NaN
         13   -1    0    0    0    0  0.00000000000E+00  0.00000000000E+00  0.74505805969E-08  0.10566000000E+00  0.10566000000E+00 0. -1.
     999900   -1    0    0    0    0 -0.00000000000E+00 -0.00000000000E+00 -0.74505805969E-08  0.93827000000E+00  0.93827000000E+00 0.  1.
     999902    2    1    2    0    0  0.11241749475E-01  0.12378401546E-01  0.18227297436E-01  0.10191946785E+01  0.10188944777E+01 0.  0.
     999903    2    3    3    0    0 -0.76674099137E-01  0.69635675759E-01 -0.73000211908E-01  0.12827939056E+00  0.19963123180E-01 0.  0.
         14    1    1    2    0    0 -0.11241749475E-01 -0.12378401546E-01 -0.18227297436E-01  0.24735321464E-01  0.00000000000E+00 0.  1.
     999901    1    3    3    0    0  0.87915848612E-01 -0.57257274213E-01  0.91227509344E-01  0.89091528798E+00  0.88000000000E+00 0. -1.
        -11    1    4    4    0    0 -0.51743884647E-01  0.58614967120E-01 -0.55500143147E-01  0.95883632488E-01  0.51100000000E-03 0. -1.
         11    1    4    4    0    0 -0.24930214490E-01  0.11020708638E-01 -0.17500068761E-01  0.32395758072E-01  0.51100000000E-03 0.  1.
</event>
<event>
 8    1  0.1123361E+005  0.1043930E+01  0.7957747E-01            NaN
         13   -1    0    0    0    0  0.00000000000E+00  0.00000000000E+00  0.74505805969E-08  0.10566000000E+00  0.10566000000E+00 0. -1.
     999900   -1    0    0    0    0 -0.00000000000E+00 -0.00000000000E+00 -0.74505805969E-08  0.93827000000E+00  0.93827000000E+00 0.  1.
     999902    2    1    2    0    0 -0.21618045617E-01 -0.47979001030E-02 -0.76432096767E-02  0.10205039804E+01  0.10202350688E+01 0.  0.
     999903    2    3    3    0    0  0.59747180603E-01  0.55220342318E-01  0.97288372230E-01  0.12852128640E+00  0.20825030376E-01 0.  0.
         14    1    1    2    0    0  0.21618045617E-01  0.47979001030E-02  0.76432096767E-02  0.23426019633E-01  0.00000000000E+00 0. -1.
     999901    1    3    3    0    0 -0.81365226220E-01 -0.60018242421E-01 -0.10493158191E+00  0.89198269397E+00  0.88000000000E+00 0.  1.
        -11    1    4    4    0    0  0.10779420573E-01  0.19996129879E-01  0.35658337783E-01  0.42282612176E-01  0.51100000000E-03 0. -1.
         11    1    4    4    0    0  0.48967760030E-01  0.35224212439E-01  0.61630034448E-01  0.86238674220E-01  0.51100000000E-03 0.  1.
</event>
<event>
 8    1  0.1123361E+005  0.1043930E+01  0.7957747E-01            NaN
         13   -1    0    0    0    0  0.00000000000E+00  0.00000000000E+00  0.74505805969E-08  0.10566000000E+00  0.10566000000E+00 0.  1.
     999900   -1    0    0    0    0 -0.00000000000E+00 -0.00000000000E+00 -0.74505805969E-08  0.93827000000E+00  0.93827000000E+00 0. -1.
     999902    2    1    2    0    0 -0.10025422126E-01 -0.18585275800E-01  0.52557093592E-03  0.10228066056E+01  0.10225884581E+01 0.  0.
     999903    2    3    3    0    0 -0.28289692887E-01 -0.91972022598E-01  0.92322727017E-01  0.13480552676E+00  0.19745492055E-01 0.  0.
         14    1    1    2    0    0  0.10025422126E-01  0.18585275800E-01 -0.52557093592E-03  0.21123394381E-01  0.00000000000E+00 0. -1.
     999901    1    3    3    0    0  0.18264270761E-01  0.73386746798E-01 -0.91797156081E-01  0.88800107886E+00  0.88000000000E+00 0. -1.
        -11    1    4    4    0    0 -0.20986053115E-01 -0.36439966166E-01  0.43452709613E-01  0.60470527145E-01  0.51100000000E-03 0.  1.
         11    1    4    4    0    0 -0.73036397720E-02 -0.55532056432E-01  0.48870017404E-01  0.74334999614E-01  0.51100000000E-03 0. -1.
</event>
<event>
 8    1  0.1123361E+005  0.1043930E+01  0.7957747E-01            NaN
         13   -1    0    0    0    0  0.00000000000E+00  0.00000000000E+00  0.74505805969E-08  0.10566000000E+00  0.10566000000E+00 0.  1.
     999900   -1    0    0    0    0 -0.00000000000E+00 -0.00000000000E+00 -0.74505805969E-08  0.93827000000E+00  0.93827000000E+00 0.  1.
     999902    2    1    2    0    0  0.16488871106E-01  0.13063804597E-01  0.79532662246E-02  0.10214399955E+01  0.10211923737E+01 0.  0.
     999903    2    3    3    0    0  0.85503388501E-01  0.52826609272E-01  0.86743562907E-01  0.13433684751E+00  0.20505189571E-01 0.  0.
         14    1    1    2    0    0 -0.16488871106E-01 -0.13063804597E-01 -0.79532662246E-02  0.22490004548E-01  0.00000000000E+00 0. -1.
     999901    1    3    3    0    0 -0.69014517395E-01 -0.39762804675E-01 -0.78790296683E-01  0.88710314795E+00  0.88000000000E+00 0.  1.
        -11    1    4    4    0    0  0.11387426497E-01  0.12568244311E-01  0.73089990441E-02  0.18474762118E-01  0.51100000000E-03 0.  1.
         11    1    4    4    0    0  0.74115962004E-01  0.40258364962E-01  0.79434563863E-01  0.11586208539E+00  0.51100000000E-03 0. -1.
</event>
<event>
 8    1  0.1123361E+005  0.1043930E+01  0.7957747E-01            NaN
         13   -1    0    0    0    0  0.00000000000E+00  0.00000000000E+00  0.74505805969E-08  0.10566000000E+00  0.10566000000E+00 0. -1.
     999900   -1    0    0    0    0 -0.00000000000E+00 -0.00000000000E+00 -0.74505805969E-08  0.93827000000E+00  0.93827000000E+00 0.  1.
     999902    2    1    2    0    0  0.13629199675E-01 -0.19851214370E-01  0.31924495915E-03  0.10198483117E+01  0.10195639514E+01 0.  0.
     999903    2    3    3    0    0  0.90391276764E-02  0.59901440064E-01  0.11219866578E+00  0.12917521818E+00  0.20683520949E-01 0.  0.
         14    1    1    2    0    0 -0.13629199675E-01  0.19851214370E-01 -0.31924495915E-03  0.24081688335E-01  0.00000000000E+00 0. -1.
     999901    1    3    3    0    0  0.45900719982E-02 -0.79752654434E-01 -0.11187942082E+00  0.89067309348E+00  0.88000000000E+00 0.  1.
        -11    1    4    4    0    0  0.61255360488E-02  0.32232992806E-01  0.39613168696E-01  0.51438820673E-01  0.51100000000E-03 0. -1.
         11    1    4    4    0    0  0.29135916276E-02  0.27668447259E-01  0.72585497084E-01  0.77736397510E-01  0.51100000000E-03 0.  1.
</event>
<event>
 8    1  0.1123361E+005  0.1043930E+01  0.7957747E-01            NaN
         13   -1    0    0    0    0  0.00000000000E+00  0.00000000000E+00  0.74505805969E-08  0.10566000000E+00  0.10566000000E+00 0. -1.
     999900   -1    0    0    0    0 -0.00000000000E+00 -0.00000000000E+00 -0.74505805969E-08  0.93827000000E+00  0.93827000000E+00 0.  1.
     999902    2    1    2    0    0 -0.18272094618E-01  0.36970573287E-02  0.13540009045E-01  0.10208893941E+01  0.10206293576E+01 0.  0.
     999903    2    3    3    0    0  0.62935964764E-02 -0.10778449873E+00  0.72470246470E-01  0.13156134249E+00  0.19983560510E-01 0.  0.
         14    1    1    2    0    0  0.18272094618E-01 -0.36970573287E-02 -0.13540009045E-01  0.23040605885E-01  0.00000000000E+00 0. -1.
     999901    1    3    3    0    0 -0.24565691094E-01  0.11148155606E+00 -0.58930237425E-01  0.88932805162E+00  0.88000000000E+00 0.  1.
        -11    1    4    4    0    0 -0.30726528504E-02 -0.50149451436E-01  0.43094897262E-01  0.66195467865E-01  0.51100000000E-03 0. -1.
         11    1    4    4    0    0  0.93662493268E-02 -0.57635047298E-01  0.29375349208E-01  0.65365874626E-01  0.51100000000E-03 0.  1.
</event>
<event>
 8    1  0.1123361E+005  0.1043930E+01  0.7957747E-01            NaN
         13   -1    0    0    0    0  0.00000000000E+00  0.00000000000E+00  0.74505805969E-08  0.10566000000E+00  0.10566000000E+00 0. -1.
     999900   -1    0    0    0    0 -0.00000000000E+00 -0.00000000000E+00 -0.74505805969E-08  0.93827000000E+00  0.93827000000E+00 0. -1.
     999902    2    1    2    0    0  0.19837193824E-01 -0.11912353915E-01 -0.13568026406E-02  0.10207511444E+01  0.10204879418E+01 0.  0.
     999903    2    3    3    0    0 -0.11698578607E+00 -0.50386536946E-01  0.73573475712E-02  0.12930472030E+00  0.21002449396E-01 0.  0.
         14    1    1    2    0    0 -0.19837193824E-01  0.11912353915E-01  0.13568026406E-02  0.23178855623E-01  0.00000000000E+00 0. -1.
     999901    1    3    3    0    0  0.13682297989E+00  0.38474183031E-01 -0.87141502118E-02  0.89144642408E+00  0.88000000000E+00 0. -1.
        -11    1    4    4    0    0 -0.44143156580E-01 -0.29409452079E-01  0.69530449122E-02  0.53498972878E-01  0.51100000000E-03 0.  1.
         11    1    4    4    0    0 -0.72842629490E-01 -0.20977084867E-01  0.40430265901E-03  0.75805747421E-01  0.51100000000E-03 0. -1.
</event>
<event>
 8    1  0.1123361E+005  0.1043930E+01  0.7957747E-01            NaN
         13   -1    0    0    0    0  0.00000000000E+00  0.00000000000E+00  0.74505805969E-08  0.10566000000E+00  0.10566000000E+00 0.  1.
     999900   -1    0    0    0    0 -0.00000000000E+00 -0.00000000000E+00 -0.74505805969E-08  0.93827000000E+00  0.93827000000E+00 0. -1.
     999902    2    1    2    0    0 -0.55549612114E-02  0.16297692930E-01  0.12031004167E-01  0.10229248233E+01  0.10227091359E+01 0.  0.
     999903    2    3    3    0    0 -0.80605809649E-01  0.10591431187E+00 -0.85495560455E-02  0.13495673391E+00  0.20617640771E-01 0.  0.
         14    1    1    2    0    0  0.55549612114E-02 -0.16297692930E-01 -0.12031004167E-01  0.21005176747E-01  0.00000000000E+00 0. -1.
     999901    1    3    3    0    0  0.75050848437E-01 -0.89616618936E-01  0.20580560212E-01  0.88796808935E+00  0.88000000000E+00 0. -1.
        -11    1    4    4    0    0 -0.39038587350E-01  0.45065625832E-01  0.57053274071E-02  0.59897694578E-01  0.51100000000E-03 0.  1.
         11    1    4    4    0    0 -0.41567222299E-01  0.60848686033E-01 -0.14254883453E-01  0.75059039328E-01  0.51100000000E-03 0. -1.
</event>
<event>
 8    1  0.1123361E+005  0.1043930E+01  0.7957747E-01            NaN
         13   -1    0    0    0    0  0.00000000000E+00  0.00000000000E+00  0.74505805969E-08  0.10566000000E+00  0.10566000000E+00 0. -1.
     999900   -1    0    0    0    0 -0.00000000000E+00 -0.00000000000E+00 -0.74505805969E-08  0.93827000000E+00  0.93827000000E+00 0. -1.
     999902    2    1    2    0    0 -0.20692487897E-02  0.23887270847E-01  0.15930274583E-02  0.10199004092E+01  0.10196172926E+01 0.  0.
     999903    2    3    3    0    0 -0.29197347146E-01  0.12835858011E+00  0.93324129049E-02  0.13327191523E+00  0.18598367964E-01 0.  0.
         14    1    1    2    0    0  0.20692487897E-02 -0.23887270847E-01 -0.15930274583E-02  0.24029590832E-01  0.00000000000E+00 0.  1.
     999901    1    3    3    0    0  0.27128098356E-01 -0.10447130926E+00 -0.77393854466E-02  0.88662849394E+00  0.88000000000E+00 0. -1.
        -11    1    4    4    0    0 -0.12062670124E-01  0.22292116431E-01 -0.70345081441E-03  0.25361435873E-01  0.51100000000E-03 0. -1.
         11    1    4    4    0    0 -0.17134677021E-01  0.10606646367E+00  0.10035863719E-01  0.10791047936E+00  0.51100000000E-03 0.  1.
</event>
<event>
 8    1  0.1123361E+005  0.1043930E+01  0.7957747E-01            NaN
         13   -1    0    0    0    0  0.00000000000E+00  0.00000000000E+00  0.74505805969E-08  0.10566000000E+00  0.10566000000E+00 0. -1.
     999900   -1    0    0    0    0 -0.00000000000E+00 -0.00000000000E+00 -0.74505805969E-08  0.93827000000E+00  0.93827000000E+00 0. -1.
     999902    2    1    2    0    0  0.10830111056E-01 -0.15611968107E-01 -0.17887259478E-01  0.10178344275E+01  0.10174998491E+01 0.  0.
     999903    2    3    3    0    0  0.70768461026E-01  0.85142733002E-01 -0.62672212051E-01  0.12893071640E+00  0.20925185988E-01 0.  0.
         14    1    1    2    0    0 -0.10830111056E-01  0.15611968107E-01  0.17887259478E-01  0.26095572523E-01  0.00000000000E+00 0. -1.
     999901    1    3    3    0    0 -0.59938349969E-01 -0.10075470111E+00  0.44784952574E-01  0.88890371108E+00  0.88000000000E+00 0.  1.
        -11    1    4    4    0    0  0.18952737216E-01  0.17907305584E-01 -0.56921365720E-02  0.26693433294E-01  0.51100000000E-03 0. -1.
         11    1    4    4    0    0  0.51815723810E-01  0.67235427418E-01 -0.56980075479E-01  0.10223728310E+00  0.51100000000E-03 0.  1.
</event>
<event>
 8    1  0.1123361E+005  0.1043930E+01  0.7957747E-01            NaN
         13   -1    0    0    0    0  0.00000000000E+00  0.00000000000E+00  0.74505805969E-08  0.10566000000E+00  0.10566000000E+00 0. -1.
     999900   -1    0    0    0    0 -0.00000000000E+00 -0.00000000000E+00 -0.74505805969E-08  0.93827000000E+00  0.93827000000E+00 0. -1.
     999902    2    1    2    0    0 -0.89590941348E-02  0.24301216109E-01 -0.11398519831E-01  0.10156326375E+01  0.10152383531E+01 0.  0.
     999903    2    3    3    0    0  0.79289459189E-01  0.44290089805E-01 -0.87520699540E-01  0.12772388738E+00  0.20126802178E-01 0.  0.
         14    1    1    2    0    0  0.89590941348E-02 -0.24301216109E-01  0.11398519831E-01  0.28297362535E-01  0.00000000000E+00 0. -1.
     999901    1    3    3    0    0 -0.88248553323E-01 -0.19988873696E-01  0.76122179709E-01  0.88790875009E+00  0.88000000000E+00 0.  1.
        -11    1    4    4    0    0  0.55437790762E-01  0.35668757182E-01 -0.73528138565E-01  0.98753517230E-01  0.51100000000E-03 0.  1.
         11    1    4    4    0    0  0.23851668427E-01  0.86213326235E-02 -0.13992560975E-01  0.28970370149E-01  0.51100000000E-03 0. -1.
</event>
<event>
 8    1  0.1123361E+005  0.1043930E+01  0.7957747E-01            NaN
         13   -1    0    0    0    0  0.00000000000E+00  0.00000000000E+00  0.74505805969E-08  0.10566000000E+00  0.10566000000E+00 0.  1.
     999900   -1    0    0    0    0 -0.00000000000E+00 -0.00000000000E+00 -0.74505805969E-08  0.93827000000E+00  0.93827000000E+00 0.  1.
     999902    2    1    2    0    0 -0.12631473846E-01  0.90431259817E-02 -0.16443428743E-01  0.10213088018E+01  0.10210582501E+01 0.  0.
     999903    2    3    3    0    0  0.81638792225E-01 -0.77587735921E-01 -0.63378892075E-01  0.13080628804E+00  0.20215139599E-01 0.  0.
         14    1    1    2    0    0  0.12631473846E-01 -0.90431259817E-02  0.16443428743E-01  0.22621198197E-01  0.00000000000E+00 0.  1.
     999901    1    3    3    0    0 -0.94270266071E-01  0.86630861903E-01  0.46935463332E-01  0.89050251376E+00  0.88000000000E+00 0.  1.
        -11    1    4    4    0    0  0.31582053057E-01 -0.32800265325E-01 -0.14694947641E-01  0.47848574565E-01  0.51100000000E-03 0.  1.
         11    1    4    4    0    0  0.50056739168E-01 -0.44787470596E-01 -0.48683944434E-01  0.82957713476E-01  0.51100000000E-03 0. -1.
</event>
<event>
 8    1  0.1123361E+005  0.1043930E+01  0.7957747E-01            NaN
         13   -1    0    0    0    0  0.00000000000E+00  0.00000000000E+00  0.74505805969E-08  0.10566000000E+00  0.10566000000E+00 0.  1.
     999900   -1    0    0    0    0 -0.00000000000E+00 -0.00000000000E+00 -0.74505805969E-08  0.93827000000E+00  0.93827000000E+00 0.  1.
     999902    2    1    2    0    0  0.10758759577E-01 -0.94388938258E-02 -0.17825328956E-01  0.10210698605E+01  0.10208139273E+01 0.  0.
     999903    2    3    3    0    0 -0.85200084115E-01  0.92881133352E-01 -0.24091511310E-01  0.12993757367E+00  0.20430684460E-01 0.  0.
         14    1    1    2    0    0 -0.10758759577E-01  0.94388938258E-02  0.17825328956E-01  0.22860139472E-01  0.00000000000E+00 0.  1.
     999901    1    3    3    0    0  0.95958843692E-01 -0.10232002718E+00  0.62661823537E-02  0.89113228686E+00  0.88000000000E+00 0.  1.
        -11    1    4    4    0    0 -0.23221237210E-01  0.13145950405E-01 -0.46242540438E-02  0.27086651991E-01  0.51100000000E-03 0. -1.
         11    1    4    4    0    0 -0.61978846904E-01  0.79735182947E-01 -0.19467257266E-01  0.10285092168E+00  0.51100000000E-03 0.  1.
</event>
<event>
 8    1  0.1123361E+005  0.1043930E+01  0.7957747E-01            NaN
         13   -1    0    0    0    0  0.00000000000E+00  0.00000000000E+00  0.74505805969E-08  0.10566000000E+00  0.10566000000E+00 0. -1.
     999900   -1    0    0    0    0 -0.00000000000E+00 -0.00000000000E+00 -0.74505805969E-08  0.93827000000E+00  0.93827000000E+00 0. -1.
     999902    2    1    2    0    0  0.27739356499E-02  0.19804893687E-01 -0.82880728029E-02  0.10222823515E+01  0.10220531227E+01 0.  0.
     999903    2    3    3    0    0  0.12719286738E-01 -0.47504061802E-01 -0.12140661802E+00  0.13243674091E+00  0.19532211822E-01 0.  0.
         14    1    1    2    0    0 -0.27739356499E-02 -0.19804893687E-01  0.82880728029E-02  0.21647648457E-01  0.00000000000E+00 0.  1.
     999901    1    3    3    0    0 -0.99453510878E-02  0.67308955489E-01  0.11311854522E+00  0.88984561064E+00  0.88000000000E+00 0.  1.
        -11    1    4    4    0    0 -0.15141739853E-03 -0.26071657768E-01 -0.79159803439E-01  0.83344405137E-01  0.51100000000E-03 0. -1.
         11    1    4    4    0    0  0.12870704136E-01 -0.21432404034E-01 -0.42246814585E-01  0.49092335769E-01  0.51100000000E-03 0.  1.
</event>
<event>
 8    1  0.1123361E+005  0.1043930E+01  0.7957747E-01            NaN
         13   -1    0    0    0    0  0.00000000000E+00  0.00000000000E+00  0.74505805969E-08  0.10566000000E+00  0.10566000000E+00 0.  1.
     999900   -1    0    0    0    0 -0.00000000000E+00 -0.00000000000E+00 -0.74505805969E-08  0.93827000000E+00  0.93827000000E+00 0.  1.
     999902    2    1    2    0    0  0.17876650832E-01 -0.58893410206E-02  0.15690170413E-01  0.10194261140E+01  0.10191315722E+01 0.  0.
     999903    2    3    3    0    0 -0.98031452391E-01 -0.46225999733E-01  0.67772353776E-01  0.12938437998E+00  0.20005427716E-01 0.  0.
         14    1    1    2    0    0 -0.17876650832E-01  0.58893410206E-02 -0.15690170413E-01  0.24503886022E-01  0.00000000000E+00 0.  1.
     999901    1    3    3    0    0  0.11590810322E+00  0.40336658712E-01 -0.52082183363E-01  0.89004173399E+00  0.88000000000E+00 0.  1.
        -11    1    4    4    0    0 -0.56830162000E-01 -0.36414411092E-01  0.46679224698E-01  0.82066362096E-01  0.51100000000E-03 0.  1.
         11    1    4    4    0    0 -0.41201290391E-01 -0.98115886407E-02  0.21093129077E-01  0.47318017887E-01  0.51100000000E-03 0. -1.
</event>
<event>
 8    1  0.1123361E+005  0.1043930E+01  0.7957747E-01            NaN
         13   -1    0    0    0    0  0.00000000000E+00  0.00000000000E+00  0.74505805969E-08  0.10566000000E+00  0.10566000000E+00 0.  1.
     999900   -1    0    0    0    0 -0.00000000000E+00 -0.00000000000E+00 -0.74505805969E-08  0.93827000000E+00  0.93827000000E+00 0.  1.
     999902    2    1    2    0    0 -0.23113583363E-01 -0.14334157736E-02 -0.48662453087E-02  0.10202662564E+01  0.10199917947E+01 0.  0.
     999903    2    3    3    0    0 -0.16996494857E-01  0.10239805021E+00 -0.77465617675E-01  0.13117173897E+00  0.20757207359E-01 0.  0.
         14    1    1    2    0    0  0.23113583363E-01  0.14334157736E-02  0.48662453087E-02  0.23663743577E-01  0.00000000000E+00 0.  1.
     999901    1    3    3    0    0 -0.61170885062E-02 -0.10383146599E+00  0.72599372366E-01  0.88909451746E+00  0.88000000000E+00 0. -1.
        -11    1    4    4    0    0 -0.14399933376E-01  0.28845926291E-01 -0.24430290015E-01  0.40454242498E-01  0.51100000000E-03 0. -1.
         11    1    4    4    0    0 -0.25965614811E-02  0.73552123921E-01 -0.53035327659E-01  0.90717496470E-01  0.51100000000E-03 0.  1.
</event>
<event>
 8    1  0.1123361E+005  0.1043930E+01  0.7957747E-01            NaN
         13   -1    0    0    0    0  0.00000000000E+00  0.00000000000E+00  0.74505805969E-08  0.10566000000E+00  0.10566000000E+00 0.  1.
     999900   -1    0    0    0    0 -0.00000000000E+00 -0.00000000000E+00 -0.74505805969E-08  0.93827000000E+00  0.93827000000E+00 0.  1.
     999902    2    1    2    0    0  0.13627072564E-01 -0.55203865892E-02  0.19154234119E-01  0.10197834379E+01  0.10194975252E+01 0.  0.
     999903    2    3    3    0    0 -0.10027206982E+00 -0.16001641555E-01  0.79319111337E-01  0.13034390441E+00  0.19684295146E-01 0.  0.
         14    1    1    2    0    0 -0.13627072564E-01  0.55203865892E-02 -0.19154234119E-01  0.24146562062E-01  0.00000000000E+00 0. -1.
     999901    1    3    3    0    0  0.11389914239E+00  0.10481254966E-01 -0.60164877218E-01  0.88943953352E+00  0.88000000000E+00 0.  1.
        -11    1    4    4    0    0 -0.88727374974E-02  0.27691743255E-02  0.12465761260E-01  0.15557960083E-01  0.51100000000E-03 0. -1.
         11    1    4    4    0    0 -0.91399332327E-01 -0.18770815880E-01  0.66853350077E-01  0.11478594433E+00  0.51100000000E-03 0.  1.
</event>
<event>
 8    1  0.1123361E+005  0.1043930E+01  0.7957747E-01            NaN
         13   -1    0    0    0    0  0.00000000000E+00  0.00000000000E+00  0.74505805969E-08  0.10566000000E+00  0.10566000000E+00 0. -1.
     999900   -1    0    0    0    0 -0.00000000000E+00 -0.00000000000E+00 -0.74505805969E-08  0.93827000000E+00  0.93827000000E+00 0.  1.
     999902    2    1    2    0    0 -0.18785663294E-01  0.29084146665E-02 -0.13077021874E-01  0.10208568875E+01  0.10205961082E+01 0.  0.
     999903    2    3    3    0    0 -0.83816422423E-01  0.10104513508E+00  0.24734147215E-02  0.13288074386E+00  0.20392702552E-01 0.  0.
         14    1    1    2    0    0  0.18785663294E-01 -0.29084146665E-02  0.13077021874E-01  0.23073112542E-01  0.00000000000E+00 0. -1.
     999901    1    3    3    0    0  0.65030759129E-01 -0.98136720410E-01 -0.15550436596E-01  0.88797614360E+00  0.88000000000E+00 0.  1.
        -11    1    4    4    0    0 -0.41432795624E-01  0.61938451290E-01  0.79833920710E-02  0.74946941041E-01  0.51100000000E-03 0. -1.
         11    1    4    4    0    0 -0.42383626799E-01  0.39106683786E-01 -0.55099773495E-02  0.57933802816E-01  0.51100000000E-03 0.  1.
</event>
<event>
 8    1  0.1123361E+005  0.1043930E+01  0.7957747E-01            NaN
         13   -1    0    0    0    0  0.00000000000E+00  0.00000000000E+00  0.74505805969E-08  0.10566000000E+00  0.10566000000E+00 0. -1.
     999900   -1    0    0    0    0 -0.00000000000E+00 -0.00000000000E+00 -0.74505805969E-08  0.93827000000E+00  0.93827000000E+00 0.  1.
     999902    2    1    2    0    0  0.22270329935E-01  0.69405391268E-02 -0.39788995215E-02  0.10202663080E+01  0.10199918475E+01 0.  0.
     999903    2    3    3    0    0 -0.18874252720E-01  0.22194840656E-01 -0.12595606444E+00  0.13076982167E+00  0.19671495160E-01 0.  0.
         14    1    1    2    0    0 -0.22270329935E-01 -0.69405391268E-02  0.39788995215E-02  0.23663692024E-01  0.00000000000E+00 0. -1.
     999901    1    3    3    0    0  0.41144582655E-01 -0.15254301529E-01  0.12197716492E+00  0.88949648631E+00  0.88000000000E+00 0. -1.
        -11    1    4    4    0    0 -0.67383781741E-02  0.19719274253E-01 -0.97940605499E-01  0.10013430403E+00  0.51100000000E-03 0.  1.
         11    1    4    4    0    0 -0.12135874546E-01  0.24755664023E-02 -0.28015458941E-01  0.30635517634E-01  0.51100000000E-03 0. -1.
</event>
<event>
 8    1  0.1123361E+005  0.1043930E+01  0.7957747E-01            NaN
         13   -1    0    0    0    0  0.00000000000E+00  0.00000000000E+00  0.74505805969E-08  0.10566000000E+00  0.10566000000E+00 0. -1.
     999900   -1    0    0    0    0 -0.00000000000E+00 -0.00000000000E+00 -0.74505805969E-08  0.93827000000E+00  0.93827000000E+00 0.  1.
     999902    2    1    2    0    0 -0.18775876861E-01 -0.13966505161E-01  0.29681419852E-02  0.10203417257E+01  0.10200690322E+01 0.  0.
     999903    2    3    3    0    0 -0.54398701562E-01 -0.42556496969E-01  0.11098330955E+00  0.13256154473E+00  0.22022578793E-01 0.  0.
         14    1    1    2    0    0  0.18775876861E-01  0.13966505161E-01 -0.29681419852E-02  0.23588274315E-01  0.00000000000E+00 0.  1.
     999901    1    3    3    0    0  0.35622824702E-01  0.28589991807E-01 -0.10801516757E+00  0.88778018095E+00  0.88000000000E+00 0.  1.
        -11    1    4    4    0    0 -0.24181358435E-01 -0.19054647552E-01  0.30021479863E-01  0.43004279592E-01  0.51100000000E-03 0.  1.
         11    1    4    4    0    0 -0.30217343127E-01 -0.23501849417E-01  0.80961829688E-01  0.89557265138E-01  0.51100000000E-03 0. -1.
</event>
<event>
 8    1  0.1123361E+005  0.1043930E+01  0.7957747E-01            NaN
         13   -1    0    0    0    0  0.00000000000E+00  0.00000000000E+00  0.74505805969E-08  0.10566000000E+00  0.10566000000E+00 0. -1.
     999900   -1    0    0    0    0 -0.00000000000E+00 -0.00000000000E+00 -0.74505805969E-08  0.93827000000E+00  0.93827000000E+00 0.  1.
     999902    2    1    2    0    0 -0.17145412527E-01 -0.64047594963E-02  0.11971315613E-01  0.10220599631E+01  0.10218259488E+01 0.  0.
     999903    2    3    3    0    0  0.80946295076E-02 -0.46258494836E-01  0.12143712240E+00  0.13402384743E+00  0.31781214752E-01 0.  0.
         14    1    1    2    0    0  0.17145412527E-01  0.64047594963E-02 -0.11971315613E-01  0.21870036864E-01  0.00000000000E+00 0. -1.
     999901    1    3    3    0    0 -0.25240042034E-01  0.39853735340E-01 -0.10946580679E+00  0.88803611571E+00  0.88000000000E+00 0.  1.
        -11    1    4    4    0    0  0.67898441735E-02  0.28707951673E-02  0.19598648964E-01  0.20945443681E-01  0.51100000000E-03 0. -1.
         11    1    4    4    0    0  0.13047853342E-02 -0.49129290003E-01  0.10183847344E+00  0.11307840375E+00  0.51100000000E-03 0.  1.
</event>
<event>
 8    1  0.1123361E+005  0.1043930E+01  0.7957747E-01            NaN
         13   -1    0    0    0    0  0.00000000000E+00  0.00000000000E+00  0.74505805969E-08  0.10566000000E+00  0.10566000000E+00 0.  1.
     999900   -1    0    0    0    0 -0.00000000000E+00 -0.00000000000E+00 -0.74505805969E-08  0.93827000000E+00  0.93827000000E+00 0.  1.
     999902    2    1    2    0    0 -0.19387432736E-02 -0.23466958283E-01  0.16600165508E-02  0.10203246508E+01  0.10200515578E+01 0.  0.
     999903    2    3    3    0    0 -0.10402593073E-01  0.12461511082E+00  0.16212804932E-01  0.12779357593E+00  0.20765433231E-01 0.  0.
         14    1    1    2    0    0  0.19387432736E-02  0.23466958283E-01 -0.16600165508E-02  0.23605349213E-01  0.00000000000E+00 0. -1.
     999901    1    3    3    0    0  0.84638497992E-02 -0.14808206910E+00 -0.14552788382E-01  0.89253107486E+00  0.88000000000E+00 0.  1.
        -11    1    4    4    0    0 -0.43618013532E-02  0.40699844271E-01 -0.43984284144E-02  0.41171712719E-01  0.51100000000E-03 0. -1.
         11    1    4    4    0    0 -0.60407917196E-02  0.83915266547E-01  0.20611233347E-01  0.86621863207E-01  0.51100000000E-03 0.  1.
</event>
<event>
 8    1  0.1123361E+005  0.1043930E+01  0.7957747E-01            NaN
         13   -1    0    0    0    0  0.00000000000E+00  0.00000000000E+00  0.74505805969E-08  0.10566000000E+00  0.10566000000E+00 0. -1.
     999900   -1    0    0    0    0 -0.00000000000E+00 -0.00000000000E+00 -0.74505805969E-08  0.93827000000E+00  0.93827000000E+00 0.  1.
     999902    2    1    2    0    0  0.24366746597E-01  0.41686563901E-02 -0.82907614735E-02  0.10178560137E+01  0.10175219958E+01 0.  0.
     999903    2    3    3    0    0  0.28679868955E-02  0.68115334398E-01  0.10633339625E+00  0.12786159134E+00  0.19846189867E-01 0.  0.
         14    1    1    2    0    0 -0.24366746597E-01 -0.41686563901E-02  0.82907614735E-02  0.26073986301E-01  0.00000000000E+00 0.  1.
     999901    1    3    3    0    0  0.21498759701E-01 -0.63946678008E-01 -0.11462415773E+00  0.88999442236E+00  0.88000000000E+00 0.  1.
        -11    1    4    4    0    0  0.10919487751E-01  0.48924291224E-01  0.72763384344E-01  0.88360583445E-01  0.51100000000E-03 0. -1.
         11    1    4    4    0    0 -0.80515008558E-02  0.19191043174E-01  0.33570011909E-01  0.39501007895E-01  0.51100000000E-03 0.  1.
</event>
<event>
 8    1  0.1123361E+005  0.1043930E+01  0.7957747E-01            NaN
         13   -1    0    0    0    0  0.00000000000E+00  0.00000000000E+00  0.74505805969E-08  0.10566000000E+00  0.10566000000E+00 0.  1.
     999900   -1    0    0    0    0 -0.00000000000E+00 -0.00000000000E+00 -0.74505805969E-08  0.93827000000E+00  0.93827000000E+00 0. -1.
     999902    2    1    2    0    0  0.87772257473E-02  0.13836048487E-01  0.16585060408E-01  0.10206160523E+01  0.10203497371E+01 0.  0.
     999903    2    3    3    0    0 -0.67848810948E-01  0.10759579332E+00  0.30156097543E-01  0.13222052533E+00  0.19813157548E-01 0.  0.
         14    1    1    2    0    0 -0.87772257473E-02 -0.13836048487E-01 -0.16585060408E-01  0.23313947720E-01  0.00000000000E+00 0. -1.
     999901    1    3    3    0    0  0.76626036695E-01 -0.93759744838E-01 -0.13571037134E-01  0.88839552695E+00  0.88000000000E+00 0.  1.
        -11    1    4    4    0    0 -0.52349611412E-01  0.84253944886E-01  0.14880961246E-01  0.10030410347E+00  0.51100000000E-03 0. -1.
         11    1    4    4    0    0 -0.15499199536E-01  0.23341848439E-01  0.15275136296E-01  0.31916421865E-01  0.51100000000E-03 0.  1.
</event>
<event>
 8    1  0.1123361E+005  0.1043930E+01  0.7957747E-01            NaN
         13   -1    0    0    0    0  0.00000000000E+00  0.00000000000E+00  0.74505805969E-08  0.10566000000E+00  0.10566000000E+00 0.  1.
     999900   -1    0    0    0    0 -0.00000000000E+00 -0.00000000000E+00 -0.74505805969E-08  0.93827000000E+00  0.93827000000E+00 0. -1.
     999902    2    1    2    0    0 -0.14088339246E-01 -0.18164585040E-01 -0.54801589110E-02  0.10202981233E+01  0.10200244090E+01 0.  0.
     999903    2    3    3    0    0 -0.39346310135E-01  0.11041818464E+00  0.49943686244E-01  0.12887045025E+00  0.19310969183E-01 0.  0.
         14    1    1    2    0    0  0.14088339246E-01  0.18164585040E-01  0.54801589110E-02  0.23631876651E-01  0.00000000000E+00 0.  1.
     999901    1    3    3    0    0  0.25257970889E-01 -0.12858276968E+00 -0.55423845156E-01  0.89142767310E+00  0.88000000000E+00 0. -1.
        -11    1    4    4    0    0 -0.32373865176E-01  0.64292270115E-01  0.33570646780E-01  0.79428034026E-01  0.51100000000E-03 0. -1.
         11    1    4    4    0    0 -0.69724449586E-02  0.46125914529E-01  0.16373039464E-01  0.49442416224E-01  0.51100000000E-03 0.  1.
</event>
<event>
 8    1  0.1123361E+005  0.1043930E+01  0.7957747E-01            NaN
         13   -1    0    0    0    0  0.00000000000E+00  0.00000000000E+00  0.74505805969E-08  0.10566000000E+00  0.10566000000E+00 0. -1.
     999900   -1    0    0    0    0 -0.00000000000E+00 -0.00000000000E+00 -0.74505805969E-08  0.93827000000E+00  0.93827000000E+00 0.  1.
     999902    2    1    2    0    0 -0.20885956397E-01 -0.10902121026E-01 -0.20981787918E-02  0.10202766330E+01  0.10200024147E+01 0.  0.
     999903    2    3    3    0    0  0.21666446023E-01  0.73471907997E-01  0.10186823654E+00  0.12913203234E+00  0.20745795014E-01 0.  0.
         14    1    1    2    0    0  0.20885956397E-01  0.10902121026E-01  0.20981787918E-02  0.23653367027E-01  0.00000000000E+00 0. -1.
     999901    1    3    3    0    0 -0.42552402420E-01 -0.84374029023E-01 -0.10396641534E+00  0.89114460064E+00  0.88000000000E+00 0.  1.
        -11    1    4    4    0    0  0.35593098847E-02  0.34926939687E-01  0.59308795113E-01  0.68922812635E-01  0.51100000000E-03 0.  1.
         11    1    4    4    0    0  0.18107136138E-01  0.38544968310E-01  0.42559441431E-01  0.60209219702E-01  0.51100000000E-03 0. -1.
</event>
<event>
 8    1  0.1123361E+005  0.1043930E+01  0.7957747E-01            NaN
         13   -1    0    0    0    0  0.00000000000E+00  0.00000000000E+00  0.74505805969E-08  0.10566000000E+00  0.10566000000E+00 0.  1.
     999900   -1    0    0    0    0 -0.00000000000E+00 -0.00000000000E+00 -0.74505805969E-08  0.93827000000E+00  0.93827000000E+00 0.  1.
     999902    2    1    2    0    0  0.58028147301E-02  0.84642637616E-02 -0.21498018921E-01  0.10201081353E+01  0.10198299498E+01 0.  0.
     999903    2    3    3    0    0  0.92814150275E-02  0.32696219643E-01 -0.12749403953E+00  0.13340951417E+00  0.19702307247E-01 0.  0.
         14    1    1    2    0    0 -0.58028147301E-02 -0.84642637616E-02  0.21498018921E-01  0.23821864691E-01  0.00000000000E+00 0.  1.
     999901    1    3    3    0    0 -0.34786002974E-02 -0.24231955882E-01  0.10599602061E+00  0.88669862114E+00  0.88000000000E+00 0. -1.
        -11    1    4    4    0    0  0.12083580213E-02  0.30981667843E-01 -0.10169370260E+00  0.10631648104E+00  0.51100000000E-03 0.  1.
         11    1    4    4    0    0  0.80730570061E-02  0.17145518008E-02 -0.25800336932E-01  0.27093033128E-01  0.51100000000E-03 0. -1.
</event>
<event>
 8    1  0.1123361E+005  0.1043930E+01  0.7957747E-01            NaN
         13   -1    0    0    0    0  0.00000000000E+00  0.00000000000E+00  0.74505805969E-08  0.10566000000E+00  0.10566000000E+00 0. -1.
     999900   -1    0    0    0    0 -0.00000000000E+00 -0.00000000000E+00 -0.74505805969E-08  0.93827000000E+00  0.93827000000E+00 0. -1.
     999902    2    1    2    0    0 -0.17936579010E-01  0.83553846931E-02 -0.16945441964E-01  0.10178784871E+01  0.10175450522E+01 0.  0.
     999903    2    3    3    0    0  0.52516466502E-01  0.11546143641E+00  0.22590629461E-03  0.12842348931E+00  0.20080314264E-01 0.  0.
         14    1    1    2    0    0  0.17936579010E-01 -0.83553846931E-02  0.16945441964E-01  0.26051512879E-01  0.00000000000E+00 0. -1.
     999901    1    3    3    0    0 -0.70453045512E-01 -0.10710605171E+00 -0.17171348259E-01  0.88945499781E+00  0.88000000000E+00 0. -1.
        -11    1    4    4    0    0  0.49148118525E-01  0.10126159230E+00 -0.56056984446E-02  0.11269930171E+00  0.51100000000E-03 0. -1.
         11    1    4    4    0    0  0.33683479770E-02  0.14199844106E-01  0.58316047392E-02  0.15724187596E-01  0.51100000000E-03 0.  1.
</event>
<event>
 8    1  0.1123361E+005  0.1043930E+01  0.7957747E-01            NaN
         13   -1    0    0    0    0  0.00000000000E+00  0.00000000000E+00  0.74505805969E-08  0.10566000000E+00  0.10566000000E+00 0. -1.
     999900   -1    0    0    0    0 -0.00000000000E+00 -0.00000000000E+00 -0.74505805969E-08  0.93827000000E+00  0.93827000000E+00 0.  1.
     999902    2    1    2    0    0  0.22939455471E-01  0.80425950121E-02 -0.37153737595E-02  0.10193392303E+01  0.10190425705E+01 0.  0.
     999903    2    3    3    0    0  0.12015712365E+00  0.31708041344E-01  0.41577634119E-01  0.13251185989E+00  0.19686520870E-01 0.  0.
         14    1    1    2    0    0 -0.22939455471E-01 -0.80425950121E-02  0.37153737595E-02  0.24590769691E-01  0.00000000000E+00 0. -1.
     999901    1    3    3    0    0 -0.97217668178E-01 -0.23665446332E-01 -0.45293007879E-01  0.88682737042E+00  0.88000000000E+00 0.  1.
        -11    1    4    4    0    0  0.80162619600E-01  0.17583838226E-01  0.36395255600E-01  0.89778130405E-01  0.51100000000E-03 0.  1.
         11    1    4    4    0    0  0.39994504049E-01  0.14124203118E-01  0.51823785198E-02  0.42733729488E-01  0.51100000000E-03 0. -1.
</event>
<event>
 8    1  0.1123361E+005  0.1043930E+01  0.7957747E-01            NaN
         13   -1    0    0    0    0  0.00000000000E+00  0.00000000000E+00  0.74505805969E-08  0.10566000000E+00  0.10566000000E+00 0. -1.
     999900   -1    0    0    0    0 -0.00000000000E+00 -0.00000000000E+00 -0.74505805969E-08  0.93827000000E+00  0.93827000000E+00 0. -1.
     999902    2    1    2    0    0 -0.18073321599E-01 -0.90648796028E-02 -0.82290434501E-02  0.10221003378E+01  0.10218671961E+01 0.  0.
     999903    2    3    3    0    0  0.47491903987E-01 -0.11814568613E+00 -0.31200666663E-01  0.13264819370E+00  0.20203405585E-01 0.  0.
         14    1    1    2    0    0  0.18073321599E-01  0.90648796028E-02  0.82290434501E-02  0.21829662204E-01  0.00000000000E+00 0. -1.
     999901    1    3    3    0    0 -0.65565225586E-01  0.10908080653E+00  0.22971623213E-01  0.88945214409E+00  0.88000000000E+00 0. -1.
        -11    1    4    4    0    0  0.14036899074E-01 -0.20176073593E-01 -0.21455127675E-03  0.24584865964E-01  0.51100000000E-03 0. -1.
         11    1    4    4    0    0  0.33455004913E-01 -0.97969612536E-01 -0.30986115387E-01  0.10806332774E+00  0.51100000000E-03 0.  1.
</event>
<event>
 8    1  0.1123361E+005  0.1043930E+01  0.7957747E-01            NaN
         13   -1    0    0    0    0  0.00000000000E+00  0.00000000000E+00  0.74505805969E-08  0.10566000000E+00  0.10566000000E+00 0. -1.
     999900   -1    0    0    0    0 -0.00000000000E+00 -0.00000000000E+00 -0.74505805969E-08  0.93827000000E+00  0.93827000000E+00 0. -1.
     999902    2    1    2    0    0 -0.88519816913E-02 -0.29711229646E-02  0.22174954280E-01  0.10198693735E+01  0.10195855164E+01 0.  0.
     999903    2    3    3    0    0 -0.99347473495E-01 -0.34469221406E-02 -0.80243471661E-01  0.12931943417E+00  0.20067375206E-01 0.  0.
         14    1    1    2    0    0  0.88519816913E-02  0.29711229646E-02 -0.22174954280E-01  0.24060626527E-01  0.00000000000E+00 0.  1.
     999901    1    3    3    0    0  0.90495491804E-01  0.47579917596E-03  0.10241842594E+00  0.89054993930E+00  0.88000000000E+00 0.  1.
        -11    1    4    4    0    0 -0.36783652202E-01 -0.10987646445E-01 -0.30132236972E-01  0.48805514746E-01  0.51100000000E-03 0. -1.
         11    1    4    4    0    0 -0.62563821293E-01  0.75407243048E-02 -0.50111234689E-01  0.80513919423E-01  0.51100000000E-03 0.  1.
</event>
<event>
 8    1  0.1123361E+005  0.1043930E+01  0.7957747E-01            NaN
         13   -1    0    0    0    0  0.00000000000E+00  0.00000000000E+00  0.74505805969E-08  0.10566000000E+00  0.10566000000E+00 0.  1.
     999900   -1    0    0    0    0 -0.00000000000E+00 -0.00000000000E+00 -0.74505805969E-08  0.93827000000E+00  0.93827000000E+00 0.  1.
     999902    2    1    2    0    0  0.13963611695E-01 -0.16734263406E-01  0.11722160685E-01  0.10191827360E+01  0.10188822416E+01 0.  0.
     999903    2    3    3    0    0 -0.22158923771E-01 -0.92267880492E-01  0.88598170927E-01  0.13187214450E+00  0.23157006060E-01 0.  0.
         14    1    1    2    0    0 -0.13963611695E-01  0.16734263406E-01 -0.11722160685E-01  0.24747263979E-01  0.00000000000E+00 0. -1.
     999901    1    3    3    0    0  0.36122535466E-01  0.75533617086E-01 -0.76876010242E-01  0.88731059152E+00  0.88000000000E+00 0. -1.
        -11    1    4    4    0    0  0.10181844024E-03 -0.26943628597E-01  0.36649665102E-01  0.45490972314E-01  0.51100000000E-03 0.  1.
         11    1    4    4    0    0 -0.22260742211E-01 -0.65324251895E-01  0.51948505825E-01  0.86381172184E-01  0.51100000000E-03 0. -1.
</event>
<event>
 8    1  0.1123361E+005  0.1043930E+01  0.7957747E-01            NaN
         13   -1    0    0    0    0  0.00000000000E+00  0.00000000000E+00  0.74505805969E-08  0.10566000000E+00  0.10566000000E+00 0. -1.
     999900   -1    0    0    0    0 -0.00000000000E+00 -0.00000000000E+00 -0.74505805969E-08  0.93827000000E+00  0.93827000000E+00 0.  1.
     999902    2    1    2    0    0 -0.12422578565E-01 -0.44451996560E-02 -0.20904857836E-01  0.10192096978E+01  0.10189098659E+01 0.  0.
     999903    2    3    3    0    0 -0.41213406084E-01  0.12143217253E+00 -0.38424664815E-02  0.12962263083E+00  0.18518760961E-01 0.  0.
         14    1    1    2    0    0  0.12422578565E-01  0.44451996560E-02  0.20904857836E-01  0.24720302169E-01  0.00000000000E+00 0. -1.
     999901    1    3    3    0    0  0.28790827519E-01 -0.12587737219E+00 -0.17062391354E-01  0.88958706700E+00  0.88000000000E+00 0.  1.
        -11    1    4    4    0    0 -0.23814347505E-01  0.75166159868E-01  0.65091328368E-02  0.79118295404E-01  0.51100000000E-03 0. -1.
         11    1    4    4    0    0 -0.17399058580E-01  0.46266012664E-01 -0.10351599318E-01  0.50504335425E-01  0.51100000000E-03 0.  1.
</event>
<event>
 8    1  0.1315144E+005  0.1043930E+01  0.7957747E-01            NaN
         13   -1    0    0    0    0  0.00000000000E+00  0.00000000000E+00  0.74505805969E-08  0.10566000000E+00  0.10566000000E+00 0.  1.
     999900   -1    0    0    0    0 -0.00000000000E+00 -0.00000000000E+00 -0.74505805969E-08  0.93827000000E+00  0.93827000000E+00 0. -1.
     999902    2    1    2    0    0  0.45639152034E-03 -0.16345502025E-01 -0.88492129771E-02  0.10253371976E+01  0.10251686088E+01 0.  0.
     999903    2    3    3    0    0 -0.95122502807E-02 -0.10562114865E-01 -0.13452572720E+00  0.13633359380E+00  0.16959845050E-01 0.  0.
         14    1    1    2    0    0 -0.45639152034E-03  0.16345502025E-01  0.88492129771E-02  0.18592802370E-01  0.00000000000E+00 0.  1.
     999901    1    3    3    0    0  0.99686418011E-02 -0.57833871603E-02  0.12567651423E+00  0.88900360383E+00  0.88000000000E+00 0.  1.
        -11    1    4    4    0    0 -0.21645542731E-02  0.40975652104E-02 -0.50947805084E-01  0.51160681189E-01  0.51100000000E-03 0. -1.
         11    1    4    4    0    0 -0.73476960076E-02 -0.14659680075E-01 -0.83577922120E-01  0.85172912616E-01  0.51100000000E-03 0.  1.
</event>
<event>
 8    1  0.1123361E+005  0.1043930E+01  0.7957747E-01            NaN
         13   -1    0    0    0    0  0.00000000000E+00  0.00000000000E+00  0.74505805969E-08  0.10566000000E+00  0.10566000000E+00 0.  1.
     999900   -1    0    0    0    0 -0.00000000000E+00 -0.00000000000E+00 -0.74505805969E-08  0.93827000000E+00  0.93827000000E+00 0. -1.
     999902    2    1    2    0    0 -0.16476192181E-01 -0.14465261006E-01 -0.70778691149E-02  0.10208907961E+01  0.10206307916E+01 0.  0.
     999903    2    3    3    0    0  0.12270047391E+00  0.32866335094E-01 -0.41828448076E-02  0.12869193624E+00  0.20211778306E-01 0.  0.
         14    1    1    2    0    0  0.16476192181E-01  0.14465261006E-01  0.70778691149E-02  0.23039203892E-01  0.00000000000E+00 0. -1.
     999901    1    3    3    0    0 -0.13917666610E+00 -0.47331596101E-01 -0.28950243073E-02  0.89219885986E+00  0.88000000000E+00 0.  1.
        -11    1    4    4    0    0  0.92599304968E-01  0.19372906424E-01 -0.10209753691E-01  0.95154826338E-01  0.51100000000E-03 0.  1.
         11    1    4    4    0    0  0.30101168947E-01  0.13493428670E-01  0.60269088837E-02  0.33537109907E-01  0.51100000000E-03 0. -1.
</event>
<event>
 8    1  0.1123361E+005  0.1043930E+01  0.7957747E-01            NaN
         13   -1    0    0    0    0  0.00000000000E+00  0.00000000000E+00  0.74505805969E-08  0.10566000000E+00  0.10566000000E+00 0.  1.
     999900   -1    0    0    0    0 -0.00000000000E+00 -0.00000000000E+00 -0.74505805969E-08  0.93827000000E+00  0.93827000000E+00 0. -1.
     999902    2    1    2    0    0  0.17430016770E-01 -0.10705726665E-01  0.14094154622E-02  0.10234262316E+01  0.10232208202E+01 0.  0.
     999903    2    3    3    0    0 -0.19868848183E-02  0.12865684683E+00  0.20858211626E-01  0.13203563333E+00  0.21019313209E-01 0.  0.
         14    1    1    2    0    0 -0.17430016770E-01  0.10705726665E-01 -0.14094154622E-02  0.20503768433E-01  0.00000000000E+00 0. -1.
     999901    1    3    3    0    0  0.19416901588E-01 -0.13936257350E+00 -0.19448796164E-01  0.89139059824E+00  0.88000000000E+00 0. -1.
        -11    1    4    4    0    0 -0.72363296090E-02  0.98750565763E-01  0.22793189994E-01  0.10160624654E+00  0.51100000000E-03 0.  1.
         11    1    4    4    0    0  0.52494447908E-02  0.29906281069E-01 -0.19349783676E-02  0.30429386787E-01  0.51100000000E-03 0. -1.
</event>
<event>
 7    1  0.1123361E+005  0.1043930E+01  0.7957747E-01            NaN
         13   -1    0    0    0    0  0.00000000000E+00  0.00000000000E+00  0.74505805969E-08  0.10566000000E+00  0.10566000000E+00 0. -1.
     999900   -1    0    0    0    0 -0.00000000000E+00 -0.00000000000E+00 -0.74505805969E-08  0.93827000000E+00  0.93827000000E+00 0. -1.
     999902    2    1    2    0    0 -0.90467820527E-02  0.17209068332E-01  0.65529213855E-02  0.10234132489E+01  0.10232075747E+01 0.  0.
         14    1    1    2    0    0  0.90467820527E-02 -0.17209068332E-01 -0.65529213855E-02  0.20516751133E-01  0.00000000000E+00 0. -1.
     999901    1    3    3    0    0 -0.10748773611E+00  0.51323331910E-01  0.44998173255E-01  0.88916395193E+00  0.88000000000E+00 0.  1.
        -11    1    3    3    0    0  0.10881551924E-01 -0.19071574842E-01 -0.39729542102E-01  0.45396374039E-01  0.51100000000E-03 0. -1.
         11    1    3    3    0    0  0.87559402129E-01 -0.15042688736E-01  0.12842902323E-02  0.88852922901E-01  0.51100000000E-03 0.  1.
</event>
<event>
 8    1  0.1123361E+005  0.1043930E+01  0.7957747E-01            NaN
         13   -1    0    0    0    0  0.00000000000E+00  0.00000000000E+00  0.74505805969E-08  0.10566000000E+00  0.10566000000E+00 0.  1.
     999900   -1    0    0    0    0 -0.00000000000E+00 -0.00000000000E+00 -0.74505805969E-08  0.93827000000E+00  0.93827000000E+00 0.  1.
     999902    2    1    2    0    0  0.17763202147E-01 -0.16120873829E-01  0.36632378474E-03  0.10199394161E+01  0.10196572289E+01 0.  0.
     999903    2    3    3    0    0 -0.69603861695E-01  0.37886312183E-01 -0.98885903546E-01  0.12842341252E+00  0.20834604600E-01 0.  0.
         14    1    1    2    0    0 -0.17763202147E-01  0.16120873829E-01 -0.36632378474E-03  0.23990583916E-01  0.00000000000E+00 0. -1.
     999901    1    3    3    0    0  0.87367063842E-01 -0.54007186012E-01  0.99252227330E-01  0.89151600357E+00  0.88000000000E+00 0. -1.
        -11    1    4    4    0    0 -0.61901950778E-01  0.38205527490E-01 -0.80603508822E-01  0.10857578273E+00  0.51100000000E-03 0.  1.
         11    1    4    4    0    0 -0.77019109169E-02 -0.31921530642E-03 -0.18282394724E-01  0.19847629783E-01  0.51100000000E-03 0. -1.
</event>
<event>
 8    1  0.1123361E+005  0.1043930E+01  0.7957747E-01            NaN
         13   -1    0    0    0    0  0.00000000000E+00  0.00000000000E+00  0.74505805969E-08  0.10566000000E+00  0.10566000000E+00 0. -1.
     999900   -1    0    0    0    0 -0.00000000000E+00 -0.00000000000E+00 -0.74505805969E-08  0.93827000000E+00  0.93827000000E+00 0. -1.
     999902    2    1    2    0    0 -0.14092688947E-01  0.11869338587E-01 -0.15135597128E-01  0.10200852651E+01  0.10198065389E+01 0.  0.
     999903    2    3    3    0    0  0.40287975093E-01  0.12022152778E+00  0.13590132940E-01  0.13130935351E+00  0.31322802038E-01 0.  0.
         14    1    1    2    0    0  0.14092688947E-01 -0.11869338587E-01  0.15135597128E-01  0.23844734863E-01  0.00000000000E+00 0. -1.
     999901    1    3    3    0    0 -0.54380664040E-01 -0.10835218919E+00 -0.28725730068E-01  0.88877591163E+00  0.88000000000E+00 0. -1.
        -11    1    4    4    0    0  0.22528415325E-01  0.73157284242E-01 -0.71777928452E-02  0.76884976203E-01  0.51100000000E-03 0. -1.
         11    1    4    4    0    0  0.17759559767E-01  0.47064243535E-01  0.20767925785E-01  0.54424377305E-01  0.51100000000E-03 0.  1.
</event>
<event>
 8    1  0.1123361E+005  0.1043930E+01  0.7957747E-01            NaN
         13   -1    0    0    0    0  0.00000000000E+00  0.00000000000E+00  0.74505805969E-08  0.10566000000E+00  0.10566000000E+00 0. -1.
     999900   -1    0    0    0    0 -0.00000000000E+00 -0.00000000000E+00 -0.74505805969E-08  0.93827000000E+00  0.93827000000E+00 0. -1.
     999902    2    1    2    0    0 -0.18387672221E-01  0.11750407918E-01  0.83256635300E-02  0.10205741603E+01  0.10203068761E+01 0.  0.
     999903    2    3    3    0    0  0.12557494301E+00 -0.65191536028E-02 -0.15963184000E-01  0.12835840186E+00  0.20235869339E-01 0.  0.
         14    1    1    2    0    0  0.18387672221E-01 -0.11750407918E-01 -0.83256635300E-02  0.23355839723E-01  0.00000000000E+00 0. -1.
     999901    1    3    3    0    0 -0.14396261523E+00  0.18269561520E-01  0.24288847530E-01  0.89221575842E+00  0.88000000000E+00 0. -1.
        -11    1    4    4    0    0  0.71858612969E-02 -0.44936023354E-02 -0.38826483696E-02  0.93362274977E-02  0.51100000000E-03 0.  1.
         11    1    4    4    0    0  0.11838908171E+00 -0.20255512674E-02 -0.12080535630E-01  0.11902217436E+00  0.51100000000E-03 0. -1.
</event>
<event>
 8    1  0.1123361E+005  0.1043930E+01  0.7957747E-01            NaN
         13   -1    0    0    0    0  0.00000000000E+00  0.00000000000E+00  0.74505805969E-08  0.10566000000E+00  0.10566000000E+00 0. -1.
     999900   -1    0    0    0    0 -0.00000000000E+00 -0.00000000000E+00 -0.74505805969E-08  0.93827000000E+00  0.93827000000E+00 0. -1.
     999902    2    1    2    0    0 -0.19610117566E-01  0.44116131438E-02  0.12810561007E-01  0.10200945324E+01  0.10198160253E+01 0.  0.
     999903    2    3    3    0    0 -0.11737737847E+00 -0.25117051161E-01 -0.50783258399E-01  0.13190842963E+00  0.20312046635E-01 0.  0.
         14    1    1    2    0    0  0.19610117566E-01 -0.44116131438E-02 -0.12810561007E-01  0.23835467581E-01  0.00000000000E+00 0.  1.
     999901    1    3    3    0    0  0.97767260904E-01  0.29528664304E-01  0.63593819406E-01  0.88818610279E+00  0.88000000000E+00 0. -1.
        -11    1    4    4    0    0 -0.27388796498E-01 -0.14810134412E-01 -0.11903376309E-01  0.33338232458E-01  0.51100000000E-03 0. -1.
         11    1    4    4    0    0 -0.89988581972E-01 -0.10306916749E-01 -0.38879882090E-01  0.98570197172E-01  0.51100000000E-03 0.  1.
</event>
<event>
 8    1  0.1123361E+005  0.1043930E+01  0.7957747E-01            NaN
         13   -1    0    0    0    0  0.00000000000E+00  0.00000000000E+00  0.74505805969E-08  0.10566000000E+00  0.10566000000E+00 0. -1.
     999900   -1    0    0    0    0 -0.00000000000E+00 -0.00000000000E+00 -0.74505805969E-08  0.93827000000E+00  0.93827000000E+00 0. -1.
     999902    2    1    2    0    0  0.13287250365E-02 -0.18833165799E-01 -0.11829566745E-01  0.10216501370E+01  0.10214071716E+01 0.  0.
     999903    2    3    3    0    0 -0.12770940344E+00  0.13504207238E-01  0.16362942249E-01  0.13120566271E+00  0.21333652041E-01 0.  0.
         14    1    1    2    0    0 -0.13287250365E-02  0.18833165799E-01  0.11829566745E-01  0.22279862962E-01  0.00000000000E+00 0. -1.
     999901    1    3    3    0    0  0.12903812847E+00 -0.32337373037E-01 -0.28192508994E-01  0.89044447433E+00  0.88000000000E+00 0. -1.
        -11    1    4    4    0    0 -0.54596952093E-01  0.15495271597E-01  0.11453845671E-01  0.57899760979E-01  0.51100000000E-03 0.  1.
         11    1    4    4    0    0 -0.73112451343E-01 -0.19910643590E-02  0.49090965778E-02  0.73305901733E-01  0.51100000000E-03 0. -1.
</event>
<event>
 8    1  0.1123361E+005  0.1043930E+01  0.7957747E-01            NaN
         13   -1    0    0    0    0  0.00000000000E+00  0.00000000000E+00  0.74505805969E-08  0.10566000000E+00  0.10566000000E+00 0. -1.
     999900   -1    0    0    0    0 -0.00000000000E+00 -0.00000000000E+00 -0.74505805969E-08  0.93827000000E+00  0.93827000000E+00 0.  1.
     999902    2    1    2    0    0  0.18874550175E-01 -0.82276681800E-02  0.66614168009E-02  0.10222893521E+01  0.10220602731E+01 0.  0.
     999903    2    3    3    0    0 -0.12689543636E+00  0.11724229808E-01 -0.14460417887E-01  0.12982473145E+00  0.20135736326E-01 0.  0.
         14    1    1    2    0    0 -0.18874550175E-01  0.82276681800E-02 -0.66614168009E-02  0.21640647906E-01  0.00000000000E+00 0. -1.
     999901    1    3    3    0    0  0.14576998653E+00 -0.19951897988E-01  0.21121834688E-01  0.89246462065E+00  0.88000000000E+00 0.  1.
        -11    1    4    4    0    0 -0.33102915046E-01  0.25869000516E-02 -0.12749866953E-01  0.35571270216E-01  0.51100000000E-03 0.  1.
         11    1    4    4    0    0 -0.93792521309E-01  0.91373297567E-02 -0.17105509346E-02  0.94253461231E-01  0.51100000000E-03 0. -1.
</event>
<event>
 8    1  0.1123361E+005  0.1043930E+01  0.7957747E-01            NaN
         13   -1    0    0    0    0  0.00000000000E+00  0.00000000000E+00  0.74505805969E-08  0.10566000000E+00  0.10566000000E+00 0.  1.
     999900   -1    0    0    0    0 -0.00000000000E+00 -0.00000000000E+00 -0.74505805969E-08  0.93827000000E+00  0.93827000000E+00 0. -1.
     999902    2    1    2    0    0 -0.67108572086E-02  0.20455667699E-01  0.78666682832E-02  0.10210093889E+01  0.10207520844E+01 0.  0.
     999903    2    3    3    0    0  0.20434678688E-01  0.12907873153E+00  0.20951467665E-01  0.13381884444E+00  0.19738898266E-01 0.  0.
         14    1    1    2    0    0  0.67108572086E-02 -0.20455667699E-01 -0.78666682832E-02  0.22920611147E-01  0.00000000000E+00 0. -1.
     999901    1    3    3    0    0 -0.27145535897E-01 -0.10862306383E+00 -0.13084799382E-01  0.88719054441E+00  0.88000000000E+00 0. -1.
        -11    1    4    4    0    0  0.23679902633E-01  0.10090913588E+00  0.13761641304E-01  0.10456115619E+00  0.51100000000E-03 0. -1.
         11    1    4    4    0    0 -0.32452239449E-02  0.28169595651E-01  0.71898263610E-02  0.29257688250E-01  0.51100000000E-03 0.  1.
</event>
<event>
 8    1  0.1123361E+005  0.1043930E+01  0.7957747E-01            NaN
         13   -1    0    0    0    0  0.00000000000E+00  0.00000000000E+00  0.74505805969E-08  0.10566000000E+00  0.10566000000E+00 0. -1.
     999900   -1    0    0    0    0 -0.00000000000E+00 -0.00000000000E+00 -0.74505805969E-08  0.93827000000E+00  0.93827000000E+00 0. -1.
     999902    2    1    2    0    0  0.20804793828E-02  0.31495449434E-02 -0.24088292915E-01  0.10195477548E+01  0.10192561652E+01 0.  0.
     999903    2    3    3    0    0 -0.12158513220E+00 -0.26013642521E-01 -0.33556798261E-01  0.13037210979E+00  0.20277434114E-01 0.  0.
         14    1    1    2    0    0 -0.20804793828E-02 -0.31495449434E-02  0.24088292915E-01  0.24382245249E-01  0.00000000000E+00 0. -1.
     999901    1    3    3    0    0  0.12366561158E+00  0.29163187465E-01  0.94685053458E-02  0.88917564496E+00  0.88000000000E+00 0.  1.
        -11    1    4    4    0    0 -0.10157802031E-01 -0.19067552038E-02 -0.90822568647E-02  0.13768266713E-01  0.51100000000E-03 0.  1.
         11    1    4    4    0    0 -0.11142733017E+00 -0.24106887317E-01 -0.24474541396E-01  0.11660384308E+00  0.51100000000E-03 0. -1.
</event>
<event>
 8    1  0.1123361E+005  0.1043930E+01  0.7957747E-01            NaN
         13   -1    0    0    0    0  0.00000000000E+00  0.00000000000E+00  0.74505805969E-08  0.10566000000E+00  0.10566000000E+00 0.  1.
     999900   -1    0    0    0    0 -0.00000000000E+00 -0.00000000000E+00 -0.74505805969E-08  0.93827000000E+00  0.93827000000E+00 0. -1.
     999902    2    1    2    0    0 -0.66596863546E-02 -0.20666158035E-01 -0.18120672317E-01  0.10156492596E+01  0.10152554449E+01 0.  0.
     999903    2    3    3    0    0  0.64549734694E-01 -0.47855152553E-01 -0.98541781928E-01  0.12870079555E+00  0.19915524486E-01 0.  0.
         14    1    1    2    0    0  0.66596863546E-02  0.20666158035E-01  0.18120672317E-01  0.28280740363E-01  0.00000000000E+00 0.  1.
     999901    1    3    3    0    0 -0.71209421049E-01  0.27188994518E-01  0.80421109611E-01  0.88694846408E+00  0.88000000000E+00 0.  1.
        -11    1    4    4    0    0  0.24908400214E-01 -0.72537888293E-02 -0.28166209578E-01  0.38296766660E-01  0.51100000000E-03 0.  1.
         11    1    4    4    0    0  0.39641334480E-01 -0.40601363724E-01 -0.70375572350E-01  0.90404028894E-01  0.51100000000E-03 0. -1.
</event>
<event>
 8    1  0.1123361E+005  0.1043930E+01  0.7957747E-01            NaN
         13   -1    0    0    0    0  0.00000000000E+00  0.00000000000E+00  0.74505805969E-08  0.10566000000E+00  0.10566000000E+00 0.  1.
     999900   -1    0    0    0    0 -0.00000000000E+00 -0.00000000000E+00 -0.74505805969E-08  0.93827000000E+00  0.93827000000E+00 0.  1.
     999902    2    1    2    0    0 -0.19060176022E-01 -0.11405997389E-01 -0.72236338364E-02  0.10205726035E+01  0.10203052832E+01 0.  0.
     999903    2    3    3    0    0 -0.43030302702E-01  0.64144103838E-01 -0.10484865416E+00  0.13163333145E+00  0.19183864615E-01 0.  0.
         14    1    1    2    0    0  0.19060176022E-01  0.11405997389E-01  0.72236338364E-02  0.23357396520E-01  0.00000000000E+00 0. -1.
     999901    1    3    3    0    0  0.23970126680E-01 -0.75550101227E-01  0.97625020320E-01  0.88893927203E+00  0.88000000000E+00 0. -1.
        -11    1    4    4    0    0 -0.36946629789E-01  0.57916022083E-01 -0.80830982291E-01  0.10608123249E+00  0.51100000000E-03 0. -1.
         11    1    4    4    0    0 -0.60836729134E-02  0.62280817557E-02 -0.24017671866E-01  0.25552098962E-01  0.51100000000E-03 0.  1.
</event>
<event>
 8    1  0.1123361E+005  0.1043930E+01  0.7957747E-01            NaN
         13   -1    0    0    0    0  0.00000000000E+00  0.00000000000E+00  0.74505805969E-08  0.10566000000E+00  0.10566000000E+00 0. -1.
     999900   -1    0    0    0    0 -0.00000000000E+00 -0.00000000000E+00 -0.74505805969E-08  0.93827000000E+00  0.93827000000E+00 0.  1.
     999902    2    1    2    0    0  0.14732776018E-01 -0.88400325565E-02 -0.16736747604E-01  0.10199441795E+01  0.10196621057E+01 0.  0.
     999903    2    3    3    0    0  0.36868283762E-01 -0.12348708893E+00 -0.21242410834E-01  0.13221999416E+00  0.20556151305E-01 0.  0.
         14    1    1    2    0    0 -0.14732776018E-01  0.88400325565E-02  0.16736747604E-01  0.23985820502E-01  0.00000000000E+00 0. -1.
     999901    1    3    3    0    0 -0.22135507744E-01  0.11464705637E+00  0.45056632302E-02  0.88772418534E+00  0.88000000000E+00 0.  1.
        -11    1    4    4    0    0  0.31974919057E-01 -0.98931868192E-01 -0.24897399775E-01  0.10691141955E+00  0.51100000000E-03 0.  1.
         11    1    4    4    0    0  0.48933647047E-02 -0.24555220739E-01  0.36549889412E-02  0.25308574611E-01  0.51100000000E-03 0. -1.
</event>
<event>
 7    1  0.1123361E+005  0.1043930E+01  0.7957747E-01            NaN
         13   -1    0    0    0    0  0.00000000000E+00  0.00000000000E+00  0.74505805969E-08  0.10566000000E+00  0.10566000000E+00 0. -1.
     999900   -1    0    0    0    0 -0.00000000000E+00 -0.00000000000E+00 -0.74505805969E-08  0.93827000000E+00  0.93827000000E+00 0.  1.
     999903    2    1    2    0    0  0.23543109028E-01 -0.61852431702E-01 -0.86663788491E-01  0.11182696664E+00  0.24792275875E-01 0.  0.
         14    1    1    2    0    0  0.37249173673E-02 -0.26202635554E-01 -0.29572425011E-01  0.39686035836E-01  0.00000000000E+00 0. -1.
     999901    1    1    2    0    0 -0.27268026395E-01  0.88055067255E-01  0.11623621350E+00  0.89241699752E+00  0.88000000000E+00 0. -1.
        -11    1    3    3    0    0  0.20512896400E-01 -0.36847997444E-01 -0.69660024353E-01  0.81433002819E-01  0.51100000000E-03 0. -1.
         11    1    3    3    0    0  0.30302126281E-02 -0.25004434257E-01 -0.17003764138E-01  0.30393963824E-01  0.51100000000E-03 0.  1.
</event>
<event>
 8    1  0.1123361E+005  0.1043930E+01  0.7957747E-01            NaN
         13   -1    0    0    0    0  0.00000000000E+00  0.00000000000E+00  0.74505805969E-08  0.10566000000E+00  0.10566000000E+00 0.  1.
     999900   -1    0    0    0    0 -0.00000000000E+00 -0.00000000000E+00 -0.74505805969E-08  0.93827000000E+00  0.93827000000E+00 0. -1.
     999902    2    1    2    0    0 -0.21062579854E-01  0.10577471671E-01 -0.16311504820E-03  0.10203600661E+01  0.10200878015E+01 0.  0.
     999903    2    3    3    0    0 -0.12405089647E+00 -0.38481241704E-01 -0.18857668972E-01  0.13280001909E+00  0.20268263674E-01 0.  0.
         14    1    1    2    0    0  0.21062579854E-01 -0.10577471671E-01  0.16311504820E-03  0.23569933889E-01  0.00000000000E+00 0.  1.
     999901    1    3    3    0    0  0.10298831662E+00  0.49058713375E-01  0.18694553924E-01  0.88756004702E+00  0.88000000000E+00 0.  1.
        -11    1    4    4    0    0 -0.63413127921E-01 -0.28225374915E-01 -0.39910211143E-02  0.69527591303E-01  0.51100000000E-03 0. -1.
         11    1    4    4    0    0 -0.60637768553E-01 -0.10255866789E-01 -0.14866647857E-01  0.63272427788E-01  0.51100000000E-03 0.  1.
</event>
<event>
 8    1  0.1123361E+005  0.1043930E+01  0.7957747E-01            NaN
         13   -1    0    0    0    0  0.00000000000E+00  0.00000000000E+00  0.74505805969E-08  0.10566000000E+00  0.10566000000E+00 0.  1.
     999900   -1    0    0    0    0 -0.00000000000E+00 -0.00000000000E+00 -0.74505805969E-08  0.93827000000E+00  0.93827000000E+00 0.  1.
     999902    2    1    2    0    0  0.20043300143E-01 -0.11939986823E-01 -0.38866196280E-02  0.10202782986E+01  0.10200041194E+01 0.  0.
     999903    2    3    3    0    0  0.80589090377E-01 -0.21867312958E-01 -0.10126631057E+00  0.13278342611E+00  0.20094569661E-01 0.  0.
         14    1    1    2    0    0 -0.20043300143E-01  0.11939986823E-01  0.38866196280E-02  0.23651701378E-01  0.00000000000E+00 0. -1.
     999901    1    3    3    0    0 -0.60545790234E-01  0.99273261349E-02  0.97379690945E-01  0.88749487251E+00  0.88000000000E+00 0.  1.
        -11    1    4    4    0    0  0.57658800254E-01 -0.68341205684E-02 -0.62644021150E-01  0.85415320391E-01  0.51100000000E-03 0. -1.
         11    1    4    4    0    0  0.22930290122E-01 -0.15033192389E-01 -0.38622289423E-01  0.47368105723E-01  0.51100000000E-03 0.  1.
</event>
<event>
 8    1  0.1123361E+005  0.1043930E+01  0.7957747E-01            NaN
         13   -1    0    0    0    0  0.00000000000E+00  0.00000000000E+00  0.74505805969E-08  0.10566000000E+00  0.10566000000E+00 0. -1.
     999900   -1    0    0    0    0 -0.00000000000E+00 -0.00000000000E+00 -0.74505805969E-08  0.93827000000E+00  0.93827000000E+00 0. -1.
     999902    2    1    2    0    0  0.47284688856E-02 -0.85161877345E-02 -0.22610934211E-01  0.10193101256E+01  0.10190127545E+01 0.  0.
     999903    2    3    3    0    0  0.64737757582E-01 -0.72037762902E-01  0.82482837819E-01  0.12875928133E+00  0.19877561545E-01 0.  0.
         14    1    1    2    0    0 -0.47284688856E-02  0.85161877345E-02  0.22610934211E-01  0.24619874440E-01  0.00000000000E+00 0. -1.
     999901    1    3    3    0    0 -0.60009288697E-01  0.63521575167E-01 -0.10509377203E+00  0.89055084423E+00  0.88000000000E+00 0. -1.
        -11    1    4    4    0    0  0.29761531836E-01 -0.18945182556E-01  0.28668809068E-01  0.45462407038E-01  0.51100000000E-03 0. -1.
         11    1    4    4    0    0  0.34976225746E-01 -0.53092580345E-01  0.53814028752E-01  0.83296874291E-01  0.51100000000E-03 0.  1.
</event>
<event>
 8    1  0.1123361E+005  0.1043930E+01  0.7957747E-01            NaN
         13   -1    0    0    0    0  0.00000000000E+00  0.00000000000E+00  0.74505805969E-08  0.10566000000E+00  0.10566000000E+00 0.  1.
     999900   -1    0    0    0    0 -0.00000000000E+00 -0.00000000000E+00 -0.74505805969E-08  0.93827000000E+00  0.93827000000E+00 0. -1.
     999902    2    1    2    0    0 -0.63022352522E-02  0.14472288944E-02  0.23894027575E-01  0.10191764711E+01  0.10188758227E+01 0.  0.
     999903    2    3    3    0    0 -0.25516038452E-01 -0.11925329584E+00  0.42612524615E-01  0.13053246528E+00  0.18721123117E-01 0.  0.
         14    1    1    2    0    0  0.63022352522E-02 -0.14472288944E-02 -0.23894027575E-01  0.24753528928E-01  0.00000000000E+00 0. -1.
     999901    1    3    3    0    0  0.19213803200E-01  0.12070052473E+00 -0.18718497040E-01  0.88864400580E+00  0.88000000000E+00 0.  1.
        -11    1    4    4    0    0 -0.25267033179E-01 -0.76245375924E-01  0.29424201785E-01  0.85544287285E-01  0.51100000000E-03 0. -1.
         11    1    4    4    0    0 -0.24900527292E-03 -0.43007919914E-01  0.13188322830E-01  0.44988177992E-01  0.51100000000E-03 0.  1.
</event>
<event>
 8    1  0.1123361E+005  0.1043930E+01  0.7957747E-01            NaN
         13   -1    0    0    0    0  0.00000000000E+00  0.00000000000E+00  0.74505805969E-08  0.10566000000E+00  0.10566000000E+00 0. -1.
     999900   -1    0    0    0    0 -0.00000000000E+00 -0.00000000000E+00 -0.74505805969E-08  0.93827000000E+00  0.93827000000E+00 0.  1.
     999902    2    1    2    0    0  0.14038528671E-01 -0.18511958635E-01 -0.26640209360E-02  0.10205447502E+01  0.10202767846E+01 0.  0.
     999903    2    3    3    0    0 -0.16827533264E-01 -0.11185518277E+00 -0.66625294150E-01  0.13276284246E+00  0.19806431523E-01 0.  0.
         14    1    1    2    0    0 -0.14038528671E-01  0.18511958635E-01  0.26640209360E-02  0.23385249781E-01  0.00000000000E+00 0.  1.
     999901    1    3    3    0    0  0.30866061935E-01  0.93343224134E-01  0.63961273214E-01  0.88778190776E+00  0.88000000000E+00 0. -1.
        -11    1    4    4    0    0 -0.12372681754E-01 -0.35390239381E-01 -0.14947980921E-01  0.40364037853E-01  0.51100000000E-03 0.  1.
         11    1    4    4    0    0 -0.44548515106E-02 -0.76464943389E-01 -0.51677313229E-01  0.92398804608E-01  0.51100000000E-03 0. -1.
</event>
<event>
 8    1  0.1123361E+005  0.1043930E+01  0.7957747E-01            NaN
         13   -1    0    0    0    0  0.00000000000E+00  0.00000000000E+00  0.74505805969E-08  0.10566000000E+00  0.10566000000E+00 0. -1.
     999900   -1    0    0    0    0 -0.00000000000E+00 -0.00000000000E+00 -0.74505805969E-08  0.93827000000E+00  0.93827000000E+00 0. -1.
     999902    2    1    2    0    0 -0.18218573737E-01 -0.41282952621E-02 -0.12364779973E-01  0.10215280573E+01  0.10212823923E+01 0.  0.
     999903    2    3    3    0    0 -0.11340653788E+00 -0.45875277048E-01  0.48858577792E-01  0.13329843696E+00  0.20389428472E-01 0.  0.
         14    1    1    2    0    0  0.18218573737E-01  0.41282952621E-02  0.12364779973E-01  0.22401942652E-01  0.00000000000E+00 0. -1.
     999901    1    3    3    0    0  0.95187964141E-01  0.41746981786E-01 -0.61223357765E-01  0.88822962039E+00  0.88000000000E+00 0. -1.
        -11    1    4    4    0    0 -0.64971355138E-01 -0.16165561101E-01  0.30584470444E-01  0.73608921385E-01  0.51100000000E-03 0.  1.
         11    1    4    4    0    0 -0.48435182741E-01 -0.29709715947E-01  0.18274107347E-01  0.59689515571E-01  0.51100000000E-03 0. -1.
</event>
<event>
 8    1  0.1123361E+005  0.1043930E+01  0.7957747E-01            NaN
         13   -1    0    0    0    0  0.00000000000E+00  0.00000000000E+00  0.74505805969E-08  0.10566000000E+00  0.10566000000E+00 0.  1.
     999900   -1    0    0    0    0 -0.00000000000E+00 -0.00000000000E+00 -0.74505805969E-08  0.93827000000E+00  0.93827000000E+00 0.  1.
     999902    2    1    2    0    0 -0.11592479968E-01  0.12873031424E-01  0.15628406797E-01  0.10205987414E+01  0.10203320260E+01 0.  0.
     999903    2    3    3    0    0  0.30080432437E-01  0.10088450570E+00 -0.74760778205E-01  0.13062522717E+00  0.19780295944E-01 0.  0.
         14    1    1    2    0    0  0.11592479968E-01 -0.12873031424E-01 -0.15628406797E-01  0.23331258621E-01  0.00000000000E+00 0.  1.
     999901    1    3    3    0    0 -0.41672912404E-01 -0.88011474280E-01  0.90389185002E-01  0.88997351421E+00  0.88000000000E+00 0. -1.
        -11    1    4    4    0    0  0.32733920229E-01  0.96994825153E-01 -0.71793011489E-01  0.12503600785E+00  0.51100000000E-03 0. -1.
         11    1    4    4    0    0 -0.26534877924E-02  0.38896805515E-02 -0.29677667159E-02  0.55892193138E-02  0.51100000000E-03 0.  1.
</event>
<event>
 8    1  0.1123361E+005  0.1043930E+01  0.7957747E-01            NaN
         13   -1    0    0    0    0  0.00000000000E+00  0.00000000000E+00  0.74505805969E-08  0.10566000000E+00  0.10566000000E+00 0.  1.
     999900   -1    0    0    0    0 -0.00000000000E+00 -0.00000000000E+00 -0.74505805969E-08  0.93827000000E+00  0.93827000000E+00 0.  1.
     999902    2    1    2    0    0  0.19733099949E-01 -0.15735752275E-01  0.10415346598E-01  0.10166263633E+01  0.10162596489E+01 0.  0.
     999903    2    3    3    0    0  0.11486798340E+00 -0.91009083934E-02  0.57644511871E-01  0.13021491184E+00  0.18856122943E-01 0.  0.
         14    1    1    2    0    0 -0.19733099949E-01  0.15735752275E-01 -0.10415346598E-01  0.27303636718E-01  0.00000000000E+00 0. -1.
     999901    1    3    3    0    0 -0.95134883447E-01 -0.66348438821E-02 -0.47229165273E-01  0.88641145145E+00  0.88000000000E+00 0.  1.
        -11    1    4    4    0    0  0.52286255730E-01 -0.73531626546E-02  0.16595908662E-01  0.55349858578E-01  0.51100000000E-03 0.  1.
         11    1    4    4    0    0  0.62581727666E-01 -0.17477457388E-02  0.41048603210E-01  0.74865053258E-01  0.51100000000E-03 0. -1.
</event>
<event>
 8    1  0.1123361E+005  0.1043930E+01  0.7957747E-01            NaN
         13   -1    0    0    0    0  0.00000000000E+00  0.00000000000E+00  0.74505805969E-08  0.10566000000E+00  0.10566000000E+00 0. -1.
     999900   -1    0    0    0    0 -0.00000000000E+00 -0.00000000000E+00 -0.74505805969E-08  0.93827000000E+00  0.93827000000E+00 0. -1.
     999902    2    1    2    0    0 -0.19624863203E-01  0.81806875751E-02 -0.59663719254E-03  0.10226599534E+01  0.10224387343E+01 0.  0.
     999903    2    3    3    0    0 -0.61618708822E-01  0.11619823575E+00 -0.21438559265E-01  0.13481669052E+00  0.20421384693E-01 0.  0.
         14    1    1    2    0    0  0.19624863203E-01 -0.81806875751E-02  0.59663719254E-03  0.21270046565E-01  0.00000000000E+00 0. -1.
     999901    1    3    3    0    0  0.41993845620E-01 -0.10801754817E+00  0.20841922073E-01  0.88784326291E+00  0.88000000000E+00 0. -1.
        -11    1    4    4    0    0 -0.23538179549E-01  0.65798228964E-01 -0.94739509796E-02  0.70522831051E-01  0.51100000000E-03 0.  1.
         11    1    4    4    0    0 -0.38080529273E-01  0.50400006782E-01 -0.11964608286E-01  0.64293859472E-01  0.51100000000E-03 0. -1.
</event>
<event>
 7    1  0.1123361E+005  0.1043930E+01  0.7957747E-01            NaN
         13   -1    0    0    0    0  0.00000000000E+00  0.00000000000E+00  0.74505805969E-08  0.10566000000E+00  0.10566000000E+00 0.  1.
     999900   -1    0    0    0    0 -0.00000000000E+00 -0.00000000000E+00 -0.74505805969E-08  0.93827000000E+00  0.93827000000E+00 0. -1.
     999903    2    1    2    0    0  0.61267952009E-01 -0.53867272715E-01  0.33385611364E-01  0.91358198329E-01  0.24005756448E-01 0.  0.
         14    1    1    2    0    0 -0.25548842619E-01 -0.50487977659E-01  0.28832402918E-01  0.63506587889E-01  0.00000000000E+00 0. -1.
     999901    1    1    2    0    0 -0.35719109390E-01  0.10435525037E+00 -0.62218014282E-01  0.88906521378E+00  0.88000000000E+00 0. -1.
        -11    1    3    3    0    0  0.32084582935E-01 -0.31166528015E-01  0.55505391093E-02  0.45075964061E-01  0.51100000000E-03 0.  1.
         11    1    3    3    0    0  0.29183369074E-01 -0.22700744701E-01  0.27835072254E-01  0.46282234268E-01  0.51100000000E-03 0. -1.
</event>
<event>
 8    1  0.1123361E+005  0.1043930E+01  0.7957747E-01            NaN
         13   -1    0    0    0    0  0.00000000000E+00  0.00000000000E+00  0.74505805969E-08  0.10566000000E+00  0.10566000000E+00 0. -1.
     999900   -1    0    0    0    0 -0.00000000000E+00 -0.00000000000E+00 -0.74505805969E-08  0.93827000000E+00  0.93827000000E+00 0. -1.
     999902    2    1    2    0    0 -0.25061491325E-01 -0.81625392412E-02  0.24024822161E-02  0.10174634680E+01  0.10171191825E+01 0.  0.
     999903    2    3    3    0    0  0.55032975253E-02 -0.27403846536E-02  0.12648987364E+00  0.12821587213E+00  0.20045591549E-01 0.  0.
         14    1    1    2    0    0  0.25061491325E-01  0.81625392412E-02 -0.24024822161E-02  0.26466531981E-01  0.00000000000E+00 0.  1.
     999901    1    3    3    0    0 -0.30564788850E-01 -0.54221545876E-02 -0.12408739143E+00  0.88924759589E+00  0.88000000000E+00 0. -1.
        -11    1    4    4    0    0 -0.91111047368E-03  0.56266725555E-02  0.91247046845E-01  0.91426332341E-01  0.51100000000E-03 0.  1.
         11    1    4    4    0    0  0.64144079990E-02 -0.83670572090E-02  0.35242826799E-01  0.36789539792E-01  0.51100000000E-03 0. -1.
</event>
<event>
 8    1  0.1123361E+005  0.1043930E+01  0.7957747E-01            NaN
         13   -1    0    0    0    0  0.00000000000E+00  0.00000000000E+00  0.74505805969E-08  0.10566000000E+00  0.10566000000E+00 0. -1.
     999900   -1    0    0    0    0 -0.00000000000E+00 -0.00000000000E+00 -0.74505805969E-08  0.93827000000E+00  0.93827000000E+00 0.  1.
     999902    2    1    2    0    0  0.12859695864E-01 -0.14711673896E-01 -0.13385787877E-01  0.10202448898E+01  0.10199699264E+01 0.  0.
     999903    2    3    3    0    0  0.12834330297E+00 -0.51338318036E-02  0.23158893695E-01  0.13189602125E+00  0.19022786805E-01 0.  0.
         14    1    1    2    0    0 -0.12859695864E-01  0.14711673896E-01  0.13385787877E-01  0.23685110167E-01  0.00000000000E+00 0. -1.
     999901    1    3    3    0    0 -0.11548360710E+00 -0.95778420925E-02 -0.36544681571E-01  0.88834886859E+00  0.88000000000E+00 0.  1.
        -11    1    4    4    0    0  0.65828361203E-01 -0.13113800384E-02  0.23118405648E-02  0.65883978205E-01  0.51100000000E-03 0.  1.
         11    1    4    4    0    0  0.62514941764E-01 -0.38224517653E-02  0.20847053130E-01  0.66012043041E-01  0.51100000000E-03 0. -1.
</event>
<event>
 8    1  0.1123361E+005  0.1043930E+01  0.7957747E-01            NaN
         13   -1    0    0    0    0  0.00000000000E+00  0.00000000000E+00  0.74505805969E-08  0.10566000000E+00  0.10566000000E+00 0.  1.
     999900   -1    0    0    0    0 -0.00000000000E+00 -0.00000000000E+00 -0.74505805969E-08  0.93827000000E+00  0.93827000000E+00 0.  1.
     999902    2    1    2    0    0  0.27179338763E-01 -0.11779164278E-02  0.50323389446E-02  0.10162636237E+01  0.10158869644E+01 0.  0.
     999903    2    3    3    0    0 -0.25374182280E-01  0.17772499698E-01 -0.12009467224E+00  0.12565834649E+00  0.20188582698E-01 0.  0.
         14    1    1    2    0    0 -0.27179338763E-01  0.11779164278E-02 -0.50323389446E-02  0.27666376307E-01  0.00000000000E+00 0. -1.
     999901    1    3    3    0    0  0.52553521044E-01 -0.18950416126E-01  0.12512701118E+00  0.89060527720E+00  0.88000000000E+00 0. -1.
        -11    1    4    4    0    0 -0.28173712221E-01  0.12643109694E-01 -0.95317707654E-01  0.10019647098E+00  0.51100000000E-03 0. -1.
         11    1    4    4    0    0  0.27995299413E-02  0.51293900042E-02 -0.24776964586E-01  0.25461875516E-01  0.51100000000E-03 0.  1.
</event>
<event>
 8    1  0.1123361E+005  0.1043930E+01  0.7957747E-01            NaN
         13   -1    0    0    0    0  0.00000000000E+00  0.00000000000E+00  0.74505805969E-08  0.10566000000E+00  0.10566000000E+00 0. -1.
     999900   -1    0    0    0    0 -0.00000000000E+00 -0.00000000000E+00 -0.74505805969E-08  0.93827000000E+00  0.93827000000E+00 0. -1.
     999902    2    1    2    0    0 -0.48220684972E-03 -0.16887850746E-01 -0.15851420552E-01  0.10207632229E+01  0.10205002978E+01 0.  0.
     999903    2    3    3    0    0 -0.12776197814E+00 -0.72371411906E-02  0.19739697218E-01  0.13084187582E+00  0.18826618186E-01 0.  0.
         14    1    1    2    0    0  0.48220684972E-03  0.16887850746E-01  0.15851420552E-01  0.23166777069E-01  0.00000000000E+00 0. -1.
     999901    1    3    3    0    0  0.12727977129E+00 -0.96507095556E-02 -0.35591117770E-01  0.88992134711E+00  0.88000000000E+00 0.  1.
        -11    1    4    4    0    0 -0.84200504226E-01 -0.73041557115E-02  0.21610087592E-01  0.87237220321E-01  0.51100000000E-03 0.  1.
         11    1    4    4    0    0 -0.43561473912E-01  0.67014520919E-04 -0.18703903736E-02  0.43604655502E-01  0.51100000000E-03 0. -1.
</event>
<event>
 8    1  0.1123361E+005  0.1043930E+01  0.7957747E-01            NaN
         13   -1    0    0    0    0  0.00000000000E+00  0.00000000000E+00  0.74505805969E-08  0.10566000000E+00  0.10566000000E+00 0. -1.
     999900   -1    0    0    0    0 -0.00000000000E+00 -0.00000000000E+00 -0.74505805969E-08  0.93827000000E+00  0.93827000000E+00 0. -1.
     999902    2    1    2    0    0  0.90417015749E-02  0.21828551494E-01  0.27485666030E-03  0.10203013400E+01  0.10200277010E+01 0.  0.
     999903    2    3    3    0    0  0.10829756546E-01 -0.12558725603E+00 -0.63776874840E-02  0.12801278028E+00  0.21381171911E-01 0.  0.
         14    1    1    2    0    0 -0.90417015749E-02 -0.21828551494E-01 -0.27485666030E-03  0.23628660010E-01  0.00000000000E+00 0.  1.
     999901    1    3    3    0    0 -0.17880549706E-02  0.14741580753E+00  0.66525441443E-02  0.89228855971E+00  0.88000000000E+00 0. -1.
        -11    1    4    4    0    0  0.38160899177E-03 -0.67068954023E-01  0.58350473432E-02  0.67325323004E-01  0.51100000000E-03 0.  1.
         11    1    4    4    0    0  0.10448147554E-01 -0.58518302010E-01 -0.12212734827E-01  0.60687457274E-01  0.51100000000E-03 0. -1.
</event>
<event>
 8    1  0.1123361E+005  0.1043930E+01  0.7957747E-01            NaN
         13   -1    0    0    0    0  0.00000000000E+00  0.00000000000E+00  0.74505805969E-08  0.10566000000E+00  0.10566000000E+00 0. -1.
     999900   -1    0    0    0    0 -0.00000000000E+00 -0.00000000000E+00 -0.74505805969E-08  0.93827000000E+00  0.93827000000E+00 0. -1.
     999902    2    1    2    0    0  0.96094259093E-03 -0.70037413212E-02  0.22586572570E-01  0.10202629541E+01  0.10199884148E+01 0.  0.
     999903    2    3    3    0    0  0.21140027234E-01  0.47852780025E-01  0.12065358915E+00  0.13288841468E+00  0.19111590046E-01 0.  0.
         14    1    1    2    0    0 -0.96094259093E-03  0.70037413212E-02 -0.22586572570E-01  0.23667045942E-01  0.00000000000E+00 0.  1.
     999901    1    3    3    0    0 -0.20179084643E-01 -0.54856521347E-01 -0.98067016581E-01  0.88737453938E+00  0.88000000000E+00 0. -1.
        -11    1    4    4    0    0  0.68686912649E-02  0.37171093737E-01  0.84782514430E-01  0.92828901768E-01  0.51100000000E-03 0. -1.
         11    1    4    4    0    0  0.14271335969E-01  0.10681686288E-01  0.35871074721E-01  0.40059512914E-01  0.51100000000E-03 0.  1.
</event>
<event>
 8    1  0.1123361E+005  0.1043930E+01  0.7957747E-01            NaN
         13   -1    0    0    0    0  0.00000000000E+00  0.00000000000E+00  0.74505805969E-08  0.10566000000E+00  0.10566000000E+00 0.  1.
     999900   -1    0    0    0    0 -0.00000000000E+00 -0.00000000000E+00 -0.74505805969E-08  0.93827000000E+00  0.93827000000E+00 0. -1.
     999902    2    1    2    0    0  0.27316306580E-02 -0.23459391698E-01  0.18247646918E-03  0.10203114022E+01  0.10200379989E+01 0.  0.
     999903    2    3    3    0    0  0.12028294280E+00  0.43971923718E-01  0.86792890553E-02  0.12989717886E+00  0.19910565352E-01 0.  0.
         14    1    1    2    0    0 -0.27316306580E-02  0.23459391698E-01 -0.18247646918E-03  0.23618597811E-01  0.00000000000E+00 0. -1.
     999901    1    3    3    0    0 -0.11755131214E+00 -0.67431315416E-01 -0.84968125861E-02  0.89041422333E+00  0.88000000000E+00 0. -1.
        -11    1    4    4    0    0  0.38724135718E-01  0.21815662538E-01  0.91416137419E-02  0.45379643475E-01  0.51100000000E-03 0. -1.
         11    1    4    4    0    0  0.81558807082E-01  0.22156261179E-01 -0.46232468661E-03  0.84517535383E-01  0.51100000000E-03 0.  1.
</event>
<event>
 7    1  0.1123361E+005  0.1043930E+01  0.7957747E-01            NaN
         13   -1    0    0    0    0  0.00000000000E+00  0.00000000000E+00  0.74505805969E-08  0.10566000000E+00  0.10566000000E+00 0. -1.
     999900   -1    0    0    0    0 -0.00000000000E+00 -0.00000000000E+00 -0.74505805969E-08  0.93827000000E+00  0.93827000000E+00 0.  1.
     999903    2    1    2    0    0  0.30961949447E-01  0.91363646487E-01 -0.32791454900E-01  0.10384707636E+00  0.20074300527E-01 0.  0.
         14    1    1    2    0    0 -0.41236299923E-01 -0.12323377027E-03 -0.33068556283E-01  0.52858083890E-01  0.00000000000E+00 0.  1.
     999901    1    1    2    0    0  0.10274350476E-01 -0.91240412717E-01  0.65860011183E-01  0.88722483975E+00  0.88000000000E+00 0.  1.
        -11    1    3    3    0    0  0.18510729804E-01  0.30559854346E-01 -0.18141028827E-01  0.40073805203E-01  0.51100000000E-03 0.  1.
         11    1    3    3    0    0  0.12451219644E-01  0.60803792141E-01 -0.14650426073E-01  0.63773271160E-01  0.51100000000E-03 0. -1.
</event>
<event>
 8    1  0.1123361E+005  0.1043930E+01  0.7957747E-01            NaN
         13   -1    0    0    0    0  0.00000000000E+00  0.00000000000E+00  0.74505805969E-08  0.10566000000E+00  0.10566000000E+00 0.  1.
     999900   -1    0    0    0    0 -0.00000000000E+00 -0.00000000000E+00 -0.74505805969E-08  0.93827000000E+00  0.93827000000E+00 0.  1.
     999902    2    1    2    0    0 -0.20956205886E-01  0.56004799259E-02  0.53251153172E-02  0.10215942709E+01  0.10213500720E+01 0.  0.
     999903    2    3    3    0    0 -0.13095389471E+00  0.14949070363E-01  0.18521269987E-01  0.13459876575E+00  0.20034796111E-01 0.  0.
         14    1    1    2    0    0  0.20956205886E-01 -0.56004799259E-02 -0.53251153172E-02  0.22335729083E-01  0.00000000000E+00 0. -1.
     999901    1    3    3    0    0  0.10999768882E+00 -0.93485904372E-02 -0.13196154670E-01  0.88699550517E+00  0.88000000000E+00 0.  1.
        -11    1    4    4    0    0 -0.91534692516E-01  0.30633804005E-02  0.70651062956E-02  0.91859463755E-01  0.51100000000E-03 0. -1.
         11    1    4    4    0    0 -0.39419202193E-01  0.11885689963E-01  0.11456163691E-01  0.42739301994E-01  0.51100000000E-03 0.  1.
</event>
<event>
 8    1  0.1123361E+005  0.1043930E+01  0.7957747E-01            NaN
         13   -1    0    0    0    0  0.00000000000E+00  0.00000000000E+00  0.74505805969E-08  0.10566000000E+00  0.10566000000E+00 0. -1.
     999900   -1    0    0    0    0 -0.00000000000E+00 -0.00000000000E+00 -0.74505805969E-08  0.93827000000E+00  0.93827000000E+00 0.  1.
     999902    2    1    2    0    0 -0.70788278452E-02  0.20018023548E-01 -0.10755593468E-01  0.10201284483E+01  0.10198507426E+01 0.  0.
     999903    2    3    3    0    0 -0.18863190537E-01 -0.39540193032E-01 -0.12185807221E+00  0.13106725070E+00  0.20248151100E-01 0.  0.
         14    1    1    2    0    0  0.70788278452E-02 -0.20018023548E-01  0.10755593468E-01  0.23801551657E-01  0.00000000000E+00 0. -1.
     999901    1    3    3    0    0  0.11784362692E-01  0.59558216580E-01  0.11110247874E+00  0.88906119764E+00  0.88000000000E+00 0. -1.
        -11    1    4    4    0    0  0.33389194067E-03 -0.18767816222E-01 -0.35008887524E-01  0.39726889335E-01  0.51100000000E-03 0.  1.
         11    1    4    4    0    0 -0.19197082478E-01 -0.20772376810E-01 -0.86849184682E-01  0.91340361368E-01  0.51100000000E-03 0. -1.
</event>
<event>
 8    1  0.1123361E+005  0.1043930E+01  0.7957747E-01            NaN
         13   -1    0    0    0    0  0.00000000000E+00  0.00000000000E+00  0.74505805969E-08  0.10566000000E+00  0.10566000000E+00 0.  1.
     999900   -1    0    0    0    0 -0.00000000000E+00 -0.00000000000E+00 -0.74505805969E-08  0.93827000000E+00  0.93827000000E+00 0. -1.
     999902    2    1    2    0    0  0.22499920126E-02 -0.21435365246E-01  0.10535215739E-01  0.10199398329E+01  0.10196576556E+01 0.  0.
     999903    2    3    3    0    0  0.93454034795E-01 -0.90347600492E-01  0.15164796868E-01  0.13253434124E+00  0.20953162293E-01 0.  0.
         14    1    1    2    0    0 -0.22499920126E-02  0.21435365246E-01 -0.10535215739E-01  0.23990167110E-01  0.00000000000E+00 0. -1.
     999901    1    3    3    0    0 -0.91204042783E-01  0.68912235245E-01 -0.46295811289E-02  0.88740549165E+00  0.88000000000E+00 0. -1.
        -11    1    4    4    0    0  0.28215053980E-01 -0.33174581209E-01  0.14104333523E-01  0.45780295484E-01  0.51100000000E-03 0. -1.
         11    1    4    4    0    0  0.65238980816E-01 -0.57173019282E-01  0.10604633451E-02  0.86754045757E-01  0.51100000000E-03 0.  1.
</event>
<event>
 8    1  0.1123361E+005  0.1043930E+01  0.7957747E-01            NaN
         13   -1    0    0    0    0  0.00000000000E+00  0.00000000000E+00  0.74505805969E-08  0.10566000000E+00  0.10566000000E+00 0.  1.
     999900   -1    0    0    0    0 -0.00000000000E+00 -0.00000000000E+00 -0.74505805969E-08  0.93827000000E+00  0.93827000000E+00 0.  1.
     999902    2    1    2    0    0  0.88061903835E-02 -0.17786102665E-01 -0.13463403474E-01  0.10199475550E+01  0.10196655614E+01 0.  0.
     999903    2    3    3    0    0  0.43980987237E-01 -0.12337760264E+00  0.54313611769E-02  0.13273628174E+00  0.20810111298E-01 0.  0.
         14    1    1    2    0    0 -0.88061903835E-02  0.17786102665E-01  0.13463403474E-01  0.23982445042E-01  0.00000000000E+00 0.  1.
     999901    1    3    3    0    0 -0.35174796853E-01  0.10559149998E+00 -0.18894764650E-01  0.88721127322E+00  0.88000000000E+00 0.  1.
        -11    1    4    4    0    0  0.25753862521E-01 -0.82768981166E-01  0.12772003075E-01  0.87620493388E-01  0.51100000000E-03 0.  1.
         11    1    4    4    0    0  0.18227124715E-01 -0.40608621479E-01 -0.73406418980E-02  0.45115788348E-01  0.51100000000E-03 0. -1.
</event>
<event>
 8    1  0.1123361E+005  0.1043930E+01  0.7957747E-01            NaN
         13   -1    0    0    0    0  0.00000000000E+00  0.00000000000E+00  0.74505805969E-08  0.10566000000E+00  0.10566000000E+00 0. -1.
     999900   -1    0    0    0    0 -0.00000000000E+00 -0.00000000000E+00 -0.74505805969E-08  0.93827000000E+00  0.93827000000E+00 0.  1.
     999902    2    1    2    0    0 -0.24944428218E-01 -0.12032000181E-03 -0.39105598236E-02  0.10186806148E+01  0.10183676465E+01 0.  0.
     999903    2    3    3    0    0 -0.84181052637E-02  0.11676170941E+00  0.50682345756E-01  0.12912178396E+00  0.19989338131E-01 0.  0.
         14    1    1    2    0    0  0.24944428218E-01  0.12032000181E-03  0.39105598236E-02  0.25249385224E-01  0.00000000000E+00 0. -1.
     999901    1    3    3    0    0 -0.16526322955E-01 -0.11688202942E+00 -0.54592905580E-01  0.88955883082E+00  0.88000000000E+00 0.  1.
        -11    1    4    4    0    0 -0.23442542230E-02  0.10511461568E+00  0.41259068365E-01  0.11294755332E+00  0.51100000000E-03 0. -1.
         11    1    4    4    0    0 -0.60738510407E-02  0.11647093738E-01  0.94232773906E-02  0.16174230640E-01  0.51100000000E-03 0.  1.
</event>
<event>
 7    1  0.1123361E+005  0.1043930E+01  0.7957747E-01            NaN
         13   -1    0    0    0    0  0.00000000000E+00  0.00000000000E+00  0.74505805969E-08  0.10566000000E+00  0.10566000000E+00 0. -1.
     999900   -1    0    0    0    0 -0.00000000000E+00 -0.00000000000E+00 -0.74505805969E-08  0.93827000000E+00  0.93827000000E+00 0.  1.
     999903    2    1    2    0    0  0.43151157249E-01 -0.82794339637E-01  0.59538776188E-01  0.11252032673E+00  0.19975810602E-01 0.  0.
         14    1    1    2    0    0  0.21227809525E-01 -0.32937733426E-01 -0.81063751709E-02  0.40015340794E-01  0.00000000000E+00 0. -1.
     999901    1    1    2    0    0 -0.64378966774E-01  0.11573207306E+00 -0.51432401017E-01  0.89139433248E+00  0.88000000000E+00 0.  1.
        -11    1    3    3    0    0  0.28580512315E-01 -0.44377426839E-01  0.23175538250E-01  0.57650398014E-01  0.51100000000E-03 0. -1.
         11    1    3    3    0    0  0.14570644934E-01 -0.38416912798E-01  0.36363237938E-01  0.54869928714E-01  0.51100000000E-03 0.  1.
</event>
<event>
 8    1  0.1123361E+005  0.1043930E+01  0.7957747E-01            NaN
         13   -1    0    0    0    0  0.00000000000E+00  0.00000000000E+00  0.74505805969E-08  0.10566000000E+00  0.10566000000E+00 0.  1.
     999900   -1    0    0    0    0 -0.00000000000E+00 -0.00000000000E+00 -0.74505805969E-08  0.93827000000E+00  0.93827000000E+00 0.  1.
     999902    2    1    2    0    0 -0.17986522106E-01  0.10716309676E-03  0.15341178530E-01  0.10202893947E+01  0.10200154757E+01 0.  0.
     999903    2    3    3    0    0  0.86453290420E-02 -0.97531793625E-01  0.85963212732E-01  0.13167806621E+00  0.19032779492E-01 0.  0.
         14    1    1    2    0    0  0.17986522106E-01 -0.10716309676E-03 -0.15341178530E-01  0.23640605324E-01  0.00000000000E+00 0. -1.
     999901    1    3    3    0    0 -0.26631851148E-01  0.97638956722E-01 -0.70622034202E-01  0.88861132847E+00  0.88000000000E+00 0.  1.
        -11    1    4    4    0    0 -0.58213155539E-02 -0.23985224836E-01  0.23918327935E-01  0.34373336431E-01  0.51100000000E-03 0. -1.
         11    1    4    4    0    0  0.14466644596E-01 -0.73546568789E-01  0.62044884797E-01  0.97304729777E-01  0.51100000000E-03 0.  1.
</event>
<event>
 8    1  0.1123361E+005  0.1043930E+01  0.7957747E-01            NaN
         13   -1    0    0    0    0  0.00000000000E+00  0.00000000000E+00  0.74505805969E-08  0.10566000000E+00  0.10566000000E+00 0.  1.
     999900   -1    0    0    0    0 -0.00000000000E+00 -0.00000000000E+00 -0.74505805969E-08  0.93827000000E+00  0.93827000000E+00 0. -1.
     999902    2    1    2    0    0 -0.85991407657E-02 -0.16535720381E-01 -0.14133602285E-01  0.10205391047E+01  0.10202710082E+01 0.  0.
     999903    2    3    3    0    0  0.25435319201E-01 -0.95851825414E-01  0.83328085608E-01  0.13096158159E+00  0.19309016092E-01 0.  0.
         14    1    1    2    0    0  0.85991407657E-02  0.16535720381E-01  0.14133602285E-01  0.23390895323E-01  0.00000000000E+00 0.  1.
     999901    1    3    3    0    0 -0.34034459967E-01  0.79316105032E-01 -0.97461687893E-01  0.88957752309E+00  0.88000000000E+00 0. -1.
        -11    1    4    4    0    0  0.26722429485E-01 -0.66920378172E-01  0.58755904742E-01  0.92978184082E-01  0.51100000000E-03 0.  1.
         11    1    4    4    0    0 -0.12871102845E-02 -0.28931447242E-01  0.24572180866E-01  0.37983397503E-01  0.51100000000E-03 0. -1.
</event>
<event>
 8    1  0.1123361E+005  0.1043930E+01  0.7957747E-01            NaN
         13   -1    0    0    0    0  0.00000000000E+00  0.00000000000E+00  0.74505805969E-08  0.10566000000E+00  0.10566000000E+00 0. -1.
     999900   -1    0    0    0    0 -0.00000000000E+00 -0.00000000000E+00 -0.74505805969E-08  0.93827000000E+00  0.93827000000E+00 0. -1.
     999902    2    1    2    0    0  0.93977854121E-02 -0.72751026495E-02  0.20247960977E-01  0.10204518098E+01  0.10201816852E+01 0.  0.
     999903    2    3    3    0    0 -0.75348003955E-01 -0.10385202142E+00 -0.12913908840E-01  0.13050312612E+00  0.20043273993E-01 0.  0.
         14    1    1    2    0    0 -0.93977854121E-02  0.72751026495E-02 -0.20247960977E-01  0.23478190154E-01  0.00000000000E+00 0.  1.
     999901    1    3    3    0    0  0.84745789367E-01  0.96576918772E-01  0.33161869816E-01  0.88994868373E+00  0.88000000000E+00 0. -1.
        -11    1    4    4    0    0 -0.12699201332E-01 -0.18863256691E-01 -0.10082780832E-01  0.24880027287E-01  0.51100000000E-03 0.  1.
         11    1    4    4    0    0 -0.62648802623E-01 -0.84988764730E-01 -0.28311280073E-02  0.10562309883E+00  0.51100000000E-03 0. -1.
</event>
<event>
 8    1  0.1123361E+005  0.1043930E+01  0.7957747E-01            NaN
         13   -1    0    0    0    0  0.00000000000E+00  0.00000000000E+00  0.74505805969E-08  0.10566000000E+00  0.10566000000E+00 0.  1.
     999900   -1    0    0    0    0 -0.00000000000E+00 -0.00000000000E+00 -0.74505805969E-08  0.93827000000E+00  0.93827000000E+00 0.  1.
     999902    2    1    2    0    0  0.21760576302E-01  0.95393510474E-02 -0.20923285328E-03  0.10201694091E+01  0.10198926697E+01 0.  0.
     999903    2    3    3    0    0  0.51365427139E-01  0.67712807057E-01 -0.99143623427E-01  0.13222312033E+00  0.20737987840E-01 0.  0.
         14    1    1    2    0    0 -0.21760576302E-01 -0.95393510474E-02  0.20923285328E-03  0.23760590855E-01  0.00000000000E+00 0.  1.
     999901    1    3    3    0    0 -0.29604850837E-01 -0.58173456009E-01  0.98934390574E-01  0.88794628881E+00  0.88000000000E+00 0. -1.
        -11    1    4    4    0    0  0.25750301425E-01  0.19220839775E-01 -0.29940190531E-01  0.43922600506E-01  0.51100000000E-03 0.  1.
         11    1    4    4    0    0  0.25615125714E-01  0.48491967282E-01 -0.69203432896E-01  0.88300519827E-01  0.51100000000E-03 0. -1.
</event>
<event>
 8    1  0.1123361E+005  0.1043930E+01  0.7957747E-01            NaN
         13   -1    0    0    0    0  0.00000000000E+00  0.00000000000E+00  0.74505805969E-08  0.10566000000E+00  0.10566000000E+00 0.  1.
     999900   -1    0    0    0    0 -0.00000000000E+00 -0.00000000000E+00 -0.74505805969E-08  0.93827000000E+00  0.93827000000E+00 0. -1.
     999902    2    1    2    0    0 -0.72793749961E-02 -0.15381017068E-01 -0.15629413238E-01  0.10208249455E+01  0.10205634354E+01 0.  0.
     999903    2    3    3    0    0 -0.14666693029E-01  0.18079011469E-01  0.12534141866E+00  0.12894663459E+00  0.19359772794E-01 0.  0.
         14    1    1    2    0    0  0.72793749961E-02  0.15381017068E-01  0.15629413238E-01  0.23105054523E-01  0.00000000000E+00 0.  1.
     999901    1    3    3    0    0  0.73873180327E-02 -0.33460028537E-01 -0.14097083189E+00  0.89187831088E+00  0.88000000000E+00 0. -1.
        -11    1    4    4    0    0 -0.12854973557E-01  0.19155428778E-02  0.39809518751E-01  0.41880527144E-01  0.51100000000E-03 0.  1.
         11    1    4    4    0    0 -0.18117194715E-02  0.16163468592E-01  0.85531899904E-01  0.87066107450E-01  0.51100000000E-03 0. -1.
</event>
<event>
 8    1  0.1123361E+005  0.1043930E+01  0.7957747E-01            NaN
         13   -1    0    0    0    0  0.00000000000E+00  0.00000000000E+00  0.74505805969E-08  0.10566000000E+00  0.10566000000E+00 0. -1.
     999900   -1    0    0    0    0 -0.00000000000E+00 -0.00000000000E+00 -0.74505805969E-08  0.93827000000E+00  0.93827000000E+00 0.  1.
     999902    2    1    2    0    0  0.99677830169E-02 -0.21111877353E-01 -0.14613304167E-01  0.10163870023E+01  0.10160137409E+01 0.  0.
     999903    2    3    3    0    0 -0.70209363955E-01  0.94116689471E-01  0.34593765543E-01  0.12390320233E+00  0.19182515691E-01 0.  0.
         14    1    1    2    0    0 -0.99677830169E-02  0.21111877353E-01  0.14613304167E-01  0.27542997700E-01  0.00000000000E+00 0. -1.
     999901    1    3    3    0    0  0.80177146971E-01 -0.11522856682E+00 -0.49207069709E-01  0.89248379998E+00  0.88000000000E+00 0.  1.
        -11    1    4    4    0    0 -0.51306884112E-01  0.69181263245E-01  0.34009915831E-01  0.92603342474E-01  0.51100000000E-03 0. -1.
         11    1    4    4    0    0 -0.18902479842E-01  0.24935426225E-01  0.58384971177E-03  0.31299859851E-01  0.51100000000E-03 0.  1.
</event>
<event>
 8    1  0.1123361E+005  0.1043930E+01  0.7957747E-01            NaN
         13   -1    0    0    0    0  0.00000000000E+00  0.00000000000E+00  0.74505805969E-08  0.10566000000E+00  0.10566000000E+00 0.  1.
     999900   -1    0    0    0    0 -0.00000000000E+00 -0.00000000000E+00 -0.74505805969E-08  0.93827000000E+00  0.93827000000E+00 0.  1.
     999902    2    1    2    0    0 -0.10658905967E-01  0.51926918475E-02 -0.21018679907E-01  0.10197978383E+01  0.10195122705E+01 0.  0.
     999903    2    3    3    0    0 -0.10070770914E+00 -0.80045958062E-01 -0.16987878322E-01  0.13109616630E+00  0.18660619658E-01 0.  0.
         14    1    1    2    0    0  0.10658905967E-01 -0.51926918475E-02  0.21018679907E-01  0.24132161737E-01  0.00000000000E+00 0.  1.
     999901    1    3    3    0    0  0.90048803173E-01  0.85238649909E-01 -0.40308015847E-02  0.88870167196E+00  0.88000000000E+00 0. -1.
        -11    1    4    4    0    0 -0.89543587534E-01 -0.77089322429E-01 -0.13012226223E-01  0.11887134580E+00  0.51100000000E-03 0.  1.
         11    1    4    4    0    0 -0.11164121606E-01 -0.29566356324E-02 -0.39756520998E-02  0.12224820494E-01  0.51100000000E-03 0. -1.
</event>
<event>
 7    1  0.1123361E+005  0.1043930E+01  0.7957747E-01            NaN
         13   -1    0    0    0    0  0.00000000000E+00  0.00000000000E+00  0.74505805969E-08  0.10566000000E+00  0.10566000000E+00 0.  1.
     999900   -1    0    0    0    0 -0.00000000000E+00 -0.00000000000E+00 -0.74505805969E-08  0.93827000000E+00  0.93827000000E+00 0.  1.
     999903    2    1    2    0    0 -0.77658598497E-01  0.24081055101E-02  0.70926354593E-01  0.10733760859E+00  0.21310972489E-01 0.  0.
         14    1    1    2    0    0 -0.13931616411E-01 -0.36127359216E-01 -0.32183521944E-01  0.50349330725E-01  0.00000000000E+00 0. -1.
     999901    1    1    2    0    0  0.91590214908E-01  0.33719253706E-01 -0.38742832649E-01  0.88624306069E+00  0.88000000000E+00 0.  1.
        -11    1    3    3    0    0 -0.20621438686E-01  0.61540426426E-02  0.98128818414E-02  0.23657340201E-01  0.51100000000E-03 0.  1.
         11    1    3    3    0    0 -0.57037159811E-01 -0.37459371325E-02  0.61113472751E-01  0.83680268385E-01  0.51100000000E-03 0. -1.
</event>
<event>
 8    1  0.1123361E+005  0.1043930E+01  0.7957747E-01            NaN
         13   -1    0    0    0    0  0.00000000000E+00  0.00000000000E+00  0.74505805969E-08  0.10566000000E+00  0.10566000000E+00 0.  1.
     999900   -1    0    0    0    0 -0.00000000000E+00 -0.00000000000E+00 -0.74505805969E-08  0.93827000000E+00  0.93827000000E+00 0. -1.
     999902    2    1    2    0    0 -0.88379547107E-02  0.37666291851E-02 -0.21357027022E-01  0.10205116409E+01  0.10202429072E+01 0.  0.
     999903    2    3    3    0    0 -0.48011913914E-01  0.93985470036E-01 -0.78634557907E-01  0.13318151415E+00  0.20384051574E-01 0.  0.
         14    1    1    2    0    0  0.88379547107E-02 -0.37666291851E-02  0.21357027022E-01  0.23418359082E-01  0.00000000000E+00 0.  1.
     999901    1    3    3    0    0  0.39173959203E-01 -0.90218840851E-01  0.57277530885E-01  0.88733012677E+00  0.88000000000E+00 0.  1.
        -11    1    4    4    0    0 -0.41840006659E-01  0.61285443290E-01 -0.54126179282E-01  0.91849856403E-01  0.51100000000E-03 0. -1.
         11    1    4    4    0    0 -0.61719072548E-02  0.32700026746E-01 -0.24508378625E-01  0.41331657748E-01  0.51100000000E-03 0.  1.
</event>
<event>
 8    1  0.1123361E+005  0.1043930E+01  0.7957747E-01            NaN
         13   -1    0    0    0    0  0.00000000000E+00  0.00000000000E+00  0.74505805969E-08  0.10566000000E+00  0.10566000000E+00 0.  1.
     999900   -1    0    0    0    0 -0.00000000000E+00 -0.00000000000E+00 -0.74505805969E-08  0.93827000000E+00  0.93827000000E+00 0.  1.
     999902    2    1    2    0    0  0.20667435675E-01  0.12537926038E-01  0.18649701704E-01  0.10133988051E+01  0.10129387861E+01 0.  0.
     999903    2    3    3    0    0 -0.56665729586E-01 -0.43869254751E-01 -0.95149467744E-01  0.12092334918E+00  0.20821112940E-01 0.  0.
         14    1    1    2    0    0 -0.20667435675E-01 -0.12537926038E-01 -0.18649701704E-01  0.30531194873E-01  0.00000000000E+00 0. -1.
     999901    1    3    3    0    0  0.77333165261E-01  0.56407180789E-01  0.11379916945E+00  0.89247545594E+00  0.88000000000E+00 0. -1.
        -11    1    4    4    0    0 -0.26997251010E-01 -0.14445434623E-01 -0.55124134569E-01  0.63059126829E-01  0.51100000000E-03 0. -1.
         11    1    4    4    0    0 -0.29668478576E-01 -0.29423820128E-01 -0.40025333175E-01  0.57864222355E-01  0.51100000000E-03 0.  1.
</event>
<event>
 8    1  0.1123361E+005  0.1043930E+01  0.7957747E-01            NaN
         13   -1    0    0    0    0  0.00000000000E+00  0.00000000000E+00  0.74505805969E-08  0.10566000000E+00  0.10566000000E+00 0. -1.
     999900   -1    0    0    0    0 -0.00000000000E+00 -0.00000000000E+00 -0.74505805969E-08  0.93827000000E+00  0.93827000000E+00 0. -1.
     999902    2    1    2    0    0  0.22845534536E-01 -0.37169952127E-02  0.22735985978E-02  0.10206726624E+01  0.10204076538E+01 0.  0.
     999903    2    3    3    0    0 -0.74891447342E-01  0.10010900737E+00 -0.23524384922E-01  0.12882183833E+00  0.20276269468E-01 0.  0.
         14    1    1    2    0    0 -0.22845534536E-01  0.37169952127E-02 -0.22735985978E-02  0.23257337600E-01  0.00000000000E+00 0.  1.
     999901    1    3    3    0    0  0.97736981879E-01 -0.10382600258E+00  0.25797983520E-01  0.89185082407E+00  0.88000000000E+00 0. -1.
        -11    1    4    4    0    0 -0.56614626663E-01  0.83275485500E-01 -0.25539801743E-01  0.10388727079E+00  0.51100000000E-03 0. -1.
         11    1    4    4    0    0 -0.18276820679E-01  0.16833521869E-01  0.20154168205E-02  0.24934567544E-01  0.51100000000E-03 0.  1.
</event>
<event>
 8    1  0.1123361E+005  0.1043930E+01  0.7957747E-01            NaN
         13   -1    0    0    0    0  0.00000000000E+00  0.00000000000E+00  0.74505805969E-08  0.10566000000E+00  0.10566000000E+00 0. -1.
     999900   -1    0    0    0    0 -0.00000000000E+00 -0.00000000000E+00 -0.74505805969E-08  0.93827000000E+00  0.93827000000E+00 0. -1.
     999902    2    1    2    0    0  0.15630051057E-01 -0.33150887485E-02  0.16776777167E-01  0.10207621654E+01  0.10204992159E+01 0.  0.
     999903    2    3    3    0    0 -0.99155526670E-01 -0.98481469725E-02 -0.77901392311E-01  0.12824753497E+00  0.21213175925E-01 0.  0.
         14    1    1    2    0    0 -0.15630051057E-01  0.33150887485E-02 -0.16776777167E-01  0.23167834633E-01  0.00000000000E+00 0.  1.
     999901    1    3    3    0    0  0.11478557773E+00  0.65330582240E-02  0.94678169479E-01  0.89251463040E+00  0.88000000000E+00 0. -1.
        -11    1    4    4    0    0 -0.24602570915E-01 -0.23798470810E-02 -0.85751396031E-02  0.26167619455E-01  0.51100000000E-03 0. -1.
         11    1    4    4    0    0 -0.74552955755E-01 -0.74682998915E-02 -0.69326252708E-01  0.10207991551E+00  0.51100000000E-03 0.  1.
</event>
<event>
 8    1  0.1123361E+005  0.1043930E+01  0.7957747E-01            NaN
         13   -1    0    0    0    0  0.00000000000E+00  0.00000000000E+00  0.74505805969E-08  0.10566000000E+00  0.10566000000E+00 0. -1.
     999900   -1    0    0    0    0 -0.00000000000E+00 -0.00000000000E+00 -0.74505805969E-08  0.93827000000E+00  0.93827000000E+00 0.  1.
     999902    2    1    2    0    0 -0.13599506795E-01 -0.94301837338E-03  0.14333421655E-01  0.10241491293E+01  0.10239580832E+01 0.  0.
     999903    2    3    3    0    0 -0.90937564400E-01  0.47032764136E-01 -0.84078066947E-01  0.13399876452E+00  0.20120288992E-01 0.  0.
         14    1    1    2    0    0  0.13599506795E-01  0.94301837338E-03 -0.14333421655E-01  0.19780870685E-01  0.00000000000E+00 0.  1.
     999901    1    3    3    0    0  0.77338057605E-01 -0.47975782509E-01  0.98411488603E-01  0.89015036480E+00  0.88000000000E+00 0. -1.
        -11    1    4    4    0    0 -0.34346723904E-01  0.72443991251E-02 -0.30322119124E-01  0.46388261347E-01  0.51100000000E-03 0. -1.
         11    1    4    4    0    0 -0.56590840496E-01  0.39788365011E-01 -0.53755947823E-01  0.87610503170E-01  0.51100000000E-03 0.  1.
</event>
<event>
 8    1  0.1123361E+005  0.1043930E+01  0.7957747E-01            NaN
         13   -1    0    0    0    0  0.00000000000E+00  0.00000000000E+00  0.74505805969E-08  0.10566000000E+00  0.10566000000E+00 0. -1.
     999900   -1    0    0    0    0 -0.00000000000E+00 -0.00000000000E+00 -0.74505805969E-08  0.93827000000E+00  0.93827000000E+00 0. -1.
     999902    2    1    2    0    0  0.21104428612E-01  0.11461138004E-01 -0.25153493609E-02  0.10197829179E+01  0.10194969927E+01 0.  0.
     999903    2    3    3    0    0  0.12996273153E+00  0.15995756623E-01  0.11811882821E-01  0.13294811792E+00  0.19735897907E-01 0.  0.
         14    1    1    2    0    0 -0.21104428612E-01 -0.11461138004E-01  0.25153493609E-02  0.24147082097E-01  0.00000000000E+00 0. -1.
     999901    1    3    3    0    0 -0.10885830292E+00 -0.45346186188E-02 -0.14327232182E-01  0.88683479998E+00  0.88000000000E+00 0. -1.
        -11    1    4    4    0    0  0.53336684271E-01  0.16143762524E-01  0.70433731718E-02  0.56171996440E-01  0.51100000000E-03 0.  1.
         11    1    4    4    0    0  0.76626047258E-01 -0.14800590126E-03  0.47685096490E-02  0.76776121479E-01  0.51100000000E-03 0. -1.
</event>
<event>
 8    1  0.1123361E+005  0.1043930E+01  0.7957747E-01            NaN
         13   -1    0    0    0    0  0.00000000000E+00  0.00000000000E+00  0.74505805969E-08  0.10566000000E+00  0.10566000000E+00 0. -1.
     999900   -1    0    0    0    0 -0.00000000000E+00 -0.00000000000E+00 -0.74505805969E-08  0.93827000000E+00  0.93827000000E+00 0. -1.
     999902    2    1    2    0    0  0.99437191696E-02  0.18063618402E-01  0.10802903383E-01  0.10206518003E+01  0.10203863106E+01 0.  0.
     999903    2    3    3    0    0 -0.89811687311E-01 -0.74743495716E-01  0.51384433839E-01  0.12924215137E+00  0.20259425477E-01 0.  0.
         14    1    1    2    0    0 -0.99437191696E-02 -0.18063618402E-01 -0.10802903383E-01  0.23278199720E-01  0.00000000000E+00 0.  1.
     999901    1    3    3    0    0  0.99755406480E-01  0.92807114119E-01 -0.40581530456E-01  0.89140964891E+00  0.88000000000E+00 0. -1.
        -11    1    4    4    0    0 -0.28651135505E-01 -0.24991261980E-01  0.27282222678E-01  0.46797772771E-01  0.51100000000E-03 0.  1.
         11    1    4    4    0    0 -0.61160551806E-01 -0.49752233736E-01  0.24102211161E-01  0.82444378600E-01  0.51100000000E-03 0. -1.
</event>
<event>
 8    1  0.1123361E+005  0.1043930E+01  0.7957747E-01            NaN
         13   -1    0    0    0    0  0.00000000000E+00  0.00000000000E+00  0.74505805969E-08  0.10566000000E+00  0.10566000000E+00 0. -1.
     999900   -1    0    0    0    0 -0.00000000000E+00 -0.00000000000E+00 -0.74505805969E-08  0.93827000000E+00  0.93827000000E+00 0.  1.
     999902    2    1    2    0    0  0.18815096404E-01  0.11032378682E-01 -0.10353257364E-01  0.10197864466E+01  0.10195006059E+01 0.  0.
     999903    2    3    3    0    0 -0.12498232675E+00 -0.46324072092E-02 -0.17893178369E-01  0.12794569018E+00  0.20196351359E-01 0.  0.
         14    1    1    2    0    0 -0.18815096404E-01 -0.11032378682E-01  0.10353257364E-01  0.24143553386E-01  0.00000000000E+00 0.  1.
     999901    1    3    3    0    0  0.14379742315E+00  0.15664785891E-01  0.75399210055E-02  0.89184075643E+00  0.88000000000E+00 0.  1.
        -11    1    4    4    0    0 -0.62720689099E-01  0.13339838489E-02 -0.18452159479E-01  0.65394247946E-01  0.51100000000E-03 0. -1.
         11    1    4    4    0    0 -0.62261637649E-01 -0.59663910581E-02  0.55898111004E-03  0.62551442236E-01  0.51100000000E-03 0.  1.
</event>
<event>
 8    1  0.1123361E+005  0.1043930E+01  0.7957747E-01            NaN
         13   -1    0    0    0    0  0.00000000000E+00  0.00000000000E+00  0.74505805969E-08  0.10566000000E+00  0.10566000000E+00 0.  1.
     999900   -1    0    0    0    0 -0.00000000000E+00 -0.00000000000E+00 -0.74505805969E-08  0.93827000000E+00  0.93827000000E+00 0. -1.
     999902    2    1    2    0    0  0.14938067190E-01 -0.39022121894E-02 -0.17920285523E-01  0.10202760417E+01  0.10200018095E+01 0.  0.
     999903    2    3    3    0    0 -0.74796356062E-01  0.88020886973E-01 -0.56513119681E-01  0.13011227600E+00  0.19831798827E-01 0.  0.
         14    1    1    2    0    0 -0.14938067190E-01  0.39022121894E-02  0.17920285523E-01  0.23653958328E-01  0.00000000000E+00 0.  1.
     999901    1    3    3    0    0  0.89734423252E-01 -0.91923099163E-01  0.38592834158E-01  0.89016376568E+00  0.88000000000E+00 0.  1.
        -11    1    4    4    0    0 -0.25200910803E-01  0.26039965217E-01 -0.81130172399E-02  0.37138226446E-01  0.51100000000E-03 0.  1.
         11    1    4    4    0    0 -0.49595445259E-01  0.61980921756E-01 -0.48400102441E-01  0.92974049549E-01  0.51100000000E-03 0. -1.
</event>
<event>
 8    1  0.1123361E+005  0.1043930E+01  0.7957747E-01            NaN
         13   -1    0    0    0    0  0.00000000000E+00  0.00000000000E+00  0.74505805969E-08  0.10566000000E+00  0.10566000000E+00 0.  1.
     999900   -1    0    0    0    0 -0.00000000000E+00 -0.00000000000E+00 -0.74505805969E-08  0.93827000000E+00  0.93827000000E+00 0. -1.
     999902    2    1    2    0    0  0.23004075970E-02 -0.14673708130E-01  0.17347512020E-01  0.10210926236E+01  0.10208372056E+01 0.  0.
     999903    2    3    3    0    0 -0.12480796459E+00  0.27534246940E-01  0.19565879350E-01  0.13095613360E+00  0.20773119986E-01 0.  0.
         14    1    1    2    0    0 -0.23004075970E-02  0.14673708130E-01 -0.17347512020E-01  0.22837376353E-01  0.00000000000E+00 0. -1.
     999901    1    3    3    0    0  0.12710837219E+00 -0.42207955071E-01 -0.22183673296E-02  0.89013649004E+00  0.88000000000E+00 0.  1.
        -11    1    4    4    0    0 -0.39757808332E-01  0.58094424982E-02 -0.30755672989E-02  0.40300783872E-01  0.51100000000E-03 0. -1.
         11    1    4    4    0    0 -0.85050156259E-01  0.21724804442E-01  0.22641446649E-01  0.90655349732E-01  0.51100000000E-03 0.  1.
</event>
<event>
 8    1  0.1123361E+005  0.1043930E+01  0.7957747E-01            NaN
         13   -1    0    0    0    0  0.00000000000E+00  0.00000000000E+00  0.74505805969E-08  0.10566000000E+00  0.10566000000E+00 0. -1.
     999900   -1    0    0    0    0 -0.00000000000E+00 -0.00000000000E+00 -0.74505805969E-08  0.93827000000E+00  0.93827000000E+00 0. -1.
     999902    2    1    2    0    0 -0.79607309127E-02 -0.14294155509E-01 -0.17360717718E-01  0.10200743793E+01  0.10197953955E+01 0.  0.
     999903    2    3    3    0    0 -0.11793912862E-01 -0.12074431513E+00 -0.50546514358E-01  0.13303005863E+00  0.20585440675E-01 0.  0.
         14    1    1    2    0    0  0.79607309127E-02  0.14294155509E-01  0.17360717718E-01  0.23855620681E-01  0.00000000000E+00 0. -1.
     999901    1    3    3    0    0  0.38331819492E-02  0.10645015962E+00  0.33185796640E-01  0.88704432069E+00  0.88000000000E+00 0.  1.
        -11    1    4    4    0    0 -0.24974740699E-02 -0.91743348546E-01 -0.31156111721E-01  0.96922875513E-01  0.51100000000E-03 0. -1.
         11    1    4    4    0    0 -0.92964387920E-02 -0.29000966587E-01 -0.19390402637E-01  0.36107183117E-01  0.51100000000E-03 0.  1.
</event>
<event>
 8    1  0.1123361E+005  0.1043930E+01  0.7957747E-01            NaN
         13   -1    0    0    0    0  0.00000000000E+00  0.00000000000E+00  0.74505805969E-08  0.10566000000E+00  0.10566000000E+00 0.  1.
     999900   -1    0    0    0    0 -0.00000000000E+00 -0.00000000000E+00 -0.74505805969E-08  0.93827000000E+00  0.93827000000E+00 0.  1.
     999902    2    1    2    0    0 -0.11333332799E-01 -0.71759853417E-03  0.20535347297E-01  0.10204638570E+01  0.10201940127E+01 0.  0.
     999903    2    3    3    0    0  0.64359726378E-01 -0.29567212991E-01 -0.10421748660E+00  0.12798135909E+00  0.22395296339E-01 0.  0.
         14    1    1    2    0    0  0.11333332799E-01  0.71759853417E-03 -0.20535347297E-01  0.23466143028E-01  0.00000000000E+00 0. -1.
     999901    1    3    3    0    0 -0.75693059176E-01  0.28849614457E-01  0.12475283390E+00  0.89248249788E+00  0.88000000000E+00 0. -1.
        -11    1    4    4    0    0  0.46527376046E-01 -0.30337485616E-01 -0.69772277692E-01  0.89182910978E-01  0.51100000000E-03 0.  1.
         11    1    4    4    0    0  0.17832350332E-01  0.77027262448E-03 -0.34445208906E-01  0.38798448112E-01  0.51100000000E-03 0. -1.
</event>
<event>
 8    1  0.1123361E+005  0.1043930E+01  0.7957747E-01            NaN
         13   -1    0    0    0    0  0.00000000000E+00  0.00000000000E+00  0.74505805969E-08  0.10566000000E+00  0.10566000000E+00 0.  1.
     999900   -1    0    0    0    0 -0.00000000000E+00 -0.00000000000E+00 -0.74505805969E-08  0.93827000000E+00  0.93827000000E+00 0.  1.
     999902    2    1    2    0    0 -0.12785656133E-01  0.15526144420E-01 -0.11810443313E-01  0.10206057479E+01  0.10203391946E+01 0.  0.
     999903    2    3    3    0    0  0.11609993812E+00  0.37786788295E-01  0.38021450192E-01  0.12954444236E+00  0.20714605265E-01 0.  0.
         14    1    1    2    0    0  0.12785656133E-01 -0.15526144420E-01  0.11810443313E-01  0.23324252069E-01  0.00000000000E+00 0. -1.
     999901    1    3    3    0    0 -0.12888559425E+00 -0.22260643875E-01 -0.49831893506E-01  0.89106130557E+00  0.88000000000E+00 0.  1.
        -11    1    4    4    0    0  0.56156695904E-01  0.12111622710E-01  0.26719833350E-01  0.63359896739E-01  0.51100000000E-03 0.  1.
         11    1    4    4    0    0  0.59943242215E-01  0.25675165585E-01  0.11301616842E-01  0.66184545623E-01  0.51100000000E-03 0. -1.
</event>
<event>
 8    1  0.1123361E+005  0.1043930E+01  0.7957747E-01            NaN
         13   -1    0    0    0    0  0.00000000000E+00  0.00000000000E+00  0.74505805969E-08  0.10566000000E+00  0.10566000000E+00 0. -1.
     999900   -1    0    0    0    0 -0.00000000000E+00 -0.00000000000E+00 -0.74505805969E-08  0.93827000000E+00  0.93827000000E+00 0. -1.
     999902    2    1    2    0    0  0.12664792865E-01  0.64694839297E-02 -0.17051128567E-01  0.10217265727E+01  0.10214852897E+01 0.  0.
     999903    2    3    3    0    0  0.85768182571E-01 -0.20807247594E-02 -0.10151943135E+00  0.13462336229E+00  0.21371574014E-01 0.  0.
         14    1    1    2    0    0 -0.12664792865E-01 -0.64694839297E-02  0.17051128567E-01  0.22203427349E-01  0.00000000000E+00 0. -1.
     999901    1    3    3    0    0 -0.73103389706E-01  0.85502086891E-02  0.84468302784E-01  0.88710321036E+00  0.88000000000E+00 0.  1.
        -11    1    4    4    0    0  0.33183661917E-01  0.23066180836E-02 -0.54988582777E-01  0.64268820294E-01  0.51100000000E-03 0. -1.
         11    1    4    4    0    0  0.52584520654E-01 -0.43873428429E-02 -0.46530848574E-01  0.70354541997E-01  0.51100000000E-03 0.  1.
</event>
<event>
 8    1  0.1123361E+005  0.1043930E+01  0.7957747E-01            NaN
         13   -1    0    0    0    0  0.00000000000E+00  0.00000000000E+00  0.74505805969E-08  0.10566000000E+00  0.10566000000E+00 0.  1.
     999900   -1    0    0    0    0 -0.00000000000E+00 -0.00000000000E+00 -0.74505805969E-08  0.93827000000E+00  0.93827000000E+00 0.  1.
     999902    2    1    2    0    0 -0.93196800248E-02  0.87342983947E-03 -0.15723586409E-01  0.10256310797E+01  0.10254678255E+01 0.  0.
     999903    2    3    3    0    0  0.34641578260E-01  0.20850137222E-01 -0.12946061444E+00  0.13699855010E+00  0.19333516821E-01 0.  0.
         14    1    1    2    0    0  0.93196800248E-02 -0.87342983947E-03  0.15723586409E-01  0.18298920324E-01  0.00000000000E+00 0.  1.
     999901    1    3    3    0    0 -0.43961258285E-01 -0.19976707382E-01  0.11373702803E+00  0.88863252957E+00  0.88000000000E+00 0. -1.
        -11    1    4    4    0    0  0.33362508912E-01  0.15919718653E-01 -0.91376262681E-01  0.98571684299E-01  0.51100000000E-03 0.  1.
         11    1    4    4    0    0  0.12790693478E-02  0.49304185687E-02 -0.38084351760E-01  0.38426865805E-01  0.51100000000E-03 0. -1.
</event>
<event>
 8    1  0.1123361E+005  0.1043930E+01  0.7957747E-01            NaN
         13   -1    0    0    0    0  0.00000000000E+00  0.00000000000E+00  0.74505805969E-08  0.10566000000E+00  0.10566000000E+00 0.  1.
     999900   -1    0    0    0    0 -0.00000000000E+00 -0.00000000000E+00 -0.74505805969E-08  0.93827000000E+00  0.93827000000E+00 0.  1.
     999902    2    1    2    0    0 -0.19415733780E-01  0.54079756312E-02  0.12659470900E-01  0.10201291781E+01  0.10198514896E+01 0.  0.
     999903    2    3    3    0    0  0.44833721342E-02  0.12686944341E+00  0.26899758193E-01  0.13135089238E+00  0.20334788940E-01 0.  0.
         14    1    1    2    0    0  0.19415733780E-01 -0.54079756312E-02 -0.12659470900E-01  0.23800821879E-01  0.00000000000E+00 0.  1.
     999901    1    3    3    0    0 -0.23899105914E-01 -0.12146146778E+00 -0.14240287293E-01  0.88877828574E+00  0.88000000000E+00 0. -1.
        -11    1    4    4    0    0  0.47890344133E-02  0.29302953447E-01  0.14341067144E-01  0.32977647871E-01  0.51100000000E-03 0.  1.
         11    1    4    4    0    0 -0.30566227906E-03  0.97566489966E-01  0.12558691049E-01  0.98373244511E-01  0.51100000000E-03 0. -1.
</event>
<event>
 8    1  0.1123361E+005  0.1043930E+01  0.7957747E-01            NaN
         13   -1    0    0    0    0  0.00000000000E+00  0.00000000000E+00  0.74505805969E-08  0.10566000000E+00  0.10566000000E+00 0.  1.
     999900   -1    0    0    0    0 -0.00000000000E+00 -0.00000000000E+00 -0.74505805969E-08  0.93827000000E+00  0.93827000000E+00 0.  1.
     999902    2    1    2    0    0  0.21551358189E-01 -0.21501571459E-02 -0.75369645109E-02  0.10209977073E+01  0.10207401375E+01 0.  0.
     999903    2    3    3    0    0 -0.20494231496E-01  0.68684763137E-01  0.10645553796E+00  0.12983009781E+00  0.19633199509E-01 0.  0.
         14    1    1    2    0    0 -0.21551358189E-01  0.21501571459E-02  0.75369645109E-02  0.22932292724E-01  0.00000000000E+00 0. -1.
     999901    1    3    3    0    0  0.42045589685E-01 -0.70834920283E-01 -0.11399250247E+00  0.89116760947E+00  0.88000000000E+00 0.  1.
        -11    1    4    4    0    0 -0.17698710303E-01  0.25726808170E-01  0.46719224618E-01  0.56196619782E-01  0.51100000000E-03 0.  1.
         11    1    4    4    0    0 -0.27955211929E-02  0.42957954966E-01  0.59736313343E-01  0.73633478027E-01  0.51100000000E-03 0. -1.
</event>
<event>
 8    1  0.1123361E+005  0.1043930E+01  0.7957747E-01            NaN
         13   -1    0    0    0    0  0.00000000000E+00  0.00000000000E+00  0.74505805969E-08  0.10566000000E+00  0.10566000000E+00 0.  1.
     999900   -1    0    0    0    0 -0.00000000000E+00 -0.00000000000E+00 -0.74505805969E-08  0.93827000000E+00  0.93827000000E+00 0.  1.
     999902    2    1    2    0    0 -0.18472292437E-01  0.64754491868E-02  0.11203432831E-01  0.10213761991E+01  0.10211271547E+01 0.  0.
     999903    2    3    3    0    0 -0.17839986873E-01 -0.73162367492E-01  0.10726088166E+00  0.13257385031E+00  0.19998297478E-01 0.  0.
         14    1    1    2    0    0  0.18472292437E-01 -0.64754491868E-02 -0.11203432831E-01  0.22553800949E-01  0.00000000000E+00 0. -1.
     999901    1    3    3    0    0 -0.63230556449E-03  0.79637816679E-01 -0.96057448831E-01  0.88880234874E+00  0.88000000000E+00 0.  1.
        -11    1    4    4    0    0 -0.20365770803E-01 -0.65469478485E-01  0.10200305938E+00  0.12290607177E+00  0.51100000000E-03 0.  1.
         11    1    4    4    0    0  0.25257839304E-02 -0.76928890073E-02  0.52578222779E-02  0.96677785374E-02  0.51100000000E-03 0. -1.
</event>
<event>
 8    1  0.1123361E+005  0.1043930E+01  0.7957747E-01            NaN
         13   -1    0    0    0    0  0.00000000000E+00  0.00000000000E+00  0.74505805969E-08  0.10566000000E+00  0.10566000000E+00 0. -1.
     999900   -1    0    0    0    0 -0.00000000000E+00 -0.00000000000E+00 -0.74505805969E-08  0.93827000000E+00  0.93827000000E+00 0. -1.
     999902    2    1    2    0    0 -0.69621411430E-02 -0.21505857524E-03  0.22974342969E-01  0.10199229574E+01  0.10196403782E+01 0.  0.
     999903    2    3    3    0    0 -0.25446426938E-01  0.12582630345E+00  0.12083051093E-01  0.13068355544E+00  0.21269984859E-01 0.  0.
         14    1    1    2    0    0  0.69621411430E-02  0.21505857524E-03 -0.22974342969E-01  0.24007042598E-01  0.00000000000E+00 0.  1.
     999901    1    3    3    0    0  0.18484285795E-01 -0.12604136202E+00  0.10891291876E-01  0.88923940196E+00  0.88000000000E+00 0. -1.
        -11    1    4    4    0    0 -0.17759388345E-01  0.38759005249E-01  0.61049301330E-02  0.43071889385E-01  0.51100000000E-03 0.  1.
         11    1    4    4    0    0 -0.76870385926E-02  0.87067298198E-01  0.59781209597E-02  0.87611666055E-01  0.51100000000E-03 0. -1.
</event>
<event>
 8    1  0.1123361E+005  0.1043930E+01  0.7957747E-01            NaN
         13   -1    0    0    0    0  0.00000000000E+00  0.00000000000E+00  0.74505805969E-08  0.10566000000E+00  0.10566000000E+00 0. -1.
     999900   -1    0    0    0    0 -0.00000000000E+00 -0.00000000000E+00 -0.74505805969E-08  0.93827000000E+00  0.93827000000E+00 0.  1.
     999902    2    1    2    0    0  0.50694017967E-02 -0.22812306899E-01  0.36118871059E-02  0.10202837337E+01  0.10200096820E+01 0.  0.
     999903    2    3    3    0    0  0.93747179731E-01 -0.70007670473E-01  0.59463682572E-01  0.13280946722E+00  0.20317908483E-01 0.  0.
         14    1    1    2    0    0 -0.50694017967E-02  0.22812306899E-01 -0.36118871059E-02  0.23646266283E-01  0.00000000000E+00 0.  1.
     999901    1    3    3    0    0 -0.88677777934E-01  0.47195363574E-01 -0.55851795466E-01  0.88747426650E+00  0.88000000000E+00 0. -1.
        -11    1    4    4    0    0  0.98177475850E-02 -0.48881847833E-02  0.12567629208E-01  0.16687987986E-01  0.51100000000E-03 0.  1.
         11    1    4    4    0    0  0.83929432146E-01 -0.65119485690E-01  0.46896053364E-01  0.11612147923E+00  0.51100000000E-03 0. -1.
</event>
<event>
 8    1  0.1123361E+005  0.1043930E+01  0.7957747E-01            NaN
         13   -1    0    0    0    0  0.00000000000E+00  0.00000000000E+00  0.74505805969E-08  0.10566000000E+00  0.10566000000E+00 0. -1.
     999900   -1    0    0    0    0 -0.00000000000E+00 -0.00000000000E+00 -0.74505805969E-08  0.93827000000E+00  0.93827000000E+00 0. -1.
     999902    2    1    2    0    0 -0.16573501248E-01 -0.12520861646E-03 -0.20054570317E-01  0.10179130361E+01  0.10175804964E+01 0.  0.
     999903    2    3    3    0    0 -0.12336446942E+00  0.23140028804E-02  0.34999039859E-01  0.12974573167E+00  0.19618235648E-01 0.  0.
         14    1    1    2    0    0  0.16573501248E-01  0.12520861646E-03  0.20054570317E-01  0.26016963916E-01  0.00000000000E+00 0. -1.
     999901    1    3    3    0    0  0.10679096818E+00 -0.24392114968E-02 -0.55053610176E-01  0.88816730441E+00  0.88000000000E+00 0. -1.
        -11    1    4    4    0    0 -0.73566510514E-01 -0.81760652828E-02  0.21919518705E-01  0.77198484013E-01  0.51100000000E-03 0.  1.
         11    1    4    4    0    0 -0.49797958910E-01  0.10490068163E-01  0.13079521155E-01  0.52547247657E-01  0.51100000000E-03 0. -1.
</event>
<event>
 8    1  0.1123361E+005  0.1043930E+01  0.7957747E-01            NaN
         13   -1    0    0    0    0  0.00000000000E+00  0.00000000000E+00  0.74505805969E-08  0.10566000000E+00  0.10566000000E+00 0.  1.
     999900   -1    0    0    0    0 -0.00000000000E+00 -0.00000000000E+00 -0.74505805969E-08  0.93827000000E+00  0.93827000000E+00 0.  1.
     999902    2    1    2    0    0  0.64052645386E-02 -0.78081683617E-02 -0.20417811333E-01  0.10211510201E+01  0.10208969213E+01 0.  0.
     999903    2    3    3    0    0 -0.11995944864E+00  0.97135789133E-02 -0.48600072375E-01  0.13150542086E+00  0.21144402261E-01 0.  0.
         14    1    1    2    0    0 -0.64052645386E-02  0.78081683617E-02  0.20417811333E-01  0.22778979929E-01  0.00000000000E+00 0.  1.
     999901    1    3    3    0    0  0.12636471318E+00 -0.17521747275E-01  0.28182261042E-01  0.88964559921E+00  0.88000000000E+00 0. -1.
        -11    1    4    4    0    0 -0.64102394302E-01  0.13574047462E-01 -0.33075688145E-01  0.73400503997E-01  0.51100000000E-03 0. -1.
         11    1    4    4    0    0 -0.55857054336E-01 -0.38604685491E-02 -0.15524384229E-01  0.58104916860E-01  0.51100000000E-03 0.  1.
</event>
<event>
 8    1  0.1123361E+005  0.1043930E+01  0.7957747E-01            NaN
         13   -1    0    0    0    0  0.00000000000E+00  0.00000000000E+00  0.74505805969E-08  0.10566000000E+00  0.10566000000E+00 0. -1.
     999900   -1    0    0    0    0 -0.00000000000E+00 -0.00000000000E+00 -0.74505805969E-08  0.93827000000E+00  0.93827000000E+00 0. -1.
     999902    2    1    2    0    0 -0.17512192869E-01 -0.15796655581E-01 -0.90956533588E-02  0.10186526952E+01  0.10183390257E+01 0.  0.
     999903    2    3    3    0    0 -0.81641986206E-01  0.16237495460E-01 -0.99151830272E-01  0.13115681792E+00  0.21022732253E-01 0.  0.
         14    1    1    2    0    0  0.17512192869E-01  0.15796655581E-01  0.90956533588E-02  0.25277304774E-01  0.00000000000E+00 0.  1.
     999901    1    3    3    0    0  0.64129793338E-01 -0.32034151041E-01  0.90056176913E-01  0.88749587730E+00  0.88000000000E+00 0.  1.
        -11    1    4    4    0    0 -0.64888898875E-01  0.20934648025E-01 -0.74664525003E-01  0.10111320933E+00  0.51100000000E-03 0.  1.
         11    1    4    4    0    0 -0.16753087331E-01 -0.46971525649E-02 -0.24487305269E-01  0.30043608600E-01  0.51100000000E-03 0. -1.
</event>
<event>
 8    1  0.1123361E+005  0.1043930E+01  0.7957747E-01            NaN
         13   -1    0    0    0    0  0.00000000000E+00  0.00000000000E+00  0.74505805969E-08  0.10566000000E+00  0.10566000000E+00 0.  1.
     999900   -1    0    0    0    0 -0.00000000000E+00 -0.00000000000E+00 -0.74505805969E-08  0.93827000000E+00  0.93827000000E+00 0. -1.
     999902    2    1    2    0    0 -0.22225221001E-02  0.24316006799E-01  0.98972175391E-02  0.10175830323E+01  0.10172418911E+01 0.  0.
     999903    2    3    3    0    0 -0.57170301651E-01 -0.10598145855E+00  0.32360664253E-01  0.12601066038E+00  0.18192333356E-01 0.  0.
         14    1    1    2    0    0  0.22225221001E-02 -0.24316006799E-01 -0.98972175391E-02  0.26346967684E-01  0.00000000000E+00 0.  1.
     999901    1    3    3    0    0  0.54947779551E-01  0.13029746535E+00 -0.22463446714E-01  0.89157237193E+00  0.88000000000E+00 0.  1.
        -11    1    4    4    0    0 -0.85286858978E-02 -0.26085770392E-01  0.13497544425E-01  0.30588408370E-01  0.51100000000E-03 0.  1.
         11    1    4    4    0    0 -0.48641615754E-01 -0.79895688155E-01  0.18863119828E-01  0.95422252015E-01  0.51100000000E-03 0. -1.
</event>
<event>
 8    1  0.1123361E+005  0.1043930E+01  0.7957747E-01            NaN
         13   -1    0    0    0    0  0.00000000000E+00  0.00000000000E+00  0.74505805969E-08  0.10566000000E+00  0.10566000000E+00 0.  1.
     999900   -1    0    0    0    0 -0.00000000000E+00 -0.00000000000E+00 -0.74505805969E-08  0.93827000000E+00  0.93827000000E+00 0. -1.
     999902    2    1    2    0    0 -0.18971954789E-01  0.11024058971E-01  0.89335570343E-02  0.10202387910E+01  0.10199636842E+01 0.  0.
     999903    2    3    3    0    0 -0.67246016916E-01 -0.87532267861E-01 -0.66877936272E-01  0.13018760302E+00  0.17094704188E-01 0.  0.
         14    1    1    2    0    0  0.18971954789E-01 -0.11024058971E-01 -0.89335570343E-02  0.23691209045E-01  0.00000000000E+00 0.  1.
     999901    1    3    3    0    0  0.48274062127E-01  0.98556326832E-01  0.75811493307E-01  0.89005118794E+00  0.88000000000E+00 0.  1.
        -11    1    4    4    0    0 -0.63891775724E-02 -0.10057246900E-01 -0.16698468988E-02  0.12042396561E-01  0.51100000000E-03 0. -1.
         11    1    4    4    0    0 -0.60856839344E-01 -0.77475020960E-01 -0.65208089374E-01  0.11814520646E+00  0.51100000000E-03 0.  1.
</event>
<event>
 8    1  0.1123361E+005  0.1043930E+01  0.7957747E-01            NaN
         13   -1    0    0    0    0  0.00000000000E+00  0.00000000000E+00  0.74505805969E-08  0.10566000000E+00  0.10566000000E+00 0.  1.
     999900   -1    0    0    0    0 -0.00000000000E+00 -0.00000000000E+00 -0.74505805969E-08  0.93827000000E+00  0.93827000000E+00 0.  1.
     999902    2    1    2    0    0  0.17962070256E-02 -0.22707713644E-01  0.70286844313E-02  0.10200916061E+01  0.10198130298E+01 0.  0.
     999903    2    3    3    0    0  0.10149362673E+00  0.33239213313E-01 -0.66953521786E-01  0.12961813600E+00  0.30204064827E-01 0.  0.
         14    1    1    2    0    0 -0.17962070256E-02  0.22707713644E-01 -0.70286844313E-02  0.23838393894E-01  0.00000000000E+00 0. -1.
     999901    1    3    3    0    0 -0.99697419700E-01 -0.55946926958E-01  0.73982206218E-01  0.89047347011E+00  0.88000000000E+00 0. -1.
        -11    1    4    4    0    0  0.50686798633E-01  0.23429283714E-01 -0.50574698820E-01  0.75340189625E-01  0.51100000000E-03 0. -1.
         11    1    4    4    0    0  0.50806828093E-01  0.98099295995E-02 -0.16378822967E-01  0.54277946372E-01  0.51100000000E-03 0.  1.
</event>
<event>
 8    1  0.1123361E+005  0.1043930E+01  0.7957747E-01            NaN
         13   -1    0    0    0    0  0.00000000000E+00  0.00000000000E+00  0.74505805969E-08  0.10566000000E+00  0.10566000000E+00 0.  1.
     999900   -1    0    0    0    0 -0.00000000000E+00 -0.00000000000E+00 -0.74505805969E-08  0.93827000000E+00  0.93827000000E+00 0. -1.
     999902    2    1    2    0    0  0.22927704851E-01 -0.64587036470E-03 -0.92500017885E-02  0.10191982526E+01  0.10188981395E+01 0.  0.
     999903    2    3    3    0    0 -0.11944281501E+00  0.23752153273E-01  0.28197223904E-01  0.12663625293E+00  0.20270823301E-01 0.  0.
         14    1    1    2    0    0 -0.22927704851E-01  0.64587036470E-03  0.92500017885E-02  0.24731747438E-01  0.00000000000E+00 0.  1.
     999901    1    3    3    0    0  0.14237051986E+00 -0.24398023638E-01 -0.37447225693E-01  0.89256199964E+00  0.88000000000E+00 0.  1.
        -11    1    4    4    0    0 -0.76666262623E-01  0.12271828485E-01  0.83234600348E-02  0.78088761719E-01  0.51100000000E-03 0. -1.
         11    1    4    4    0    0 -0.42776552384E-01  0.11480324788E-01  0.19873763869E-01  0.48547491207E-01  0.51100000000E-03 0.  1.
</event>
<event>
 8    1  0.1123361E+005  0.1043930E+01  0.7957747E-01            NaN
         13   -1    0    0    0    0  0.00000000000E+00  0.00000000000E+00  0.74505805969E-08  0.10566000000E+00  0.10566000000E+00 0. -1.
     999900   -1    0    0    0    0 -0.00000000000E+00 -0.00000000000E+00 -0.74505805969E-08  0.93827000000E+00  0.93827000000E+00 0. -1.
     999902    2    1    2    0    0 -0.50805794200E-02  0.23055334395E-01  0.24966051676E-02  0.10201898701E+01  0.10199136126E+01 0.  0.
     999903    2    3    3    0    0 -0.44243234028E-01 -0.35319936010E-02 -0.12078531927E+00  0.13033649316E+00  0.20701916851E-01 0.  0.
         14    1    1    2    0    0  0.50805794200E-02 -0.23055334395E-01 -0.24966051676E-02  0.23740129921E-01  0.00000000000E+00 0.  1.
     999901    1    3    3    0    0  0.39162654608E-01  0.26587327996E-01  0.12328192444E+00  0.88985337692E+00  0.88000000000E+00 0.  1.
        -11    1    4    4    0    0 -0.31694323105E-01 -0.89484883420E-02 -0.64623780579E-01  0.72533438482E-01  0.51100000000E-03 0.  1.
         11    1    4    4    0    0 -0.12548910922E-01  0.54164947410E-02 -0.56161538691E-01  0.57803054675E-01  0.51100000000E-03 0. -1.
</event>
<event>
 8    1  0.1123361E+005  0.1043930E+01  0.7957747E-01            NaN
         13   -1    0    0    0    0  0.00000000000E+00  0.00000000000E+00  0.74505805969E-08  0.10566000000E+00  0.10566000000E+00 0. -1.
     999900   -1    0    0    0    0 -0.00000000000E+00 -0.00000000000E+00 -0.74505805969E-08  0.93827000000E+00  0.93827000000E+00 0. -1.
     999902    2    1    2    0    0 -0.33401208035E-02  0.13716650704E-01 -0.19049824509E-01  0.10202192698E+01  0.10199437042E+01 0.  0.
     999903    2    3    3    0    0  0.10547629127E-01  0.12512754363E+00  0.34160130958E-01  0.13149177723E+00  0.18841928680E-01 0.  0.
         14    1    1    2    0    0  0.33401208035E-02 -0.13716650704E-01  0.19049824509E-01  0.23710730215E-01  0.00000000000E+00 0. -1.
     999901    1    3    3    0    0 -0.13887749931E-01 -0.11141089293E+00 -0.53209955466E-01  0.88872749255E+00  0.88000000000E+00 0. -1.
        -11    1    4    4    0    0  0.21087813538E-02  0.38092652176E-01  0.16192605826E-02  0.38188744866E-01  0.51100000000E-03 0.  1.
         11    1    4    4    0    0  0.84388477732E-02  0.87034891457E-01  0.32540870375E-01  0.93303032365E-01  0.51100000000E-03 0. -1.
</event>
<event>
 8    1  0.1123361E+005  0.1043930E+01  0.7957747E-01            NaN
         13   -1    0    0    0    0  0.00000000000E+00  0.00000000000E+00  0.74505805969E-08  0.10566000000E+00  0.10566000000E+00 0.  1.
     999900   -1    0    0    0    0 -0.00000000000E+00 -0.00000000000E+00 -0.74505805969E-08  0.93827000000E+00  0.93827000000E+00 0. -1.
     999902    2    1    2    0    0 -0.98968877393E-02  0.13155728386E-01 -0.16191797339E-01  0.10208389654E+01  0.10205777763E+01 0.  0.
     999903    2    3    3    0    0  0.74499313134E-01  0.10639940157E+00  0.39144513094E-02  0.13167004867E+00  0.21229660281E-01 0.  0.
         14    1    1    2    0    0  0.98968877393E-02 -0.13155728386E-01  0.16191797339E-01  0.23091034566E-01  0.00000000000E+00 0.  1.
     999901    1    3    3    0    0 -0.84396200873E-01 -0.93243673181E-01 -0.20106248648E-01  0.88916891677E+00  0.88000000000E+00 0.  1.
        -11    1    4    4    0    0  0.41669590770E-01  0.41524311751E-01  0.39158720284E-02  0.58959464347E-01  0.51100000000E-03 0.  1.
         11    1    4    4    0    0  0.32829722364E-01  0.64875089816E-01 -0.14207190383E-05  0.72710584320E-01  0.51100000000E-03 0. -1.
</event>
<event>
 8    1  0.1123361E+005  0.1043930E+01  0.7957747E-01            NaN
         13   -1    0    0    0    0  0.00000000000E+00  0.00000000000E+00  0.74505805969E-08  0.10566000000E+00  0.10566000000E+00 0. -1.
     999900   -1    0    0    0    0 -0.00000000000E+00 -0.00000000000E+00 -0.74505805969E-08  0.93827000000E+00  0.93827000000E+00 0. -1.
     999902    2    1    2    0    0 -0.20028577979E-01  0.11929849371E-01 -0.30645302902E-02  0.10204170974E+01  0.10201461641E+01 0.  0.
     999903    2    3    3    0    0  0.92204297635E-02  0.87975858978E-02 -0.12832548710E+00  0.13106023832E+00  0.23386782291E-01 0.  0.
         14    1    1    2    0    0  0.20028577979E-01 -0.11929849371E-01  0.30645302902E-02  0.23512902581E-01  0.00000000000E+00 0. -1.
     999901    1    3    3    0    0 -0.29249007743E-01  0.31322634728E-02  0.12526095681E+00  0.88935685910E+00  0.88000000000E+00 0.  1.
        -11    1    4    4    0    0  0.12701155242E-01  0.13353918338E-01 -0.67812020152E-01  0.70273591608E-01  0.51100000000E-03 0. -1.
         11    1    4    4    0    0 -0.34807254780E-02 -0.45563324401E-02 -0.60513466948E-01  0.60786646710E-01  0.51100000000E-03 0.  1.
</event>
<event>
 7    1  0.1214957E+005  0.1043930E+01  0.7957747E-01            NaN
         13   -1    0    0    0    0  0.00000000000E+00  0.00000000000E+00  0.74505805969E-08  0.10566000000E+00  0.10566000000E+00 0. -1.
     999900   -1    0    0    0    0 -0.00000000000E+00 -0.00000000000E+00 -0.74505805969E-08  0.93827000000E+00  0.93827000000E+00 0. -1.
     999903    2    1    2    0    0  0.54798617142E-01  0.91160887976E-01 -0.16762970099E-01  0.10947298034E+00  0.19751970030E-01 0.  0.
         14    1    1    2    0    0  0.24601633257E-01 -0.30891257255E-01  0.28584463711E-01  0.48750196916E-01  0.00000000000E+00 0. -1.
     999901    1    1    2    0    0 -0.79400250398E-01 -0.60269630721E-01 -0.11821493612E-01  0.88570682275E+00  0.88000000000E+00 0. -1.
        -11    1    3    3    0    0  0.49227921022E-01  0.70187686018E-01 -0.81435200796E-02  0.86117811845E-01  0.51100000000E-03 0.  1.
         11    1    3    3    0    0  0.55706961194E-02  0.20973201958E-01 -0.86194500198E-02  0.23355168491E-01  0.51100000000E-03 0. -1.
</event>
<event>
 8    1  0.1123361E+005  0.1043930E+01  0.7957747E-01            NaN
         13   -1    0    0    0    0  0.00000000000E+00  0.00000000000E+00  0.74505805969E-08  0.10566000000E+00  0.10566000000E+00 0.  1.
     999900   -1    0    0    0    0 -0.00000000000E+00 -0.00000000000E+00 -0.74505805969E-08  0.93827000000E+00  0.93827000000E+00 0. -1.
     999902    2    1    2    0    0  0.39233290622E-02 -0.23121015146E-01 -0.47426081977E-02  0.10200037344E+01  0.10197230762E+01 0.  0.
     999903    2    3    3    0    0 -0.51679447749E-01 -0.80650556385E-01 -0.89153554365E-01  0.13235148002E+00  0.19831299556E-01 0.  0.
         14    1    1    2    0    0 -0.39233290622E-02  0.23121015146E-01  0.47426081977E-02  0.23926265584E-01  0.00000000000E+00 0. -1.
     999901    1    3    3    0    0  0.55602776811E-01  0.57529541240E-01  0.84410946168E-01  0.88765225440E+00  0.88000000000E+00 0. -1.
        -11    1    4    4    0    0 -0.14990498116E-01 -0.40883947023E-01 -0.35987222048E-01  0.56493835325E-01  0.51100000000E-03 0. -1.
         11    1    4    4    0    0 -0.36688949633E-01 -0.39766609362E-01 -0.53166332318E-01  0.75857644693E-01  0.51100000000E-03 0.  1.
</event>
<event>
 8    1  0.1123361E+005  0.1043930E+01  0.7957747E-01            NaN
         13   -1    0    0    0    0  0.00000000000E+00  0.00000000000E+00  0.74505805969E-08  0.10566000000E+00  0.10566000000E+00 0.  1.
     999900   -1    0    0    0    0 -0.00000000000E+00 -0.00000000000E+00 -0.74505805969E-08  0.93827000000E+00  0.93827000000E+00 0.  1.
     999902    2    1    2    0    0 -0.10370901961E-01 -0.39682140716E-03 -0.20447222336E-01  0.10209996277E+01  0.10207421015E+01 0.  0.
     999903    2    3    3    0    0  0.71282895853E-01 -0.94119672633E-01 -0.54716396092E-01  0.13160337636E+00  0.19641808752E-01 0.  0.
         14    1    1    2    0    0  0.10370901961E-01  0.39682140716E-03  0.20447222336E-01  0.22930372347E-01  0.00000000000E+00 0.  1.
     999901    1    3    3    0    0 -0.81653797814E-01  0.93722851226E-01  0.34269173757E-01  0.88939625129E+00  0.88000000000E+00 0.  1.
        -11    1    4    4    0    0  0.51168710403E-01 -0.80193957960E-01 -0.41431985940E-01  0.10376019660E+00  0.51100000000E-03 0. -1.
         11    1    4    4    0    0  0.20114185450E-01 -0.13925714673E-01 -0.13284410152E-01  0.27843179768E-01  0.51100000000E-03 0.  1.
</event>
<event>
 8    1  0.1123361E+005  0.1043930E+01  0.7957747E-01            NaN
         13   -1    0    0    0    0  0.00000000000E+00  0.00000000000E+00  0.74505805969E-08  0.10566000000E+00  0.10566000000E+00 0.  1.
     999900   -1    0    0    0    0 -0.00000000000E+00 -0.00000000000E+00 -0.74505805969E-08  0.93827000000E+00  0.93827000000E+00 0.  1.
     999902    2    1    2    0    0 -0.10200939495E-01 -0.10009168433E-01 -0.20329144496E-01  0.10190801160E+01  0.10187770934E+01 0.  0.
     999903    2    3    3    0    0  0.88484638308E-01 -0.66899487692E-01  0.60953393545E-01  0.12802332617E+00  0.19224546540E-01 0.  0.
         14    1    1    2    0    0  0.10200939495E-01  0.10009168433E-01  0.20329144496E-01  0.24849884008E-01  0.00000000000E+00 0.  1.
     999901    1    3    3    0    0 -0.98685577804E-01  0.56890319260E-01 -0.81282538041E-01  0.89105678982E+00  0.88000000000E+00 0.  1.
        -11    1    4    4    0    0  0.48469552654E-01 -0.35518352529E-01  0.22110908338E-01  0.64031275869E-01  0.51100000000E-03 0.  1.
         11    1    4    4    0    0  0.40015085654E-01 -0.31381135163E-01  0.38842485207E-01  0.63992050304E-01  0.51100000000E-03 0. -1.
</event>
<event>
 8    1  0.1123361E+005  0.1043930E+01  0.7957747E-01            NaN
         13   -1    0    0    0    0  0.00000000000E+00  0.00000000000E+00  0.74505805969E-08  0.10566000000E+00  0.10566000000E+00 0.  1.
     999900   -1    0    0    0    0 -0.00000000000E+00 -0.00000000000E+00 -0.74505805969E-08  0.93827000000E+00  0.93827000000E+00 0. -1.
     999902    2    1    2    0    0  0.13641736515E-01  0.10511950058E-01  0.16604509293E-01  0.10200070445E+01  0.10197264648E+01 0.  0.
     999903    2    3    3    0    0 -0.63408860248E-01 -0.96186593085E-01  0.55398875295E-01  0.12937447361E+00  0.19904140018E-01 0.  0.
         14    1    1    2    0    0 -0.13641736515E-01 -0.10511950058E-01 -0.16604509293E-01  0.23922955462E-01  0.00000000000E+00 0.  1.
     999901    1    3    3    0    0  0.77050596763E-01  0.10669854314E+00 -0.38794366002E-01  0.89063257093E+00  0.88000000000E+00 0.  1.
        -11    1    4    4    0    0 -0.34152516967E-01 -0.68703375255E-01  0.38048392188E-01  0.85641633892E-01  0.51100000000E-03 0.  1.
         11    1    4    4    0    0 -0.29256343281E-01 -0.27483217829E-01  0.17350483107E-01  0.43732839715E-01  0.51100000000E-03 0. -1.
</event>
<event>
 8    1  0.1123361E+005  0.1043930E+01  0.7957747E-01            NaN
         13   -1    0    0    0    0  0.00000000000E+00  0.00000000000E+00  0.74505805969E-08  0.10566000000E+00  0.10566000000E+00 0.  1.
     999900   -1    0    0    0    0 -0.00000000000E+00 -0.00000000000E+00 -0.74505805969E-08  0.93827000000E+00  0.93827000000E+00 0. -1.
     999902    2    1    2    0    0  0.22410504722E-01 -0.11538066675E-02  0.44283903357E-02  0.10210570327E+01  0.10208008089E+01 0.  0.
     999903    2    3    3    0    0 -0.58890483562E-01 -0.11409549956E+00 -0.64066091143E-02  0.13005586890E+00  0.19687872474E-01 0.  0.
         14    1    1    2    0    0 -0.22410504722E-01  0.11538066675E-02 -0.44283903357E-02  0.22872967291E-01  0.00000000000E+00 0.  1.
     999901    1    3    3    0    0  0.81300988284E-01  0.11294169289E+00  0.10834999450E-01  0.89100116381E+00  0.88000000000E+00 0. -1.
        -11    1    4    4    0    0 -0.29630789277E-01 -0.49260220765E-01 -0.11914674066E-01  0.58709229275E-01  0.51100000000E-03 0.  1.
         11    1    4    4    0    0 -0.29259694284E-01 -0.64835278793E-01  0.55080649520E-02  0.71346639629E-01  0.51100000000E-03 0. -1.
</event>
<event>
 8    1  0.1348220E+005  0.1043930E+01  0.7957747E-01            NaN
         13   -1    0    0    0    0  0.00000000000E+00  0.00000000000E+00  0.74505805969E-08  0.10566000000E+00  0.10566000000E+00 0. -1.
     999900   -1    0    0    0    0 -0.00000000000E+00 -0.00000000000E+00 -0.74505805969E-08  0.93827000000E+00  0.93827000000E+00 0. -1.
     999902    2    1    2    0    0  0.14747509168E-01 -0.15077716827E-01 -0.53978281710E-02  0.10221593059E+01  0.10219274356E+01 0.  0.
     999903    2    3    3    0    0 -0.35711940809E-01  0.35033479453E-01 -0.12030543734E+00  0.13184416693E+00  0.20169251403E-01 0.  0.
         14    1    1    2    0    0 -0.14747509168E-01  0.15077716827E-01  0.53978281710E-02  0.21770694071E-01  0.00000000000E+00 0.  1.
     999901    1    3    3    0    0  0.50459449977E-01 -0.50111196280E-01  0.11490760917E+00  0.89031513900E+00  0.88000000000E+00 0.  1.
        -11    1    4    4    0    0 -0.21613683485E-02  0.84145718760E-02 -0.38868761757E-01  0.39831122185E-01  0.51100000000E-03 0.  1.
         11    1    4    4    0    0 -0.33550572461E-01  0.26618907577E-01 -0.81436675579E-01  0.92013044745E-01  0.51100000000E-03 0. -1.
</event>
<event>
 8    1  0.1123361E+005  0.1043930E+01  0.7957747E-01            NaN
         13   -1    0    0    0    0  0.00000000000E+00  0.00000000000E+00  0.74505805969E-08  0.10566000000E+00  0.10566000000E+00 0. -1.
     999900   -1    0    0    0    0 -0.00000000000E+00 -0.00000000000E+00 -0.74505805969E-08  0.93827000000E+00  0.93827000000E+00 0. -1.
     999902    2    1    2    0    0 -0.75989196502E-02  0.20223434361E-01 -0.85422817051E-02  0.10206985245E+01  0.10204341118E+01 0.  0.
     999903    2    3    3    0    0  0.62992872616E-01 -0.53754636259E-01 -0.98387386026E-01  0.13023342196E+00  0.20567050031E-01 0.  0.
         14    1    1    2    0    0  0.75989196502E-02 -0.20223434361E-01  0.85422817051E-02  0.23231475500E-01  0.00000000000E+00 0. -1.
     999901    1    3    3    0    0 -0.70591792266E-01  0.73978070620E-01  0.89845104321E-01  0.89046510254E+00  0.88000000000E+00 0.  1.
        -11    1    4    4    0    0  0.15501657481E-01 -0.14545482486E-01 -0.12896592982E-01  0.24868769109E-01  0.51100000000E-03 0. -1.
         11    1    4    4    0    0  0.47491215135E-01 -0.39209153773E-01 -0.85490793044E-01  0.10536465285E+00  0.51100000000E-03 0.  1.
</event>
<event>
 8    1  0.1123361E+005  0.1043930E+01  0.7957747E-01            NaN
         13   -1    0    0    0    0  0.00000000000E+00  0.00000000000E+00  0.74505805969E-08  0.10566000000E+00  0.10566000000E+00 0.  1.
     999900   -1    0    0    0    0 -0.00000000000E+00 -0.00000000000E+00 -0.74505805969E-08  0.93827000000E+00  0.93827000000E+00 0.  1.
     999902    2    1    2    0    0  0.91719778796E-02 -0.20206767313E-01  0.79326511025E-02  0.10203638044E+01  0.10200916271E+01 0.  0.
     999903    2    3    3    0    0  0.38733293612E-01 -0.72132130429E-02  0.12446131655E+00  0.13209490717E+00  0.20153081835E-01 0.  0.
         14    1    1    2    0    0 -0.91719778796E-02  0.20206767313E-01 -0.79326511025E-02  0.23566195640E-01  0.00000000000E+00 0. -1.
     999901    1    3    3    0    0 -0.29561315732E-01 -0.12993554270E-01 -0.11652866545E+00  0.88826889719E+00  0.88000000000E+00 0.  1.
        -11    1    4    4    0    0  0.23623383127E-01  0.16573064491E-02  0.46478075430E-01  0.52165922897E-01  0.51100000000E-03 0. -1.
         11    1    4    4    0    0  0.15109910485E-01 -0.88705194920E-02  0.77983241118E-01  0.79928984275E-01  0.51100000000E-03 0.  1.
</event>
<event>
 8    1  0.1123361E+005  0.1043930E+01  0.7957747E-01            NaN
         13   -1    0    0    0    0  0.00000000000E+00  0.00000000000E+00  0.74505805969E-08  0.10566000000E+00  0.10566000000E+00 0.  1.
     999900   -1    0    0    0    0 -0.00000000000E+00 -0.00000000000E+00 -0.74505805969E-08  0.93827000000E+00  0.93827000000E+00 0. -1.
     999902    2    1    2    0    0  0.48520438470E-02  0.19017699730E-01  0.13703955133E-01  0.10199922971E+01  0.10197113673E+01 0.  0.
     999903    2    3    3    0    0 -0.75680347520E-01  0.52253437816E-01  0.92072701775E-01  0.13222445541E+00  0.23409131360E-01 0.  0.
         14    1    1    2    0    0 -0.48520438470E-02 -0.19017699730E-01 -0.13703955133E-01  0.23937702872E-01  0.00000000000E+00 0.  1.
     999901    1    3    3    0    0  0.80532391367E-01 -0.33235738087E-01 -0.78368746641E-01  0.88776784172E+00  0.88000000000E+00 0.  1.
        -11    1    4    4    0    0 -0.54637534802E-01  0.24986496478E-01  0.52798728627E-01  0.79984699044E-01  0.51100000000E-03 0. -1.
         11    1    4    4    0    0 -0.21042812718E-01  0.27266941338E-01  0.39273973147E-01  0.52239756362E-01  0.51100000000E-03 0.  1.
</event>
<event>
 8    1  0.1123361E+005  0.1043930E+01  0.7957747E-01            NaN
         13   -1    0    0    0    0  0.00000000000E+00  0.00000000000E+00  0.74505805969E-08  0.10566000000E+00  0.10566000000E+00 0.  1.
     999900   -1    0    0    0    0 -0.00000000000E+00 -0.00000000000E+00 -0.74505805969E-08  0.93827000000E+00  0.93827000000E+00 0.  1.
     999902    2    1    2    0    0 -0.73486477328E-02 -0.18230277498E-01  0.88157075730E-02  0.10223878938E+01  0.10221609183E+01 0.  0.
     999903    2    3    3    0    0  0.73314462298E-01  0.10212559275E+00  0.27924314056E-01  0.13033564660E+00  0.20074022586E-01 0.  0.
         14    1    1    2    0    0  0.73486477328E-02  0.18230277498E-01 -0.88157075730E-02  0.21542106238E-01  0.00000000000E+00 0. -1.
     999901    1    3    3    0    0 -0.80663110031E-01 -0.12035587025E+00 -0.19108606483E-01  0.89205224716E+00  0.88000000000E+00 0.  1.
        -11    1    4    4    0    0  0.18182900029E-01  0.35856311771E-01  0.17509146331E-02  0.40244499877E-01  0.51100000000E-03 0.  1.
         11    1    4    4    0    0  0.55131562269E-01  0.66269280979E-01  0.26173399423E-01  0.90091146724E-01  0.51100000000E-03 0. -1.
</event>
<event>
 8    1  0.1123361E+005  0.1043930E+01  0.7957747E-01            NaN
         13   -1    0    0    0    0  0.00000000000E+00  0.00000000000E+00  0.74505805969E-08  0.10566000000E+00  0.10566000000E+00 0. -1.
     999900   -1    0    0    0    0 -0.00000000000E+00 -0.00000000000E+00 -0.74505805969E-08  0.93827000000E+00  0.93827000000E+00 0.  1.
     999902    2    1    2    0    0  0.19774845245E-01 -0.13693257560E-01  0.54676679626E-02  0.10192633180E+01  0.10189648013E+01 0.  0.
     999903    2    3    3    0    0  0.11616833838E+00 -0.29256120553E-01 -0.54616901695E-01  0.13182652380E+00  0.66500370912E-02 0.  0.
         14    1    1    2    0    0 -0.19774845245E-01  0.13693257560E-01 -0.54676679626E-02  0.24666681982E-01  0.00000000000E+00 0.  1.
     999901    1    3    3    0    0 -0.96393493139E-01  0.15562862992E-01  0.60084569658E-01  0.88743679422E+00  0.88000000000E+00 0.  1.
        -11    1    4    4    0    0  0.49633775340E-01 -0.15835896548E-01 -0.24125764480E-01  0.57416033534E-01  0.51100000000E-03 0.  1.
         11    1    4    4    0    0  0.66534563043E-01 -0.13420224005E-01 -0.30491137215E-01  0.74410490264E-01  0.51100000000E-03 0. -1.
</event>
<event>
 8    1  0.1123361E+005  0.1043930E+01  0.7957747E-01            NaN
         13   -1    0    0    0    0  0.00000000000E+00  0.00000000000E+00  0.74505805969E-08  0.10566000000E+00  0.10566000000E+00 0.  1.
     999900   -1    0    0    0    0 -0.00000000000E+00 -0.00000000000E+00 -0.74505805969E-08  0.93827000000E+00  0.93827000000E+00 0. -1.
     999902    2    1    2    0    0 -0.33395190320E-02  0.18290015921E-01  0.15052684624E-01  0.10200080355E+01  0.10197274794E+01 0.  0.
     999903    2    3    3    0    0 -0.10162635444E+00 -0.73318076520E-01  0.26492315229E-01  0.12973661076E+00  0.20646770796E-01 0.  0.
         14    1    1    2    0    0  0.33395190320E-02 -0.18290015921E-01 -0.15052684624E-01  0.23921964471E-01  0.00000000000E+00 0. -1.
     999901    1    3    3    0    0  0.98286835405E-01  0.91608092440E-01 -0.11439630605E-01  0.89027142477E+00  0.88000000000E+00 0. -1.
        -11    1    4    4    0    0 -0.69899922305E-01 -0.38849274851E-01  0.20036712416E-01  0.82443897652E-01  0.51100000000E-03 0.  1.
         11    1    4    4    0    0 -0.31726432132E-01 -0.34468801668E-01  0.64556028136E-02  0.47292713107E-01  0.51100000000E-03 0. -1.
</event>
<event>
 8    1  0.1123361E+005  0.1043930E+01  0.7957747E-01            NaN
         13   -1    0    0    0    0  0.00000000000E+00  0.00000000000E+00  0.74505805969E-08  0.10566000000E+00  0.10566000000E+00 0. -1.
     999900   -1    0    0    0    0 -0.00000000000E+00 -0.00000000000E+00 -0.74505805969E-08  0.93827000000E+00  0.93827000000E+00 0.  1.
     999902    2    1    2    0    0  0.16230147983E-01 -0.15327444773E-01 -0.10826221933E-01  0.10191196121E+01  0.10188175638E+01 0.  0.
     999903    2    3    3    0    0  0.12831143217E+00 -0.56287009897E-03  0.19681905953E-01  0.13136347846E+00  0.20120775404E-01 0.  0.
         14    1    1    2    0    0 -0.16230147983E-01  0.15327444773E-01  0.10826221933E-01  0.24810387908E-01  0.00000000000E+00 0.  1.
     999901    1    3    3    0    0 -0.11208128419E+00 -0.14764574674E-01 -0.30508127887E-01  0.88775613363E+00  0.88000000000E+00 0. -1.
        -11    1    4    4    0    0  0.66331851986E-01  0.45309957377E-02  0.19072534126E-01  0.69169843062E-01  0.51100000000E-03 0. -1.
         11    1    4    4    0    0  0.61979580186E-01 -0.50938658367E-02  0.60937182757E-03  0.62193635399E-01  0.51100000000E-03 0.  1.
</event>
<event>
 8    1  0.1123361E+005  0.1043930E+01  0.7957747E-01            NaN
         13   -1    0    0    0    0  0.00000000000E+00  0.00000000000E+00  0.74505805969E-08  0.10566000000E+00  0.10566000000E+00 0. -1.
     999900   -1    0    0    0    0 -0.00000000000E+00 -0.00000000000E+00 -0.74505805969E-08  0.93827000000E+00  0.93827000000E+00 0.  1.
     999902    2    1    2    0    0 -0.19730906526E-01 -0.18074008978E-01 -0.50015512412E-02  0.10167087953E+01  0.10163443218E+01 0.  0.
     999903    2    3    3    0    0 -0.11582487147E+00  0.50088334630E-01  0.15190233094E-01  0.12862779482E+00  0.19751564511E-01 0.  0.
         14    1    1    2    0    0  0.19730906526E-01  0.18074008978E-01  0.50015512412E-02  0.27221204743E-01  0.00000000000E+00 0. -1.
     999901    1    3    3    0    0  0.96093964947E-01 -0.68162343608E-01 -0.20191784335E-01  0.88808100044E+00  0.88000000000E+00 0.  1.
        -11    1    4    4    0    0 -0.99303777552E-01  0.40619833121E-01  0.19619818549E-01  0.10907066278E+00  0.51100000000E-03 0. -1.
         11    1    4    4    0    0 -0.16521093921E-01  0.94685015089E-02 -0.44295854551E-02  0.19557132036E-01  0.51100000000E-03 0.  1.
</event>
<event>
 8    1  0.1123361E+005  0.1043930E+01  0.7957747E-01            NaN
         13   -1    0    0    0    0  0.00000000000E+00  0.00000000000E+00  0.74505805969E-08  0.10566000000E+00  0.10566000000E+00 0.  1.
     999900   -1    0    0    0    0 -0.00000000000E+00 -0.00000000000E+00 -0.74505805969E-08  0.93827000000E+00  0.93827000000E+00 0.  1.
     999902    2    1    2    0    0 -0.17878645532E-01 -0.13383746216E-01 -0.87735467251E-02  0.10199352974E+01  0.10196530122E+01 0.  0.
     999903    2    3    3    0    0  0.11292432423E+00  0.27331182688E-01  0.48790907170E-01  0.12747757369E+00  0.19263504888E-01 0.  0.
         14    1    1    2    0    0  0.17878645532E-01  0.13383746216E-01  0.87735467251E-02  0.23994702561E-01  0.00000000000E+00 0.  1.
     999901    1    3    3    0    0 -0.13080296976E+00 -0.40714928904E-01 -0.57564453895E-01  0.89245772375E+00  0.88000000000E+00 0.  1.
        -11    1    4    4    0    0  0.44042479776E-01  0.19813843497E-02  0.22598502844E-01  0.49544115297E-01  0.51100000000E-03 0. -1.
         11    1    4    4    0    0  0.68881844454E-01  0.25349798339E-01  0.26192404326E-01  0.77933458390E-01  0.51100000000E-03 0.  1.
</event>
<event>
 8    1  0.1123361E+005  0.1043930E+01  0.7957747E-01            NaN
         13   -1    0    0    0    0  0.00000000000E+00  0.00000000000E+00  0.74505805969E-08  0.10566000000E+00  0.10566000000E+00 0. -1.
     999900   -1    0    0    0    0 -0.00000000000E+00 -0.00000000000E+00 -0.74505805969E-08  0.93827000000E+00  0.93827000000E+00 0. -1.
     999902    2    1    2    0    0 -0.17194132308E-01 -0.15648061754E-01  0.70632345269E-03  0.10206706166E+01  0.10204055609E+01 0.  0.
     999903    2    3    3    0    0  0.10302746348E+00  0.73066394084E-01 -0.73681550054E-02  0.12804041101E+00  0.19664713779E-01 0.  0.
         14    1    1    2    0    0  0.17194132308E-01  0.15648061754E-01 -0.70632345269E-03  0.23259383382E-01  0.00000000000E+00 0. -1.
     999901    1    3    3    0    0 -0.12022159578E+00 -0.88714455838E-01  0.80744784581E-02  0.89263020561E+00  0.88000000000E+00 0.  1.
        -11    1    4    4    0    0  0.75801556737E-01  0.45031189579E-01  0.50905123105E-03  0.88171448286E-01  0.51100000000E-03 0.  1.
         11    1    4    4    0    0  0.27225906738E-01  0.28035204505E-01 -0.78772062365E-02  0.39868962721E-01  0.51100000000E-03 0. -1.
</event>
<event>
 8    1  0.1123361E+005  0.1043930E+01  0.7957747E-01            NaN
         13   -1    0    0    0    0  0.00000000000E+00  0.00000000000E+00  0.74505805969E-08  0.10566000000E+00  0.10566000000E+00 0.  1.
     999900   -1    0    0    0    0 -0.00000000000E+00 -0.00000000000E+00 -0.74505805969E-08  0.93827000000E+00  0.93827000000E+00 0.  1.
     999902    2    1    2    0    0 -0.92881245128E-02  0.30893102825E-02  0.21044707486E-01  0.10207202433E+01  0.10204563304E+01 0.  0.
     999903    2    3    3    0    0 -0.12545480265E+00 -0.63884880341E-02 -0.32983048279E-01  0.13139267472E+00  0.19910630551E-01 0.  0.
         14    1    1    2    0    0  0.92881245128E-02 -0.30893102825E-02 -0.21044707486E-01  0.23209756745E-01  0.00000000000E+00 0. -1.
     999901    1    3    3    0    0  0.11616667813E+00  0.94777983167E-02  0.54027755765E-01  0.88932756854E+00  0.88000000000E+00 0. -1.
        -11    1    4    4    0    0 -0.80891885416E-01  0.50589982655E-02 -0.18272192738E-01  0.83085647003E-01  0.51100000000E-03 0. -1.
         11    1    4    4    0    0 -0.44562917231E-01 -0.11447486300E-01 -0.14710855541E-01  0.48307027713E-01  0.51100000000E-03 0.  1.
</event>
<event>
 8    1  0.1123361E+005  0.1043930E+01  0.7957747E-01            NaN
         13   -1    0    0    0    0  0.00000000000E+00  0.00000000000E+00  0.74505805969E-08  0.10566000000E+00  0.10566000000E+00 0. -1.
     999900   -1    0    0    0    0 -0.00000000000E+00 -0.00000000000E+00 -0.74505805969E-08  0.93827000000E+00  0.93827000000E+00 0.  1.
     999902    2    1    2    0    0 -0.10402688524E-01 -0.53000361856E-02  0.20793323261E-01  0.10200832265E+01  0.10198044521E+01 0.  0.
     999903    2    3    3    0    0  0.19758886016E-01 -0.63475869186E-01  0.11326613934E+00  0.13281473852E+00  0.19772124376E-01 0.  0.
         14    1    1    2    0    0  0.10402688524E-01  0.53000361856E-02 -0.20793323261E-01  0.23846773457E-01  0.00000000000E+00 0.  1.
     999901    1    3    3    0    0 -0.30161574540E-01  0.58175833000E-01 -0.92472816077E-01  0.88726848802E+00  0.88000000000E+00 0.  1.
        -11    1    4    4    0    0  0.68360546560E-02 -0.30202558965E-01  0.34653710126E-01  0.46476520500E-01  0.51100000000E-03 0. -1.
         11    1    4    4    0    0  0.12922831360E-01 -0.33273310221E-01  0.78612429212E-01  0.86338218021E-01  0.51100000000E-03 0.  1.
</event>
<event>
 8    1  0.1123361E+005  0.1043930E+01  0.7957747E-01            NaN
         13   -1    0    0    0    0  0.00000000000E+00  0.00000000000E+00  0.74505805969E-08  0.10566000000E+00  0.10566000000E+00 0. -1.
     999900   -1    0    0    0    0 -0.00000000000E+00 -0.00000000000E+00 -0.74505805969E-08  0.93827000000E+00  0.93827000000E+00 0.  1.
     999902    2    1    2    0    0 -0.12776282932E-01 -0.13632955163E-01 -0.14532942644E-01  0.10202594002E+01  0.10199847776E+01 0.  0.
     999903    2    3    3    0    0 -0.99475250616E-01 -0.12852673563E-01  0.81401168224E-01  0.13080975383E+00  0.20603999752E-01 0.  0.
         14    1    1    2    0    0  0.12776282932E-01  0.13632955163E-01  0.14532942644E-01  0.23670599780E-01  0.00000000000E+00 0. -1.
     999901    1    3    3    0    0  0.86698967684E-01 -0.78028159985E-03 -0.95934110868E-01  0.88944964639E+00  0.88000000000E+00 0.  1.
        -11    1    4    4    0    0 -0.40117350304E-01 -0.81902508635E-02  0.45797323715E-01  0.61434013259E-01  0.51100000000E-03 0.  1.
         11    1    4    4    0    0 -0.59357900312E-01 -0.46624227000E-02  0.35603844509E-01  0.69375740571E-01  0.51100000000E-03 0. -1.
</event>
<event>
 8    1  0.1123361E+005  0.1043930E+01  0.7957747E-01            NaN
         13   -1    0    0    0    0  0.00000000000E+00  0.00000000000E+00  0.74505805969E-08  0.10566000000E+00  0.10566000000E+00 0. -1.
     999900   -1    0    0    0    0 -0.00000000000E+00 -0.00000000000E+00 -0.74505805969E-08  0.93827000000E+00  0.93827000000E+00 0. -1.
     999902    2    1    2    0    0  0.14706566738E-01 -0.17562821438E-01 -0.35823666686E-02  0.10207444624E+01  0.10204811063E+01 0.  0.
     999903    2    3    3    0    0  0.10458903925E-01  0.82574871150E-01 -0.97947198164E-01  0.13004231156E+00  0.19731982949E-01 0.  0.
         14    1    1    2    0    0 -0.14706566738E-01  0.17562821438E-01  0.35823666686E-02  0.23185537584E-01  0.00000000000E+00 0.  1.
     999901    1    3    3    0    0  0.42476628125E-02 -0.10013769259E+00  0.94364831495E-01  0.89070215086E+00  0.88000000000E+00 0.  1.
        -11    1    4    4    0    0  0.70074283574E-02  0.25019742158E-01 -0.18604695810E-01  0.31960716153E-01  0.51100000000E-03 0. -1.
         11    1    4    4    0    0  0.34514755681E-02  0.57555128992E-01 -0.79342502354E-01  0.98081595408E-01  0.51100000000E-03 0.  1.
</event>
<event>
 8    1  0.1123361E+005  0.1043930E+01  0.7957747E-01            NaN
         13   -1    0    0    0    0  0.00000000000E+00  0.00000000000E+00  0.74505805969E-08  0.10566000000E+00  0.10566000000E+00 0.  1.
     999900   -1    0    0    0    0 -0.00000000000E+00 -0.00000000000E+00 -0.74505805969E-08  0.93827000000E+00  0.93827000000E+00 0. -1.
     999902    2    1    2    0    0 -0.17500993765E-02 -0.19992151248E-01  0.11908257525E-01  0.10205942858E+01  0.10203274674E+01 0.  0.
     999903    2    3    3    0    0  0.31918107284E-01  0.74726220336E-01  0.10022341577E+00  0.13047930154E+00  0.19425279461E-01 0.  0.
         14    1    1    2    0    0  0.17500993765E-02  0.19992151248E-01 -0.11908257525E-01  0.23335714187E-01  0.00000000000E+00 0. -1.
     999901    1    3    3    0    0 -0.33668206660E-01 -0.94718371584E-01 -0.88315158248E-01  0.89011498428E+00  0.88000000000E+00 0. -1.
        -11    1    4    4    0    0  0.13693422280E-01  0.11970102481E-01  0.21520826522E-01  0.28181558906E-01  0.51100000000E-03 0.  1.
         11    1    4    4    0    0  0.18224685003E-01  0.62756117855E-01  0.78702589252E-01  0.10229774263E+00  0.51100000000E-03 0. -1.
</event>
<event>
 8    1  0.1123361E+005  0.1043930E+01  0.7957747E-01            NaN
         13   -1    0    0    0    0  0.00000000000E+00  0.00000000000E+00  0.74505805969E-08  0.10566000000E+00  0.10566000000E+00 0.  1.
     999900   -1    0    0    0    0 -0.00000000000E+00 -0.00000000000E+00 -0.74505805969E-08  0.93827000000E+00  0.93827000000E+00 0.  1.
     999902    2    1    2    0    0 -0.14072426292E-01 -0.59434406740E-02  0.22493905153E-01  0.10167393134E+01  0.10163756677E+01 0.  0.
     999903    2    3    3    0    0  0.62273966004E-02 -0.11719830577E+00 -0.44358012950E-01  0.12698715309E+00  0.19592865878E-01 0.  0.
         14    1    1    2    0    0  0.14072426292E-01  0.59434406740E-02 -0.22493905153E-01  0.27190686601E-01  0.00000000000E+00 0. -1.
     999901    1    3    3    0    0 -0.20299822892E-01  0.11125486510E+00  0.66851918103E-01  0.88975216031E+00  0.88000000000E+00 0.  1.
        -11    1    4    4    0    0 -0.52494061961E-02 -0.74335697394E-01 -0.30179988478E-01  0.80401772356E-01  0.51100000000E-03 0.  1.
         11    1    4    4    0    0  0.11476802796E-01 -0.42862608378E-01 -0.14178024472E-01  0.46585380736E-01  0.51100000000E-03 0. -1.
</event>
<event>
 8    1  0.1123361E+005  0.1043930E+01  0.7957747E-01            NaN
         13   -1    0    0    0    0  0.00000000000E+00  0.00000000000E+00  0.74505805969E-08  0.10566000000E+00  0.10566000000E+00 0.  1.
     999900   -1    0    0    0    0 -0.00000000000E+00 -0.00000000000E+00 -0.74505805969E-08  0.93827000000E+00  0.93827000000E+00 0. -1.
     999902    2    1    2    0    0 -0.94351075269E-02 -0.16058738582E-01  0.14706577838E-01  0.10201984225E+01  0.10199223664E+01 0.  0.
     999903    2    3    3    0    0  0.65287216450E-01  0.10779644980E+00 -0.94602148910E-02  0.12806190421E+00  0.20684787256E-01 0.  0.
         14    1    1    2    0    0  0.94351075269E-02  0.16058738582E-01 -0.14706577838E-01  0.23731577499E-01  0.00000000000E+00 0.  1.
     999901    1    3    3    0    0 -0.74722323977E-01 -0.12385518838E+00  0.24166792729E-01  0.89213651829E+00  0.88000000000E+00 0. -1.
        -11    1    4    4    0    0  0.29464607637E-01  0.68020428718E-01 -0.72710079741E-02  0.74485371074E-01  0.51100000000E-03 0.  1.
         11    1    4    4    0    0  0.35822608813E-01  0.39776021083E-01 -0.21892069169E-02  0.53576533140E-01  0.51100000000E-03 0. -1.
</event>
<event>
 8    1  0.1123361E+005  0.1043930E+01  0.7957747E-01            NaN
         13   -1    0    0    0    0  0.00000000000E+00  0.00000000000E+00  0.74505805969E-08  0.10566000000E+00  0.10566000000E+00 0.  1.
     999900   -1    0    0    0    0 -0.00000000000E+00 -0.00000000000E+00 -0.74505805969E-08  0.93827000000E+00  0.93827000000E+00 0. -1.
     999902    2    1    2    0    0 -0.17930368019E-01 -0.42332112406E-02 -0.16626652389E-01  0.10191133978E+01  0.10188111964E+01 0.  0.
     999903    2    3    3    0    0  0.11755008008E-01  0.71700174478E-01 -0.10679115099E+00  0.13075719818E+00  0.20346982872E-01 0.  0.
         14    1    1    2    0    0  0.17930368019E-01  0.42332112406E-02  0.16626652389E-01  0.24816602192E-01  0.00000000000E+00 0. -1.
     999901    1    3    3    0    0 -0.29685376027E-01 -0.75933385718E-01  0.90164498599E-01  0.88835619963E+00  0.88000000000E+00 0.  1.
        -11    1    4    4    0    0  0.16430479028E-01  0.37909952453E-01 -0.57149097309E-01  0.70522376452E-01  0.51100000000E-03 0. -1.
         11    1    4    4    0    0 -0.46754710195E-02  0.33790222024E-01 -0.49642053679E-01  0.60234821724E-01  0.51100000000E-03 0.  1.
</event>
<event>
 8    1  0.1123361E+005  0.1043930E+01  0.7957747E-01            NaN
         13   -1    0    0    0    0  0.00000000000E+00  0.00000000000E+00  0.74505805969E-08  0.10566000000E+00  0.10566000000E+00 0. -1.
     999900   -1    0    0    0    0 -0.00000000000E+00 -0.00000000000E+00 -0.74505805969E-08  0.93827000000E+00  0.93827000000E+00 0.  1.
     999902    2    1    2    0    0 -0.12949396995E-01  0.26193125768E-01 -0.15878299966E-01  0.10106751187E+01  0.10101278674E+01 0.  0.
     999903    2    3    3    0    0 -0.87090956743E-01  0.56141600649E-01 -0.67872837425E-01  0.12552128238E+00  0.20301630516E-01 0.  0.
         14    1    1    2    0    0  0.12949396995E-01 -0.26193125768E-01  0.15878299966E-01  0.33254881293E-01  0.00000000000E+00 0.  1.
     999901    1    3    3    0    0  0.74141559748E-01 -0.29948474881E-01  0.51994537459E-01  0.88515383632E+00  0.88000000000E+00 0. -1.
        -11    1    4    4    0    0 -0.51429056193E-01  0.43262426197E-01 -0.37680099960E-01  0.77049571026E-01  0.51100000000E-03 0. -1.
         11    1    4    4    0    0 -0.35661900550E-01  0.12879174452E-01 -0.30192737465E-01  0.48471711359E-01  0.51100000000E-03 0.  1.
</event>
<event>
 8    1  0.1123361E+005  0.1043930E+01  0.7957747E-01            NaN
         13   -1    0    0    0    0  0.00000000000E+00  0.00000000000E+00  0.74505805969E-08  0.10566000000E+00  0.10566000000E+00 0.  1.
     999900   -1    0    0    0    0 -0.00000000000E+00 -0.00000000000E+00 -0.74505805969E-08  0.93827000000E+00  0.93827000000E+00 0. -1.
     999902    2    1    2    0    0  0.27994277322E-01 -0.74126101479E-02  0.80052687778E-02  0.10138848560E+01  0.10134395840E+01 0.  0.
     999903    2    3    3    0    0  0.12324720154E+00 -0.24305277057E-01 -0.16314024478E-01  0.12824954174E+00  0.20029437912E-01 0.  0.
         14    1    1    2    0    0 -0.27994277322E-01  0.74126101479E-02 -0.80052687778E-02  0.30045144037E-01  0.00000000000E+00 0.  1.
     999901    1    3    3    0    0 -0.95252924216E-01  0.16892666909E-01  0.24319293256E-01  0.88563531422E+00  0.88000000000E+00 0.  1.
        -11    1    4    4    0    0  0.28562356025E-01 -0.12369724784E-01 -0.96065575800E-02  0.32578602525E-01  0.51100000000E-03 0. -1.
         11    1    4    4    0    0  0.94684845513E-01 -0.11935552273E-01 -0.67074668978E-02  0.95670939220E-01  0.51100000000E-03 0.  1.
</event>
<event>
 8    1  0.1123361E+005  0.1043930E+01  0.7957747E-01            NaN
         13   -1    0    0    0    0  0.00000000000E+00  0.00000000000E+00  0.74505805969E-08  0.10566000000E+00  0.10566000000E+00 0.  1.
     999900   -1    0    0    0    0 -0.00000000000E+00 -0.00000000000E+00 -0.74505805969E-08  0.93827000000E+00  0.93827000000E+00 0. -1.
     999902    2    1    2    0    0  0.17358047677E-01 -0.13682569509E-01 -0.45839069737E-02  0.10213573012E+01  0.10211078347E+01 0.  0.
     999903    2    3    3    0    0  0.66574037513E-01 -0.11465392598E+00  0.53736321996E-02  0.13416139214E+00  0.19818627750E-01 0.  0.
         14    1    1    2    0    0 -0.17358047677E-01  0.13682569509E-01  0.45839069737E-02  0.22572698790E-01  0.00000000000E+00 0.  1.
     999901    1    3    3    0    0 -0.49215989836E-01  0.10097135647E+00 -0.99575391733E-02  0.88719590907E+00  0.88000000000E+00 0.  1.
        -11    1    4    4    0    0  0.53781672323E-01 -0.85475454347E-01 -0.36167017189E-02  0.10105376404E+00  0.51100000000E-03 0.  1.
         11    1    4    4    0    0  0.12792365189E-01 -0.29178471629E-01  0.89903339185E-02  0.33107628104E-01  0.51100000000E-03 0. -1.
</event>
<event>
 8    1  0.1123361E+005  0.1043930E+01  0.7957747E-01            NaN
         13   -1    0    0    0    0  0.00000000000E+00  0.00000000000E+00  0.74505805969E-08  0.10566000000E+00  0.10566000000E+00 0.  1.
     999900   -1    0    0    0    0 -0.00000000000E+00 -0.00000000000E+00 -0.74505805969E-08  0.93827000000E+00  0.93827000000E+00 0. -1.
     999902    2    1    2    0    0 -0.16899312633E-01  0.10343301004E-01  0.12293006209E-01  0.10206128680E+01  0.10203464792E+01 0.  0.
     999903    2    3    3    0    0 -0.58193732961E-01  0.84899764367E-01  0.82989488606E-01  0.13367324886E+00  0.19667274733E-01 0.  0.
         14    1    1    2    0    0  0.16899312633E-01 -0.10343301004E-01 -0.12293006209E-01  0.23317132001E-01  0.00000000000E+00 0. -1.
     999901    1    3    3    0    0  0.41294420329E-01 -0.74556463363E-01 -0.70696482396E-01  0.88693961914E+00  0.88000000000E+00 0. -1.
        -11    1    4    4    0    0 -0.27167734484E-01  0.55001489891E-01  0.43296215499E-01  0.75087103318E-01  0.51100000000E-03 0.  1.
         11    1    4    4    0    0 -0.31025998477E-01  0.29898274476E-01  0.39693273107E-01  0.58586145539E-01  0.51100000000E-03 0. -1.
</event>
<event>
 8    1  0.1123361E+005  0.1043930E+01  0.7957747E-01            NaN
         13   -1    0    0    0    0  0.00000000000E+00  0.00000000000E+00  0.74505805969E-08  0.10566000000E+00  0.10566000000E+00 0.  1.
     999900   -1    0    0    0    0 -0.00000000000E+00 -0.00000000000E+00 -0.74505805969E-08  0.93827000000E+00  0.93827000000E+00 0. -1.
     999902    2    1    2    0    0  0.90841370827E-02  0.20594608167E-01  0.77466272855E-02  0.10201251756E+01  0.10198473926E+01 0.  0.
     999903    2    3    3    0    0 -0.24078132310E-01 -0.27000567864E-01  0.12389006548E+00  0.13060039506E+00  0.19973175618E-01 0.  0.
         14    1    1    2    0    0 -0.90841370827E-02 -0.20594608167E-01 -0.77466272855E-02  0.23804824436E-01  0.00000000000E+00 0. -1.
     999901    1    3    3    0    0  0.33162269392E-01  0.47595176032E-01 -0.11614343820E+00  0.88952478050E+00  0.88000000000E+00 0. -1.
        -11    1    4    4    0    0 -0.14992212786E-01 -0.27823477028E-01  0.10428889067E+00  0.10897406185E+00  0.51100000000E-03 0. -1.
         11    1    4    4    0    0 -0.90859195233E-02  0.82290916312E-03  0.19601174814E-01  0.21626333211E-01  0.51100000000E-03 0.  1.
</event>
<event>
 8    1  0.1123361E+005  0.1043930E+01  0.7957747E-01            NaN
         13   -1    0    0    0    0  0.00000000000E+00  0.00000000000E+00  0.74505805969E-08  0.10566000000E+00  0.10566000000E+00 0.  1.
     999900   -1    0    0    0    0 -0.00000000000E+00 -0.00000000000E+00 -0.74505805969E-08  0.93827000000E+00  0.93827000000E+00 0.  1.
     999902    2    1    2    0    0 -0.16444579490E-01 -0.15417224861E-01 -0.37855538034E-02  0.10210729347E+01  0.10208170710E+01 0.  0.
     999903    2    3    3    0    0  0.54654667645E-01  0.96737204813E-02  0.11570961850E+00  0.12980206975E+00  0.19471721425E-01 0.  0.
         14    1    1    2    0    0  0.16444579490E-01  0.15417224861E-01  0.37855538034E-02  0.22857065311E-01  0.00000000000E+00 0. -1.
     999901    1    3    3    0    0 -0.71099247135E-01 -0.25090945342E-01 -0.11949517230E+00  0.89127086494E+00  0.88000000000E+00 0.  1.
        -11    1    4    4    0    0  0.47776597168E-01  0.79903745607E-02  0.81056342272E-01  0.94429026608E-01  0.51100000000E-03 0. -1.
         11    1    4    4    0    0  0.68780704769E-02  0.16833459206E-02  0.34653276228E-01  0.35373043145E-01  0.51100000000E-03 0.  1.
</event>
<event>
 8    1  0.1123361E+005  0.1043930E+01  0.7957747E-01            NaN
         13   -1    0    0    0    0  0.00000000000E+00  0.00000000000E+00  0.74505805969E-08  0.10566000000E+00  0.10566000000E+00 0.  1.
     999900   -1    0    0    0    0 -0.00000000000E+00 -0.00000000000E+00 -0.74505805969E-08  0.93827000000E+00  0.93827000000E+00 0.  1.
     999902    2    1    2    0    0 -0.87666667429E-02 -0.76532192956E-02 -0.19234793692E-01  0.10214488190E+01  0.10212013936E+01 0.  0.
     999903    2    3    3    0    0 -0.51129424848E-01  0.13061602722E-01 -0.12165080222E+00  0.13425507130E+00  0.20992449569E-01 0.  0.
         14    1    1    2    0    0  0.87666667429E-02  0.76532192956E-02  0.19234793692E-01  0.22481181013E-01  0.00000000000E+00 0.  1.
     999901    1    3    3    0    0  0.42362758105E-01 -0.20714822018E-01  0.10241600853E+00  0.88719374768E+00  0.88000000000E+00 0. -1.
        -11    1    4    4    0    0 -0.45649829891E-01  0.14000163780E-01 -0.11869048587E+00  0.12793593753E+00  0.51100000000E-03 0. -1.
         11    1    4    4    0    0 -0.54795949570E-02 -0.93856105821E-03 -0.29603163530E-02  0.63191337748E-02  0.51100000000E-03 0.  1.
</event>
<event>
 8    1  0.1123361E+005  0.1043930E+01  0.7957747E-01            NaN
         13   -1    0    0    0    0  0.00000000000E+00  0.00000000000E+00  0.74505805969E-08  0.10566000000E+00  0.10566000000E+00 0.  1.
     999900   -1    0    0    0    0 -0.00000000000E+00 -0.00000000000E+00 -0.74505805969E-08  0.93827000000E+00  0.93827000000E+00 0. -1.
     999902    2    1    2    0    0  0.21122826147E-01 -0.36054518527E-03  0.10150781944E-01  0.10204919508E+01  0.10202227597E+01 0.  0.
     999903    2    3    3    0    0  0.11362118813E+00  0.12588877750E-01  0.66594614804E-01  0.13375098477E+00  0.19652709033E-01 0.  0.
         14    1    1    2    0    0 -0.21122826147E-01  0.36054518527E-03 -0.10150781944E-01  0.23438049222E-01  0.00000000000E+00 0. -1.
     999901    1    3    3    0    0 -0.92498361981E-01 -0.12949422935E-01 -0.56443832859E-01  0.88674096600E+00  0.88000000000E+00 0. -1.
        -11    1    4    4    0    0  0.33029113706E-01  0.10627169818E-01  0.26810931586E-01  0.43851411198E-01  0.51100000000E-03 0.  1.
         11    1    4    4    0    0  0.80592074422E-01  0.19617079321E-02  0.39783683218E-01  0.89899573575E-01  0.51100000000E-03 0. -1.
</event>
<event>
 8    1  0.1123361E+005  0.1043930E+01  0.7957747E-01            NaN
         13   -1    0    0    0    0  0.00000000000E+00  0.00000000000E+00  0.74505805969E-08  0.10566000000E+00  0.10566000000E+00 0.  1.
     999900   -1    0    0    0    0 -0.00000000000E+00 -0.00000000000E+00 -0.74505805969E-08  0.93827000000E+00  0.93827000000E+00 0. -1.
     999902    2    1    2    0    0  0.11051117133E-02  0.23026529992E-03 -0.23137963163E-01  0.10207645163E+01  0.10205016209E+01 0.  0.
     999903    2    3    3    0    0 -0.17270880885E-01  0.59622701327E-01 -0.11667076343E+00  0.13362668979E+00  0.19770567642E-01 0.  0.
         14    1    1    2    0    0 -0.11051117133E-02 -0.23026529992E-03  0.23137963163E-01  0.23165483663E-01  0.00000000000E+00 0.  1.
     999901    1    3    3    0    0  0.18375992598E-01 -0.59392436027E-01  0.93532800269E-01  0.88713782655E+00  0.88000000000E+00 0.  1.
        -11    1    4    4    0    0 -0.39360411670E-02 -0.55715502121E-04 -0.80281728853E-02  0.89559033694E-02  0.51100000000E-03 0. -1.
         11    1    4    4    0    0 -0.13334839718E-01  0.59678416829E-01 -0.10864259055E+00  0.12467078642E+00  0.51100000000E-03 0.  1.
</event>
<event>
 8    1  0.1123361E+005  0.1043930E+01  0.7957747E-01            NaN
         13   -1    0    0    0    0  0.00000000000E+00  0.00000000000E+00  0.74505805969E-08  0.10566000000E+00  0.10566000000E+00 0. -1.
     999900   -1    0    0    0    0 -0.00000000000E+00 -0.00000000000E+00 -0.74505805969E-08  0.93827000000E+00  0.93827000000E+00 0. -1.
     999902    2    1    2    0    0 -0.13102046572E-01  0.19401144800E-01  0.13532734213E-01  0.10168892356E+01  0.10165296427E+01 0.  0.
     999903    2    3    3    0    0 -0.11904067678E-01 -0.16586317224E-01  0.12592229374E+00  0.12901089615E+00  0.19250312204E-01 0.  0.
         14    1    1    2    0    0  0.13102046572E-01 -0.19401144800E-01 -0.13532734213E-01  0.27040764398E-01  0.00000000000E+00 0. -1.
     999901    1    3    3    0    0 -0.11979788940E-02  0.35987462024E-01 -0.11238955952E+00  0.88787833945E+00  0.88000000000E+00 0. -1.
        -11    1    4    4    0    0 -0.16917587681E-01 -0.13121371133E-01  0.86194980664E-01  0.88815600916E-01  0.51100000000E-03 0. -1.
         11    1    4    4    0    0  0.50135200032E-02 -0.34649460914E-02  0.39727313071E-01  0.40195295236E-01  0.51100000000E-03 0.  1.
</event>
<event>
 8    1  0.1123361E+005  0.1043930E+01  0.7957747E-01            NaN
         13   -1    0    0    0    0  0.00000000000E+00  0.00000000000E+00  0.74505805969E-08  0.10566000000E+00  0.10566000000E+00 0.  1.
     999900   -1    0    0    0    0 -0.00000000000E+00 -0.00000000000E+00 -0.74505805969E-08  0.93827000000E+00  0.93827000000E+00 0.  1.
     999902    2    1    2    0    0  0.17963116030E-01 -0.10981776602E-01 -0.13181712804E-01  0.10190899012E+01  0.10187871202E+01 0.  0.
     999903    2    3    3    0    0  0.97705848911E-01 -0.19590039791E-01  0.81715193871E-01  0.13036135519E+00  0.19659792632E-01 0.  0.
         14    1    1    2    0    0 -0.17963116030E-01  0.10981776602E-01  0.13181712804E-01  0.24840098777E-01  0.00000000000E+00 0.  1.
     999901    1    3    3    0    0 -0.79742732881E-01  0.86082631885E-02 -0.94896906675E-01  0.88872854604E+00  0.88000000000E+00 0.  1.
        -11    1    4    4    0    0  0.80023316466E-01 -0.11206433984E-01  0.57263587003E-01  0.99038855296E-01  0.51100000000E-03 0. -1.
         11    1    4    4    0    0  0.17682532445E-01 -0.83836058073E-02  0.24451606868E-01  0.31322499891E-01  0.51100000000E-03 0.  1.
</event>
<event>
 8    1  0.1123361E+005  0.1043930E+01  0.7957747E-01            NaN
         13   -1    0    0    0    0  0.00000000000E+00  0.00000000000E+00  0.74505805969E-08  0.10566000000E+00  0.10566000000E+00 0. -1.
     999900   -1    0    0    0    0 -0.00000000000E+00 -0.00000000000E+00 -0.74505805969E-08  0.93827000000E+00  0.93827000000E+00 0. -1.
     999902    2    1    2    0    0 -0.61416549500E-02 -0.50531427535E-03 -0.22546177229E-01  0.10205568236E+01  0.10202891378E+01 0.  0.
     999903    2    3    3    0    0 -0.68636449518E-01  0.41900142986E-01 -0.10471408725E+00  0.13350812842E+00  0.19819084252E-01 0.  0.
         14    1    1    2    0    0  0.61416549500E-02  0.50531427535E-03  0.22546177229E-01  0.23373176414E-01  0.00000000000E+00 0. -1.
     999901    1    3    3    0    0  0.62494794568E-01 -0.42405457262E-01  0.82167910024E-01  0.88704869516E+00  0.88000000000E+00 0.  1.
        -11    1    4    4    0    0 -0.16891075755E-01  0.20789243857E-01 -0.30337492822E-01  0.40473765479E-01  0.51100000000E-03 0.  1.
         11    1    4    4    0    0 -0.51745373763E-01  0.21110899129E-01 -0.74376594432E-01  0.93034362943E-01  0.51100000000E-03 0. -1.
</event>
<event>
 8    1  0.1388278E+005  0.1043930E+01  0.7957747E-01            NaN
         13   -1    0    0    0    0  0.00000000000E+00  0.00000000000E+00  0.74505805969E-08  0.10566000000E+00  0.10566000000E+00 0. -1.
     999900   -1    0    0    0    0 -0.00000000000E+00 -0.00000000000E+00 -0.74505805969E-08  0.93827000000E+00  0.93827000000E+00 0. -1.
     999902    2    1    2    0    0  0.14779991109E-02  0.23094842987E-02 -0.23520627864E-01  0.10202500901E+01  0.10199752488E+01 0.  0.
     999903    2    3    3    0    0  0.30464426042E-01 -0.60375481244E-01  0.10696165055E+00  0.12795235790E+00  0.18913783708E-01 0.  0.
         14    1    1    2    0    0 -0.14779991109E-02 -0.23094842987E-02  0.23520627864E-01  0.23679909928E-01  0.00000000000E+00 0. -1.
     999901    1    3    3    0    0 -0.28986426931E-01  0.62684965543E-01 -0.13048227842E+00  0.89229773217E+00  0.88000000000E+00 0. -1.
        -11    1    4    4    0    0  0.89961378767E-02 -0.28386862448E-01  0.61707112705E-01  0.68518416033E-01  0.51100000000E-03 0.  1.
         11    1    4    4    0    0  0.21468288166E-01 -0.31988618796E-01  0.45254537850E-01  0.59433941870E-01  0.51100000000E-03 0. -1.
</event>
<event>
 8    1  0.1123361E+005  0.1043930E+01  0.7957747E-01            NaN
         13   -1    0    0    0    0  0.00000000000E+00  0.00000000000E+00  0.74505805969E-08  0.10566000000E+00  0.10566000000E+00 0. -1.
     999900   -1    0    0    0    0 -0.00000000000E+00 -0.00000000000E+00 -0.74505805969E-08  0.93827000000E+00  0.93827000000E+00 0.  1.
     999902    2    1    2    0    0  0.12307414076E-01  0.16399845062E-01  0.10731709735E-01  0.10207870323E+01  0.10205246535E+01 0.  0.
     999903    2    3    3    0    0 -0.44623617850E-01  0.11274311317E-01  0.12197367545E+00  0.13194385806E+00  0.20327980948E-01 0.  0.
         14    1    1    2    0    0 -0.12307414076E-01 -0.16399845062E-01 -0.10731709735E-01  0.23142967682E-01  0.00000000000E+00 0.  1.
     999901    1    3    3    0    0  0.56931031926E-01  0.51255337444E-02 -0.11124196572E+00  0.88884317426E+00  0.88000000000E+00 0.  1.
        -11    1    4    4    0    0 -0.40629858799E-01  0.11398066291E-01  0.86535658150E-01  0.96277632883E-01  0.51100000000E-03 0. -1.
         11    1    4    4    0    0 -0.39937590508E-02 -0.12375497318E-03  0.35438017305E-01  0.35666225174E-01  0.51100000000E-03 0.  1.
</event>
<event>
 7    1  0.1123361E+005  0.1043930E+01  0.7957747E-01            NaN
         13   -1    0    0    0    0  0.00000000000E+00  0.00000000000E+00  0.74505805969E-08  0.10566000000E+00  0.10566000000E+00 0. -1.
     999900   -1    0    0    0    0 -0.00000000000E+00 -0.00000000000E+00 -0.74505805969E-08  0.93827000000E+00  0.93827000000E+00 0.  1.
     999902    2    1    2    0    0  0.15740570754E-02  0.12057144621E-01  0.22766101748E-01  0.10181201612E+01  0.10177929626E+01 0.  0.
         14    1    1    2    0    0 -0.15740570754E-02 -0.12057144621E-01 -0.22766101748E-01  0.25809838839E-01  0.00000000000E+00 0.  1.
     999901    1    3    3    0    0 -0.18541726911E-01 -0.10934377019E+00  0.73456808868E-02  0.88699144006E+00  0.88000000000E+00 0. -1.
        -11    1    3    3    0    0  0.54399192259E-03  0.70248945460E-01 -0.96141554982E-02  0.70907710246E-01  0.51100000000E-03 0.  1.
         11    1    3    3    0    0  0.19571792064E-01  0.51151969355E-01  0.25034576360E-01  0.60221010852E-01  0.51100000000E-03 0. -1.
</event>
<event>
 8    1  0.1123361E+005  0.1043930E+01  0.7957747E-01            NaN
         13   -1    0    0    0    0  0.00000000000E+00  0.00000000000E+00  0.74505805969E-08  0.10566000000E+00  0.10566000000E+00 0.  1.
     999900   -1    0    0    0    0 -0.00000000000E+00 -0.00000000000E+00 -0.74505805969E-08  0.93827000000E+00  0.93827000000E+00 0.  1.
     999902    2    1    2    0    0  0.51225315556E-02  0.16264230806E-01  0.16956557426E-01  0.10198823312E+01  0.10195987834E+01 0.  0.
     999903    2    3    3    0    0 -0.93905290974E-01 -0.50487966406E-02 -0.84604639722E-01  0.12826838364E+00  0.21240036716E-01 0.  0.
         14    1    1    2    0    0 -0.51225315556E-02 -0.16264230806E-01 -0.16956557426E-01  0.24047668764E-01  0.00000000000E+00 0. -1.
     999901    1    3    3    0    0  0.99027822530E-01  0.21313027447E-01  0.10156119715E+00  0.89161394759E+00  0.88000000000E+00 0. -1.
        -11    1    4    4    0    0 -0.39846258787E-01  0.83416290105E-02 -0.36067271058E-01  0.54391325379E-01  0.51100000000E-03 0.  1.
         11    1    4    4    0    0 -0.54059032187E-01 -0.13390425651E-01 -0.48537368663E-01  0.73877058265E-01  0.51100000000E-03 0. -1.
</event>
<event>
 8    1  0.1123361E+005  0.1043930E+01  0.7957747E-01            NaN
         13   -1    0    0    0    0  0.00000000000E+00  0.00000000000E+00  0.74505805969E-08  0.10566000000E+00  0.10566000000E+00 0. -1.
     999900   -1    0    0    0    0 -0.00000000000E+00 -0.00000000000E+00 -0.74505805969E-08  0.93827000000E+00  0.93827000000E+00 0.  1.
     999902    2    1    2    0    0  0.26101160550E-01  0.38775771975E-02  0.11004357176E-01  0.10153397558E+01  0.10149371496E+01 0.  0.
     999903    2    3    3    0    0  0.98807674293E-01  0.59922298220E-01 -0.53885493128E-01  0.12818816752E+00  0.13225792998E-01 0.  0.
         14    1    1    2    0    0 -0.26101160550E-01 -0.38775771975E-02 -0.11004357176E-01  0.28590244207E-01  0.00000000000E+00 0.  1.
     999901    1    3    3    0    0 -0.72706513743E-01 -0.56044721023E-01  0.64889850304E-01  0.88715158827E+00  0.88000000000E+00 0. -1.
        -11    1    4    4    0    0  0.20227923299E-01  0.15748910973E-01 -0.17131080016E-01  0.30837186988E-01  0.51100000000E-03 0.  1.
         11    1    4    4    0    0  0.78579750994E-01  0.44173387247E-01 -0.36754413112E-01  0.97350980536E-01  0.51100000000E-03 0. -1.
</event>
<event>
 8    1  0.1123361E+005  0.1043930E+01  0.7957747E-01            NaN
         13   -1    0    0    0    0  0.00000000000E+00  0.00000000000E+00  0.74505805969E-08  0.10566000000E+00  0.10566000000E+00 0. -1.
     999900   -1    0    0    0    0 -0.00000000000E+00 -0.00000000000E+00 -0.74505805969E-08  0.93827000000E+00  0.93827000000E+00 0. -1.
     999902    2    1    2    0    0  0.60360793390E-02 -0.14417386383E-02  0.22870099500E-01  0.10202328627E+01  0.10199576167E+01 0.  0.
     999903    2    3    3    0    0  0.15062954663E-01  0.32692122356E-01 -0.12096403102E+00  0.12785689820E+00  0.20479798607E-01 0.  0.
         14    1    1    2    0    0 -0.60360793390E-02  0.14417386383E-02 -0.22870099500E-01  0.23697137279E-01  0.00000000000E+00 0.  1.
     999901    1    3    3    0    0 -0.90268753240E-02 -0.34133860994E-01  0.14383413052E+00  0.89237596452E+00  0.88000000000E+00 0.  1.
        -11    1    4    4    0    0  0.50336934183E-02  0.88694298568E-02 -0.69688548878E-01  0.70432661607E-01  0.51100000000E-03 0.  1.
         11    1    4    4    0    0  0.10029261245E-01  0.23822692499E-01 -0.51275482140E-01  0.57424236597E-01  0.51100000000E-03 0. -1.
</event>
<event>
 8    1  0.1123361E+005  0.1043930E+01  0.7957747E-01            NaN
         13   -1    0    0    0    0  0.00000000000E+00  0.00000000000E+00  0.74505805969E-08  0.10566000000E+00  0.10566000000E+00 0. -1.
     999900   -1    0    0    0    0 -0.00000000000E+00 -0.00000000000E+00 -0.74505805969E-08  0.93827000000E+00  0.93827000000E+00 0.  1.
     999902    2    1    2    0    0 -0.19915491809E-01 -0.45610676843E-02  0.92870452518E-02  0.10214871980E+01  0.10212406261E+01 0.  0.
     999903    2    3    3    0    0  0.11138361357E+00  0.30957036010E-02  0.63843848798E-01  0.13004200841E+00  0.20469347047E-01 0.  0.
         14    1    1    2    0    0  0.19915491809E-01  0.45610676843E-02 -0.92870452518E-02  0.22442802007E-01  0.00000000000E+00 0.  1.
     999901    1    3    3    0    0 -0.13129910538E+00 -0.76567712853E-02 -0.54556803546E-01  0.89144518958E+00  0.88000000000E+00 0.  1.
        -11    1    4    4    0    0  0.73246284917E-01 -0.63372484596E-02  0.47223411828E-01  0.87381295011E-01  0.51100000000E-03 0.  1.
         11    1    4    4    0    0  0.38137328656E-01  0.94329520605E-02  0.16620436970E-01  0.42660713398E-01  0.51100000000E-03 0. -1.
</event>
<event>
 8    1  0.1123361E+005  0.1043930E+01  0.7957747E-01            NaN
         13   -1    0    0    0    0  0.00000000000E+00  0.00000000000E+00  0.74505805969E-08  0.10566000000E+00  0.10566000000E+00 0. -1.
     999900   -1    0    0    0    0 -0.00000000000E+00 -0.00000000000E+00 -0.74505805969E-08  0.93827000000E+00  0.93827000000E+00 0.  1.
     999902    2    1    2    0    0  0.15180636059E-01 -0.15388851730E-01 -0.10965672172E-01  0.10196913029E+01  0.10194031778E+01 0.  0.
     999903    2    3    3    0    0 -0.35540846292E-01 -0.51434228781E-03 -0.12390577209E+00  0.13090033429E+00  0.22778078421E-01 0.  0.
         14    1    1    2    0    0 -0.15180636059E-01  0.15388851730E-01  0.10965672172E-01  0.24238697055E-01  0.00000000000E+00 0.  1.
     999901    1    3    3    0    0  0.50721482351E-01 -0.14874509442E-01  0.11294009991E+00  0.88879096866E+00  0.88000000000E+00 0. -1.
        -11    1    4    4    0    0 -0.22242610530E-02 -0.27965219866E-02 -0.45947135467E-01  0.46088699820E-01  0.51100000000E-03 0.  1.
         11    1    4    4    0    0 -0.33316585239E-01  0.22821796988E-02 -0.77958636619E-01  0.84811634465E-01  0.51100000000E-03 0. -1.
</event>
<event>
 8    1  0.1123361E+005  0.1043930E+01  0.7957747E-01            NaN
         13   -1    0    0    0    0  0.00000000000E+00  0.00000000000E+00  0.74505805969E-08  0.10566000000E+00  0.10566000000E+00 0.  1.
     999900   -1    0    0    0    0 -0.00000000000E+00 -0.00000000000E+00 -0.74505805969E-08  0.93827000000E+00  0.93827000000E+00 0.  1.
     999902    2    1    2    0    0  0.13984228309E-01 -0.16635885489E-01  0.87204161717E-02  0.10205129766E+01  0.10202442739E+01 0.  0.
     999903    2    3    3    0    0  0.95473811622E-01  0.33920040185E-01 -0.80349320582E-01  0.13083333097E+00  0.19887919543E-01 0.  0.
         14    1    1    2    0    0 -0.13984228309E-01  0.16635885489E-01 -0.87204161717E-02  0.23417023415E-01  0.00000000000E+00 0.  1.
     999901    1    3    3    0    0 -0.81489583313E-01 -0.50555925675E-01  0.89069736754E-01  0.88967964561E+00  0.88000000000E+00 0. -1.
        -11    1    4    4    0    0  0.45628351096E-01  0.59069917976E-02 -0.33582914254E-01  0.56964131053E-01  0.51100000000E-03 0.  1.
         11    1    4    4    0    0  0.49845460527E-01  0.28013048388E-01 -0.46766406328E-01  0.73869199921E-01  0.51100000000E-03 0. -1.
</event>
<event>
 8    1  0.1123361E+005  0.1043930E+01  0.7957747E-01            NaN
         13   -1    0    0    0    0  0.00000000000E+00  0.00000000000E+00  0.74505805969E-08  0.10566000000E+00  0.10566000000E+00 0. -1.
     999900   -1    0    0    0    0 -0.00000000000E+00 -0.00000000000E+00 -0.74505805969E-08  0.93827000000E+00  0.93827000000E+00 0. -1.
     999902    2    1    2    0    0 -0.21436587882E-01  0.94759281604E-02  0.35628453109E-02  0.10202231575E+01  0.10199476833E+01 0.  0.
     999903    2    3    3    0    0 -0.51949959770E-01  0.11404757923E+00 -0.37965319689E-01  0.13253465101E+00  0.20455306633E-01 0.  0.
         14    1    1    2    0    0  0.21436587882E-01 -0.94759281604E-02 -0.35628453109E-02  0.23706842498E-01  0.00000000000E+00 0. -1.
     999901    1    3    3    0    0  0.30513371889E-01 -0.10457165107E+00  0.41528165000E-01  0.88768850649E+00  0.88000000000E+00 0.  1.
        -11    1    4    4    0    0 -0.71076775644E-02  0.34565334094E-01 -0.15521520901E-01  0.38554638287E-01  0.51100000000E-03 0. -1.
         11    1    4    4    0    0 -0.44842282206E-01  0.79482245141E-01 -0.22443798788E-01  0.93980012722E-01  0.51100000000E-03 0.  1.
</event>
<event>
 8    1  0.1123361E+005  0.1043930E+01  0.7957747E-01            NaN
         13   -1    0    0    0    0  0.00000000000E+00  0.00000000000E+00  0.74505805969E-08  0.10566000000E+00  0.10566000000E+00 0. -1.
     999900   -1    0    0    0    0 -0.00000000000E+00 -0.00000000000E+00 -0.74505805969E-08  0.93827000000E+00  0.93827000000E+00 0. -1.
     999902    2    1    2    0    0  0.17969641236E-01  0.11778723934E-01 -0.85964220202E-02  0.10207881588E+01  0.10205258058E+01 0.  0.
     999903    2    3    3    0    0  0.44687464269E-02 -0.81182529209E-01  0.97837541508E-01  0.12941155075E+00  0.23761148872E-01 0.  0.
         14    1    1    2    0    0 -0.17969641236E-01 -0.11778723934E-01  0.85964220202E-02  0.23141841223E-01  0.00000000000E+00 0. -1.
     999901    1    3    3    0    0  0.13500894809E-01  0.92961253143E-01 -0.10643396353E+00  0.89137660803E+00  0.88000000000E+00 0. -1.
        -11    1    4    4    0    0  0.36101202399E-02 -0.58942012483E-01  0.85636826823E-01  0.10402461744E+00  0.51100000000E-03 0.  1.
         11    1    4    4    0    0  0.85862618704E-03 -0.22240516726E-01  0.12200714684E-01  0.25386933312E-01  0.51100000000E-03 0. -1.
</event>
<event>
 8    1  0.2061811E+005  0.1043930E+01  0.7957747E-01            NaN
         13   -1    0    0    0    0  0.00000000000E+00  0.00000000000E+00  0.74505805969E-08  0.10566000000E+00  0.10566000000E+00 0.  1.
     999900   -1    0    0    0    0 -0.00000000000E+00 -0.00000000000E+00 -0.74505805969E-08  0.93827000000E+00  0.93827000000E+00 0.  1.
     999902    2    1    2    0    0  0.47506647868E-02  0.22883061159E-01 -0.49888296068E-02  0.10200324745E+01  0.10197524981E+01 0.  0.
     999903    2    3    3    0    0  0.22382964467E-02  0.35476900296E-01 -0.12534458595E+00  0.13174737114E+00  0.19557201958E-01 0.  0.
         14    1    1    2    0    0 -0.47506647868E-02 -0.22883061159E-01  0.49888296068E-02  0.23897525494E-01  0.00000000000E+00 0. -1.
     999901    1    3    3    0    0  0.25123683401E-02 -0.12593839137E-01  0.12035575635E+00  0.88828510337E+00  0.88000000000E+00 0. -1.
        -11    1    4    4    0    0  0.29099864435E-02  0.23578198136E-01 -0.48789889697E-01  0.54268903675E-01  0.51100000000E-03 0.  1.
         11    1    4    4    0    0 -0.67168999680E-03  0.11898702160E-01 -0.76554696256E-01  0.77478467463E-01  0.51100000000E-03 0. -1.
</event>
<event>
 8    1  0.1123361E+005  0.1043930E+01  0.7957747E-01            NaN
         13   -1    0    0    0    0  0.00000000000E+00  0.00000000000E+00  0.74505805969E-08  0.10566000000E+00  0.10566000000E+00 0.  1.
     999900   -1    0    0    0    0 -0.00000000000E+00 -0.00000000000E+00 -0.74505805969E-08  0.93827000000E+00  0.93827000000E+00 0. -1.
     999902    2    1    2    0    0 -0.17389896493E-01  0.94167061300E-02 -0.13891799530E-01  0.10197625643E+01  0.10194761511E+01 0.  0.
     999903    2    3    3    0    0  0.23499747881E-03  0.83094917451E-02 -0.12914047998E+00  0.13207223476E+00  0.26395240990E-01 0.  0.
         14    1    1    2    0    0  0.17389896493E-01 -0.94167061300E-02  0.13891799530E-01  0.24167435705E-01  0.00000000000E+00 0.  1.
     999901    1    3    3    0    0 -0.17624893972E-01  0.11072143850E-02  0.11524868045E+00  0.88769032954E+00  0.88000000000E+00 0.  1.
        -11    1    4    4    0    0  0.11667244547E-01 -0.18949217917E-02 -0.44037966531E-01  0.45599549790E-01  0.51100000000E-03 0.  1.
         11    1    4    4    0    0 -0.11432247069E-01  0.10204413537E-01 -0.85102513450E-01  0.86472684966E-01  0.51100000000E-03 0. -1.
</event>
<event>
 8    1  0.1123361E+005  0.1043930E+01  0.7957747E-01            NaN
         13   -1    0    0    0    0  0.00000000000E+00  0.00000000000E+00  0.74505805969E-08  0.10566000000E+00  0.10566000000E+00 0.  1.
     999900   -1    0    0    0    0 -0.00000000000E+00 -0.00000000000E+00 -0.74505805969E-08  0.93827000000E+00  0.93827000000E+00 0. -1.
     999902    2    1    2    0    0 -0.12850283558E-02  0.10986829472E-01 -0.20798003815E-01  0.10203732880E+01  0.10201013323E+01 0.  0.
     999903    2    3    3    0    0  0.88619256853E-01 -0.59376414988E-01  0.69177414760E-01  0.12844877174E+00  0.18293192927E-01 0.  0.
         14    1    1    2    0    0  0.12850283558E-02 -0.10986829472E-01  0.20798003815E-01  0.23556712046E-01  0.00000000000E+00 0.  1.
     999901    1    3    3    0    0 -0.89904285209E-01  0.70363244459E-01 -0.89975418576E-01  0.89192451621E+00  0.88000000000E+00 0.  1.
        -11    1    4    4    0    0  0.68230994449E-01 -0.53463591044E-01  0.59319892785E-01  0.10503777878E+00  0.51100000000E-03 0.  1.
         11    1    4    4    0    0  0.20388262404E-01 -0.59128239433E-02  0.98575219750E-02  0.23410992959E-01  0.51100000000E-03 0. -1.
</event>
<event>
 8    1  0.1123361E+005  0.1043930E+01  0.7957747E-01            NaN
         13   -1    0    0    0    0  0.00000000000E+00  0.00000000000E+00  0.74505805969E-08  0.10566000000E+00  0.10566000000E+00 0. -1.
     999900   -1    0    0    0    0 -0.00000000000E+00 -0.00000000000E+00 -0.74505805969E-08  0.93827000000E+00  0.93827000000E+00 0. -1.
     999902    2    1    2    0    0 -0.86101623473E-02 -0.18362401200E-01 -0.14312804829E-01  0.10191072472E+01  0.10188048941E+01 0.  0.
     999903    2    3    3    0    0 -0.82822173340E-01 -0.81749207097E-02 -0.10019014639E+00  0.13175944330E+00  0.19903359993E-01 0.  0.
         14    1    1    2    0    0  0.86101623473E-02  0.18362401200E-01  0.14312804829E-01  0.24822752780E-01  0.00000000000E+00 0. -1.
     999901    1    3    3    0    0  0.74212010992E-01 -0.10187480491E-01  0.85877341560E-01  0.88734780392E+00  0.88000000000E+00 0.  1.
        -11    1    4    4    0    0 -0.53120498612E-01  0.40099556361E-02 -0.66704039463E-01  0.85367189943E-01  0.51100000000E-03 0. -1.
         11    1    4    4    0    0 -0.29701674727E-01 -0.12184876346E-01 -0.33486106926E-01  0.46392253354E-01  0.51100000000E-03 0.  1.
</event>
<event>
 8    1  0.1123361E+005  0.1043930E+01  0.7957747E-01            NaN
         13   -1    0    0    0    0  0.00000000000E+00  0.00000000000E+00  0.74505805969E-08  0.10566000000E+00  0.10566000000E+00 0. -1.
     999900   -1    0    0    0    0 -0.00000000000E+00 -0.00000000000E+00 -0.74505805969E-08  0.93827000000E+00  0.93827000000E+00 0. -1.
     999902    2    1    2    0    0  0.14949799154E-01  0.14137000278E-01 -0.11153680370E-01  0.10205258154E+01  0.10202574107E+01 0.  0.
     999903    2    3    3    0    0 -0.33208527090E-01  0.11469983954E+00 -0.54588176101E-01  0.13242747373E+00  0.17271576890E-01 0.  0.
         14    1    1    2    0    0 -0.14949799154E-01 -0.14137000278E-01  0.11153680370E-01  0.23404184613E-01  0.00000000000E+00 0. -1.
     999901    1    3    3    0    0  0.48158326243E-01 -0.10056283926E+00  0.43434495730E-01  0.88809834165E+00  0.88000000000E+00 0.  1.
        -11    1    4    4    0    0 -0.24308875655E-01  0.54461596720E-01 -0.29915822495E-01  0.66724841772E-01  0.51100000000E-03 0.  1.
         11    1    4    4    0    0 -0.88996514353E-02  0.60238242818E-01 -0.24672353605E-01  0.65702631963E-01  0.51100000000E-03 0. -1.
</event>
<event>
 8    1  0.1123361E+005  0.1043930E+01  0.7957747E-01            NaN
         13   -1    0    0    0    0  0.00000000000E+00  0.00000000000E+00  0.74505805969E-08  0.10566000000E+00  0.10566000000E+00 0. -1.
     999900   -1    0    0    0    0 -0.00000000000E+00 -0.00000000000E+00 -0.74505805969E-08  0.93827000000E+00  0.93827000000E+00 0. -1.
     999902    2    1    2    0    0 -0.82312742708E-02 -0.19621810346E-01  0.98635335697E-02  0.10204766716E+01  0.10202071254E+01 0.  0.
     999903    2    3    3    0    0 -0.11142124495E+00  0.64173025915E-01  0.60099606922E-02  0.13048532635E+00  0.21387605849E-01 0.  0.
         14    1    1    2    0    0  0.82312742708E-02  0.19621810346E-01 -0.98635335697E-02  0.23453328375E-01  0.00000000000E+00 0.  1.
     999901    1    3    3    0    0  0.10318997068E+00 -0.83794836261E-01  0.38535728775E-02  0.88999134527E+00  0.88000000000E+00 0. -1.
        -11    1    4    4    0    0 -0.14479333593E-01  0.99219573511E-02 -0.64295964779E-02  0.18700191732E-01  0.51100000000E-03 0.  1.
         11    1    4    4    0    0 -0.96941911361E-01  0.54251068564E-01  0.12439557170E-01  0.11178513462E+00  0.51100000000E-03 0. -1.
</event>
<event>
 8    1  0.1123361E+005  0.1043930E+01  0.7957747E-01            NaN
         13   -1    0    0    0    0  0.00000000000E+00  0.00000000000E+00  0.74505805969E-08  0.10566000000E+00  0.10566000000E+00 0. -1.
     999900   -1    0    0    0    0 -0.00000000000E+00 -0.00000000000E+00 -0.74505805969E-08  0.93827000000E+00  0.93827000000E+00 0. -1.
     999902    2    1    2    0    0  0.19283611381E-01  0.28250661635E-02 -0.13367562733E-01  0.10202967522E+01  0.10200230057E+01 0.  0.
     999903    2    3    3    0    0  0.85122461957E-01 -0.93841696738E-01 -0.32618447477E-01  0.13234978655E+00  0.20010130136E-01 0.  0.
         14    1    1    2    0    0 -0.19283611381E-01 -0.28250661635E-02  0.13367562733E-01  0.23633247770E-01  0.00000000000E+00 0. -1.
     999901    1    3    3    0    0 -0.65838850576E-01  0.96666762901E-01  0.19250884744E-01  0.88794696568E+00  0.88000000000E+00 0.  1.
        -11    1    4    4    0    0  0.73401585654E-01 -0.87163547744E-01 -0.24373574636E-01  0.11653157981E+00  0.51100000000E-03 0.  1.
         11    1    4    4    0    0  0.11720876303E-01 -0.66781489938E-02 -0.82448728407E-02  0.15818206740E-01  0.51100000000E-03 0. -1.
</event>
<event>
 8    1  0.1123361E+005  0.1043930E+01  0.7957747E-01            NaN
         13   -1    0    0    0    0  0.00000000000E+00  0.00000000000E+00  0.74505805969E-08  0.10566000000E+00  0.10566000000E+00 0.  1.
     999900   -1    0    0    0    0 -0.00000000000E+00 -0.00000000000E+00 -0.74505805969E-08  0.93827000000E+00  0.93827000000E+00 0. -1.
     999902    2    1    2    0    0  0.41340935930E-02  0.78767254456E-03 -0.23576103152E-01  0.10199812255E+01  0.10197000327E+01 0.  0.
     999903    2    3    3    0    0 -0.21903572153E-01  0.60021391356E-01  0.10873519982E+00  0.12774085750E+00  0.20298992612E-01 0.  0.
         14    1    1    2    0    0 -0.41340935930E-02 -0.78767254456E-03  0.23576103152E-01  0.23948774451E-01  0.00000000000E+00 0.  1.
     999901    1    3    3    0    0  0.26037665746E-01 -0.59233718811E-01 -0.13231130297E+00  0.89224036805E+00  0.88000000000E+00 0.  1.
        -11    1    4    4    0    0 -0.10606402153E-01  0.26471717549E-01  0.68183019861E-01  0.73908273658E-01  0.51100000000E-03 0.  1.
         11    1    4    4    0    0 -0.11297170000E-01  0.33549673807E-01  0.40552179961E-01  0.53832583842E-01  0.51100000000E-03 0. -1.
</event>
<event>
 8    1  0.1123361E+005  0.1043930E+01  0.7957747E-01            NaN
         13   -1    0    0    0    0  0.00000000000E+00  0.00000000000E+00  0.74505805969E-08  0.10566000000E+00  0.10566000000E+00 0.  1.
     999900   -1    0    0    0    0 -0.00000000000E+00 -0.00000000000E+00 -0.74505805969E-08  0.93827000000E+00  0.93827000000E+00 0.  1.
     999902    2    1    2    0    0  0.13238700721E-01 -0.18103434848E-01  0.69272721649E-02  0.10204569378E+01  0.10201869325E+01 0.  0.
     999903    2    3    3    0    0 -0.89548952932E-01 -0.87471224701E-01 -0.32256926345E-01  0.13089941102E+00  0.20589229860E-01 0.  0.
         14    1    1    2    0    0 -0.13238700721E-01  0.18103434848E-01 -0.69272721649E-02  0.23473062214E-01  0.00000000000E+00 0. -1.
     999901    1    3    3    0    0  0.10278765365E+00  0.69367789853E-01  0.39184198510E-01  0.88955752677E+00  0.88000000000E+00 0.  1.
        -11    1    4    4    0    0 -0.82111180294E-01 -0.72827025259E-01 -0.32495318562E-01  0.11446496576E+00  0.51100000000E-03 0. -1.
         11    1    4    4    0    0 -0.74377726381E-02 -0.14644199441E-01  0.23839221680E-03  0.16434445258E-01  0.51100000000E-03 0.  1.
</event>
<event>
 8    1  0.1123361E+005  0.1043930E+01  0.7957747E-01            NaN
         13   -1    0    0    0    0  0.00000000000E+00  0.00000000000E+00  0.74505805969E-08  0.10566000000E+00  0.10566000000E+00 0.  1.
     999900   -1    0    0    0    0 -0.00000000000E+00 -0.00000000000E+00 -0.74505805969E-08  0.93827000000E+00  0.93827000000E+00 0. -1.
     999902    2    1    2    0    0  0.14151433433E-01 -0.18059371700E-01  0.41510355664E-04  0.10209864672E+01  0.10207286420E+01 0.  0.
     999903    2    3    3    0    0  0.10401978351E+00  0.82138960932E-02  0.79233984042E-01  0.13248320168E+00  0.19651744197E-01 0.  0.
         14    1    1    2    0    0 -0.14151433433E-01  0.18059371700E-01 -0.41510355664E-04  0.22943532804E-01  0.00000000000E+00 0.  1.
     999901    1    3    3    0    0 -0.89868350074E-01 -0.26273267793E-01 -0.79192473687E-01  0.88850326552E+00  0.88000000000E+00 0.  1.
        -11    1    4    4    0    0  0.88268254308E-01  0.13963790941E-01  0.67928434599E-01  0.11225330964E+00  0.51100000000E-03 0.  1.
         11    1    4    4    0    0  0.15751529199E-01 -0.57498948480E-02  0.11305549443E-01  0.20229892043E-01  0.51100000000E-03 0. -1.
</event>
<event>
 8    1  0.1123361E+005  0.1043930E+01  0.7957747E-01            NaN
         13   -1    0    0    0    0  0.00000000000E+00  0.00000000000E+00  0.74505805969E-08  0.10566000000E+00  0.10566000000E+00 0. -1.
     999900   -1    0    0    0    0 -0.00000000000E+00 -0.00000000000E+00 -0.74505805969E-08  0.93827000000E+00  0.93827000000E+00 0.  1.
     999902    2    1    2    0    0  0.16770049557E-01  0.10276462976E-01 -0.14269001945E-01  0.10196309327E+01  0.10193413532E+01 0.  0.
     999903    2    3    3    0    0 -0.11094737959E+00 -0.13193584687E-01 -0.60621486654E-01  0.12889464309E+00  0.21341805414E-01 0.  0.
         14    1    1    2    0    0 -0.16770049557E-01 -0.10276462976E-01  0.14269001945E-01  0.24299067265E-01  0.00000000000E+00 0. -1.
     999901    1    3    3    0    0  0.12771742915E+00  0.23470047663E-01  0.46352484709E-01  0.89073628964E+00  0.88000000000E+00 0. -1.
        -11    1    4    4    0    0 -0.29700365055E-01 -0.10975361971E-01 -0.24061774054E-01  0.39771853696E-01  0.51100000000E-03 0.  1.
         11    1    4    4    0    0 -0.81247014539E-01 -0.22182227158E-02 -0.36559712599E-01  0.89122789397E-01  0.51100000000E-03 0. -1.
</event>
<event>
 8    1  0.1123361E+005  0.1043930E+01  0.7957747E-01            NaN
         13   -1    0    0    0    0  0.00000000000E+00  0.00000000000E+00  0.74505805969E-08  0.10566000000E+00  0.10566000000E+00 0.  1.
     999900   -1    0    0    0    0 -0.00000000000E+00 -0.00000000000E+00 -0.74505805969E-08  0.93827000000E+00  0.93827000000E+00 0.  1.
     999902    2    1    2    0    0 -0.22219085974E-01  0.36170710115E-03  0.85778380011E-02  0.10201098842E+01  0.10198317400E+01 0.  0.
     999903    2    3    3    0    0  0.91679965631E-01 -0.38415454989E-02  0.88580036181E-01  0.12916038335E+00  0.20396280245E-01 0.  0.
         14    1    1    2    0    0  0.22219085974E-01 -0.36170710115E-03 -0.85778380011E-02  0.23820115834E-01  0.00000000000E+00 0.  1.
     999901    1    3    3    0    0 -0.11389905160E+00  0.42032526001E-02 -0.80002198180E-01  0.89094950081E+00  0.88000000000E+00 0.  1.
        -11    1    4    4    0    0  0.61655201316E-01  0.68857946537E-02  0.60873511896E-01  0.86917337677E-01  0.51100000000E-03 0.  1.
         11    1    4    4    0    0  0.30024764314E-01 -0.10727340153E-01  0.27706524285E-01  0.42243045674E-01  0.51100000000E-03 0. -1.
</event>
<event>
 8    1  0.1123361E+005  0.1043930E+01  0.7957747E-01            NaN
         13   -1    0    0    0    0  0.00000000000E+00  0.00000000000E+00  0.74505805969E-08  0.10566000000E+00  0.10566000000E+00 0. -1.
     999900   -1    0    0    0    0 -0.00000000000E+00 -0.00000000000E+00 -0.74505805969E-08  0.93827000000E+00  0.93827000000E+00 0. -1.
     999902    2    1    2    0    0 -0.22694851079E-01 -0.18508184686E-02 -0.16505640404E-02  0.10211000601E+01  0.10208448102E+01 0.  0.
     999903    2    3    3    0    0  0.62419438653E-02 -0.12322266474E+00  0.40252418465E-01  0.13131113955E+00  0.19989277348E-01 0.  0.
         14    1    1    2    0    0  0.22694851079E-01  0.18508184686E-02  0.16505640404E-02  0.22829939907E-01  0.00000000000E+00 0. -1.
     999901    1    3    3    0    0 -0.28936794944E-01  0.12137184628E+00 -0.41902982506E-01  0.88978892054E+00  0.88000000000E+00 0. -1.
        -11    1    4    4    0    0 -0.57674027740E-03 -0.11584279828E-01  0.10305220684E-01  0.15523751570E-01  0.51100000000E-03 0.  1.
         11    1    4    4    0    0  0.68186841427E-02 -0.11163838492E+00  0.29947197781E-01  0.11578738798E+00  0.51100000000E-03 0. -1.
</event>
<event>
 8    1  0.1123361E+005  0.1043930E+01  0.7957747E-01            NaN
         13   -1    0    0    0    0  0.00000000000E+00  0.00000000000E+00  0.74505805969E-08  0.10566000000E+00  0.10566000000E+00 0.  1.
     999900   -1    0    0    0    0 -0.00000000000E+00 -0.00000000000E+00 -0.74505805969E-08  0.93827000000E+00  0.93827000000E+00 0. -1.
     999902    2    1    2    0    0 -0.18751684316E-01  0.72144224259E-02 -0.11829859350E-01  0.10206143587E+01  0.10203480044E+01 0.  0.
     999903    2    3    3    0    0  0.62954108970E-01 -0.10897071355E+00 -0.21225787147E-01  0.12917557455E+00  0.19948904028E-01 0.  0.
         14    1    1    2    0    0  0.18751684316E-01 -0.72144224259E-02  0.11829859350E-01  0.23315641270E-01  0.00000000000E+00 0.  1.
     999901    1    3    3    0    0 -0.81705793285E-01  0.11618513598E+00  0.93959277968E-02  0.89143878418E+00  0.88000000000E+00 0. -1.
        -11    1    4    4    0    0  0.54496303323E-01 -0.89635162154E-01 -0.10305374191E-01  0.10540764312E+00  0.51100000000E-03 0.  1.
         11    1    4    4    0    0  0.84578056471E-02 -0.19335551400E-01 -0.10920412956E-01  0.23767931429E-01  0.51100000000E-03 0. -1.
</event>
<event>
 8    1  0.1123361E+005  0.1043930E+01  0.7957747E-01            NaN
         13   -1    0    0    0    0  0.00000000000E+00  0.00000000000E+00  0.74505805969E-08  0.10566000000E+00  0.10566000000E+00 0. -1.
     999900   -1    0    0    0    0 -0.00000000000E+00 -0.00000000000E+00 -0.74505805969E-08  0.93827000000E+00  0.93827000000E+00 0.  1.
     999902    2    1    2    0    0  0.11386639921E-01  0.16154726043E-01  0.13540399525E-01  0.10199722630E+01  0.10196908572E+01 0.  0.
     999903    2    3    3    0    0  0.42701457462E-01 -0.35076406846E-01  0.11823382687E+00  0.13173470442E+00  0.17917191303E-01 0.  0.
         14    1    1    2    0    0 -0.11386639921E-01 -0.16154726043E-01 -0.13540399525E-01  0.23957736986E-01  0.00000000000E+00 0.  1.
     999901    1    3    3    0    0 -0.31314817541E-01  0.51231132889E-01 -0.10469342735E+00  0.88823755860E+00  0.88000000000E+00 0. -1.
        -11    1    4    4    0    0  0.86039610494E-02 -0.10726734258E-01  0.48168916302E-01  0.50095874004E-01  0.51100000000E-03 0. -1.
         11    1    4    4    0    0  0.34097496413E-01 -0.24349672589E-01  0.70064910570E-01  0.81638830411E-01  0.51100000000E-03 0.  1.
</event>
<event>
 8    1  0.1123361E+005  0.1043930E+01  0.7957747E-01            NaN
         13   -1    0    0    0    0  0.00000000000E+00  0.00000000000E+00  0.74505805969E-08  0.10566000000E+00  0.10566000000E+00 0.  1.
     999900   -1    0    0    0    0 -0.00000000000E+00 -0.00000000000E+00 -0.74505805969E-08  0.93827000000E+00  0.93827000000E+00 0. -1.
     999902    2    1    2    0    0  0.21190589300E-01 -0.11683672170E-01  0.11676088429E-02  0.10197037213E+01  0.10194158948E+01 0.  0.
     999903    2    3    3    0    0  0.79231654853E-01  0.10180548918E+00  0.38287554567E-02  0.13051553156E+00  0.19432752031E-01 0.  0.
         14    1    1    2    0    0 -0.21190589300E-01  0.11683672170E-01 -0.11676088429E-02  0.24226278721E-01  0.00000000000E+00 0.  1.
     999901    1    3    3    0    0 -0.58041065553E-01 -0.11348916135E+00 -0.26611466137E-02  0.88918818972E+00  0.88000000000E+00 0. -1.
        -11    1    4    4    0    0  0.11041772245E-01  0.26100093434E-01 -0.23329017563E-02  0.28440097805E-01  0.51100000000E-03 0. -1.
         11    1    4    4    0    0  0.68189882607E-01  0.75705395749E-01  0.61616572130E-02  0.10207543375E+00  0.51100000000E-03 0.  1.
</event>
<event>
 8    1  0.1123361E+005  0.1043930E+01  0.7957747E-01            NaN
         13   -1    0    0    0    0  0.00000000000E+00  0.00000000000E+00  0.74505805969E-08  0.10566000000E+00  0.10566000000E+00 0. -1.
     999900   -1    0    0    0    0 -0.00000000000E+00 -0.00000000000E+00 -0.74505805969E-08  0.93827000000E+00  0.93827000000E+00 0. -1.
     999902    2    1    2    0    0 -0.19653446394E-01 -0.12219617091E-01  0.75869694969E-02  0.10195755527E+01  0.10192846357E+01 0.  0.
     999903    2    3    3    0    0 -0.49899778153E-01 -0.73699795007E-01 -0.94265623012E-01  0.13105509517E+00  0.19177660005E-01 0.  0.
         14    1    1    2    0    0  0.19653446394E-01  0.12219617091E-01 -0.75869694969E-02  0.24354447297E-01  0.00000000000E+00 0. -1.
     999901    1    3    3    0    0  0.30246331760E-01  0.61480177916E-01  0.10185259251E+00  0.88852045754E+00  0.88000000000E+00 0.  1.
        -11    1    4    4    0    0 -0.20470565800E-01 -0.22668228075E-01 -0.21129226880E-01  0.37142939811E-01  0.51100000000E-03 0.  1.
         11    1    4    4    0    0 -0.29429212353E-01 -0.51031566932E-01 -0.73136396132E-01  0.93912155355E-01  0.51100000000E-03 0. -1.
</event>
<event>
 8    1  0.1123361E+005  0.1043930E+01  0.7957747E-01            NaN
         13   -1    0    0    0    0  0.00000000000E+00  0.00000000000E+00  0.74505805969E-08  0.10566000000E+00  0.10566000000E+00 0. -1.
     999900   -1    0    0    0    0 -0.00000000000E+00 -0.00000000000E+00 -0.74505805969E-08  0.93827000000E+00  0.93827000000E+00 0.  1.
     999902    2    1    2    0    0 -0.17095916224E-01 -0.13720556720E-01  0.85551010323E-02  0.10203988763E+01  0.10201275180E+01 0.  0.
     999903    2    3    3    0    0 -0.81584402048E-01 -0.10340555160E+00 -0.54842499248E-02  0.13338181532E+00  0.20295538964E-01 0.  0.
         14    1    1    2    0    0  0.17095916224E-01  0.13720556720E-01 -0.85551010323E-02  0.23531123686E-01  0.00000000000E+00 0.  1.
     999901    1    3    3    0    0  0.64488485823E-01  0.89684994885E-01  0.14039350957E-01  0.88701706099E+00  0.88000000000E+00 0. -1.
        -11    1    4    4    0    0 -0.46687807052E-01 -0.48017048446E-01  0.46451173555E-02  0.67135880906E-01  0.51100000000E-03 0. -1.
         11    1    4    4    0    0 -0.34896594995E-01 -0.55388503159E-01 -0.10129367280E-01  0.66245934418E-01  0.51100000000E-03 0.  1.
</event>
<event>
 8    1  0.1123361E+005  0.1043930E+01  0.7957747E-01            NaN
         13   -1    0    0    0    0  0.00000000000E+00  0.00000000000E+00  0.74505805969E-08  0.10566000000E+00  0.10566000000E+00 0.  1.
     999900   -1    0    0    0    0 -0.00000000000E+00 -0.00000000000E+00 -0.74505805969E-08  0.93827000000E+00  0.93827000000E+00 0.  1.
     999902    2    1    2    0    0 -0.11401265023E-01  0.20955449829E-01  0.65529133010E-03  0.10200647716E+01  0.10197855603E+01 0.  0.
     999903    2    3    3    0    0  0.11262946315E+00 -0.57183821490E-01  0.32845415964E-02  0.12793457915E+00  0.20027054697E-01 0.  0.
         14    1    1    2    0    0  0.11401265023E-01 -0.20955449829E-01 -0.65529133010E-03  0.23865228438E-01  0.00000000000E+00 0.  1.
     999901    1    3    3    0    0 -0.12403072817E+00  0.78139271319E-01 -0.26292502663E-02  0.89213019241E+00  0.88000000000E+00 0. -1.
        -11    1    4    4    0    0  0.59278560935E-01 -0.27947875778E-01 -0.81096358831E-02  0.66038313593E-01  0.51100000000E-03 0. -1.
         11    1    4    4    0    0  0.53350902214E-01 -0.29235945712E-01  0.11394177480E-01  0.61896265559E-01  0.51100000000E-03 0.  1.
</event>
<event>
 8    1  0.1123361E+005  0.1043930E+01  0.7957747E-01            NaN
         13   -1    0    0    0    0  0.00000000000E+00  0.00000000000E+00  0.74505805969E-08  0.10566000000E+00  0.10566000000E+00 0.  1.
     999900   -1    0    0    0    0 -0.00000000000E+00 -0.00000000000E+00 -0.74505805969E-08  0.93827000000E+00  0.93827000000E+00 0. -1.
     999902    2    1    2    0    0  0.69638518232E-03 -0.21978513093E-01 -0.73126926046E-02  0.10207564059E+01  0.10204933242E+01 0.  0.
     999903    2    3    3    0    0  0.10595194887E+00 -0.33001748986E-01  0.67168511210E-01  0.13129156954E+00  0.20271566958E-01 0.  0.
         14    1    1    2    0    0 -0.69638518232E-03  0.21978513093E-01  0.73126926046E-02  0.23173594094E-01  0.00000000000E+00 0. -1.
     999901    1    3    3    0    0 -0.10525556369E+00  0.11023235893E-01 -0.74481203814E-01  0.88946483637E+00  0.88000000000E+00 0.  1.
        -11    1    4    4    0    0  0.38522924606E-01 -0.74580937449E-02  0.13854358385E-01  0.41615420817E-01  0.51100000000E-03 0.  1.
         11    1    4    4    0    0  0.67429024268E-01 -0.25543655241E-01  0.53314152824E-01  0.89676148719E-01  0.51100000000E-03 0. -1.
</event>
<event>
 8    1  0.1123361E+005  0.1043930E+01  0.7957747E-01            NaN
         13   -1    0    0    0    0  0.00000000000E+00  0.00000000000E+00  0.74505805969E-08  0.10566000000E+00  0.10566000000E+00 0. -1.
     999900   -1    0    0    0    0 -0.00000000000E+00 -0.00000000000E+00 -0.74505805969E-08  0.93827000000E+00  0.93827000000E+00 0.  1.
     999902    2    1    2    0    0 -0.21157819371E-02  0.50130382579E-02  0.23569715983E-01  0.10197403618E+01  0.10194534157E+01 0.  0.
     999903    2    3    3    0    0 -0.60610729852E-01  0.54304742907E-01 -0.97178534502E-01  0.12820714811E+00  0.19254599016E-01 0.  0.
         14    1    1    2    0    0  0.21157819371E-02 -0.50130382579E-02 -0.23569715983E-01  0.24189638222E-01  0.00000000000E+00 0.  1.
     999901    1    3    3    0    0  0.58494947915E-01 -0.49291704649E-01  0.12074825048E+00  0.89153321367E+00  0.88000000000E+00 0. -1.
        -11    1    4    4    0    0 -0.21793647606E-01  0.29855005187E-01 -0.52153229381E-01  0.63925776229E-01  0.51100000000E-03 0.  1.
         11    1    4    4    0    0 -0.38817082245E-01  0.24449737720E-01 -0.45025305121E-01  0.64281371881E-01  0.51100000000E-03 0. -1.
</event>
<event>
 8    1  0.1123361E+005  0.1043930E+01  0.7957747E-01            NaN
         13   -1    0    0    0    0  0.00000000000E+00  0.00000000000E+00  0.74505805969E-08  0.10566000000E+00  0.10566000000E+00 0. -1.
     999900   -1    0    0    0    0 -0.00000000000E+00 -0.00000000000E+00 -0.74505805969E-08  0.93827000000E+00  0.93827000000E+00 0. -1.
     999902    2    1    2    0    0  0.53862109176E-02 -0.21004625329E-01 -0.20299462311E-02  0.10221509680E+01  0.10219189181E+01 0.  0.
     999903    2    3    3    0    0 -0.12047936963E+00  0.23451309511E-02  0.48487026617E-01  0.13145499291E+00  0.20214976279E-01 0.  0.
         14    1    1    2    0    0 -0.53862109176E-02  0.21004625329E-01  0.20299462311E-02  0.21779032003E-01  0.00000000000E+00 0. -1.
     999901    1    3    3    0    0  0.12586558055E+00 -0.23349756281E-01 -0.50516972848E-01  0.89069597508E+00  0.88000000000E+00 0. -1.
        -11    1    4    4    0    0 -0.69022259833E-01 -0.57858577898E-02  0.20092504664E-01  0.72121552725E-01  0.51100000000E-03 0. -1.
         11    1    4    4    0    0 -0.51457109797E-01  0.81309887409E-02  0.28394521953E-01  0.59333440188E-01  0.51100000000E-03 0.  1.
</event>
<event>
 8    1  0.1123361E+005  0.1043930E+01  0.7957747E-01            NaN
         13   -1    0    0    0    0  0.00000000000E+00  0.00000000000E+00  0.74505805969E-08  0.10566000000E+00  0.10566000000E+00 0. -1.
     999900   -1    0    0    0    0 -0.00000000000E+00 -0.00000000000E+00 -0.74505805969E-08  0.93827000000E+00  0.93827000000E+00 0.  1.
     999902    2    1    2    0    0  0.11593022153E-01  0.96699620490E-02 -0.18086372495E-01  0.10203710697E+01  0.10200990622E+01 0.  0.
     999903    2    3    3    0    0 -0.26039261538E-02  0.29457993472E-01  0.12366963100E+00  0.12869406309E+00  0.19835080825E-01 0.  0.
         14    1    1    2    0    0 -0.11593022153E-01 -0.96699620490E-02  0.18086372495E-01  0.23558930338E-01  0.00000000000E+00 0. -1.
     999901    1    3    3    0    0  0.14196948306E-01 -0.19788031423E-01 -0.14175600349E+00  0.89167700658E+00  0.88000000000E+00 0.  1.
        -11    1    4    4    0    0  0.55303974070E-03  0.15419227998E-01  0.28238074329E-01  0.32182423896E-01  0.51100000000E-03 0. -1.
         11    1    4    4    0    0 -0.31569658945E-02  0.14038765474E-01  0.95431556670E-01  0.96511639190E-01  0.51100000000E-03 0.  1.
</event>
<event>
 8    1  0.1123361E+005  0.1043930E+01  0.7957747E-01            NaN
         13   -1    0    0    0    0  0.00000000000E+00  0.00000000000E+00  0.74505805969E-08  0.10566000000E+00  0.10566000000E+00 0. -1.
     999900   -1    0    0    0    0 -0.00000000000E+00 -0.00000000000E+00 -0.74505805969E-08  0.93827000000E+00  0.93827000000E+00 0.  1.
     999902    2    1    2    0    0 -0.30991704336E-02 -0.54811232138E-02  0.22910198292E-01  0.10201702703E+01  0.10198935511E+01 0.  0.
     999903    2    3    3    0    0 -0.11444974093E+00 -0.43828020676E-01  0.46585382201E-01  0.13200927791E+00  0.15382230766E-01 0.  0.
         14    1    1    2    0    0  0.30991704336E-02  0.54811232138E-02 -0.22910198292E-01  0.23759729687E-01  0.00000000000E+00 0.  1.
     999901    1    3    3    0    0  0.11135057050E+00  0.38346897462E-01 -0.23675183909E-01  0.88816099240E+00  0.88000000000E+00 0. -1.
        -11    1    4    4    0    0 -0.79261760805E-01 -0.36716874924E-01  0.36856598378E-01  0.94811526700E-01  0.51100000000E-03 0. -1.
         11    1    4    4    0    0 -0.35187980127E-01 -0.71111457517E-02  0.97287838226E-02  0.37197751209E-01  0.51100000000E-03 0.  1.
</event>
<event>
 8    1  0.1123361E+005  0.1043930E+01  0.7957747E-01            NaN
         13   -1    0    0    0    0  0.00000000000E+00  0.00000000000E+00  0.74505805969E-08  0.10566000000E+00  0.10566000000E+00 0.  1.
     999900   -1    0    0    0    0 -0.00000000000E+00 -0.00000000000E+00 -0.74505805969E-08  0.93827000000E+00  0.93827000000E+00 0. -1.
     999902    2    1    2    0    0 -0.20715285184E-01 -0.17134686518E-02 -0.11251491492E-01  0.10202941147E+01  0.10200203063E+01 0.  0.
     999903    2    3    3    0    0  0.52487168166E-01 -0.61026278181E-01 -0.10100705058E+00  0.13072530398E+00  0.20188397199E-01 0.  0.
         14    1    1    2    0    0  0.20715285184E-01  0.17134686518E-02  0.11251491492E-01  0.23635885341E-01  0.00000000000E+00 0. -1.
     999901    1    3    3    0    0 -0.73202453350E-01  0.59312809530E-01  0.89755559091E-01  0.88956881068E+00  0.88000000000E+00 0.  1.
        -11    1    4    4    0    0  0.87416181217E-02 -0.24345844072E-01 -0.32912527703E-01  0.41864443288E-01  0.51100000000E-03 0.  1.
         11    1    4    4    0    0  0.43745550044E-01 -0.36680434110E-01 -0.68094522880E-01  0.88860860689E-01  0.51100000000E-03 0. -1.
</event>
<event>
 8    1  0.1123361E+005  0.1043930E+01  0.7957747E-01            NaN
         13   -1    0    0    0    0  0.00000000000E+00  0.00000000000E+00  0.74505805969E-08  0.10566000000E+00  0.10566000000E+00 0.  1.
     999900   -1    0    0    0    0 -0.00000000000E+00 -0.00000000000E+00 -0.74505805969E-08  0.93827000000E+00  0.93827000000E+00 0. -1.
     999902    2    1    2    0    0 -0.15004585282E-01 -0.44539043086E-02 -0.16020740569E-01  0.10215327017E+01  0.10212871397E+01 0.  0.
     999903    2    3    3    0    0 -0.44331723495E-01 -0.71398984589E-01 -0.10280774299E+00  0.13424824415E+00  0.19749489375E-01 0.  0.
         14    1    1    2    0    0  0.15004585282E-01  0.44539043086E-02  0.16020740569E-01  0.22397298307E-01  0.00000000000E+00 0.  1.
     999901    1    3    3    0    0  0.29327138214E-01  0.66945080280E-01  0.86787002419E-01  0.88728445754E+00  0.88000000000E+00 0.  1.
        -11    1    4    4    0    0 -0.31636411513E-01 -0.32576396221E-01 -0.56814542380E-01  0.72734018664E-01  0.51100000000E-03 0. -1.
         11    1    4    4    0    0 -0.12695311982E-01 -0.38822588368E-01 -0.45993200608E-01  0.61514225485E-01  0.51100000000E-03 0.  1.
</event>
<event>
 8    1  0.1123361E+005  0.1043930E+01  0.7957747E-01            NaN
         13   -1    0    0    0    0  0.00000000000E+00  0.00000000000E+00  0.74505805969E-08  0.10566000000E+00  0.10566000000E+00 0. -1.
     999900   -1    0    0    0    0 -0.00000000000E+00 -0.00000000000E+00 -0.74505805969E-08  0.93827000000E+00  0.93827000000E+00 0. -1.
     999902    2    1    2    0    0 -0.12978921982E-01 -0.19615046587E-01 -0.20246796632E-02  0.10203227597E+01  0.10200496224E+01 0.  0.
     999903    2    3    3    0    0 -0.46253131018E-01  0.58224877609E-01 -0.10548555404E+00  0.13022704610E+00  0.17389448619E-01 0.  0.
         14    1    1    2    0    0  0.12978921982E-01  0.19615046587E-01  0.20246796632E-02  0.23607240334E-01  0.00000000000E+00 0.  1.
     999901    1    3    3    0    0  0.33274209036E-01 -0.77839924196E-01  0.10346087437E+00  0.89009571357E+00  0.88000000000E+00 0.  1.
        -11    1    4    4    0    0 -0.42373475326E-01  0.49893438203E-01 -0.81487991854E-01  0.10452473642E+00  0.51100000000E-03 0.  1.
         11    1    4    4    0    0 -0.38796556915E-02  0.83314394057E-02 -0.23997562184E-01  0.25702309675E-01  0.51100000000E-03 0. -1.
</event>
<event>
 8    1  0.1123361E+005  0.1043930E+01  0.7957747E-01            NaN
         13   -1    0    0    0    0  0.00000000000E+00  0.00000000000E+00  0.74505805969E-08  0.10566000000E+00  0.10566000000E+00 0. -1.
     999900   -1    0    0    0    0 -0.00000000000E+00 -0.00000000000E+00 -0.74505805969E-08  0.93827000000E+00  0.93827000000E+00 0. -1.
     999902    2    1    2    0    0 -0.34511773036E-02 -0.17308917790E-02  0.23337826641E-01  0.10202749633E+01  0.10200007058E+01 0.  0.
     999903    2    3    3    0    0  0.85979391142E-01  0.87405983301E-01  0.41568385558E-01  0.13107556922E+00  0.20508840794E-01 0.  0.
         14    1    1    2    0    0  0.34511773036E-02  0.17308917790E-02 -0.23337826641E-01  0.23655036746E-01  0.00000000000E+00 0.  1.
     999901    1    3    3    0    0 -0.89430568445E-01 -0.89136875080E-01 -0.18230558917E-01  0.88919939403E+00  0.88000000000E+00 0. -1.
        -11    1    4    4    0    0  0.38544225077E-01  0.34232396390E-01  0.27542707707E-01  0.58449774321E-01  0.51100000000E-03 0. -1.
         11    1    4    4    0    0  0.47435166064E-01  0.53173586911E-01  0.14025677851E-01  0.72625794899E-01  0.51100000000E-03 0.  1.
</event>
<event>
 8    1  0.1123361E+005  0.1043930E+01  0.7957747E-01            NaN
         13   -1    0    0    0    0  0.00000000000E+00  0.00000000000E+00  0.74505805969E-08  0.10566000000E+00  0.10566000000E+00 0.  1.
     999900   -1    0    0    0    0 -0.00000000000E+00 -0.00000000000E+00 -0.74505805969E-08  0.93827000000E+00  0.93827000000E+00 0. -1.
     999902    2    1    2    0    0 -0.49049912944E-02 -0.57791795484E-03  0.21350888940E-01  0.10220153157E+01  0.10217803346E+01 0.  0.
     999903    2    3    3    0    0 -0.12627647833E-01 -0.11735554902E+00 -0.53606855740E-01  0.13110829586E+00  0.19593567421E-01 0.  0.
         14    1    1    2    0    0  0.49049912944E-02  0.57791795484E-03 -0.21350888940E-01  0.21914684285E-01  0.00000000000E+00 0. -1.
     999901    1    3    3    0    0  0.77226565390E-02  0.11677763107E+00  0.74957744680E-01  0.89090701986E+00  0.88000000000E+00 0.  1.
        -11    1    4    4    0    0  0.37898026111E-02 -0.23703626438E-01 -0.16037295447E-01  0.28873525528E-01  0.51100000000E-03 0.  1.
         11    1    4    4    0    0 -0.16417450444E-01 -0.93651922586E-01 -0.37569560292E-01  0.10223477033E+00  0.51100000000E-03 0. -1.
</event>
<event>
 8    1  0.1456864E+005  0.1043930E+01  0.7957747E-01            NaN
         13   -1    0    0    0    0  0.00000000000E+00  0.00000000000E+00  0.74505805969E-08  0.10566000000E+00  0.10566000000E+00 0. -1.
     999900   -1    0    0    0    0 -0.00000000000E+00 -0.00000000000E+00 -0.74505805969E-08  0.93827000000E+00  0.93827000000E+00 0. -1.
     999902    2    1    2    0    0 -0.20073618756E-01  0.73666777338E-03 -0.13121246716E-01  0.10199370851E+01  0.10196548424E+01 0.  0.
     999903    2    3    3    0    0  0.11735920590E+00 -0.29154022036E-01  0.32848210572E-01  0.12758377749E+00  0.23989062688E-01 0.  0.
         14    1    1    2    0    0  0.20073618756E-01 -0.73666777338E-03  0.13121246716E-01  0.23992914886E-01  0.00000000000E+00 0. -1.
     999901    1    3    3    0    0 -0.13743282466E+00  0.29890689809E-01 -0.45969457288E-01  0.89235330763E+00  0.88000000000E+00 0. -1.
        -11    1    4    4    0    0  0.54754108477E-01 -0.10136319796E-01  0.27011257076E-01  0.61892055257E-01  0.51100000000E-03 0.  1.
         11    1    4    4    0    0  0.62605097427E-01 -0.19017702240E-01  0.58369534955E-02  0.65691722229E-01  0.51100000000E-03 0. -1.
</event>
<event>
 8    1  0.1123361E+005  0.1043930E+01  0.7957747E-01            NaN
         13   -1    0    0    0    0  0.00000000000E+00  0.00000000000E+00  0.74505805969E-08  0.10566000000E+00  0.10566000000E+00 0. -1.
     999900   -1    0    0    0    0 -0.00000000000E+00 -0.00000000000E+00 -0.74505805969E-08  0.93827000000E+00  0.93827000000E+00 0. -1.
     999902    2    1    2    0    0  0.20630135816E-01 -0.24340069839E-02 -0.98078327886E-02  0.10209578325E+01  0.10206993560E+01 0.  0.
     999903    2    3    3    0    0 -0.10802451031E+00  0.20350542931E-01 -0.65353232656E-01  0.12957887546E+00  0.20885414065E-01 0.  0.
         14    1    1    2    0    0 -0.20630135816E-01  0.24340069839E-02  0.98078327886E-02  0.22972167460E-01  0.00000000000E+00 0. -1.
     999901    1    3    3    0    0  0.12865464613E+00 -0.22784549914E-01  0.55545399868E-01  0.89137895708E+00  0.88000000000E+00 0.  1.
        -11    1    4    4    0    0 -0.49184481636E-01  0.13657158108E-01 -0.19363301206E-01  0.54596975704E-01  0.51100000000E-03 0. -1.
         11    1    4    4    0    0 -0.58840028674E-01  0.66933848222E-02 -0.45989931450E-01  0.74981899753E-01  0.51100000000E-03 0.  1.
</event>
<event>
 8    1  0.1123361E+005  0.1043930E+01  0.7957747E-01            NaN
         13   -1    0    0    0    0  0.00000000000E+00  0.00000000000E+00  0.74505805969E-08  0.10566000000E+00  0.10566000000E+00 0.  1.
     999900   -1    0    0    0    0 -0.00000000000E+00 -0.00000000000E+00 -0.74505805969E-08  0.93827000000E+00  0.93827000000E+00 0.  1.
     999902    2    1    2    0    0 -0.35242561658E-03 -0.22268290122E-01  0.78259667986E-02  0.10203239265E+01  0.10200508165E+01 0.  0.
     999903    2    3    3    0    0 -0.86981246733E-01 -0.59245707523E-01 -0.75737261424E-01  0.13136121912E+00  0.21067652372E-01 0.  0.
         14    1    1    2    0    0  0.35242561658E-03  0.22268290122E-01 -0.78259667986E-02  0.23606073479E-01  0.00000000000E+00 0. -1.
     999901    1    3    3    0    0  0.86628821117E-01  0.36977417401E-01  0.83563228223E-01  0.88896270740E+00  0.88000000000E+00 0. -1.
        -11    1    4    4    0    0 -0.48713448279E-01 -0.36757001642E-01 -0.55829586079E-01  0.82712036703E-01  0.51100000000E-03 0.  1.
         11    1    4    4    0    0 -0.38267798454E-01 -0.22488705881E-01 -0.19907675346E-01  0.48649182413E-01  0.51100000000E-03 0. -1.
</event>
<event>
 8    1  0.1123361E+005  0.1043930E+01  0.7957747E-01            NaN
         13   -1    0    0    0    0  0.00000000000E+00  0.00000000000E+00  0.74505805969E-08  0.10566000000E+00  0.10566000000E+00 0.  1.
     999900   -1    0    0    0    0 -0.00000000000E+00 -0.00000000000E+00 -0.74505805969E-08  0.93827000000E+00  0.93827000000E+00 0.  1.
     999902    2    1    2    0    0 -0.16046608346E-01 -0.17116748151E-01  0.25189754752E-02  0.10203329251E+01  0.10200600257E+01 0.  0.
     999903    2    3    3    0    0  0.11960985801E-01  0.10917787576E+00 -0.63656762528E-01  0.12841701781E+00  0.19387452437E-01 0.  0.
         14    1    1    2    0    0  0.16046608346E-01  0.17116748151E-01 -0.25189754752E-02  0.23597074905E-01  0.00000000000E+00 0.  1.
     999901    1    3    3    0    0 -0.28007594146E-01 -0.12629462391E+00  0.66175738004E-01  0.89191590728E+00  0.88000000000E+00 0. -1.
        -11    1    4    4    0    0  0.64369163108E-03  0.51982865093E-01 -0.20537475894E-01  0.55898851860E-01  0.51100000000E-03 0.  1.
         11    1    4    4    0    0  0.11317294170E-01  0.57195010667E-01 -0.43119286635E-01  0.72518165955E-01  0.51100000000E-03 0. -1.
</event>
<event>
 8    1  0.1123361E+005  0.1043930E+01  0.7957747E-01            NaN
         13   -1    0    0    0    0  0.00000000000E+00  0.00000000000E+00  0.74505805969E-08  0.10566000000E+00  0.10566000000E+00 0. -1.
     999900   -1    0    0    0    0 -0.00000000000E+00 -0.00000000000E+00 -0.74505805969E-08  0.93827000000E+00  0.93827000000E+00 0.  1.
     999902    2    1    2    0    0  0.93965790320E-02  0.16923976240E-01 -0.14818683967E-01  0.10195515246E+01  0.10192600263E+01 0.  0.
     999903    2    3    3    0    0  0.90718747212E-01 -0.85427367567E-01 -0.30336359474E-01  0.12975947535E+00  0.19735767332E-01 0.  0.
         14    1    1    2    0    0 -0.93965790320E-02 -0.16923976240E-01  0.14818683967E-01  0.24378475420E-01  0.00000000000E+00 0. -1.
     999901    1    3    3    0    0 -0.81322168180E-01  0.10235134381E+00  0.15517675507E-01  0.88979204923E+00  0.88000000000E+00 0.  1.
        -11    1    4    4    0    0  0.46652378585E-01 -0.57171938188E-01 -0.16567568046E-01  0.75629494086E-01  0.51100000000E-03 0.  1.
         11    1    4    4    0    0  0.44066368627E-01 -0.28255429380E-01 -0.13768791428E-01  0.54129981265E-01  0.51100000000E-03 0. -1.
</event>
<event>
 8    1  0.1123361E+005  0.1043930E+01  0.7957747E-01            NaN
         13   -1    0    0    0    0  0.00000000000E+00  0.00000000000E+00  0.74505805969E-08  0.10566000000E+00  0.10566000000E+00 0. -1.
     999900   -1    0    0    0    0 -0.00000000000E+00 -0.00000000000E+00 -0.74505805969E-08  0.93827000000E+00  0.93827000000E+00 0.  1.
     999902    2    1    2    0    0  0.16095483258E-01  0.88698411565E-02  0.14642453064E-01  0.10204323385E+01  0.10201617604E+01 0.  0.
     999903    2    3    3    0    0 -0.55608346726E-01 -0.81185675097E-01 -0.78964898100E-01  0.12801216201E+00  0.21639233454E-01 0.  0.
         14    1    1    2    0    0 -0.16095483258E-01 -0.88698411565E-02 -0.14642453064E-01  0.23497661483E-01  0.00000000000E+00 0.  1.
     999901    1    3    3    0    0  0.71703829983E-01  0.90055516254E-01  0.93607351164E-01  0.89242017651E+00  0.88000000000E+00 0. -1.
        -11    1    4    4    0    0 -0.33993491883E-01 -0.60945217509E-01 -0.64597954390E-01  0.95094867684E-01  0.51100000000E-03 0.  1.
         11    1    4    4    0    0 -0.21614854843E-01 -0.20240457589E-01 -0.14366943710E-01  0.32917294328E-01  0.51100000000E-03 0. -1.
</event>
<event>
 8    1  0.1123361E+005  0.1043930E+01  0.7957747E-01            NaN
         13   -1    0    0    0    0  0.00000000000E+00  0.00000000000E+00  0.74505805969E-08  0.10566000000E+00  0.10566000000E+00 0.  1.
     999900   -1    0    0    0    0 -0.00000000000E+00 -0.00000000000E+00 -0.74505805969E-08  0.93827000000E+00  0.93827000000E+00 0.  1.
     999902    2    1    2    0    0 -0.23404807233E-01  0.14907537686E-02 -0.16463557636E-02  0.10204200482E+01  0.10201491836E+01 0.  0.
     999903    2    3    3    0    0  0.29781783478E-01  0.11272028294E+00  0.54604146489E-01  0.13004656439E+00  0.18376051900E-01 0.  0.
         14    1    1    2    0    0  0.23404807233E-01 -0.14907537686E-02  0.16463557636E-02  0.23509951844E-01  0.00000000000E+00 0.  1.
     999901    1    3    3    0    0 -0.53186590711E-01 -0.11122952917E+00 -0.56250502253E-01  0.89037348377E+00  0.88000000000E+00 0.  1.
        -11    1    4    4    0    0  0.21848863754E-01  0.83089795799E-01  0.30996469449E-01  0.91336352306E-01  0.51100000000E-03 0. -1.
         11    1    4    4    0    0  0.79329197235E-02  0.29630487137E-01  0.23607677040E-01  0.38710212084E-01  0.51100000000E-03 0.  1.
</event>
<event>
 8    1  0.1250458E+005  0.1043930E+01  0.7957747E-01            NaN
         13   -1    0    0    0    0  0.00000000000E+00  0.00000000000E+00  0.74505805969E-08  0.10566000000E+00  0.10566000000E+00 0. -1.
     999900   -1    0    0    0    0 -0.00000000000E+00 -0.00000000000E+00 -0.74505805969E-08  0.93827000000E+00  0.93827000000E+00 0. -1.
     999902    2    1    2    0    0 -0.10552201810E-01 -0.19625661287E-01  0.77683801355E-02  0.10203320494E+01  0.10200591295E+01 0.  0.
     999903    2    3    3    0    0 -0.25885276217E-01 -0.10859381148E+00  0.70411984611E-01  0.13349798592E+00  0.20030008759E-01 0.  0.
         14    1    1    2    0    0  0.10552201810E-01  0.19625661287E-01 -0.77683801355E-02  0.23597950629E-01  0.00000000000E+00 0. -1.
     999901    1    3    3    0    0  0.15333074407E-01  0.88968150192E-01 -0.62643604475E-01  0.88683406345E+00  0.88000000000E+00 0. -1.
        -11    1    4    4    0    0 -0.24254319165E-01 -0.59032581053E-01  0.40261356531E-01  0.75460953974E-01  0.51100000000E-03 0.  1.
         11    1    4    4    0    0 -0.16309570523E-02 -0.49561230425E-01  0.30150628080E-01  0.58037031943E-01  0.51100000000E-03 0. -1.
</event>
<event>
 8    1  0.1123361E+005  0.1043930E+01  0.7957747E-01            NaN
         13   -1    0    0    0    0  0.00000000000E+00  0.00000000000E+00  0.74505805969E-08  0.10566000000E+00  0.10566000000E+00 0. -1.
     999900   -1    0    0    0    0 -0.00000000000E+00 -0.00000000000E+00 -0.74505805969E-08  0.93827000000E+00  0.93827000000E+00 0.  1.
     999902    2    1    2    0    0 -0.13593531186E-01 -0.47184077448E-02  0.16026962416E-01  0.10223914071E+01  0.10221645064E+01 0.  0.
     999903    2    3    3    0    0 -0.36558290170E-02  0.10956629473E-01  0.13256905295E+00  0.13451386844E+00  0.19647243733E-01 0.  0.
         14    1    1    2    0    0  0.13593531186E-01  0.47184077448E-02 -0.16026962416E-01  0.21538592945E-01  0.00000000000E+00 0.  1.
     999901    1    3    3    0    0 -0.99377021694E-02 -0.15675037218E-01 -0.11654209054E+00  0.88787753862E+00  0.88000000000E+00 0.  1.
        -11    1    4    4    0    0 -0.22239961203E-02 -0.55851927930E-02  0.42449395956E-01  0.42876017484E-01  0.51100000000E-03 0.  1.
         11    1    4    4    0    0 -0.14318328967E-02  0.16541822266E-01  0.90119656995E-01  0.91637850953E-01  0.51100000000E-03 0. -1.
</event>
<event>
 8    1  0.1123361E+005  0.1043930E+01  0.7957747E-01            NaN
         13   -1    0    0    0    0  0.00000000000E+00  0.00000000000E+00  0.74505805969E-08  0.10566000000E+00  0.10566000000E+00 0.  1.
     999900   -1    0    0    0    0 -0.00000000000E+00 -0.00000000000E+00 -0.74505805969E-08  0.93827000000E+00  0.93827000000E+00 0. -1.
     999902    2    1    2    0    0  0.87741441346E-02  0.19248390387E-01 -0.11445592106E-01  0.10198782284E+01  0.10195945827E+01 0.  0.
     999903    2    3    3    0    0  0.80384469500E-01  0.10307107381E+00  0.13641238547E-01  0.13264453314E+00  0.17977196404E-01 0.  0.
         14    1    1    2    0    0 -0.87741441346E-02 -0.19248390387E-01  0.11445592106E-01  0.24051771586E-01  0.00000000000E+00 0.  1.
     999901    1    3    3    0    0 -0.71610325365E-01 -0.83822683421E-01 -0.25086830653E-01  0.88723369527E+00  0.88000000000E+00 0.  1.
        -11    1    4    4    0    0  0.50324550852E-01  0.49983670589E-01  0.76009370437E-02  0.71336968739E-01  0.51100000000E-03 0.  1.
         11    1    4    4    0    0  0.30059918648E-01  0.53087403219E-01  0.60403015029E-02  0.61307564402E-01  0.51100000000E-03 0. -1.
</event>
<event>
 8    1  0.1123361E+005  0.1043930E+01  0.7957747E-01            NaN
         13   -1    0    0    0    0  0.00000000000E+00  0.00000000000E+00  0.74505805969E-08  0.10566000000E+00  0.10566000000E+00 0.  1.
     999900   -1    0    0    0    0 -0.00000000000E+00 -0.00000000000E+00 -0.74505805969E-08  0.93827000000E+00  0.93827000000E+00 0.  1.
     999902    2    1    2    0    0 -0.22145968238E-01 -0.68283944636E-02  0.91744255374E-02  0.10190052941E+01  0.10187004213E+01 0.  0.
     999903    2    3    3    0    0 -0.56811405550E-02 -0.19529194671E-01  0.12741476908E+00  0.13085374188E+00  0.21783332663E-01 0.  0.
         14    1    1    2    0    0  0.22145968238E-01  0.68283944636E-02 -0.91744255374E-02  0.24924705898E-01  0.00000000000E+00 0. -1.
     999901    1    3    3    0    0 -0.16464827683E-01  0.12700800207E-01 -0.11824034354E+00  0.88815155222E+00  0.88000000000E+00 0.  1.
        -11    1    4    4    0    0  0.44431399947E-02 -0.14573076953E-01  0.41690780167E-01  0.44390295525E-01  0.51100000000E-03 0. -1.
         11    1    4    4    0    0 -0.10124280550E-01 -0.49561177184E-02  0.85723988911E-01  0.86463446353E-01  0.51100000000E-03 0.  1.
</event>
<event>
 8    1  0.1123361E+005  0.1043930E+01  0.7957747E-01            NaN
         13   -1    0    0    0    0  0.00000000000E+00  0.00000000000E+00  0.74505805969E-08  0.10566000000E+00  0.10566000000E+00 0.  1.
     999900   -1    0    0    0    0 -0.00000000000E+00 -0.00000000000E+00 -0.74505805969E-08  0.93827000000E+00  0.93827000000E+00 0. -1.
     999902    2    1    2    0    0 -0.10426001583E-01 -0.72847957985E-02 -0.19365414594E-01  0.10207612918E+01  0.10204983223E+01 0.  0.
     999903    2    3    3    0    0  0.11583989722E+00 -0.37132934966E-01 -0.43939936403E-01  0.13090855354E+00  0.20213726309E-01 0.  0.
         14    1    1    2    0    0  0.10426001583E-01  0.72847957985E-02  0.19365414594E-01  0.23168708234E-01  0.00000000000E+00 0.  1.
     999901    1    3    3    0    0 -0.12626589880E+00  0.29848139167E-01  0.24574521809E-01  0.88985273823E+00  0.88000000000E+00 0.  1.
        -11    1    4    4    0    0  0.95070966406E-01 -0.33872956661E-01 -0.28668514541E-01  0.10491906735E+00  0.51100000000E-03 0.  1.
         11    1    4    4    0    0  0.20768930812E-01 -0.32599783050E-02 -0.15271421862E-01  0.25989486188E-01  0.51100000000E-03 0. -1.
</event>
<event>
 8    1  0.1123361E+005  0.1043930E+01  0.7957747E-01            NaN
         13   -1    0    0    0    0  0.00000000000E+00  0.00000000000E+00  0.74505805969E-08  0.10566000000E+00  0.10566000000E+00 0. -1.
     999900   -1    0    0    0    0 -0.00000000000E+00 -0.00000000000E+00 -0.74505805969E-08  0.93827000000E+00  0.93827000000E+00 0.  1.
     999902    2    1    2    0    0  0.81497909200E-02 -0.15982961501E-01  0.11135465090E-01  0.10228143013E+01  0.10225963144E+01 0.  0.
     999903    2    3    3    0    0  0.12170574178E+00 -0.48523340221E-01 -0.16503003152E-01  0.13449132219E+00  0.25470855927E-01 0.  0.
         14    1    1    2    0    0 -0.81497909200E-02  0.15982961501E-01 -0.11135465090E-01  0.21115698737E-01  0.00000000000E+00 0.  1.
     999901    1    3    3    0    0 -0.11355595086E+00  0.32540378720E-01  0.27638468243E-01  0.88832297907E+00  0.88000000000E+00 0. -1.
        -11    1    4    4    0    0  0.49094498871E-01 -0.66679689039E-02 -0.34419934917E-02  0.49667293755E-01  0.51100000000E-03 0.  1.
         11    1    4    4    0    0  0.72611242913E-01 -0.41855371317E-01 -0.13061009660E-01  0.84824028434E-01  0.51100000000E-03 0. -1.
</event>
<event>
 7    1  0.1147400E+005  0.1043930E+01  0.7957747E-01            NaN
         13   -1    0    0    0    0  0.00000000000E+00  0.00000000000E+00  0.74505805969E-08  0.10566000000E+00  0.10566000000E+00 0.  1.
     999900   -1    0    0    0    0 -0.00000000000E+00 -0.00000000000E+00 -0.74505805969E-08  0.93827000000E+00  0.93827000000E+00 0.  1.
     999903    2    1    2    0    0  0.91430708582E-01 -0.13401768188E-02 -0.94454955171E-02  0.94485019826E-01  0.21836461258E-01 0.  0.
         14    1    1    2    0    0 -0.34818113567E-01  0.55923191766E-01 -0.68929181403E-03  0.65880038956E-01  0.00000000000E+00 0.  1.
     999901    1    1    2    0    0 -0.56612595015E-01 -0.54583014947E-01  0.10134787331E-01  0.88356494122E+00  0.88000000000E+00 0. -1.
        -11    1    3    3    0    0  0.55748663794E-01  0.83577461883E-02 -0.23163092153E-03  0.56374464167E-01  0.51100000000E-03 0.  1.
         11    1    3    3    0    0  0.35682044787E-01 -0.96979230071E-02 -0.92138645956E-02  0.38110555659E-01  0.51100000000E-03 0. -1.
</event>
<event>
 8    1  0.1123361E+005  0.1043930E+01  0.7957747E-01            NaN
         13   -1    0    0    0    0  0.00000000000E+00  0.00000000000E+00  0.74505805969E-08  0.10566000000E+00  0.10566000000E+00 0. -1.
     999900   -1    0    0    0    0 -0.00000000000E+00 -0.00000000000E+00 -0.74505805969E-08  0.93827000000E+00  0.93827000000E+00 0. -1.
     999902    2    1    2    0    0 -0.11592990383E-01  0.13135520641E-01  0.17140587849E-01  0.10194200208E+01  0.10191253307E+01 0.  0.
     999903    2    3    3    0    0  0.86144951060E-02 -0.11410561411E+00 -0.52372959632E-01  0.12732653796E+00  0.19360260090E-01 0.  0.
         14    1    1    2    0    0  0.11592990383E-01 -0.13135520641E-01 -0.17140587849E-01  0.24509979199E-01  0.00000000000E+00 0.  1.
     999901    1    3    3    0    0 -0.20207485489E-01  0.12724113475E+00  0.69513547481E-01  0.89209348284E+00  0.88000000000E+00 0.  1.
        -11    1    4    4    0    0 -0.52773318326E-02 -0.43535902546E-01 -0.15632697272E-01  0.46560362829E-01  0.51100000000E-03 0. -1.
         11    1    4    4    0    0  0.13891826939E-01 -0.70569711566E-01 -0.36740262360E-01  0.80766175132E-01  0.51100000000E-03 0.  1.
</event>
<event>
 7    1  0.1123361E+005  0.1043930E+01  0.7957747E-01            NaN
         13   -1    0    0    0    0  0.00000000000E+00  0.00000000000E+00  0.74505805969E-08  0.10566000000E+00  0.10566000000E+00 0.  1.
     999900   -1    0    0    0    0 -0.00000000000E+00 -0.00000000000E+00 -0.74505805969E-08  0.93827000000E+00  0.93827000000E+00 0.  1.
     999902    2    1    2    0    0 -0.10070551101E-01  0.22846683754E-02  0.21797029426E-01  0.10198105846E+01  0.10195253220E+01 0.  0.
         14    1    1    2    0    0  0.10070551101E-01 -0.22846683754E-02 -0.21797029426E-01  0.24119415434E-01  0.00000000000E+00 0. -1.
     999901    1    3    3    0    0 -0.43057327735E-01 -0.55111414678E-01 -0.86780752943E-01  0.88702993218E+00  0.88000000000E+00 0.  1.
        -11    1    3    3    0    0 -0.45172497933E-02  0.18214492760E-01  0.47609260672E-01  0.51176909978E-01  0.51100000000E-03 0.  1.
         11    1    3    3    0    0  0.37504026428E-01  0.39181590293E-01  0.60968521697E-01  0.81603742409E-01  0.51100000000E-03 0. -1.
</event>
<event>
 8    1  0.1123361E+005  0.1043930E+01  0.7957747E-01            NaN
         13   -1    0    0    0    0  0.00000000000E+00  0.00000000000E+00  0.74505805969E-08  0.10566000000E+00  0.10566000000E+00 0.  1.
     999900   -1    0    0    0    0 -0.00000000000E+00 -0.00000000000E+00 -0.74505805969E-08  0.93827000000E+00  0.93827000000E+00 0.  1.
     999902    2    1    2    0    0 -0.20816255759E-01  0.11264899583E-01  0.12973577082E-02  0.10202256206E+01  0.10199502043E+01 0.  0.
     999903    2    3    3    0    0  0.11552420212E+00  0.52708258241E-01  0.76253669325E-02  0.12874016578E+00  0.19796017327E-01 0.  0.
         14    1    1    2    0    0  0.20816255759E-01 -0.11264899583E-01 -0.12973577082E-02  0.23704379416E-01  0.00000000000E+00 0. -1.
     999901    1    3    3    0    0 -0.13634045788E+00 -0.41443358658E-01 -0.63280092244E-02  0.89148545481E+00  0.88000000000E+00 0.  1.
        -11    1    4    4    0    0  0.29697326984E-01  0.19847438676E-01 -0.46342542845E-02  0.36022069427E-01  0.51100000000E-03 0.  1.
         11    1    4    4    0    0  0.85826875133E-01  0.32860819564E-01  0.12259621217E-01  0.92718096351E-01  0.51100000000E-03 0. -1.
</event>
<event>
 8    1  0.1123361E+005  0.1043930E+01  0.7957747E-01            NaN
         13   -1    0    0    0    0  0.00000000000E+00  0.00000000000E+00  0.74505805969E-08  0.10566000000E+00  0.10566000000E+00 0. -1.
     999900   -1    0    0    0    0 -0.00000000000E+00 -0.00000000000E+00 -0.74505805969E-08  0.93827000000E+00  0.93827000000E+00 0.  1.
     999902    2    1    2    0    0  0.12276068703E-01  0.46662874046E-03 -0.20241606115E-01  0.10202521153E+01  0.10199773216E+01 0.  0.
     999903    2    3    3    0    0 -0.21706086948E-01  0.12070906624E+00  0.37073432279E-01  0.12957931102E+00  0.19352663428E-01 0.  0.
         14    1    1    2    0    0 -0.12276068703E-01 -0.46662874046E-03  0.20241606115E-01  0.23677884688E-01  0.00000000000E+00 0. -1.
     999901    1    3    3    0    0  0.33982155651E-01 -0.12024243749E+00 -0.57315038395E-01  0.89067280429E+00  0.88000000000E+00 0. -1.
        -11    1    4    4    0    0 -0.17338892059E-01  0.44524453576E-01  0.12207565504E-01  0.49318859684E-01  0.51100000000E-03 0. -1.
         11    1    4    4    0    0 -0.43671948895E-02  0.76184612659E-01  0.24865866775E-01  0.80260451336E-01  0.51100000000E-03 0.  1.
</event>
<event>
 8    1  0.1123361E+005  0.1043930E+01  0.7957747E-01            NaN
         13   -1    0    0    0    0  0.00000000000E+00  0.00000000000E+00  0.74505805969E-08  0.10566000000E+00  0.10566000000E+00 0. -1.
     999900   -1    0    0    0    0 -0.00000000000E+00 -0.00000000000E+00 -0.74505805969E-08  0.93827000000E+00  0.93827000000E+00 0.  1.
     999902    2    1    2    0    0 -0.18679148261E-01 -0.99900796105E-02 -0.16437467192E-01  0.10171176409E+01  0.10167641776E+01 0.  0.
     999903    2    3    3    0    0 -0.43078466655E-01  0.28134962814E-01  0.11361027127E+00  0.12640934982E+00  0.20608240169E-01 0.  0.
         14    1    1    2    0    0  0.18679148261E-01  0.99900796105E-02  0.16437467192E-01  0.26812359055E-01  0.00000000000E+00 0.  1.
     999901    1    3    3    0    0  0.24399318393E-01 -0.38125042424E-01 -0.13004773846E+00  0.89070829112E+00  0.88000000000E+00 0.  1.
        -11    1    4    4    0    0 -0.43107489415E-01  0.21104824048E-01  0.10345366472E+00  0.11404644276E+00  0.51100000000E-03 0.  1.
         11    1    4    4    0    0  0.29022760106E-04  0.70301387658E-02  0.10156606549E-01  0.12362907060E-01  0.51100000000E-03 0. -1.
</event>
<event>
 8    1  0.1123361E+005  0.1043930E+01  0.7957747E-01            NaN
         13   -1    0    0    0    0  0.00000000000E+00  0.00000000000E+00  0.74505805969E-08  0.10566000000E+00  0.10566000000E+00 0.  1.
     999900   -1    0    0    0    0 -0.00000000000E+00 -0.00000000000E+00 -0.74505805969E-08  0.93827000000E+00  0.93827000000E+00 0.  1.
     999902    2    1    2    0    0 -0.13952360984E-01 -0.14806219619E-01 -0.12176591290E-01  0.10202200466E+01  0.10199444992E+01 0.  0.
     999903    2    3    3    0    0  0.92863119983E-01  0.26916622098E-01 -0.84394541304E-01  0.12984609434E+00  0.19735906761E-01 0.  0.
         14    1    1    2    0    0  0.13952360984E-01  0.14806219619E-01  0.12176591290E-01  0.23709953434E-01  0.00000000000E+00 0. -1.
     999901    1    3    3    0    0 -0.10681548097E+00 -0.41722841716E-01  0.72217950014E-01  0.89037395222E+00  0.88000000000E+00 0.  1.
        -11    1    4    4    0    0  0.14192831783E-01 -0.51048830367E-03 -0.59303372621E-02  0.15398931566E-01  0.51100000000E-03 0.  1.
         11    1    4    4    0    0  0.78670288200E-01  0.27427110401E-01 -0.78464204042E-01  0.11444716278E+00  0.51100000000E-03 0. -1.
</event>
<event>
 8    1  0.1123361E+005  0.1043930E+01  0.7957747E-01            NaN
         13   -1    0    0    0    0  0.00000000000E+00  0.00000000000E+00  0.74505805969E-08  0.10566000000E+00  0.10566000000E+00 0.  1.
     999900   -1    0    0    0    0 -0.00000000000E+00 -0.00000000000E+00 -0.74505805969E-08  0.93827000000E+00  0.93827000000E+00 0.  1.
     999902    2    1    2    0    0  0.36920204964E-02 -0.20546789246E-01  0.22699170895E-02  0.10229310932E+01  0.10227155359E+01 0.  0.
     999903    2    3    3    0    0  0.12259168011E-02  0.12695155195E+00 -0.21825996800E-01  0.13032678254E+00  0.19760989243E-01 0.  0.
         14    1    1    2    0    0 -0.36920204964E-02  0.20546789246E-01 -0.22699170895E-02  0.20998906811E-01  0.00000000000E+00 0. -1.
     999901    1    3    3    0    0  0.24661036953E-02 -0.14749834120E+00  0.24095913890E-01  0.89260431065E+00  0.88000000000E+00 0. -1.
        -11    1    4    4    0    0 -0.49324842248E-03  0.93099137128E-01 -0.24649043194E-01  0.96309548225E-01  0.51100000000E-03 0.  1.
         11    1    4    4    0    0  0.17191652236E-02  0.33852414824E-01  0.28230463935E-02  0.34017234314E-01  0.51100000000E-03 0. -1.
</event>
<event>
 8    1  0.1123361E+005  0.1043930E+01  0.7957747E-01            NaN
         13   -1    0    0    0    0  0.00000000000E+00  0.00000000000E+00  0.74505805969E-08  0.10566000000E+00  0.10566000000E+00 0.  1.
     999900   -1    0    0    0    0 -0.00000000000E+00 -0.00000000000E+00 -0.74505805969E-08  0.93827000000E+00  0.93827000000E+00 0.  1.
     999902    2    1    2    0    0 -0.36597039168E-03 -0.23507839281E-01  0.13847056418E-02  0.10203785701E+01  0.10201067378E+01 0.  0.
     999903    2    3    3    0    0 -0.10910376022E+00 -0.57307153186E-01 -0.42731865833E-01  0.13194592072E+00  0.19899078786E-01 0.  0.
         14    1    1    2    0    0  0.36597039168E-03  0.23507839281E-01 -0.13847056418E-02  0.23551429929E-01  0.00000000000E+00 0.  1.
     999901    1    3    3    0    0  0.10873778983E+00  0.33799313905E-01  0.44116571475E-01  0.88843264935E+00  0.88000000000E+00 0.  1.
        -11    1    4    4    0    0 -0.45775321810E-01 -0.30597260299E-01 -0.10598421772E-01  0.56072810610E-01  0.51100000000E-03 0. -1.
         11    1    4    4    0    0 -0.63328438409E-01 -0.26709892887E-01 -0.32133444061E-01  0.75873110109E-01  0.51100000000E-03 0.  1.
</event>
<event>
 8    1  0.1123361E+005  0.1043930E+01  0.7957747E-01            NaN
         13   -1    0    0    0    0  0.00000000000E+00  0.00000000000E+00  0.74505805969E-08  0.10566000000E+00  0.10566000000E+00 0.  1.
     999900   -1    0    0    0    0 -0.00000000000E+00 -0.00000000000E+00 -0.74505805969E-08  0.93827000000E+00  0.93827000000E+00 0. -1.
     999902    2    1    2    0    0 -0.49940066148E-02 -0.92143888791E-02  0.20816888491E-01  0.10206236079E+01  0.10203574673E+01 0.  0.
     999903    2    3    3    0    0 -0.56619841336E-01 -0.93448864774E-01 -0.69057395691E-01  0.13054604913E+00  0.18298914805E-01 0.  0.
         14    1    1    2    0    0  0.49940066148E-02  0.92143888791E-02 -0.20816888491E-01  0.23306392061E-01  0.00000000000E+00 0. -1.
     999901    1    3    3    0    0  0.51625834721E-01  0.84234475895E-01  0.89874284182E-01  0.89007755881E+00  0.88000000000E+00 0.  1.
        -11    1    4    4    0    0 -0.41488072038E-01 -0.58203288241E-01 -0.36635839196E-01  0.80320163833E-01  0.51100000000E-03 0. -1.
         11    1    4    4    0    0 -0.15131769298E-01 -0.35245576533E-01 -0.32421556494E-01  0.50225885296E-01  0.51100000000E-03 0.  1.
</event>
<event>
 8    1  0.1123361E+005  0.1043930E+01  0.7957747E-01            NaN
         13   -1    0    0    0    0  0.00000000000E+00  0.00000000000E+00  0.74505805969E-08  0.10566000000E+00  0.10566000000E+00 0. -1.
     999900   -1    0    0    0    0 -0.00000000000E+00 -0.00000000000E+00 -0.74505805969E-08  0.93827000000E+00  0.93827000000E+00 0.  1.
     999902    2    1    2    0    0  0.20738955591E-01 -0.81785992145E-03  0.14664462788E-01  0.10185170182E+01  0.10181999297E+01 0.  0.
     999903    2    3    3    0    0  0.57287272808E-01  0.11070239787E-01  0.11663920048E+00  0.13179499102E+00  0.18995650396E-01 0.  0.
         14    1    1    2    0    0 -0.20738955591E-01  0.81785992145E-03 -0.14664462788E-01  0.25412981775E-01  0.00000000000E+00 0. -1.
     999901    1    3    3    0    0 -0.36548317217E-01 -0.11888099708E-01 -0.10197473769E+00  0.88672202721E+00  0.88000000000E+00 0.  1.
        -11    1    4    4    0    0  0.49677152692E-01  0.33190910298E-02  0.87233114783E-01  0.10044258709E+00  0.51100000000E-03 0. -1.
         11    1    4    4    0    0  0.76101201152E-02  0.77511487572E-02  0.29406085697E-01  0.31352403931E-01  0.51100000000E-03 0.  1.
</event>
<event>
 8    1  0.1123361E+005  0.1043930E+01  0.7957747E-01            NaN
         13   -1    0    0    0    0  0.00000000000E+00  0.00000000000E+00  0.74505805969E-08  0.10566000000E+00  0.10566000000E+00 0. -1.
     999900   -1    0    0    0    0 -0.00000000000E+00 -0.00000000000E+00 -0.74505805969E-08  0.93827000000E+00  0.93827000000E+00 0. -1.
     999902    2    1    2    0    0  0.11937914433E-01 -0.12515408108E-01 -0.14602667777E-01  0.10212940298E+01  0.10210431471E+01 0.  0.
     999903    2    3    3    0    0  0.94283059546E-01  0.52456225493E-01  0.71314471385E-01  0.13090996047E+00  0.20266055642E-01 0.  0.
         14    1    1    2    0    0 -0.11937914433E-01  0.12515408108E-01  0.14602667777E-01  0.22635970209E-01  0.00000000000E+00 0. -1.
     999901    1    3    3    0    0 -0.82345145113E-01 -0.64971633601E-01 -0.85917139162E-01  0.89038406932E+00  0.88000000000E+00 0. -1.
        -11    1    4    4    0    0  0.28862179585E-01  0.23131210659E-01  0.33244433290E-01  0.49734613528E-01  0.51100000000E-03 0. -1.
         11    1    4    4    0    0  0.65420879961E-01  0.29325014834E-01  0.38070038096E-01  0.81175346944E-01  0.51100000000E-03 0.  1.
</event>
<event>
 8    1  0.1123361E+005  0.1043930E+01  0.7957747E-01            NaN
         13   -1    0    0    0    0  0.00000000000E+00  0.00000000000E+00  0.74505805969E-08  0.10566000000E+00  0.10566000000E+00 0.  1.
     999900   -1    0    0    0    0 -0.00000000000E+00 -0.00000000000E+00 -0.74505805969E-08  0.93827000000E+00  0.93827000000E+00 0. -1.
     999902    2    1    2    0    0  0.21742957804E-01  0.83909894042E-02 -0.96384701105E-03  0.10206041792E+01  0.10203375895E+01 0.  0.
     999903    2    3    3    0    0  0.12728979437E+00 -0.20931417052E-01  0.28018710615E-01  0.13333875839E+00  0.18797882206E-01 0.  0.
         14    1    1    2    0    0 -0.21742957804E-01 -0.83909894042E-02  0.96384701105E-03  0.23325820850E-01  0.00000000000E+00 0. -1.
     999901    1    3    3    0    0 -0.10554683656E+00  0.29322406456E-01 -0.28982557626E-01  0.88726542076E+00  0.88000000000E+00 0.  1.
        -11    1    4    4    0    0  0.88365022947E-01 -0.22214180757E-01  0.15483859284E-01  0.92422173348E-01  0.51100000000E-03 0.  1.
         11    1    4    4    0    0  0.38924771418E-01  0.12827637047E-02  0.12534851330E-01  0.40916585043E-01  0.51100000000E-03 0. -1.
</event>
<event>
 8    1  0.1123361E+005  0.1043930E+01  0.7957747E-01            NaN
         13   -1    0    0    0    0  0.00000000000E+00  0.00000000000E+00  0.74505805969E-08  0.10566000000E+00  0.10566000000E+00 0.  1.
     999900   -1    0    0    0    0 -0.00000000000E+00 -0.00000000000E+00 -0.74505805969E-08  0.93827000000E+00  0.93827000000E+00 0. -1.
     999902    2    1    2    0    0  0.15972558563E-01 -0.15458458062E-01 -0.92718623947E-02  0.10198456901E+01  0.10195612672E+01 0.  0.
     999903    2    3    3    0    0 -0.75217882005E-01  0.99363117523E-01 -0.18691557974E-01  0.12766385808E+00  0.20443273269E-01 0.  0.
         14    1    1    2    0    0 -0.15972558563E-01  0.15458458062E-01  0.92718623947E-02  0.24084309933E-01  0.00000000000E+00 0.  1.
     999901    1    3    3    0    0  0.91190440568E-01 -0.11482157558E+00  0.94196955789E-02  0.89218183199E+00  0.88000000000E+00 0. -1.
        -11    1    4    4    0    0 -0.55667483489E-01  0.78889112266E-01 -0.63051580600E-02  0.96759376245E-01  0.51100000000E-03 0. -1.
         11    1    4    4    0    0 -0.19550398515E-01  0.20474005258E-01 -0.12386399914E-01  0.30904481831E-01  0.51100000000E-03 0.  1.
</event>
<event>
 8    1  0.1123361E+005  0.1043930E+01  0.7957747E-01            NaN
         13   -1    0    0    0    0  0.00000000000E+00  0.00000000000E+00  0.74505805969E-08  0.10566000000E+00  0.10566000000E+00 0.  1.
     999900   -1    0    0    0    0 -0.00000000000E+00 -0.00000000000E+00 -0.74505805969E-08  0.93827000000E+00  0.93827000000E+00 0. -1.
     999902    2    1    2    0    0 -0.20392178554E-01  0.68772612327E-02  0.95512725819E-02  0.10203850541E+01  0.10201133732E+01 0.  0.
     999903    2    3    3    0    0 -0.11673795234E+00 -0.39484243273E-01 -0.43697226560E-01  0.13231563123E+00  0.20278650714E-01 0.  0.
         14    1    1    2    0    0  0.20392178554E-01 -0.68772612327E-02 -0.95512725819E-02  0.23544945874E-01  0.00000000000E+00 0. -1.
     999901    1    3    3    0    0  0.96345773786E-01  0.46361504505E-01  0.53248499142E-01  0.88806942290E+00  0.88000000000E+00 0.  1.
        -11    1    4    4    0    0 -0.85227657998E-01 -0.32973178616E-01 -0.40564066077E-01  0.99983442497E-01  0.51100000000E-03 0. -1.
         11    1    4    4    0    0 -0.31510294343E-01 -0.65110646562E-02 -0.31331604826E-02  0.32332188731E-01  0.51100000000E-03 0.  1.
</event>
<event>
 8    1  0.1123361E+005  0.1043930E+01  0.7957747E-01            NaN
         13   -1    0    0    0    0  0.00000000000E+00  0.00000000000E+00  0.74505805969E-08  0.10566000000E+00  0.10566000000E+00 0.  1.
     999900   -1    0    0    0    0 -0.00000000000E+00 -0.00000000000E+00 -0.74505805969E-08  0.93827000000E+00  0.93827000000E+00 0. -1.
     999902    2    1    2    0    0 -0.15911871656E-01  0.25935776705E-02  0.17768380630E-01  0.10199377168E+01  0.10196554891E+01 0.  0.
     999903    2    3    3    0    0  0.10547337918E-01 -0.11716441457E+00  0.53210849643E-01  0.13072557386E+00  0.20470338624E-01 0.  0.
         14    1    1    2    0    0  0.15911871656E-01 -0.25935776705E-02 -0.17768380630E-01  0.23992283238E-01  0.00000000000E+00 0. -1.
     999901    1    3    3    0    0 -0.26459209574E-01  0.11975799224E+00 -0.35442469012E-01  0.88921214290E+00  0.88000000000E+00 0.  1.
        -11    1    4    4    0    0  0.12531685089E-01 -0.92270290622E-01  0.33696285339E-01  0.99028028503E-01  0.51100000000E-03 0. -1.
         11    1    4    4    0    0 -0.19843471706E-02 -0.24894123945E-01  0.19514564304E-01  0.31697545357E-01  0.51100000000E-03 0.  1.
</event>
<event>
 8    1  0.1123361E+005  0.1043930E+01  0.7957747E-01            NaN
         13   -1    0    0    0    0  0.00000000000E+00  0.00000000000E+00  0.74505805969E-08  0.10566000000E+00  0.10566000000E+00 0. -1.
     999900   -1    0    0    0    0 -0.00000000000E+00 -0.00000000000E+00 -0.74505805969E-08  0.93827000000E+00  0.93827000000E+00 0. -1.
     999902    2    1    2    0    0 -0.60715176876E-02 -0.21129713979E-01 -0.71422765995E-02  0.10208141990E+01  0.10205524429E+01 0.  0.
     999903    2    3    3    0    0  0.95999970344E-01 -0.36841206477E-01 -0.79527606588E-01  0.13182315539E+00  0.21896010724E-01 0.  0.
         14    1    1    2    0    0  0.60715176876E-02  0.21129713979E-01  0.71422765995E-02  0.23115800979E-01  0.00000000000E+00 0. -1.
     999901    1    3    3    0    0 -0.10207148803E+00  0.15711492499E-01  0.72385329989E-01  0.88899104363E+00  0.88000000000E+00 0.  1.
        -11    1    4    4    0    0  0.15500171920E-01 -0.14424825944E-01 -0.20807211234E-01  0.29690606148E-01  0.51100000000E-03 0.  1.
         11    1    4    4    0    0  0.80499798424E-01 -0.22416380534E-01 -0.58720395354E-01  0.10213254924E+00  0.51100000000E-03 0. -1.
</event>
<event>
 8    1  0.1123361E+005  0.1043930E+01  0.7957747E-01            NaN
         13   -1    0    0    0    0  0.00000000000E+00  0.00000000000E+00  0.74505805969E-08  0.10566000000E+00  0.10566000000E+00 0.  1.
     999900   -1    0    0    0    0 -0.00000000000E+00 -0.00000000000E+00 -0.74505805969E-08  0.93827000000E+00  0.93827000000E+00 0. -1.
     999902    2    1    2    0    0 -0.11243402382E-02  0.21101919831E-01 -0.86590953144E-02  0.10210928572E+01  0.10208374444E+01 0.  0.
     999903    2    3    3    0    0 -0.71518018991E-01  0.10084779981E+00 -0.47145758004E-01  0.13385224797E+00  0.20213758264E-01 0.  0.
         14    1    1    2    0    0  0.11243402382E-02 -0.21101919831E-01  0.86590953144E-02  0.22837142842E-01  0.00000000000E+00 0. -1.
     999901    1    3    3    0    0  0.70393678753E-01 -0.79745879977E-01  0.38486662689E-01  0.88724060918E+00  0.88000000000E+00 0. -1.
        -11    1    4    4    0    0 -0.22124907497E-01  0.33019665978E-01 -0.25398589463E-01  0.47171594638E-01  0.51100000000E-03 0. -1.
         11    1    4    4    0    0 -0.49393111494E-01  0.67828133830E-01 -0.21747168541E-01  0.86680653335E-01  0.51100000000E-03 0.  1.
</event>
<event>
 8    1  0.1123361E+005  0.1043930E+01  0.7957747E-01            NaN
         13   -1    0    0    0    0  0.00000000000E+00  0.00000000000E+00  0.74505805969E-08  0.10566000000E+00  0.10566000000E+00 0. -1.
     999900   -1    0    0    0    0 -0.00000000000E+00 -0.00000000000E+00 -0.74505805969E-08  0.93827000000E+00  0.93827000000E+00 0.  1.
     999902    2    1    2    0    0  0.17426967782E-01 -0.14776623333E-01  0.31080990836E-02  0.10208712038E+01  0.10206107518E+01 0.  0.
     999903    2    3    3    0    0  0.10011923226E+00  0.82872604975E-01  0.92351183276E-02  0.13159569936E+00  0.18450240034E-01 0.  0.
         14    1    1    2    0    0 -0.17426967782E-01  0.14776623333E-01 -0.31080990836E-02  0.23058796220E-01  0.00000000000E+00 0. -1.
     999901    1    3    3    0    0 -0.82692264474E-01 -0.97649228308E-01 -0.61270192440E-02  0.88927550442E+00  0.88000000000E+00 0.  1.
        -11    1    4    4    0    0  0.39048604055E-01  0.29780919275E-01  0.12248829985E-01  0.50616119848E-01  0.51100000000E-03 0. -1.
         11    1    4    4    0    0  0.61070628201E-01  0.53091685700E-01 -0.30137116574E-02  0.80979579514E-01  0.51100000000E-03 0.  1.
</event>
<event>
 8    1  0.1123361E+005  0.1043930E+01  0.7957747E-01            NaN
         13   -1    0    0    0    0  0.00000000000E+00  0.00000000000E+00  0.74505805969E-08  0.10566000000E+00  0.10566000000E+00 0. -1.
     999900   -1    0    0    0    0 -0.00000000000E+00 -0.00000000000E+00 -0.74505805969E-08  0.93827000000E+00  0.93827000000E+00 0. -1.
     999902    2    1    2    0    0  0.76466791660E-02 -0.23316765107E-01  0.30052101350E-02  0.10192080558E+01  0.10189081835E+01 0.  0.
     999903    2    3    3    0    0  0.62646039190E-01 -0.27488040566E-01 -0.10936966415E+00  0.13034898850E+00  0.18681990396E-01 0.  0.
         14    1    1    2    0    0 -0.76466791660E-02  0.23316765107E-01 -0.30052101350E-02  0.24721944205E-01  0.00000000000E+00 0.  1.
     999901    1    3    3    0    0 -0.54999360024E-01  0.41712754592E-02  0.11237487429E+00  0.88885906730E+00  0.88000000000E+00 0.  1.
        -11    1    4    4    0    0  0.44904539591E-01 -0.20453923704E-01 -0.61751915584E-01  0.79046447549E-01  0.51100000000E-03 0.  1.
         11    1    4    4    0    0  0.17741499599E-01 -0.70341168616E-02 -0.47617748571E-01  0.51302540951E-01  0.51100000000E-03 0. -1.
</event>
<event>
 8    1  0.1123361E+005  0.1043930E+01  0.7957747E-01            NaN
         13   -1    0    0    0    0  0.00000000000E+00  0.00000000000E+00  0.74505805969E-08  0.10566000000E+00  0.10566000000E+00 0. -1.
     999900   -1    0    0    0    0 -0.00000000000E+00 -0.00000000000E+00 -0.74505805969E-08  0.93827000000E+00  0.93827000000E+00 0.  1.
     999902    2    1    2    0    0  0.26339430448E-03  0.21909452561E-01 -0.87028436714E-02  0.10203538897E+01  0.10200814807E+01 0.  0.
     999903    2    3    3    0    0  0.53836420051E-01  0.10254292442E+00 -0.63136101788E-01  0.13337316532E+00  0.19718580205E-01 0.  0.
         14    1    1    2    0    0 -0.26339430448E-03 -0.21909452561E-01  0.87028436714E-02  0.23576110283E-01  0.00000000000E+00 0.  1.
     999901    1    3    3    0    0 -0.53573025746E-01 -0.80633471856E-01  0.54433258117E-01  0.88698072440E+00  0.88000000000E+00 0. -1.
        -11    1    4    4    0    0  0.40921915218E-01  0.91620391407E-01 -0.51097640693E-01  0.11260608009E+00  0.51100000000E-03 0.  1.
         11    1    4    4    0    0  0.12914504832E-01  0.10922533010E-01 -0.12038461095E-01  0.20767085230E-01  0.51100000000E-03 0. -1.
</event>
<event>
 8    1  0.1123361E+005  0.1043930E+01  0.7957747E-01            NaN
         13   -1    0    0    0    0  0.00000000000E+00  0.00000000000E+00  0.74505805969E-08  0.10566000000E+00  0.10566000000E+00 0.  1.
     999900   -1    0    0    0    0 -0.00000000000E+00 -0.00000000000E+00 -0.74505805969E-08  0.93827000000E+00  0.93827000000E+00 0.  1.
     999902    2    1    2    0    0 -0.21206731052E-01 -0.46611455897E-02 -0.85295133229E-02  0.10206018128E+01  0.10203351685E+01 0.  0.
     999903    2    3    3    0    0  0.82299970606E-01  0.43268102729E-01 -0.88136357091E-01  0.12967639522E+00  0.20063303823E-01 0.  0.
         14    1    1    2    0    0  0.21206731052E-01  0.46611455897E-02  0.85295133229E-02  0.23328187192E-01  0.00000000000E+00 0.  1.
     999901    1    3    3    0    0 -0.10350670166E+00 -0.47929248318E-01  0.79606843768E-01  0.89092541759E+00  0.88000000000E+00 0. -1.
        -11    1    4    4    0    0  0.16729211678E-01  0.29412704747E-02 -0.88229160249E-02  0.19147390516E-01  0.51100000000E-03 0. -1.
         11    1    4    4    0    0  0.65570758927E-01  0.40326832254E-01 -0.79313441066E-01  0.11052900470E+00  0.51100000000E-03 0.  1.
</event>
<event>
 8    1  0.1123361E+005  0.1043930E+01  0.7957747E-01            NaN
         13   -1    0    0    0    0  0.00000000000E+00  0.00000000000E+00  0.74505805969E-08  0.10566000000E+00  0.10566000000E+00 0. -1.
     999900   -1    0    0    0    0 -0.00000000000E+00 -0.00000000000E+00 -0.74505805969E-08  0.93827000000E+00  0.93827000000E+00 0. -1.
     999902    2    1    2    0    0 -0.32226472206E-02  0.18113393431E-01 -0.14828374787E-01  0.10203003327E+01  0.10200266701E+01 0.  0.
     999903    2    3    3    0    0 -0.29214058093E-01  0.12572313504E-01 -0.12736629748E+00  0.13273566407E+00  0.19622908184E-01 0.  0.
         14    1    1    2    0    0  0.32226472206E-02 -0.18113393431E-01  0.14828374787E-01  0.23629667275E-01  0.00000000000E+00 0. -1.
     999901    1    3    3    0    0  0.25991410873E-01  0.55410799270E-02  0.11253792269E+00  0.88756466866E+00  0.88000000000E+00 0.  1.
        -11    1    4    4    0    0 -0.15945194843E-01  0.50001054015E-02 -0.10001467872E+00  0.10140240320E+00  0.51100000000E-03 0. -1.
         11    1    4    4    0    0 -0.13268863251E-01  0.75722081025E-02 -0.27351618752E-01  0.31333260872E-01  0.51100000000E-03 0.  1.
</event>
<event>
 8    1  0.1123361E+005  0.1043930E+01  0.7957747E-01            NaN
         13   -1    0    0    0    0  0.00000000000E+00  0.00000000000E+00  0.74505805969E-08  0.10566000000E+00  0.10566000000E+00 0.  1.
     999900   -1    0    0    0    0 -0.00000000000E+00 -0.00000000000E+00 -0.74505805969E-08  0.93827000000E+00  0.93827000000E+00 0. -1.
     999902    2    1    2    0    0 -0.50848088562E-02  0.19423761109E-01 -0.28634436529E-02  0.10236485532E+01  0.10234476163E+01 0.  0.
     999903    2    3    3    0    0  0.12613404484E+00  0.23790347560E-01 -0.30517570823E-01  0.13347879103E+00  0.20235800500E-01 0.  0.
         14    1    1    2    0    0  0.50848088562E-02 -0.19423761109E-01  0.28634436529E-02  0.20281446849E-01  0.00000000000E+00 0. -1.
     999901    1    3    3    0    0 -0.13121885369E+00 -0.43665864506E-02  0.27654127170E-01  0.89016976212E+00  0.88000000000E+00 0.  1.
        -11    1    4    4    0    0  0.10162291922E+00  0.11845610598E-01 -0.28096842644E-01  0.10610009373E+00  0.51100000000E-03 0.  1.
         11    1    4    4    0    0  0.24511125619E-01  0.11944736962E-01 -0.24207281785E-02  0.27378697305E-01  0.51100000000E-03 0. -1.
</event>
<event>
 8    1  0.1123361E+005  0.1043930E+01  0.7957747E-01            NaN
         13   -1    0    0    0    0  0.00000000000E+00  0.00000000000E+00  0.74505805969E-08  0.10566000000E+00  0.10566000000E+00 0. -1.
     999900   -1    0    0    0    0 -0.00000000000E+00 -0.00000000000E+00 -0.74505805969E-08  0.93827000000E+00  0.93827000000E+00 0.  1.
     999902    2    1    2    0    0  0.22595910436E-01 -0.71931041112E-02  0.42167763649E-03  0.10202130498E+01  0.10199373379E+01 0.  0.
     999903    2    3    3    0    0 -0.10118283466E+00 -0.36135341913E-02  0.76539051727E-01  0.12828937273E+00  0.18679214597E-01 0.  0.
         14    1    1    2    0    0 -0.22595910436E-01  0.71931041112E-02 -0.42167763649E-03  0.23716950209E-01  0.00000000000E+00 0.  1.
     999901    1    3    3    0    0  0.12377874509E+00 -0.35795699199E-02 -0.76117374091E-01  0.89192367706E+00  0.88000000000E+00 0.  1.
        -11    1    4    4    0    0 -0.53926666848E-01 -0.74774290999E-02  0.31548329325E-01  0.62924999384E-01  0.51100000000E-03 0. -1.
         11    1    4    4    0    0 -0.47256167811E-01  0.38638949086E-02  0.44990722402E-01  0.65364373349E-01  0.51100000000E-03 0.  1.
</event>
<event>
 8    1  0.1123361E+005  0.1043930E+01  0.7957747E-01            NaN
         13   -1    0    0    0    0  0.00000000000E+00  0.00000000000E+00  0.74505805969E-08  0.10566000000E+00  0.10566000000E+00 0.  1.
     999900   -1    0    0    0    0 -0.00000000000E+00 -0.00000000000E+00 -0.74505805969E-08  0.93827000000E+00  0.93827000000E+00 0.  1.
     999902    2    1    2    0    0 -0.50457856006E-02  0.15927643199E-01  0.17800511536E-01  0.10195167253E+01  0.10192243841E+01 0.  0.
     999903    2    3    3    0    0  0.11640568046E+00  0.69012897875E-02  0.54795698052E-01  0.13035949653E+00  0.19827243028E-01 0.  0.
         14    1    1    2    0    0  0.50457856006E-02 -0.15927643199E-01 -0.17800511536E-01  0.24413274691E-01  0.00000000000E+00 0. -1.
     999901    1    3    3    0    0 -0.12145146606E+00  0.90263534114E-02 -0.36995186516E-01  0.88915722878E+00  0.88000000000E+00 0.  1.
        -11    1    4    4    0    0  0.69462544091E-01  0.56735736997E-02  0.43160685120E-01  0.81977681909E-01  0.51100000000E-03 0. -1.
         11    1    4    4    0    0  0.46943136371E-01  0.12277160878E-02  0.11635012932E-01  0.48381814621E-01  0.51100000000E-03 0.  1.
</event>
<event>
 8    1  0.1123361E+005  0.1043930E+01  0.7957747E-01            NaN
         13   -1    0    0    0    0  0.00000000000E+00  0.00000000000E+00  0.74505805969E-08  0.10566000000E+00  0.10566000000E+00 0. -1.
     999900   -1    0    0    0    0 -0.00000000000E+00 -0.00000000000E+00 -0.74505805969E-08  0.93827000000E+00  0.93827000000E+00 0.  1.
     999902    2    1    2    0    0 -0.17892960442E-02  0.15954106290E-02  0.25258571678E-01  0.10185579217E+01  0.10182418659E+01 0.  0.
     999903    2    3    3    0    0  0.99685607070E-01  0.35328266409E-01  0.74388960944E-01  0.13072412153E+00  0.19229450745E-01 0.  0.
         14    1    1    2    0    0  0.17892960442E-02 -0.15954106290E-02 -0.25258571678E-01  0.25372078327E-01  0.00000000000E+00 0.  1.
     999901    1    3    3    0    0 -0.10147490311E+00 -0.33732855780E-01 -0.49130389266E-01  0.88783380014E+00  0.88000000000E+00 0.  1.
        -11    1    4    4    0    0  0.22990646004E-01  0.40974855721E-02  0.25398730082E-01  0.34506750100E-01  0.51100000000E-03 0. -1.
         11    1    4    4    0    0  0.76694961066E-01  0.31230780837E-01  0.48990230862E-01  0.96217371433E-01  0.51100000000E-03 0.  1.
</event>
<event>
 8    1  0.1123361E+005  0.1043930E+01  0.7957747E-01            NaN
         13   -1    0    0    0    0  0.00000000000E+00  0.00000000000E+00  0.74505805969E-08  0.10566000000E+00  0.10566000000E+00 0. -1.
     999900   -1    0    0    0    0 -0.00000000000E+00 -0.00000000000E+00 -0.74505805969E-08  0.93827000000E+00  0.93827000000E+00 0.  1.
     999902    2    1    2    0    0  0.26583034229E-01  0.12961406241E-02  0.19204740417E-01  0.10111098881E+01  0.10105770857E+01 0.  0.
     999903    2    3    3    0    0  0.13734082621E-01  0.22763338382E-01 -0.11633906614E+00  0.12038093965E+00  0.15811316235E-01 0.  0.
         14    1    1    2    0    0 -0.26583034229E-01 -0.12961406241E-02 -0.19204740417E-01  0.32820111880E-01  0.00000000000E+00 0.  1.
     999901    1    3    3    0    0  0.12848951608E-01 -0.21467197758E-01  0.13554380656E+00  0.89072894847E+00  0.88000000000E+00 0. -1.
        -11    1    4    4    0    0  0.10115507280E-01  0.88655246422E-02 -0.30372056905E-01  0.33221137493E-01  0.51100000000E-03 0. -1.
         11    1    4    4    0    0  0.36185753408E-02  0.13897813739E-01 -0.85967009239E-01  0.87159802161E-01  0.51100000000E-03 0.  1.
</event>
<event>
 8    1  0.1123361E+005  0.1043930E+01  0.7957747E-01            NaN
         13   -1    0    0    0    0  0.00000000000E+00  0.00000000000E+00  0.74505805969E-08  0.10566000000E+00  0.10566000000E+00 0.  1.
     999900   -1    0    0    0    0 -0.00000000000E+00 -0.00000000000E+00 -0.74505805969E-08  0.93827000000E+00  0.93827000000E+00 0. -1.
     999902    2    1    2    0    0  0.13617113768E-01  0.97897280528E-02  0.15420037712E-01  0.10211475040E+01  0.10208933258E+01 0.  0.
     999903    2    3    3    0    0 -0.78731404375E-01 -0.67596745313E-01  0.77024307202E-01  0.13080374951E+00  0.20221844015E-01 0.  0.
         14    1    1    2    0    0 -0.13617113768E-01 -0.97897280528E-02 -0.15420037712E-01  0.22782496039E-01  0.00000000000E+00 0. -1.
     999901    1    3    3    0    0  0.92348518143E-01  0.77386473365E-01 -0.61604269490E-01  0.89034375445E+00  0.88000000000E+00 0.  1.
        -11    1    4    4    0    0 -0.59705467622E-01 -0.55510624441E-01  0.69211825256E-01  0.10694255545E+00  0.51100000000E-03 0. -1.
         11    1    4    4    0    0 -0.19025936753E-01 -0.12086120871E-01  0.78124819463E-02  0.23861194065E-01  0.51100000000E-03 0.  1.
</event>
<event>
 8    1  0.1123361E+005  0.1043930E+01  0.7957747E-01            NaN
         13   -1    0    0    0    0  0.00000000000E+00  0.00000000000E+00  0.74505805969E-08  0.10566000000E+00  0.10566000000E+00 0.  1.
     999900   -1    0    0    0    0 -0.00000000000E+00 -0.00000000000E+00 -0.74505805969E-08  0.93827000000E+00  0.93827000000E+00 0.  1.
     999902    2    1    2    0    0  0.19322376275E-01  0.16107639380E-02 -0.15259118402E-01  0.10192563404E+01  0.10189576527E+01 0.  0.
     999903    2    3    3    0    0  0.10044219164E+00  0.27283756582E-01 -0.79904698777E-01  0.13279225307E+00  0.20395694515E-01 0.  0.
         14    1    1    2    0    0 -0.19322376275E-01 -0.16107639380E-02  0.15259118402E-01  0.24673659635E-01  0.00000000000E+00 0.  1.
     999901    1    3    3    0    0 -0.81119815367E-01 -0.25672992644E-01  0.64645580375E-01  0.88646408729E+00  0.88000000000E+00 0. -1.
        -11    1    4    4    0    0  0.95378484774E-01  0.21748410363E-01 -0.69708507246E-01  0.12012321097E+00  0.51100000000E-03 0.  1.
         11    1    4    4    0    0  0.50637068678E-02  0.55353462188E-02 -0.10196191531E-01  0.12669042100E-01  0.51100000000E-03 0. -1.
</event>
<event>
 8    1  0.1123361E+005  0.1043930E+01  0.7957747E-01            NaN
         13   -1    0    0    0    0  0.00000000000E+00  0.00000000000E+00  0.74505805969E-08  0.10566000000E+00  0.10566000000E+00 0. -1.
     999900   -1    0    0    0    0 -0.00000000000E+00 -0.00000000000E+00 -0.74505805969E-08  0.93827000000E+00  0.93827000000E+00 0. -1.
     999902    2    1    2    0    0 -0.59475912445E-02  0.13853684550E-01 -0.17752676373E-01  0.10206393165E+01  0.10203735387E+01 0.  0.
     999903    2    3    3    0    0  0.61407913899E-01 -0.11181156963E+00 -0.59047042949E-02  0.12908511482E+00  0.18850526293E-01 0.  0.
         14    1    1    2    0    0  0.59475912445E-02 -0.13853684550E-01  0.17752676373E-01  0.23290683451E-01  0.00000000000E+00 0. -1.
     999901    1    3    3    0    0 -0.67355505144E-01  0.12566525418E+00 -0.11847972078E-01  0.89155420173E+00  0.88000000000E+00 0. -1.
        -11    1    4    4    0    0  0.13289709952E-01 -0.38604214013E-01 -0.72420136267E-02  0.41468175901E-01  0.51100000000E-03 0. -1.
         11    1    4    4    0    0  0.48118203947E-01 -0.73207355620E-01  0.13373093318E-02  0.87616938917E-01  0.51100000000E-03 0.  1.
</event>
<event>
 8    1  0.1123361E+005  0.1043930E+01  0.7957747E-01            NaN
         13   -1    0    0    0    0  0.00000000000E+00  0.00000000000E+00  0.74505805969E-08  0.10566000000E+00  0.10566000000E+00 0.  1.
     999900   -1    0    0    0    0 -0.00000000000E+00 -0.00000000000E+00 -0.74505805969E-08  0.93827000000E+00  0.93827000000E+00 0. -1.
     999902    2    1    2    0    0 -0.41987825459E-02  0.23561586829E-01 -0.53909388449E-02  0.10193975649E+01  0.10191023280E+01 0.  0.
     999903    2    3    3    0    0  0.82589906508E-01  0.80305549904E-01  0.59056180621E-01  0.13096884798E+00  0.19877944308E-01 0.  0.
         14    1    1    2    0    0  0.41987825459E-02 -0.23561586829E-01  0.53909388449E-02  0.24532435068E-01  0.00000000000E+00 0. -1.
     999901    1    3    3    0    0 -0.86788689054E-01 -0.56743963075E-01 -0.64447119466E-01  0.88842871695E+00  0.88000000000E+00 0. -1.
        -11    1    4    4    0    0  0.57763860226E-01  0.42908903863E-01  0.38214043337E-01  0.81476449408E-01  0.51100000000E-03 0.  1.
         11    1    4    4    0    0  0.24826046283E-01  0.37396646041E-01  0.20842137284E-01  0.49492398575E-01  0.51100000000E-03 0. -1.
</event>
<event>
 8    1  0.1123361E+005  0.1043930E+01  0.7957747E-01            NaN
         13   -1    0    0    0    0  0.00000000000E+00  0.00000000000E+00  0.74505805969E-08  0.10566000000E+00  0.10566000000E+00 0.  1.
     999900   -1    0    0    0    0 -0.00000000000E+00 -0.00000000000E+00 -0.74505805969E-08  0.93827000000E+00  0.93827000000E+00 0. -1.
     999902    2    1    2    0    0 -0.47197161032E-02 -0.16240084757E-01 -0.13994991612E-01  0.10219783289E+01  0.10217425453E+01 0.  0.
     999903    2    3    3    0    0 -0.59950423821E-01  0.51234344135E-01  0.10155326497E+00  0.13015175989E+00  0.20184242391E-01 0.  0.
         14    1    1    2    0    0  0.47197161032E-02  0.16240084757E-01  0.13994991612E-01  0.21951671081E-01  0.00000000000E+00 0.  1.
     999901    1    3    3    0    0  0.55230707718E-01 -0.67474428892E-01 -0.11554825658E+00  0.89182656903E+00  0.88000000000E+00 0. -1.
        -11    1    4    4    0    0 -0.12756623930E-01  0.22883680894E-01  0.36398722637E-01  0.44849999287E-01  0.51100000000E-03 0. -1.
         11    1    4    4    0    0 -0.47193799891E-01  0.28350663241E-01  0.65154542332E-01  0.85301760603E-01  0.51100000000E-03 0.  1.
</event>
<event>
 8    1  0.1123361E+005  0.1043930E+01  0.7957747E-01            NaN
         13   -1    0    0    0    0  0.00000000000E+00  0.00000000000E+00  0.74505805969E-08  0.10566000000E+00  0.10566000000E+00 0.  1.
     999900   -1    0    0    0    0 -0.00000000000E+00 -0.00000000000E+00 -0.74505805969E-08  0.93827000000E+00  0.93827000000E+00 0.  1.
     999902    2    1    2    0    0  0.20044399288E-01 -0.94895211912E-02  0.68635814164E-02  0.10207149681E+01  0.10204509339E+01 0.  0.
     999903    2    3    3    0    0 -0.11979297142E+00  0.27297007775E-01  0.33733751728E-01  0.12850997766E+00  0.16773959471E-01 0.  0.
         14    1    1    2    0    0 -0.20044399288E-01  0.94895211912E-02 -0.68635814164E-02  0.23215031879E-01  0.00000000000E+00 0.  1.
     999901    1    3    3    0    0  0.13983737071E+00 -0.36786528967E-01 -0.26870170312E-01  0.89220499047E+00  0.88000000000E+00 0.  1.
        -11    1    4    4    0    0 -0.22594985393E-01  0.10929139460E-01  0.10680849071E-01  0.27282249030E-01  0.51100000000E-03 0. -1.
         11    1    4    4    0    0 -0.97197986026E-01  0.16367868316E-01  0.23052902657E-01  0.10122772863E+00  0.51100000000E-03 0.  1.
</event>
<event>
 7    1  0.1123361E+005  0.1043930E+01  0.7957747E-01            NaN
         13   -1    0    0    0    0  0.00000000000E+00  0.00000000000E+00  0.74505805969E-08  0.10566000000E+00  0.10566000000E+00 0.  1.
     999900   -1    0    0    0    0 -0.00000000000E+00 -0.00000000000E+00 -0.74505805969E-08  0.93827000000E+00  0.93827000000E+00 0. -1.
     999903    2    1    2    0    0 -0.37539429522E-01 -0.15446540511E-01 -0.71479150924E-01  0.84607474309E-01  0.20033754255E-01 0.  0.
         14    1    1    2    0    0  0.45810587174E-01 -0.55396133050E-01 -0.10466060273E-01  0.72642135650E-01  0.00000000000E+00 0. -1.
     999901    1    1    2    0    0 -0.82711576519E-02  0.70842673561E-01  0.81945211196E-01  0.88668039004E+00  0.88000000000E+00 0.  1.
        -11    1    3    3    0    0  0.17212316503E-02  0.12149416738E-02 -0.67441121710E-02  0.70839883992E-02  0.51100000000E-03 0. -1.
         11    1    3    3    0    0 -0.39260661172E-01 -0.16661482185E-01 -0.64735038753E-01  0.77523485910E-01  0.51100000000E-03 0.  1.
</event>
<event>
 8    1  0.1123361E+005  0.1043930E+01  0.7957747E-01            NaN
         13   -1    0    0    0    0  0.00000000000E+00  0.00000000000E+00  0.74505805969E-08  0.10566000000E+00  0.10566000000E+00 0. -1.
     999900   -1    0    0    0    0 -0.00000000000E+00 -0.00000000000E+00 -0.74505805969E-08  0.93827000000E+00  0.93827000000E+00 0. -1.
     999902    2    1    2    0    0 -0.93029738099E-02 -0.35881142010E-02  0.20761435401E-01  0.10208983460E+01  0.10206385138E+01 0.  0.
     999903    2    3    3    0    0 -0.11426957643E+00 -0.68196647905E-02 -0.60068345892E-01  0.13097594259E+00  0.21034434460E-01 0.  0.
         14    1    1    2    0    0  0.93029738099E-02  0.35881142010E-02 -0.20761435401E-01  0.23031653982E-01  0.00000000000E+00 0.  1.
     999901    1    3    3    0    0  0.10496660262E+00  0.32315505895E-02  0.80829781293E-01  0.88992240343E+00  0.88000000000E+00 0.  1.
        -11    1    4    4    0    0 -0.67236590533E-01 -0.93434548186E-02 -0.25363243119E-01  0.72468023824E-01  0.51100000000E-03 0.  1.
         11    1    4    4    0    0 -0.47032985896E-01  0.25237900281E-02 -0.34705102773E-01  0.58507918763E-01  0.51100000000E-03 0. -1.
</event>
<event>
 8    1  0.1123361E+005  0.1043930E+01  0.7957747E-01            NaN
         13   -1    0    0    0    0  0.00000000000E+00  0.00000000000E+00  0.74505805969E-08  0.10566000000E+00  0.10566000000E+00 0.  1.
     999900   -1    0    0    0    0 -0.00000000000E+00 -0.00000000000E+00 -0.74505805969E-08  0.93827000000E+00  0.93827000000E+00 0.  1.
     999902    2    1    2    0    0 -0.10904043933E-01  0.30694037677E-03  0.20927443246E-01  0.10203302062E+01  0.10200572432E+01 0.  0.
     999903    2    3    3    0    0  0.39180681675E-01  0.86659595984E-01  0.89338263434E-01  0.13204798687E+00  0.20256705787E-01 0.  0.
         14    1    1    2    0    0  0.10904043933E-01 -0.30694037677E-03 -0.20927443246E-01  0.23599793798E-01  0.00000000000E+00 0. -1.
     999901    1    3    3    0    0 -0.50084725608E-01 -0.86352655608E-01 -0.68410820189E-01  0.88828221934E+00  0.88000000000E+00 0.  1.
        -11    1    4    4    0    0  0.73396354315E-02  0.48244197714E-02  0.12970816911E-01  0.15673177302E-01  0.51100000000E-03 0. -1.
         11    1    4    4    0    0  0.31841046243E-01  0.81835176213E-01  0.76367446523E-01  0.11637480956E+00  0.51100000000E-03 0.  1.
</event>
<event>
 8    1  0.1123361E+005  0.1043930E+01  0.7957747E-01            NaN
         13   -1    0    0    0    0  0.00000000000E+00  0.00000000000E+00  0.74505805969E-08  0.10566000000E+00  0.10566000000E+00 0.  1.
     999900   -1    0    0    0    0 -0.00000000000E+00 -0.00000000000E+00 -0.74505805969E-08  0.93827000000E+00  0.93827000000E+00 0. -1.
     999902    2    1    2    0    0  0.19595155500E-01 -0.32953763069E-02  0.13309402131E-01  0.10200141097E+01  0.10197336977E+01 0.  0.
     999903    2    3    3    0    0  0.18726953606E-01  0.12680265257E+00  0.13250753717E-01  0.13044890448E+00  0.20290951539E-01 0.  0.
         14    1    1    2    0    0 -0.19595155500E-01  0.32953763069E-02 -0.13309402131E-01  0.23915890307E-01  0.00000000000E+00 0. -1.
     999901    1    3    3    0    0  0.86820189424E-03 -0.13009802888E+00  0.58648414309E-04  0.88956520522E+00  0.88000000000E+00 0.  1.
        -11    1    4    4    0    0  0.13500228444E-01  0.71820321528E-01  0.17195318941E-01  0.75075660949E-01  0.51100000000E-03 0.  1.
         11    1    4    4    0    0  0.52267251614E-02  0.54982331044E-01 -0.39445652238E-02  0.55373243527E-01  0.51100000000E-03 0. -1.
</event>
<event>
 8    1  0.1123361E+005  0.1043930E+01  0.7957747E-01            NaN
         13   -1    0    0    0    0  0.00000000000E+00  0.00000000000E+00  0.74505805969E-08  0.10566000000E+00  0.10566000000E+00 0.  1.
     999900   -1    0    0    0    0 -0.00000000000E+00 -0.00000000000E+00 -0.74505805969E-08  0.93827000000E+00  0.93827000000E+00 0. -1.
     999902    2    1    2    0    0 -0.18554385399E-01  0.54276472208E-02  0.15130500849E-01  0.10193809343E+01  0.10190852921E+01 0.  0.
     999903    2    3    3    0    0 -0.68718472170E-01  0.73647909226E-01 -0.80075751466E-01  0.13020453433E+00  0.19870879095E-01 0.  0.
         14    1    1    2    0    0  0.18554385399E-01 -0.54276472208E-02 -0.15130500849E-01  0.24549065722E-01  0.00000000000E+00 0.  1.
     999901    1    3    3    0    0  0.50164086771E-01 -0.68220262005E-01  0.95206252314E-01  0.88917639995E+00  0.88000000000E+00 0. -1.
        -11    1    4    4    0    0 -0.85425237266E-02  0.11295609175E-01 -0.35823769064E-02  0.14617114748E-01  0.51100000000E-03 0. -1.
         11    1    4    4    0    0 -0.60175948443E-01  0.62352300051E-01 -0.76493374559E-01  0.11558741958E+00  0.51100000000E-03 0.  1.
</event>
<event>
 8    1  0.1123361E+005  0.1043930E+01  0.7957747E-01            NaN
         13   -1    0    0    0    0  0.00000000000E+00  0.00000000000E+00  0.74505805969E-08  0.10566000000E+00  0.10566000000E+00 0.  1.
     999900   -1    0    0    0    0 -0.00000000000E+00 -0.00000000000E+00 -0.74505805969E-08  0.93827000000E+00  0.93827000000E+00 0.  1.
     999902    2    1    2    0    0  0.78794616398E-02  0.17748710170E-01  0.11042133389E-01  0.10215909907E+01  0.10213467192E+01 0.  0.
     999903    2    3    3    0    0  0.58512504140E-02 -0.81070770140E-01 -0.98510937977E-01  0.12930668688E+00  0.20226405225E-01 0.  0.
         14    1    1    2    0    0 -0.78794616398E-02 -0.17748710170E-01 -0.11042133389E-01  0.22339009338E-01  0.00000000000E+00 0. -1.
     999901    1    3    3    0    0  0.20282112259E-02  0.98819480310E-01  0.10955307137E+00  0.89228430378E+00  0.88000000000E+00 0. -1.
        -11    1    4    4    0    0  0.12859295425E-01 -0.44547400441E-01 -0.50220195178E-01  0.68353211261E-01  0.51100000000E-03 0. -1.
         11    1    4    4    0    0 -0.70080450115E-02 -0.36523369699E-01 -0.48290742799E-01  0.60953475620E-01  0.51100000000E-03 0.  1.
</event>
<event>
 8    1  0.1123361E+005  0.1043930E+01  0.7957747E-01            NaN
         13   -1    0    0    0    0  0.00000000000E+00  0.00000000000E+00  0.74505805969E-08  0.10566000000E+00  0.10566000000E+00 0. -1.
     999900   -1    0    0    0    0 -0.00000000000E+00 -0.00000000000E+00 -0.74505805969E-08  0.93827000000E+00  0.93827000000E+00 0. -1.
     999902    2    1    2    0    0  0.17108186246E-01  0.14461838539E-01  0.54476117237E-02  0.10208754715E+01  0.10206151170E+01 0.  0.
     999903    2    3    3    0    0  0.10951747393E+00 -0.43245786311E-01  0.57670385130E-01  0.13262051685E+00  0.19951266573E-01 0.  0.
         14    1    1    2    0    0 -0.17108186246E-01 -0.14461838539E-01 -0.54476117237E-02  0.23054528493E-01  0.00000000000E+00 0.  1.
     999901    1    3    3    0    0 -0.92409287685E-01  0.57707624850E-01 -0.52222773406E-01  0.88825495466E+00  0.88000000000E+00 0. -1.
        -11    1    4    4    0    0  0.73397647482E-01 -0.18877694065E-01  0.38677821492E-01  0.85087114097E-01  0.51100000000E-03 0.  1.
         11    1    4    4    0    0  0.36119826449E-01 -0.24368092245E-01  0.18992563638E-01  0.47533402749E-01  0.51100000000E-03 0. -1.
</event>
<event>
 8    1  0.1123361E+005  0.1043930E+01  0.7957747E-01            NaN
         13   -1    0    0    0    0  0.00000000000E+00  0.00000000000E+00  0.74505805969E-08  0.10566000000E+00  0.10566000000E+00 0.  1.
     999900   -1    0    0    0    0 -0.00000000000E+00 -0.00000000000E+00 -0.74505805969E-08  0.93827000000E+00  0.93827000000E+00 0.  1.
     999902    2    1    2    0    0 -0.55653296789E-03  0.20733862751E-01 -0.86248089189E-02  0.10214669165E+01  0.10212198937E+01 0.  0.
     999903    2    3    3    0    0  0.35236724978E-02 -0.18753595407E-01 -0.12950643351E+00  0.13231660599E+00  0.19278337379E-01 0.  0.
         14    1    1    2    0    0  0.55653296789E-03 -0.20733862751E-01  0.86248089189E-02  0.22463083547E-01  0.00000000000E+00 0.  1.
     999901    1    3    3    0    0 -0.40802054657E-02  0.39487458159E-01  0.12088162459E+00  0.88915031046E+00  0.88000000000E+00 0.  1.
        -11    1    4    4    0    0  0.41661253685E-02 -0.16605310752E-01 -0.51443624055E-01  0.54219927358E-01  0.51100000000E-03 0. -1.
         11    1    4    4    0    0 -0.64245287075E-03 -0.21482846550E-02 -0.78062809456E-01  0.78096678634E-01  0.51100000000E-03 0.  1.
</event>
<event>
 8    1  0.1123361E+005  0.1043930E+01  0.7957747E-01            NaN
         13   -1    0    0    0    0  0.00000000000E+00  0.00000000000E+00  0.74505805969E-08  0.10566000000E+00  0.10566000000E+00 0.  1.
     999900   -1    0    0    0    0 -0.00000000000E+00 -0.00000000000E+00 -0.74505805969E-08  0.93827000000E+00  0.93827000000E+00 0. -1.
     999902    2    1    2    0    0  0.18306479859E-01 -0.15044184491E-01 -0.19283140128E-02  0.10201566307E+01  0.10198795900E+01 0.  0.
     999903    2    3    3    0    0  0.80853208002E-01 -0.63862672970E-01  0.81148959581E-01  0.13268991506E+00  0.20143924027E-01 0.  0.
         14    1    1    2    0    0 -0.18306479859E-01  0.15044184491E-01  0.19283140128E-02  0.23773369276E-01  0.00000000000E+00 0.  1.
     999901    1    3    3    0    0 -0.62546728143E-01  0.48818488479E-01 -0.83077273594E-01  0.88746671566E+00  0.88000000000E+00 0.  1.
        -11    1    4    4    0    0  0.44076408625E-01 -0.22021804330E-01  0.37939673949E-01  0.62188179292E-01  0.51100000000E-03 0.  1.
         11    1    4    4    0    0  0.36776799377E-01 -0.41840868640E-01  0.43209285631E-01  0.70501735771E-01  0.51100000000E-03 0. -1.
</event>
<event>
 8    1  0.1123361E+005  0.1043930E+01  0.7957747E-01            NaN
         13   -1    0    0    0    0  0.00000000000E+00  0.00000000000E+00  0.74505805969E-08  0.10566000000E+00  0.10566000000E+00 0.  1.
     999900   -1    0    0    0    0 -0.00000000000E+00 -0.00000000000E+00 -0.74505805969E-08  0.93827000000E+00  0.93827000000E+00 0.  1.
     999902    2    1    2    0    0  0.52901882620E-02  0.20197411662E-01  0.10353025177E-01  0.10206253511E+01  0.10203592508E+01 0.  0.
     999903    2    3    3    0    0 -0.12561292735E+00 -0.19378374275E-01  0.17768330047E-01  0.13003181012E+00  0.20938700583E-01 0.  0.
         14    1    1    2    0    0 -0.52901882620E-02 -0.20197411662E-01 -0.10353025177E-01  0.23304648893E-01  0.00000000000E+00 0.  1.
     999901    1    3    3    0    0  0.13090311561E+00  0.39575785937E-01 -0.74153048699E-02  0.89059354099E+00  0.88000000000E+00 0.  1.
        -11    1    4    4    0    0 -0.10214757322E+00 -0.22745216044E-01  0.10221131675E-01  0.10514848653E+00  0.51100000000E-03 0.  1.
         11    1    4    4    0    0 -0.23465354136E-01  0.33668417688E-02  0.75471983725E-02  0.24883323582E-01  0.51100000000E-03 0. -1.
</event>
<event>
 8    1  0.1123361E+005  0.1043930E+01  0.7957747E-01            NaN
         13   -1    0    0    0    0  0.00000000000E+00  0.00000000000E+00  0.74505805969E-08  0.10566000000E+00  0.10566000000E+00 0.  1.
     999900   -1    0    0    0    0 -0.00000000000E+00 -0.00000000000E+00 -0.74505805969E-08  0.93827000000E+00  0.93827000000E+00 0. -1.
     999902    2    1    2    0    0  0.28191530546E-03  0.21824436196E-01  0.10511928370E-01  0.10197042672E+01  0.10194164539E+01 0.  0.
     999903    2    3    3    0    0  0.29006158968E-01 -0.28536012106E-02 -0.12383717646E+00  0.12870271296E+00  0.19474130302E-01 0.  0.
         14    1    1    2    0    0 -0.28191530546E-03 -0.21824436196E-01 -0.10511928370E-01  0.24225732797E-01  0.00000000000E+00 0. -1.
     999901    1    3    3    0    0 -0.28724243663E-01  0.24678037406E-01  0.13434910483E+00  0.89100155425E+00  0.88000000000E+00 0.  1.
        -11    1    4    4    0    0  0.16470486194E-01 -0.71415702825E-02 -0.40309727461E-01  0.44129516092E-01  0.51100000000E-03 0. -1.
         11    1    4    4    0    0  0.12535672774E-01  0.42879690719E-02 -0.83527448997E-01  0.84573196863E-01  0.51100000000E-03 0.  1.
</event>
<event>
 8    1  0.1123361E+005  0.1043930E+01  0.7957747E-01            NaN
         13   -1    0    0    0    0  0.00000000000E+00  0.00000000000E+00  0.74505805969E-08  0.10566000000E+00  0.10566000000E+00 0. -1.
     999900   -1    0    0    0    0 -0.00000000000E+00 -0.00000000000E+00 -0.74505805969E-08  0.93827000000E+00  0.93827000000E+00 0.  1.
     999902    2    1    2    0    0 -0.12342345813E-01 -0.17991930647E-01 -0.77731647243E-02  0.10207682825E+01  0.10205054735E+01 0.  0.
     999903    2    3    3    0    0 -0.38509365934E-01  0.11982170976E+00 -0.23294356844E-01  0.12952296281E+00  0.19833240793E-01 0.  0.
         14    1    1    2    0    0  0.12342345813E-01  0.17991930647E-01  0.77731647243E-02  0.23161717518E-01  0.00000000000E+00 0.  1.
     999901    1    3    3    0    0  0.26167020121E-01 -0.13781364041E+00  0.15521192119E-01  0.89124531967E+00  0.88000000000E+00 0. -1.
        -11    1    4    4    0    0 -0.34708174475E-01  0.78939613947E-01 -0.18344726856E-01  0.88164109194E-01  0.51100000000E-03 0.  1.
         11    1    4    4    0    0 -0.38011914586E-02  0.40882095815E-01 -0.49496299876E-02  0.41358853620E-01  0.51100000000E-03 0. -1.
</event>
<event>
 8    1  0.1123361E+005  0.1043930E+01  0.7957747E-01            NaN
         13   -1    0    0    0    0  0.00000000000E+00  0.00000000000E+00  0.74505805969E-08  0.10566000000E+00  0.10566000000E+00 0. -1.
     999900   -1    0    0    0    0 -0.00000000000E+00 -0.00000000000E+00 -0.74505805969E-08  0.93827000000E+00  0.93827000000E+00 0.  1.
     999902    2    1    2    0    0  0.11971330764E-01  0.20817085215E-01  0.16630694900E-02  0.10198586561E+01  0.10195745430E+01 0.  0.
     999903    2    3    3    0    0 -0.64730840223E-01 -0.30307639381E-01  0.10551602732E+00  0.12897011237E+00  0.19774306080E-01 0.  0.
         14    1    1    2    0    0 -0.11971330764E-01 -0.20817085215E-01 -0.16630694900E-02  0.24071343902E-01  0.00000000000E+00 0. -1.
     999901    1    3    3    0    0  0.76702170987E-01  0.51124724596E-01 -0.10385295783E+00  0.89088854373E+00  0.88000000000E+00 0.  1.
        -11    1    4    4    0    0 -0.46971641622E-01 -0.15163776706E-01  0.82800445812E-01  0.96397355712E-01  0.51100000000E-03 0. -1.
         11    1    4    4    0    0 -0.17759198602E-01 -0.15143862675E-01  0.22715581513E-01  0.32572756656E-01  0.51100000000E-03 0.  1.
</event>
<event>
 8    1  0.1123361E+005  0.1043930E+01  0.7957747E-01            NaN
         13   -1    0    0    0    0  0.00000000000E+00  0.00000000000E+00  0.74505805969E-08  0.10566000000E+00  0.10566000000E+00 0. -1.
     999900   -1    0    0    0    0 -0.00000000000E+00 -0.00000000000E+00 -0.74505805969E-08  0.93827000000E+00  0.93827000000E+00 0. -1.
     999902    2    1    2    0    0  0.23893763846E-02  0.11037190917E-01 -0.20864458646E-01  0.10202054486E+01  0.10199295579E+01 0.  0.
     999903    2    3    3    0    0 -0.11130570426E+00  0.33804277393E-01  0.53400380308E-01  0.12949776488E+00  0.19656589814E-01 0.  0.
         14    1    1    2    0    0 -0.23893763846E-02 -0.11037190917E-01  0.20864458646E-01  0.23724551364E-01  0.00000000000E+00 0. -1.
     999901    1    3    3    0    0  0.11369508064E+00 -0.22767086476E-01 -0.74264838954E-01  0.89070768375E+00  0.88000000000E+00 0. -1.
        -11    1    4    4    0    0 -0.76117702324E-01  0.22181772086E-01  0.26114975210E-01  0.83475677123E-01  0.51100000000E-03 0.  1.
         11    1    4    4    0    0 -0.35188001932E-01  0.11622505307E-01  0.27285405098E-01  0.46022087762E-01  0.51100000000E-03 0. -1.
</event>
<event>
 8    1  0.1123361E+005  0.1043930E+01  0.7957747E-01            NaN
         13   -1    0    0    0    0  0.00000000000E+00  0.00000000000E+00  0.74505805969E-08  0.10566000000E+00  0.10566000000E+00 0.  1.
     999900   -1    0    0    0    0 -0.00000000000E+00 -0.00000000000E+00 -0.74505805969E-08  0.93827000000E+00  0.93827000000E+00 0. -1.
     999902    2    1    2    0    0 -0.13626037242E-01  0.18199506355E-01 -0.56714071003E-02  0.10204980607E+01  0.10202290116E+01 0.  0.
     999903    2    3    3    0    0  0.43203057168E-01  0.10534244155E+00  0.63222739990E-01  0.13169558507E+00  0.19572381906E-01 0.  0.
         14    1    1    2    0    0  0.13626037242E-01 -0.18199506355E-01  0.56714071003E-02  0.23431939335E-01  0.00000000000E+00 0.  1.
     999901    1    3    3    0    0 -0.56829094410E-01 -0.87142935197E-01 -0.68894147091E-01  0.88880247560E+00  0.88000000000E+00 0. -1.
        -11    1    4    4    0    0  0.11165386285E-01  0.33016389727E-01  0.96904996979E-02  0.36178926835E-01  0.51100000000E-03 0.  1.
         11    1    4    4    0    0  0.32037670883E-01  0.72326051825E-01  0.53532240292E-01  0.95516658233E-01  0.51100000000E-03 0. -1.
</event>
<event>
 8    1  0.1123361E+005  0.1043930E+01  0.7957747E-01            NaN
         13   -1    0    0    0    0  0.00000000000E+00  0.00000000000E+00  0.74505805969E-08  0.10566000000E+00  0.10566000000E+00 0.  1.
     999900   -1    0    0    0    0 -0.00000000000E+00 -0.00000000000E+00 -0.74505805969E-08  0.93827000000E+00  0.93827000000E+00 0.  1.
     999902    2    1    2    0    0  0.14610442664E-01  0.13571861017E-01 -0.12164109164E-01  0.10205713614E+01  0.10203040124E+01 0.  0.
     999903    2    3    3    0    0  0.10810494182E+00 -0.12417232196E-01  0.71204483377E-01  0.13132056630E+00  0.18279676620E-01 0.  0.
         14    1    1    2    0    0 -0.14610442664E-01 -0.13571861017E-01  0.12164109164E-01  0.23358638617E-01  0.00000000000E+00 0.  1.
     999901    1    3    3    0    0 -0.93494499160E-01  0.25989093213E-01 -0.83368592541E-01  0.88925079509E+00  0.88000000000E+00 0. -1.
        -11    1    4    4    0    0  0.10231439442E-01 -0.63721603705E-02  0.53430107613E-02  0.13194531664E-01  0.51100000000E-03 0.  1.
         11    1    4    4    0    0  0.97873502382E-01 -0.60450718258E-02  0.65861472616E-01  0.11812603463E+00  0.51100000000E-03 0. -1.
</event>
<event>
 8    1  0.1123361E+005  0.1043930E+01  0.7957747E-01            NaN
         13   -1    0    0    0    0  0.00000000000E+00  0.00000000000E+00  0.74505805969E-08  0.10566000000E+00  0.10566000000E+00 0.  1.
     999900   -1    0    0    0    0 -0.00000000000E+00 -0.00000000000E+00 -0.74505805969E-08  0.93827000000E+00  0.93827000000E+00 0. -1.
     999902    2    1    2    0    0 -0.19502198782E-01  0.17463978244E-02  0.12854991854E-01  0.10205070096E+01  0.10202381684E+01 0.  0.
     999903    2    3    3    0    0  0.54441259524E-02  0.49241504397E-02  0.13055018817E+00  0.13231526429E+00  0.20250722663E-01 0.  0.
         14    1    1    2    0    0  0.19502198782E-01 -0.17463978244E-02 -0.12854991854E-01  0.23422990379E-01  0.00000000000E+00 0.  1.
     999901    1    3    3    0    0 -0.24946324735E-01 -0.31777526153E-02 -0.11769519632E+00  0.88819174533E+00  0.88000000000E+00 0. -1.
        -11    1    4    4    0    0 -0.62962841628E-02  0.25832279464E-02  0.20314726780E-01  0.21430480770E-01  0.51100000000E-03 0. -1.
         11    1    4    4    0    0  0.11740410115E-01  0.23409224933E-02  0.11023546139E+00  0.11088478352E+00  0.51100000000E-03 0.  1.
</event>
<event>
 8    1  0.1123361E+005  0.1043930E+01  0.7957747E-01            NaN
         13   -1    0    0    0    0  0.00000000000E+00  0.00000000000E+00  0.74505805969E-08  0.10566000000E+00  0.10566000000E+00 0.  1.
     999900   -1    0    0    0    0 -0.00000000000E+00 -0.00000000000E+00 -0.74505805969E-08  0.93827000000E+00  0.93827000000E+00 0.  1.
     999902    2    1    2    0    0 -0.70942376962E-02 -0.20237307307E-01 -0.99883897308E-02  0.10202731882E+01  0.10199988891E+01 0.  0.
     999903    2    3    3    0    0 -0.66511179788E-01 -0.10493425015E+00  0.41427314186E-01  0.13272177011E+00  0.21538616652E-01 0.  0.
         14    1    1    2    0    0  0.70942376962E-02  0.20237307307E-01  0.99883897308E-02  0.23656811808E-01  0.00000000000E+00 0.  1.
     999901    1    3    3    0    0  0.59416942092E-01  0.84696942848E-01 -0.51415703916E-01  0.88755141808E+00  0.88000000000E+00 0. -1.
        -11    1    4    4    0    0 -0.62974050726E-01 -0.85181464525E-01  0.36580418929E-01  0.11207141087E+00  0.51100000000E-03 0. -1.
         11    1    4    4    0    0 -0.35371290617E-02 -0.19752785630E-01  0.48468952568E-02  0.20650359241E-01  0.51100000000E-03 0.  1.
</event>
<event>
 8    1  0.1123361E+005  0.1043930E+01  0.7957747E-01            NaN
         13   -1    0    0    0    0  0.00000000000E+00  0.00000000000E+00  0.74505805969E-08  0.10566000000E+00  0.10566000000E+00 0.  1.
     999900   -1    0    0    0    0 -0.00000000000E+00 -0.00000000000E+00 -0.74505805969E-08  0.93827000000E+00  0.93827000000E+00 0.  1.
     999902    2    1    2    0    0 -0.14059637503E-01  0.13859182432E-01  0.13333691019E-01  0.10201069511E+01  0.10198287376E+01 0.  0.
     999903    2    3    3    0    0 -0.12230457076E+00 -0.24274637276E-01  0.39296967751E-01  0.13227518461E+00  0.20119809816E-01 0.  0.
         14    1    1    2    0    0  0.14059637503E-01 -0.13859182432E-01 -0.13333691019E-01  0.23823048935E-01  0.00000000000E+00 0. -1.
     999901    1    3    3    0    0  0.10824493325E+00  0.38133819708E-01 -0.25963276732E-01  0.88783176645E+00  0.88000000000E+00 0. -1.
        -11    1    4    4    0    0 -0.67203008159E-01 -0.52811207450E-02  0.27512832762E-01  0.72810381331E-01  0.51100000000E-03 0. -1.
         11    1    4    4    0    0 -0.55101562598E-01 -0.18993516531E-01  0.11784134989E-01  0.59464803283E-01  0.51100000000E-03 0.  1.
</event>
<event>
 8    1  0.1123361E+005  0.1043930E+01  0.7957747E-01            NaN
         13   -1    0    0    0    0  0.00000000000E+00  0.00000000000E+00  0.74505805969E-08  0.10566000000E+00  0.10566000000E+00 0.  1.
     999900   -1    0    0    0    0 -0.00000000000E+00 -0.00000000000E+00 -0.74505805969E-08  0.93827000000E+00  0.93827000000E+00 0. -1.
     999902    2    1    2    0    0 -0.52379159307E-02  0.44740510519E-02 -0.23071474225E-01  0.10198520886E+01  0.10195678186E+01 0.  0.
     999903    2    3    3    0    0  0.11543394796E+00 -0.49862238887E-01 -0.25290182018E-01  0.12995374954E+00  0.20908000939E-01 0.  0.
         14    1    1    2    0    0  0.52379159307E-02 -0.44740510519E-02  0.23071474225E-01  0.24077911434E-01  0.00000000000E+00 0. -1.
     999901    1    3    3    0    0 -0.12067186389E+00  0.54336289939E-01  0.22187077930E-02  0.88989833903E+00  0.88000000000E+00 0.  1.
        -11    1    4    4    0    0  0.68004028041E-01 -0.25692428215E-01 -0.24491474987E-01  0.76712073140E-01  0.51100000000E-03 0. -1.
         11    1    4    4    0    0  0.47429919923E-01 -0.24169810672E-01 -0.79870703065E-03  0.53241676398E-01  0.51100000000E-03 0.  1.
</event>
<event>
 8    1  0.1123361E+005  0.1043930E+01  0.7957747E-01            NaN
         13   -1    0    0    0    0  0.00000000000E+00  0.00000000000E+00  0.74505805969E-08  0.10566000000E+00  0.10566000000E+00 0.  1.
     999900   -1    0    0    0    0 -0.00000000000E+00 -0.00000000000E+00 -0.74505805969E-08  0.93827000000E+00  0.93827000000E+00 0. -1.
     999902    2    1    2    0    0 -0.21589128638E-01 -0.78536232004E-02 -0.21964919088E-02  0.10208519921E+01  0.10205911009E+01 0.  0.
     999903    2    3    3    0    0  0.11930938366E+00  0.17567279956E-01  0.39184011972E-01  0.12832134321E+00  0.19688625509E-01 0.  0.
         14    1    1    2    0    0  0.21589128638E-01  0.78536232004E-02  0.21964919088E-02  0.23078007917E-01  0.00000000000E+00 0.  1.
     999901    1    3    3    0    0 -0.14089851229E+00 -0.25420903157E-01 -0.41380503881E-01  0.89253064888E+00  0.88000000000E+00 0. -1.
        -11    1    4    4    0    0  0.54119058209E-01  0.17822673630E-01  0.17145785674E-01  0.59504279209E-01  0.51100000000E-03 0. -1.
         11    1    4    4    0    0  0.65190325446E-01 -0.25539367391E-03  0.22038226298E-01  0.68817063996E-01  0.51100000000E-03 0.  1.
</event>
<event>
 8    1  0.1123361E+005  0.1043930E+01  0.7957747E-01            NaN
         13   -1    0    0    0    0  0.00000000000E+00  0.00000000000E+00  0.74505805969E-08  0.10566000000E+00  0.10566000000E+00 0.  1.
     999900   -1    0    0    0    0 -0.00000000000E+00 -0.00000000000E+00 -0.74505805969E-08  0.93827000000E+00  0.93827000000E+00 0. -1.
     999902    2    1    2    0    0  0.20824443865E-01 -0.47930322753E-02  0.10200719890E-01  0.10202512055E+01  0.10199763905E+01 0.  0.
     999903    2    3    3    0    0 -0.38796313453E-01 -0.80201617541E-01  0.94030950959E-01  0.13105572812E+00  0.19908057165E-01 0.  0.
         14    1    1    2    0    0 -0.20824443865E-01  0.47930322753E-02 -0.10200719890E-01  0.23678794457E-01  0.00000000000E+00 0. -1.
     999901    1    3    3    0    0  0.59620757317E-01  0.75408585266E-01 -0.83830231069E-01  0.88919547743E+00  0.88000000000E+00 0. -1.
        -11    1    4    4    0    0 -0.34900649515E-01 -0.80061558054E-01  0.89424788433E-01  0.12499984929E+00  0.51100000000E-03 0. -1.
         11    1    4    4    0    0 -0.38956639375E-02 -0.14005948734E-03  0.46061625261E-02  0.60558788290E-02  0.51100000000E-03 0.  1.
</event>
<event>
 8    1  0.1123361E+005  0.1043930E+01  0.7957747E-01            NaN
         13   -1    0    0    0    0  0.00000000000E+00  0.00000000000E+00  0.74505805969E-08  0.10566000000E+00  0.10566000000E+00 0.  1.
     999900   -1    0    0    0    0 -0.00000000000E+00 -0.00000000000E+00 -0.74505805969E-08  0.93827000000E+00  0.93827000000E+00 0. -1.
     999902    2    1    2    0    0 -0.14747713886E-01  0.60776830836E-02 -0.20057783577E-01  0.10183029054E+01  0.10179803825E+01 0.  0.
     999903    2    3    3    0    0 -0.35480633697E-01 -0.35079165215E-01 -0.12021156956E+00  0.13142381499E+00  0.18220167147E-01 0.  0.
         14    1    1    2    0    0  0.14747713886E-01 -0.60776830836E-02  0.20057783577E-01  0.25627094618E-01  0.00000000000E+00 0.  1.
     999901    1    3    3    0    0  0.20732919811E-01  0.41156848299E-01  0.10015378598E+00  0.88687909039E+00  0.88000000000E+00 0.  1.
        -11    1    4    4    0    0 -0.30744320660E-01 -0.34086137767E-01 -0.92236757492E-01  0.10302892115E+00  0.51100000000E-03 0. -1.
         11    1    4    4    0    0 -0.47363130373E-02 -0.99302744848E-03 -0.27974812069E-01  0.28394893837E-01  0.51100000000E-03 0.  1.
</event>
<event>
 8    1  0.1123361E+005  0.1043930E+01  0.7957747E-01            NaN
         13   -1    0    0    0    0  0.00000000000E+00  0.00000000000E+00  0.74505805969E-08  0.10566000000E+00  0.10566000000E+00 0. -1.
     999900   -1    0    0    0    0 -0.00000000000E+00 -0.00000000000E+00 -0.74505805969E-08  0.93827000000E+00  0.93827000000E+00 0. -1.
     999902    2    1    2    0    0  0.44262333315E-02 -0.67689543187E-02 -0.21937405212E-01  0.10205492380E+01  0.10202813765E+01 0.  0.
     999903    2    3    3    0    0 -0.94742619877E-01 -0.54051159658E-01  0.66094489517E-01  0.12935920054E+00  0.21624739026E-01 0.  0.
         14    1    1    2    0    0 -0.44262333315E-02  0.67689543187E-02  0.21937405212E-01  0.23380761996E-01  0.00000000000E+00 0. -1.
     999901    1    3    3    0    0  0.99168853208E-01  0.47282205339E-01 -0.88031894729E-01  0.89119003747E+00  0.88000000000E+00 0. -1.
        -11    1    4    4    0    0 -0.41118161026E-01 -0.28363304606E-01  0.41761668356E-01  0.65111276129E-01  0.51100000000E-03 0.  1.
         11    1    4    4    0    0 -0.53624458851E-01 -0.25687855052E-01  0.24332821161E-01  0.64247924409E-01  0.51100000000E-03 0. -1.
</event>
<event>
 8    1  0.1123361E+005  0.1043930E+01  0.7957747E-01            NaN
         13   -1    0    0    0    0  0.00000000000E+00  0.00000000000E+00  0.74505805969E-08  0.10566000000E+00  0.10566000000E+00 0. -1.
     999900   -1    0    0    0    0 -0.00000000000E+00 -0.00000000000E+00 -0.74505805969E-08  0.93827000000E+00  0.93827000000E+00 0. -1.
     999902    2    1    2    0    0 -0.68173137977E-02  0.17797551152E-01  0.17396642941E-01  0.10181255085E+01  0.10177984473E+01 0.  0.
     999903    2    3    3    0    0  0.57032444610E-01 -0.35162823128E-01 -0.10460466354E+00  0.12584421226E+00  0.20137185901E-01 0.  0.
         14    1    1    2    0    0  0.68173137977E-02 -0.17797551152E-01 -0.17396642941E-01  0.25804491470E-01  0.00000000000E+00 0.  1.
     999901    1    3    3    0    0 -0.63849758407E-01  0.52960374280E-01  0.12200130648E+00  0.89228129627E+00  0.88000000000E+00 0.  1.
        -11    1    4    4    0    0  0.25657657593E-02 -0.17298157885E-02  0.14167018357E-03  0.31395235362E-02  0.51100000000E-03 0. -1.
         11    1    4    4    0    0  0.54466678850E-01 -0.33433007339E-01 -0.10474633372E+00  0.12270468872E+00  0.51100000000E-03 0.  1.
</event>
<event>
 8    1  0.1123361E+005  0.1043930E+01  0.7957747E-01            NaN
         13   -1    0    0    0    0  0.00000000000E+00  0.00000000000E+00  0.74505805969E-08  0.10566000000E+00  0.10566000000E+00 0.  1.
     999900   -1    0    0    0    0 -0.00000000000E+00 -0.00000000000E+00 -0.74505805969E-08  0.93827000000E+00  0.93827000000E+00 0. -1.
     999902    2    1    2    0    0 -0.79931503334E-02  0.56384674070E-02 -0.21304679699E-01  0.10204870449E+01  0.10202177398E+01 0.  0.
     999903    2    3    3    0    0  0.20985348114E-01 -0.11448904042E+00 -0.56760855697E-01  0.13114599000E+00  0.20720780413E-01 0.  0.
         14    1    1    2    0    0  0.79931503334E-02 -0.56384674070E-02  0.21304679699E-01  0.23442955105E-01  0.00000000000E+00 0.  1.
     999901    1    3    3    0    0 -0.28978498448E-01  0.12012750783E+00  0.35456175998E-01  0.88934105490E+00  0.88000000000E+00 0.  1.
        -11    1    4    4    0    0  0.21828421922E-01 -0.96577169979E-01 -0.40649048640E-01  0.10703380793E+00  0.51100000000E-03 0.  1.
         11    1    4    4    0    0 -0.84307380748E-03 -0.17911870443E-01 -0.16111807057E-01  0.24112182063E-01  0.51100000000E-03 0. -1.
</event>
<event>
 8    1  0.1123361E+005  0.1043930E+01  0.7957747E-01            NaN
         13   -1    0    0    0    0  0.00000000000E+00  0.00000000000E+00  0.74505805969E-08  0.10566000000E+00  0.10566000000E+00 0. -1.
     999900   -1    0    0    0    0 -0.00000000000E+00 -0.00000000000E+00 -0.74505805969E-08  0.93827000000E+00  0.93827000000E+00 0. -1.
     999902    2    1    2    0    0  0.41197497763E-02  0.22147728366E-01 -0.83014804794E-02  0.10199214851E+01  0.10196388709E+01 0.  0.
     999903    2    3    3    0    0 -0.58307869048E-01 -0.92608001328E-01 -0.63847610026E-01  0.12854532566E+00  0.21710226640E-01 0.  0.
         14    1    1    2    0    0 -0.41197497763E-02 -0.22147728366E-01  0.83014804794E-02  0.24008514909E-01  0.00000000000E+00 0. -1.
     999901    1    3    3    0    0  0.62427618824E-01  0.11475572969E+00  0.55546129546E-01  0.89137615943E+00  0.88000000000E+00 0.  1.
        -11    1    4    4    0    0 -0.30236787749E-01 -0.56851600373E-01 -0.26204971463E-01  0.69522150778E-01  0.51100000000E-03 0.  1.
         11    1    4    4    0    0 -0.28071081299E-01 -0.35756400955E-01 -0.37642638562E-01  0.59023174885E-01  0.51100000000E-03 0. -1.
</event>
<event>
 8    1  0.1123361E+005  0.1043930E+01  0.7957747E-01            NaN
         13   -1    0    0    0    0  0.00000000000E+00  0.00000000000E+00  0.74505805969E-08  0.10566000000E+00  0.10566000000E+00 0. -1.
     999900   -1    0    0    0    0 -0.00000000000E+00 -0.00000000000E+00 -0.74505805969E-08  0.93827000000E+00  0.93827000000E+00 0. -1.
     999902    2    1    2    0    0  0.17303596877E-01 -0.27834687382E-02  0.17102107591E-01  0.10194423654E+01  0.10191482189E+01 0.  0.
     999903    2    3    3    0    0 -0.90620813872E-01 -0.48073571126E-01  0.76723756784E-01  0.12969318006E+00  0.20262920574E-01 0.  0.
         14    1    1    2    0    0 -0.17303596877E-01  0.27834687382E-02 -0.17102107591E-01  0.24487634577E-01  0.00000000000E+00 0.  1.
     999901    1    3    3    0    0  0.10792441075E+00  0.45290102388E-01 -0.59621649193E-01  0.88974918537E+00  0.88000000000E+00 0.  1.
        -11    1    4    4    0    0 -0.70890306434E-01 -0.43941117972E-01  0.54239177194E-01  0.99490737552E-01  0.51100000000E-03 0. -1.
         11    1    4    4    0    0 -0.19730507438E-01 -0.41324531537E-02  0.22484579590E-01  0.30202442504E-01  0.51100000000E-03 0.  1.
</event>
<event>
 7    1  0.1123361E+005  0.1043930E+01  0.7957747E-01            NaN
         13   -1    0    0    0    0  0.00000000000E+00  0.00000000000E+00  0.74505805969E-08  0.10566000000E+00  0.10566000000E+00 0.  1.
     999900   -1    0    0    0    0 -0.00000000000E+00 -0.00000000000E+00 -0.74505805969E-08  0.93827000000E+00  0.93827000000E+00 0.  1.
     999903    2    1    2    0    0  0.96034590144E-01 -0.24201425323E-01 -0.32502572318E-01  0.10456930364E+00  0.83648410112E-02 0.  0.
         14    1    1    2    0    0 -0.28447778317E-01  0.14891332366E-03  0.48578134267E-01  0.56295056579E-01  0.00000000000E+00 0.  1.
     999901    1    1    2    0    0 -0.67586811826E-01  0.24052511999E-01 -0.16075561949E-01  0.88306563978E+00  0.88000000000E+00 0.  1.
        -11    1    3    3    0    0  0.33284065554E-01 -0.94737384941E-02 -0.15399092560E-01  0.37881049531E-01  0.51100000000E-03 0.  1.
         11    1    3    3    0    0  0.62750524589E-01 -0.14727686829E-01 -0.17103479758E-01  0.66688254111E-01  0.51100000000E-03 0. -1.
</event>
<event>
 8    1  0.1123361E+005  0.1043930E+01  0.7957747E-01            NaN
         13   -1    0    0    0    0  0.00000000000E+00  0.00000000000E+00  0.74505805969E-08  0.10566000000E+00  0.10566000000E+00 0.  1.
     999900   -1    0    0    0    0 -0.00000000000E+00 -0.00000000000E+00 -0.74505805969E-08  0.93827000000E+00  0.93827000000E+00 0. -1.
     999902    2    1    2    0    0 -0.92669713405E-02  0.94219825411E-02  0.20353548747E-01  0.10196623784E+01  0.10193735569E+01 0.  0.
     999903    2    3    3    0    0  0.38702063599E-01  0.96313148816E-01  0.79367615912E-01  0.13211871003E+00  0.19546424816E-01 0.  0.
         14    1    1    2    0    0  0.92669713405E-02 -0.94219825411E-02 -0.20353548747E-01  0.24267621627E-01  0.00000000000E+00 0. -1.
     999901    1    3    3    0    0 -0.47969034939E-01 -0.86891166275E-01 -0.59014067165E-01  0.88754366834E+00  0.88000000000E+00 0. -1.
        -11    1    4    4    0    0  0.23333171024E-01  0.38594134959E-01  0.42205329544E-01  0.61769693914E-01  0.51100000000E-03 0. -1.
         11    1    4    4    0    0  0.15368892575E-01  0.57719013857E-01  0.37162286368E-01  0.70349016118E-01  0.51100000000E-03 0.  1.
</event>
<event>
 8    1  0.1123361E+005  0.1043930E+01  0.7957747E-01            NaN
         13   -1    0    0    0    0  0.00000000000E+00  0.00000000000E+00  0.74505805969E-08  0.10566000000E+00  0.10566000000E+00 0. -1.
     999900   -1    0    0    0    0 -0.00000000000E+00 -0.00000000000E+00 -0.74505805969E-08  0.93827000000E+00  0.93827000000E+00 0.  1.
     999902    2    1    2    0    0 -0.16149769460E-01 -0.17035611961E-01 -0.18099620890E-02  0.10203863577E+01  0.10201147073E+01 0.  0.
     999903    2    3    3    0    0  0.12653479693E+00 -0.12949564604E-01  0.57248024390E-02  0.12885264892E+00  0.19785997931E-01 0.  0.
         14    1    1    2    0    0  0.16149769460E-01  0.17035611961E-01  0.18099620890E-02  0.23543642268E-01  0.00000000000E+00 0.  1.
     999901    1    3    3    0    0 -0.14268456639E+00 -0.40860473570E-02 -0.75347645280E-02  0.89153370881E+00  0.88000000000E+00 0.  1.
        -11    1    4    4    0    0  0.37154637706E-01 -0.52972276700E-02  0.10629921004E-01  0.39010050828E-01  0.51100000000E-03 0.  1.
         11    1    4    4    0    0  0.89380159222E-01 -0.76523369339E-02 -0.49051185645E-02  0.89842598093E-01  0.51100000000E-03 0. -1.
</event>
<event>
 8    1  0.1123361E+005  0.1043930E+01  0.7957747E-01            NaN
         13   -1    0    0    0    0  0.00000000000E+00  0.00000000000E+00  0.74505805969E-08  0.10566000000E+00  0.10566000000E+00 0.  1.
     999900   -1    0    0    0    0 -0.00000000000E+00 -0.00000000000E+00 -0.74505805969E-08  0.93827000000E+00  0.93827000000E+00 0. -1.
     999902    2    1    2    0    0  0.37527997203E-02  0.92773990797E-02 -0.19647597491E-01  0.10218804711E+01  0.10216425576E+01 0.  0.
     999903    2    3    3    0    0 -0.31891419903E-01  0.83632677815E-02  0.12374518960E+00  0.12956167297E+00  0.19655743211E-01 0.  0.
         14    1    1    2    0    0 -0.37527997203E-02 -0.92773990797E-02  0.19647597491E-01  0.22049528943E-01  0.00000000000E+00 0.  1.
     999901    1    3    3    0    0  0.35644219624E-01  0.91413129821E-03 -0.14339278710E+00  0.89231879809E+00  0.88000000000E+00 0. -1.
        -11    1    4    4    0    0 -0.11012005297E-01  0.11276324539E-01  0.35726243507E-01  0.39051829047E-01  0.51100000000E-03 0.  1.
         11    1    4    4    0    0 -0.20879414606E-01 -0.29130567573E-02  0.88018946097E-01  0.90509843923E-01  0.51100000000E-03 0. -1.
</event>
<event>
 8    1  0.1123361E+005  0.1043930E+01  0.7957747E-01            NaN
         13   -1    0    0    0    0  0.00000000000E+00  0.00000000000E+00  0.74505805969E-08  0.10566000000E+00  0.10566000000E+00 0. -1.
     999900   -1    0    0    0    0 -0.00000000000E+00 -0.00000000000E+00 -0.74505805969E-08  0.93827000000E+00  0.93827000000E+00 0. -1.
     999902    2    1    2    0    0  0.17352924459E-01 -0.79144311777E-02  0.11521049800E-01  0.10216477919E+01  0.10214047748E+01 0.  0.
     999903    2    3    3    0    0 -0.10893087131E+00  0.65615218202E-01 -0.10272466648E-01  0.12933105233E+00  0.21206271252E-01 0.  0.
         14    1    1    2    0    0 -0.17352924459E-01  0.79144311777E-02 -0.11521049800E-01  0.22282208074E-01  0.00000000000E+00 0.  1.
     999901    1    3    3    0    0  0.12628379577E+00 -0.73529649379E-01  0.21793516448E-01  0.89231673960E+00  0.88000000000E+00 0. -1.
        -11    1    4    4    0    0 -0.59168167480E-01  0.39864002172E-01 -0.15643687945E-01  0.73041062463E-01  0.51100000000E-03 0.  1.
         11    1    4    4    0    0 -0.49762703830E-01  0.25751216029E-01  0.53712212978E-02  0.56289989862E-01  0.51100000000E-03 0. -1.
</event>
<event>
 8    1  0.1123361E+005  0.1043930E+01  0.7957747E-01            NaN
         13   -1    0    0    0    0  0.00000000000E+00  0.00000000000E+00  0.74505805969E-08  0.10566000000E+00  0.10566000000E+00 0.  1.
     999900   -1    0    0    0    0 -0.00000000000E+00 -0.00000000000E+00 -0.74505805969E-08  0.93827000000E+00  0.93827000000E+00 0. -1.
     999902    2    1    2    0    0  0.18465076279E-01 -0.12264317547E-01 -0.75818573450E-02  0.10205023008E+01  0.10202333502E+01 0.  0.
     999903    2    3    3    0    0  0.30860948836E-01  0.19497491294E-01  0.12334176480E+00  0.13016334012E+00  0.19918680609E-01 0.  0.
         14    1    1    2    0    0 -0.18465076279E-01  0.12264317547E-01  0.75818573450E-02  0.23427699155E-01  0.00000000000E+00 0.  1.
     999901    1    3    3    0    0 -0.12395872558E-01 -0.31761808841E-01 -0.13092362214E+00  0.89033896073E+00  0.88000000000E+00 0. -1.
        -11    1    4    4    0    0  0.21363262997E-01  0.23041003090E-01  0.92005010184E-01  0.97223761752E-01  0.51100000000E-03 0.  1.
         11    1    4    4    0    0  0.94976858389E-02 -0.35435117960E-02  0.31336754613E-01  0.32939578364E-01  0.51100000000E-03 0. -1.
</event>
<event>
 8    1  0.1123361E+005  0.1043930E+01  0.7957747E-01            NaN
         13   -1    0    0    0    0  0.00000000000E+00  0.00000000000E+00  0.74505805969E-08  0.10566000000E+00  0.10566000000E+00 0. -1.
     999900   -1    0    0    0    0 -0.00000000000E+00 -0.00000000000E+00 -0.74505805969E-08  0.93827000000E+00  0.93827000000E+00 0.  1.
     999902    2    1    2    0    0  0.17705476190E-02 -0.12529919018E-01 -0.22166583785E-01  0.10184056754E+01  0.10180857668E+01 0.  0.
     999903    2    3    3    0    0  0.23408833597E-01 -0.11906132989E+00 -0.46167081034E-01  0.13139204485E+00  0.20221184757E-01 0.  0.
         14    1    1    2    0    0 -0.17705476190E-02  0.12529919018E-01  0.22166583785E-01  0.25524324598E-01  0.00000000000E+00 0. -1.
     999901    1    3    3    0    0 -0.21638285978E-01  0.10653141087E+00  0.24000497249E-01  0.88701363055E+00  0.88000000000E+00 0. -1.
        -11    1    4    4    0    0 -0.42636447658E-03 -0.13019781585E-01  0.64154079712E-03  0.13052555106E-01  0.51100000000E-03 0.  1.
         11    1    4    4    0    0  0.23835198074E-01 -0.10604154830E+00 -0.46808621831E-01  0.11833948974E+00  0.51100000000E-03 0. -1.
</event>
<event>
 8    1  0.1123361E+005  0.1043930E+01  0.7957747E-01            NaN
         13   -1    0    0    0    0  0.00000000000E+00  0.00000000000E+00  0.74505805969E-08  0.10566000000E+00  0.10566000000E+00 0. -1.
     999900   -1    0    0    0    0 -0.00000000000E+00 -0.00000000000E+00 -0.74505805969E-08  0.93827000000E+00  0.93827000000E+00 0. -1.
     999902    2    1    2    0    0 -0.27041039354E-02  0.12857053410E-01  0.24262607308E-01  0.10163385137E+01  0.10159639188E+01 0.  0.
     999903    2    3    3    0    0 -0.11323866314E+00 -0.53420121942E-01 -0.26993248008E-02  0.12654218956E+00  0.18136568705E-01 0.  0.
         14    1    1    2    0    0  0.27041039354E-02 -0.12857053410E-01 -0.24262607308E-01  0.27591486257E-01  0.00000000000E+00 0.  1.
     999901    1    3    3    0    0  0.11053455921E+00  0.66277175352E-01  0.26961932109E-01  0.88979632419E+00  0.88000000000E+00 0.  1.
        -11    1    4    4    0    0 -0.23012913472E-01 -0.13342361917E-01 -0.76698867558E-02  0.27689367848E-01  0.51100000000E-03 0. -1.
         11    1    4    4    0    0 -0.90225749672E-01 -0.40077760026E-01  0.49705619550E-02  0.98852821709E-01  0.51100000000E-03 0.  1.
</event>
<event>
 8    1  0.1123361E+005  0.1043930E+01  0.7957747E-01            NaN
         13   -1    0    0    0    0  0.00000000000E+00  0.00000000000E+00  0.74505805969E-08  0.10566000000E+00  0.10566000000E+00 0.  1.
     999900   -1    0    0    0    0 -0.00000000000E+00 -0.00000000000E+00 -0.74505805969E-08  0.93827000000E+00  0.93827000000E+00 0. -1.
     999902    2    1    2    0    0 -0.92587684726E-02 -0.19980307128E-01  0.10782345591E-01  0.10194106924E+01  0.10191157753E+01 0.  0.
     999903    2    3    3    0    0  0.33254443926E-01  0.98727782507E-01 -0.69967609198E-01  0.12676320381E+00  0.17900011810E-01 0.  0.
         14    1    1    2    0    0  0.92587684726E-02  0.19980307128E-01 -0.10782345591E-01  0.24519307556E-01  0.00000000000E+00 0. -1.
     999901    1    3    3    0    0 -0.42513212399E-01 -0.11870808963E+00  0.80749954789E-01  0.89264748864E+00  0.88000000000E+00 0.  1.
        -11    1    4    4    0    0  0.13813343869E-01  0.45777970855E-01 -0.21658096960E-01  0.52495384267E-01  0.51100000000E-03 0.  1.
         11    1    4    4    0    0  0.19441100057E-01  0.52949811652E-01 -0.48309512238E-01  0.74267819539E-01  0.51100000000E-03 0. -1.
</event>
<event>
 8    1  0.1123361E+005  0.1043930E+01  0.7957747E-01            NaN
         13   -1    0    0    0    0  0.00000000000E+00  0.00000000000E+00  0.74505805969E-08  0.10566000000E+00  0.10566000000E+00 0. -1.
     999900   -1    0    0    0    0 -0.00000000000E+00 -0.00000000000E+00 -0.74505805969E-08  0.93827000000E+00  0.93827000000E+00 0. -1.
     999902    2    1    2    0    0 -0.67046279756E-02  0.23441221800E-01 -0.12854254535E-03  0.10195484611E+01  0.10192568887E+01 0.  0.
     999903    2    3    3    0    0 -0.13524607988E-01 -0.97471446310E-01 -0.78930730744E-01  0.12776588093E+00  0.20259866904E-01 0.  0.
         14    1    1    2    0    0  0.67046279756E-02 -0.23441221800E-01  0.12854254535E-03  0.24381538897E-01  0.00000000000E+00 0.  1.
     999901    1    3    3    0    0  0.68199800122E-02  0.12091266811E+00  0.78802188198E-01  0.89178258017E+00  0.88000000000E+00 0. -1.
        -11    1    4    4    0    0 -0.57606651601E-02 -0.73828780905E-01 -0.48817509517E-01  0.88697714229E-01  0.51100000000E-03 0.  1.
         11    1    4    4    0    0 -0.77639428276E-02 -0.23642665405E-01 -0.30113221227E-01  0.39068166701E-01  0.51100000000E-03 0. -1.
</event>
<event>
 8    1  0.1123361E+005  0.1043930E+01  0.7957747E-01            NaN
         13   -1    0    0    0    0  0.00000000000E+00  0.00000000000E+00  0.74505805969E-08  0.10566000000E+00  0.10566000000E+00 0.  1.
     999900   -1    0    0    0    0 -0.00000000000E+00 -0.00000000000E+00 -0.74505805969E-08  0.93827000000E+00  0.93827000000E+00 0.  1.
     999902    2    1    2    0    0  0.74766300184E-02 -0.74468005071E-02  0.21166948756E-01  0.10202784767E+01  0.10200043017E+01 0.  0.
     999903    2    3    3    0    0 -0.11566850125E+00 -0.37477569254E-01 -0.40006362621E-01  0.12909457624E+00  0.16766937286E-01 0.  0.
         14    1    1    2    0    0 -0.74766300184E-02  0.74468005071E-02 -0.21166948756E-01  0.23651523288E-01  0.00000000000E+00 0. -1.
     999901    1    3    3    0    0  0.12314513127E+00  0.30030768747E-01  0.61173311377E-01  0.89118390047E+00  0.88000000000E+00 0.  1.
        -11    1    4    4    0    0 -0.77500326300E-01 -0.17470481258E-01 -0.29395332213E-01  0.84710477327E-01  0.51100000000E-03 0.  1.
         11    1    4    4    0    0 -0.38168174954E-01 -0.20007087996E-01 -0.10611030407E-01  0.44384098918E-01  0.51100000000E-03 0. -1.
</event>
<event>
 8    1  0.1123361E+005  0.1043930E+01  0.7957747E-01            NaN
         13   -1    0    0    0    0  0.00000000000E+00  0.00000000000E+00  0.74505805969E-08  0.10566000000E+00  0.10566000000E+00 0. -1.
     999900   -1    0    0    0    0 -0.00000000000E+00 -0.00000000000E+00 -0.74505805969E-08  0.93827000000E+00  0.93827000000E+00 0. -1.
     999902    2    1    2    0    0  0.18589200730E-01  0.42609150162E-02  0.20351808984E-01  0.10160389636E+01  0.10156560765E+01 0.  0.
     999903    2    3    3    0    0  0.75114331160E-01 -0.48591569214E-01  0.91870851694E-01  0.12975263917E+00  0.19803803600E-01 0.  0.
         14    1    1    2    0    0 -0.18589200730E-01 -0.42609150162E-02 -0.20351808984E-01  0.27891036365E-01  0.00000000000E+00 0.  1.
     999901    1    3    3    0    0 -0.56525130429E-01  0.52852484230E-01 -0.71519042710E-01  0.88628632446E+00  0.88000000000E+00 0. -1.
        -11    1    4    4    0    0  0.51841135075E-01 -0.22165052417E-01  0.55026754740E-01  0.78784501603E-01  0.51100000000E-03 0.  1.
         11    1    4    4    0    0  0.23273196085E-01 -0.26426516797E-01  0.36844096954E-01  0.50968137570E-01  0.51100000000E-03 0. -1.
</event>
<event>
 8    1  0.1123361E+005  0.1043930E+01  0.7957747E-01            NaN
         13   -1    0    0    0    0  0.00000000000E+00  0.00000000000E+00  0.74505805969E-08  0.10566000000E+00  0.10566000000E+00 0. -1.
     999900   -1    0    0    0    0 -0.00000000000E+00 -0.00000000000E+00 -0.74505805969E-08  0.93827000000E+00  0.93827000000E+00 0.  1.
     999902    2    1    2    0    0  0.12517818101E-01 -0.22543190671E-02 -0.20747893767E-01  0.10195937550E+01  0.10193032779E+01 0.  0.
     999903    2    3    3    0    0  0.25695713610E-01  0.11220920627E+00  0.54656624925E-01  0.12888538691E+00  0.19311153272E-01 0.  0.
         14    1    1    2    0    0 -0.12517818101E-01  0.22543190671E-02  0.20747893767E-01  0.24336244991E-01  0.00000000000E+00 0. -1.
     999901    1    3    3    0    0 -0.13177895509E-01 -0.11446352534E+00 -0.75404518693E-01  0.89070836810E+00  0.88000000000E+00 0. -1.
        -11    1    4    4    0    0  0.10887377899E-01  0.49842621224E-01  0.34871670958E-01  0.61799000351E-01  0.51100000000E-03 0.  1.
         11    1    4    4    0    0  0.14808335711E-01  0.62366585048E-01  0.19784953967E-01  0.67086386559E-01  0.51100000000E-03 0. -1.
</event>
<event>
 8    1  0.1123361E+005  0.1043930E+01  0.7957747E-01            NaN
         13   -1    0    0    0    0  0.00000000000E+00  0.00000000000E+00  0.74505805969E-08  0.10566000000E+00  0.10566000000E+00 0.  1.
     999900   -1    0    0    0    0 -0.00000000000E+00 -0.00000000000E+00 -0.74505805969E-08  0.93827000000E+00  0.93827000000E+00 0. -1.
     999902    2    1    2    0    0  0.13629942162E-01 -0.57862193659E-02  0.17499865462E-01  0.10210061925E+01  0.10207488154E+01 0.  0.
     999903    2    3    3    0    0 -0.64258112826E-01  0.97615265267E-01  0.54919453347E-01  0.13074856594E+00  0.20523061734E-01 0.  0.
         14    1    1    2    0    0 -0.13629942162E-01  0.57862193659E-02 -0.17499865462E-01  0.22923807474E-01  0.00000000000E+00 0. -1.
     999901    1    3    3    0    0  0.77888054988E-01 -0.10340148463E+00 -0.37419587885E-01  0.89025762658E+00  0.88000000000E+00 0.  1.
        -11    1    4    4    0    0 -0.18183160552E-01  0.43677580324E-01  0.27275998594E-01  0.54613181293E-01  0.51100000000E-03 0. -1.
         11    1    4    4    0    0 -0.46074952274E-01  0.53937684943E-01  0.27643454753E-01  0.76135384649E-01  0.51100000000E-03 0.  1.
</event>
<event>
 8    1  0.1123361E+005  0.1043930E+01  0.7957747E-01            NaN
         13   -1    0    0    0    0  0.00000000000E+00  0.00000000000E+00  0.74505805969E-08  0.10566000000E+00  0.10566000000E+00 0. -1.
     999900   -1    0    0    0    0 -0.00000000000E+00 -0.00000000000E+00 -0.74505805969E-08  0.93827000000E+00  0.93827000000E+00 0.  1.
     999902    2    1    2    0    0 -0.67150146584E-02  0.22425432711E-01  0.39227636860E-02  0.10201943827E+01  0.10199182315E+01 0.  0.
     999903    2    3    3    0    0  0.25972181541E-01 -0.11518259578E-01 -0.12498643029E+00  0.12955516992E+00  0.18860269834E-01 0.  0.
         14    1    1    2    0    0  0.67150146584E-02 -0.22425432711E-01 -0.39227636860E-02  0.23735617309E-01  0.00000000000E+00 0.  1.
     999901    1    3    3    0    0 -0.32687196200E-01  0.33943692288E-01  0.12890919397E+00  0.89063921277E+00  0.88000000000E+00 0.  1.
        -11    1    4    4    0    0  0.71560722521E-02  0.52523282840E-02 -0.32717122915E-01  0.33903798833E-01  0.51100000000E-03 0.  1.
         11    1    4    4    0    0  0.18816109289E-01 -0.16770587862E-01 -0.92269307372E-01  0.95651371083E-01  0.51100000000E-03 0. -1.
</event>
<event>
 7    1  0.1123361E+005  0.1043930E+01  0.7957747E-01            NaN
         13   -1    0    0    0    0  0.00000000000E+00  0.00000000000E+00  0.74505805969E-08  0.10566000000E+00  0.10566000000E+00 0.  1.
     999900   -1    0    0    0    0 -0.00000000000E+00 -0.00000000000E+00 -0.74505805969E-08  0.93827000000E+00  0.93827000000E+00 0.  1.
     999902    2    1    2    0    0  0.20567268940E-01 -0.12371303307E-02 -0.11087672267E-01  0.10205317197E+01  0.10202634520E+01 0.  0.
         14    1    1    2    0    0 -0.20567268940E-01  0.12371303307E-02  0.11087672267E-01  0.23398280266E-01  0.00000000000E+00 0.  1.
     999901    1    3    3    0    0  0.82780918592E-01  0.16164345891E-01 -0.97403658620E-01  0.88938261692E+00  0.88000000000E+00 0.  1.
        -11    1    3    3    0    0 -0.35634946999E-01  0.16295256815E-01  0.78198283656E-01  0.87467808536E-01  0.51100000000E-03 0. -1.
         11    1    3    3    0    0 -0.26578702653E-01 -0.33696733037E-01  0.81177026962E-02  0.43681294282E-01  0.51100000000E-03 0.  1.
</event>
<event>
 8    1  0.1123361E+005  0.1043930E+01  0.7957747E-01            NaN
         13   -1    0    0    0    0  0.00000000000E+00  0.00000000000E+00  0.74505805969E-08  0.10566000000E+00  0.10566000000E+00 0.  1.
     999900   -1    0    0    0    0 -0.00000000000E+00 -0.00000000000E+00 -0.74505805969E-08  0.93827000000E+00  0.93827000000E+00 0.  1.
     999902    2    1    2    0    0 -0.85508150133E-02 -0.12503604335E-03 -0.21904075218E-01  0.10204157366E+01  0.10201447716E+01 0.  0.
     999903    2    3    3    0    0  0.54352489860E-02  0.56883663931E-01  0.11223334889E+00  0.12831795587E+00  0.24573970825E-01 0.  0.
         14    1    1    2    0    0  0.85508150133E-02  0.12503604335E-03  0.21904075218E-01  0.23514263386E-01  0.00000000000E+00 0.  1.
     999901    1    3    3    0    0 -0.13986063999E-01 -0.57008699975E-01 -0.13413742411E+00  0.89209778074E+00  0.88000000000E+00 0.  1.
        -11    1    4    4    0    0 -0.47889674576E-02  0.92984062218E-02  0.39024187129E-01  0.40404738208E-01  0.51100000000E-03 0.  1.
         11    1    4    4    0    0  0.10224216444E-01  0.47585257710E-01  0.73209161762E-01  0.87913217664E-01  0.51100000000E-03 0. -1.
</event>
<event>
 8    1  0.1123361E+005  0.1043930E+01  0.7957747E-01            NaN
         13   -1    0    0    0    0  0.00000000000E+00  0.00000000000E+00  0.74505805969E-08  0.10566000000E+00  0.10566000000E+00 0.  1.
     999900   -1    0    0    0    0 -0.00000000000E+00 -0.00000000000E+00 -0.74505805969E-08  0.93827000000E+00  0.93827000000E+00 0.  1.
     999902    2    1    2    0    0 -0.16700547135E-01  0.27028999426E-02 -0.16143227734E-01  0.10205458655E+01  0.10202779258E+01 0.  0.
     999903    2    3    3    0    0  0.11178711530E+00  0.46836229182E-01  0.37577857420E-01  0.12850170456E+00  0.20263296755E-01 0.  0.
         14    1    1    2    0    0  0.16700547135E-01 -0.27028999426E-02  0.16143227734E-01  0.23384134459E-01  0.00000000000E+00 0.  1.
     999901    1    3    3    0    0 -0.12848766244E+00 -0.44133329240E-01 -0.53721085154E-01  0.89204416098E+00  0.88000000000E+00 0.  1.
        -11    1    4    4    0    0  0.24496852702E-01  0.30695485755E-02  0.28347563181E-02  0.24855882305E-01  0.51100000000E-03 0. -1.
         11    1    4    4    0    0  0.87290262600E-01  0.43766680607E-01  0.34743101102E-01  0.10364582226E+00  0.51100000000E-03 0.  1.
</event>
<event>
 8    1  0.1123361E+005  0.1043930E+01  0.7957747E-01            NaN
         13   -1    0    0    0    0  0.00000000000E+00  0.00000000000E+00  0.74505805969E-08  0.10566000000E+00  0.10566000000E+00 0.  1.
     999900   -1    0    0    0    0 -0.00000000000E+00 -0.00000000000E+00 -0.74505805969E-08  0.93827000000E+00  0.93827000000E+00 0. -1.
     999902    2    1    2    0    0 -0.98486566803E-03  0.37466984069E-02  0.23859602339E-01  0.10197579431E+01  0.10194714190E+01 0.  0.
     999903    2    3    3    0    0 -0.71909426399E-01  0.65436182039E-01 -0.81515953028E-01  0.12850046441E+00  0.20363183244E-01 0.  0.
         14    1    1    2    0    0  0.98486566803E-03 -0.37466984069E-02 -0.23859602339E-01  0.24172056865E-01  0.00000000000E+00 0. -1.
     999901    1    3    3    0    0  0.70924560731E-01 -0.61689483632E-01  0.10537555537E+00  0.89125747872E+00  0.88000000000E+00 0.  1.
        -11    1    4    4    0    0 -0.73592607623E-02  0.17051047574E-01 -0.17365256415E-01  0.25430497316E-01  0.51100000000E-03 0. -1.
         11    1    4    4    0    0 -0.64550165637E-01  0.48385134465E-01 -0.64150696613E-01  0.10306996710E+00  0.51100000000E-03 0.  1.
</event>
<event>
 8    1  0.1123361E+005  0.1043930E+01  0.7957747E-01            NaN
         13   -1    0    0    0    0  0.00000000000E+00  0.00000000000E+00  0.74505805969E-08  0.10566000000E+00  0.10566000000E+00 0.  1.
     999900   -1    0    0    0    0 -0.00000000000E+00 -0.00000000000E+00 -0.74505805969E-08  0.93827000000E+00  0.93827000000E+00 0.  1.
     999902    2    1    2    0    0  0.15189366482E-01 -0.20899131824E-02  0.19878922689E-01  0.10188250969E+01  0.10185157446E+01 0.  0.
     999903    2    3    3    0    0  0.18517542767E-01 -0.11972029151E+00  0.44631612794E-01  0.13064680495E+00  0.20018970819E-01 0.  0.
         14    1    1    2    0    0 -0.15189366482E-01  0.20899131824E-02 -0.19878922689E-01  0.25104903077E-01  0.00000000000E+00 0. -1.
     999901    1    3    3    0    0 -0.33281762850E-02  0.11763037833E+00 -0.24752690105E-01  0.88817829197E+00  0.88000000000E+00 0.  1.
        -11    1    4    4    0    0  0.57357772546E-02 -0.55009770810E-01  0.30590681489E-01  0.63206209665E-01  0.51100000000E-03 0.  1.
         11    1    4    4    0    0  0.12781765513E-01 -0.64710520705E-01  0.14040931305E-01  0.67440595285E-01  0.51100000000E-03 0. -1.
</event>
<event>
 8    1  0.1123361E+005  0.1043930E+01  0.7957747E-01            NaN
         13   -1    0    0    0    0  0.00000000000E+00  0.00000000000E+00  0.74505805969E-08  0.10566000000E+00  0.10566000000E+00 0. -1.
     999900   -1    0    0    0    0 -0.00000000000E+00 -0.00000000000E+00 -0.74505805969E-08  0.93827000000E+00  0.93827000000E+00 0.  1.
     999902    2    1    2    0    0 -0.15720416626E-01  0.13344993806E-02 -0.17626841997E-01  0.10202737546E+01  0.10199994688E+01 0.  0.
     999903    2    3    3    0    0 -0.17767784926E-01  0.65281395395E-01  0.10818424404E+00  0.12902641149E+00  0.19147570028E-01 0.  0.
         14    1    1    2    0    0  0.15720416626E-01 -0.13344993806E-02  0.17626841997E-01  0.23656245397E-01  0.00000000000E+00 0. -1.
     999901    1    3    3    0    0  0.20473682997E-02 -0.63946896015E-01 -0.12581108604E+00  0.89124734311E+00  0.88000000000E+00 0. -1.
        -11    1    4    4    0    0 -0.72899046634E-02  0.46836498075E-01  0.86802532244E-01  0.98902684427E-01  0.51100000000E-03 0.  1.
         11    1    4    4    0    0 -0.10477880263E-01  0.18444897320E-01  0.21381711799E-01  0.30123727067E-01  0.51100000000E-03 0. -1.
</event>
<event>
 8    1  0.1123361E+005  0.1043930E+01  0.7957747E-01            NaN
         13   -1    0    0    0    0  0.00000000000E+00  0.00000000000E+00  0.74505805969E-08  0.10566000000E+00  0.10566000000E+00 0. -1.
     999900   -1    0    0    0    0 -0.00000000000E+00 -0.00000000000E+00 -0.74505805969E-08  0.93827000000E+00  0.93827000000E+00 0.  1.
     999902    2    1    2    0    0 -0.14656448524E-02 -0.22210344730E-01  0.10697051528E-01  0.10192343640E+01  0.10189351374E+01 0.  0.
     999903    2    3    3    0    0  0.78880931300E-01  0.12321644696E-01 -0.98440094833E-01  0.12819062356E+00  0.19192692559E-01 0.  0.
         14    1    1    2    0    0  0.14656448524E-02  0.22210344730E-01 -0.10697051528E-01  0.24695636037E-01  0.00000000000E+00 0.  1.
     999901    1    3    3    0    0 -0.80346576153E-01 -0.34531989425E-01  0.10913714636E+00  0.89104374040E+00  0.88000000000E+00 0. -1.
        -11    1    4    4    0    0  0.44142415127E-01  0.47702874588E-02 -0.68891952232E-01  0.81961397371E-01  0.51100000000E-03 0.  1.
         11    1    4    4    0    0  0.34738516173E-01  0.75513572368E-02 -0.29548142601E-01  0.46229226191E-01  0.51100000000E-03 0. -1.
</event>
<event>
 8    1  0.1123361E+005  0.1043930E+01  0.7957747E-01            NaN
         13   -1    0    0    0    0  0.00000000000E+00  0.00000000000E+00  0.74505805969E-08  0.10566000000E+00  0.10566000000E+00 0. -1.
     999900   -1    0    0    0    0 -0.00000000000E+00 -0.00000000000E+00 -0.74505805969E-08  0.93827000000E+00  0.93827000000E+00 0.  1.
     999902    2    1    2    0    0 -0.22215790578E-01 -0.23053782499E-02 -0.84528783521E-02  0.10200488930E+01  0.10197693057E+01 0.  0.
     999903    2    3    3    0    0 -0.91124667544E-01  0.78243632659E-01  0.49671221951E-01  0.13178373690E+00  0.21770437146E-01 0.  0.
         14    1    1    2    0    0  0.22215790578E-01  0.23053782499E-02  0.84528783521E-02  0.23881107016E-01  0.00000000000E+00 0. -1.
     999901    1    3    3    0    0  0.68908876966E-01 -0.80549010909E-01 -0.58124100303E-01  0.88826515609E+00  0.88000000000E+00 0. -1.
        -11    1    4    4    0    0 -0.83122831040E-01  0.71801633402E-01  0.51536163242E-01  0.12133060967E+00  0.51100000000E-03 0. -1.
         11    1    4    4    0    0 -0.80018365039E-02  0.64419992571E-02 -0.18649412909E-02  0.10453127230E-01  0.51100000000E-03 0.  1.
</event>
<event>
 8    1  0.1123361E+005  0.1043930E+01  0.7957747E-01            NaN
         13   -1    0    0    0    0  0.00000000000E+00  0.00000000000E+00  0.74505805969E-08  0.10566000000E+00  0.10566000000E+00 0.  1.
     999900   -1    0    0    0    0 -0.00000000000E+00 -0.00000000000E+00 -0.74505805969E-08  0.93827000000E+00  0.93827000000E+00 0. -1.
     999902    2    1    2    0    0 -0.49124049172E-02  0.81391645429E-02 -0.22176627118E-01  0.10198015829E+01  0.10195161048E+01 0.  0.
     999903    2    3    3    0    0 -0.97859559550E-01  0.51292209910E-01 -0.70128177394E-01  0.13255826224E+00  0.21126936138E-01 0.  0.
         14    1    1    2    0    0  0.49124049172E-02 -0.81391645429E-02  0.22176627118E-01  0.24128417102E-01  0.00000000000E+00 0.  1.
     999901    1    3    3    0    0  0.92947154633E-01 -0.43153045367E-01  0.47951550276E-01  0.88724332066E+00  0.88000000000E+00 0.  1.
        -11    1    4    4    0    0 -0.40443600145E-01  0.97333813115E-02 -0.26662251505E-01  0.49412147097E-01  0.51100000000E-03 0. -1.
         11    1    4    4    0    0 -0.57415959406E-01  0.41558828598E-01 -0.43465925890E-01  0.83146115143E-01  0.51100000000E-03 0.  1.
</event>
<event>
 8    1  0.1123361E+005  0.1043930E+01  0.7957747E-01            NaN
         13   -1    0    0    0    0  0.00000000000E+00  0.00000000000E+00  0.74505805969E-08  0.10566000000E+00  0.10566000000E+00 0. -1.
     999900   -1    0    0    0    0 -0.00000000000E+00 -0.00000000000E+00 -0.74505805969E-08  0.93827000000E+00  0.93827000000E+00 0.  1.
     999902    2    1    2    0    0 -0.42790534545E-02  0.11516144744E-01 -0.20393191175E-01  0.10201221413E+01  0.10198442867E+01 0.  0.
     999903    2    3    3    0    0  0.53417190975E-01  0.10783206496E+00 -0.51887410678E-01  0.13242990921E+00  0.19084730520E-01 0.  0.
         14    1    1    2    0    0  0.42790534545E-02 -0.11516144744E-01  0.20393191175E-01  0.23807858672E-01  0.00000000000E+00 0. -1.
     999901    1    3    3    0    0 -0.57696244430E-01 -0.96315920221E-01  0.31494219502E-01  0.88769223212E+00  0.88000000000E+00 0. -1.
        -11    1    4    4    0    0  0.43210005961E-02  0.25495764846E-01 -0.13385343765E-01  0.29122733731E-01  0.51100000000E-03 0. -1.
         11    1    4    4    0    0  0.49096190379E-01  0.82336300118E-01 -0.38502066913E-01  0.10330717547E+00  0.51100000000E-03 0.  1.
</event>
<event>
 8    1  0.1123361E+005  0.1043930E+01  0.7957747E-01            NaN
         13   -1    0    0    0    0  0.00000000000E+00  0.00000000000E+00  0.74505805969E-08  0.10566000000E+00  0.10566000000E+00 0.  1.
     999900   -1    0    0    0    0 -0.00000000000E+00 -0.00000000000E+00 -0.74505805969E-08  0.93827000000E+00  0.93827000000E+00 0.  1.
     999902    2    1    2    0    0 -0.10766402415E-01 -0.19914835478E-01 -0.64160762128E-02  0.10203995489E+01  0.10201282063E+01 0.  0.
     999903    2    3    3    0    0  0.25310986566E-01 -0.66123523872E-01  0.10854185307E+00  0.13098842557E+00  0.19070063320E-01 0.  0.
         14    1    1    2    0    0  0.10766402415E-01  0.19914835478E-01  0.64160762128E-02  0.23530451059E-01  0.00000000000E+00 0.  1.
     999901    1    3    3    0    0 -0.36077388980E-01  0.46208688394E-01 -0.11495792928E+00  0.88941112337E+00  0.88000000000E+00 0.  1.
        -11    1    4    4    0    0  0.37557632564E-02 -0.35349428757E-01  0.47972030766E-01  0.59709837782E-01  0.51100000000E-03 0. -1.
         11    1    4    4    0    0  0.21555223309E-01 -0.30774095115E-01  0.60569822300E-01  0.71278587784E-01  0.51100000000E-03 0.  1.
</event>
<event>
 8    1  0.1123361E+005  0.1043930E+01  0.7957747E-01            NaN
         13   -1    0    0    0    0  0.00000000000E+00  0.00000000000E+00  0.74505805969E-08  0.10566000000E+00  0.10566000000E+00 0.  1.
     999900   -1    0    0    0    0 -0.00000000000E+00 -0.00000000000E+00 -0.74505805969E-08  0.93827000000E+00  0.93827000000E+00 0. -1.
     999902    2    1    2    0    0  0.11336602217E-01  0.70367501897E-02  0.16648603331E-01  0.10225943398E+01  0.10223717393E+01 0.  0.
     999903    2    3    3    0    0 -0.38178803834E-01 -0.11647106719E+00 -0.40677213671E-01  0.13074670389E+00  0.20418969417E-01 0.  0.
         14    1    1    2    0    0 -0.11336602217E-01 -0.70367501897E-02 -0.16648603331E-01  0.21335660195E-01  0.00000000000E+00 0.  1.
     999901    1    3    3    0    0  0.49515406052E-01  0.12350781738E+00  0.57325817002E-01  0.89184763591E+00  0.88000000000E+00 0.  1.
        -11    1    4    4    0    0 -0.29121077137E-01 -0.59033343865E-01 -0.17206930441E-01  0.68039050535E-01  0.51100000000E-03 0. -1.
         11    1    4    4    0    0 -0.90577266974E-02 -0.57437723324E-01 -0.23470283230E-01  0.62707653357E-01  0.51100000000E-03 0.  1.
</event>
<event>
 8    1  0.1123361E+005  0.1043930E+01  0.7957747E-01            NaN
         13   -1    0    0    0    0  0.00000000000E+00  0.00000000000E+00  0.74505805969E-08  0.10566000000E+00  0.10566000000E+00 0. -1.
     999900   -1    0    0    0    0 -0.00000000000E+00 -0.00000000000E+00 -0.74505805969E-08  0.93827000000E+00  0.93827000000E+00 0.  1.
     999902    2    1    2    0    0 -0.59341163304E-02  0.19116726809E-01  0.11545771229E-01  0.10208222564E+01  0.10205606848E+01 0.  0.
     999903    2    3    3    0    0  0.14697299385E-01 -0.11898166939E+00  0.43741246788E-01  0.12923189588E+00  0.20370026531E-01 0.  0.
         14    1    1    2    0    0  0.59341163304E-02 -0.19116726809E-01 -0.11545771229E-01  0.23107743589E-01  0.00000000000E+00 0.  1.
     999901    1    3    3    0    0 -0.20631415715E-01  0.13809839620E+00 -0.32195475560E-01  0.89159036053E+00  0.88000000000E+00 0. -1.
        -11    1    4    4    0    0  0.12186144497E-01 -0.97614898413E-01  0.27129385287E-01  0.10204624039E+00  0.51100000000E-03 0.  1.
         11    1    4    4    0    0  0.25111548876E-02 -0.21366770980E-01  0.16611861502E-01  0.27185655492E-01  0.51100000000E-03 0. -1.
</event>
<event>
 8    1  0.1123361E+005  0.1043930E+01  0.7957747E-01            NaN
         13   -1    0    0    0    0  0.00000000000E+00  0.00000000000E+00  0.74505805969E-08  0.10566000000E+00  0.10566000000E+00 0.  1.
     999900   -1    0    0    0    0 -0.00000000000E+00 -0.00000000000E+00 -0.74505805969E-08  0.93827000000E+00  0.93827000000E+00 0.  1.
     999902    2    1    2    0    0  0.23263942235E-01 -0.43012299854E-02  0.56884023881E-02  0.10195975215E+01  0.10193071354E+01 0.  0.
     999903    2    3    3    0    0  0.70606930968E-01 -0.62126453759E-01  0.90812587828E-01  0.13233699493E+00  0.20521188098E-01 0.  0.
         14    1    1    2    0    0 -0.23263942235E-01  0.43012299854E-02 -0.56884023881E-02  0.24332478489E-01  0.00000000000E+00 0. -1.
     999901    1    3    3    0    0 -0.47342988733E-01  0.57825223773E-01 -0.85124185440E-01  0.88726052658E+00  0.88000000000E+00 0.  1.
        -11    1    4    4    0    0  0.32046879020E-01 -0.28213772518E-01  0.55449152303E-01  0.69984919996E-01  0.51100000000E-03 0. -1.
         11    1    4    4    0    0  0.38560051948E-01 -0.33912681240E-01  0.35363435525E-01  0.62352074931E-01  0.51100000000E-03 0.  1.
</event>
<event>
 8    1  0.1123361E+005  0.1043930E+01  0.7957747E-01            NaN
         13   -1    0    0    0    0  0.00000000000E+00  0.00000000000E+00  0.74505805969E-08  0.10566000000E+00  0.10566000000E+00 0.  1.
     999900   -1    0    0    0    0 -0.00000000000E+00 -0.00000000000E+00 -0.74505805969E-08  0.93827000000E+00  0.93827000000E+00 0. -1.
     999902    2    1    2    0    0  0.18702387461E-01 -0.73611155962E-02  0.12462633217E-01  0.10202808447E+01  0.10200067252E+01 0.  0.
     999903    2    3    3    0    0  0.12184153081E+00 -0.40373343393E-01 -0.27322915229E-01  0.13275034949E+00  0.20018693903E-01 0.  0.
         14    1    1    2    0    0 -0.18702387461E-01  0.73611155962E-02 -0.12462633217E-01  0.23649155297E-01  0.00000000000E+00 0.  1.
     999901    1    3    3    0    0 -0.10313914335E+00  0.33012227797E-01  0.39785548446E-01  0.88753049522E+00  0.88000000000E+00 0.  1.
        -11    1    4    4    0    0  0.24687300575E-01 -0.61046608200E-03 -0.83407935961E-02  0.26070393886E-01  0.51100000000E-03 0.  1.
         11    1    4    4    0    0  0.97154230233E-01 -0.39762877311E-01 -0.18982121633E-01  0.10667995560E+00  0.51100000000E-03 0. -1.
</event>
<event>
 8    1  0.1123361E+005  0.1043930E+01  0.7957747E-01            NaN
         13   -1    0    0    0    0  0.00000000000E+00  0.00000000000E+00  0.74505805969E-08  0.10566000000E+00  0.10566000000E+00 0.  1.
     999900   -1    0    0    0    0 -0.00000000000E+00 -0.00000000000E+00 -0.74505805969E-08  0.93827000000E+00  0.93827000000E+00 0. -1.
     999902    2    1    2    0    0  0.16300847400E-01 -0.13477352288E-02  0.17167112642E-01  0.10202183199E+01  0.10199427320E+01 0.  0.
     999903    2    3    3    0    0 -0.11685232562E-01 -0.15685727404E-01 -0.12506232402E+00  0.12824409868E+00  0.20576133054E-01 0.  0.
         14    1    1    2    0    0 -0.16300847400E-01  0.13477352288E-02 -0.17167112642E-01  0.23711680089E-01  0.00000000000E+00 0. -1.
     999901    1    3    3    0    0  0.27986079962E-01  0.14337992175E-01  0.14222943666E+00  0.89197422123E+00  0.88000000000E+00 0.  1.
        -11    1    4    4    0    0 -0.22977547336E-02  0.18015827264E-02 -0.63292510800E-01  0.63361884611E-01  0.51100000000E-03 0. -1.
         11    1    4    4    0    0 -0.93874778289E-02 -0.17487310130E-01 -0.61769813222E-01  0.64882214066E-01  0.51100000000E-03 0.  1.
</event>
<event>
 8    1  0.1123361E+005  0.1043930E+01  0.7957747E-01            NaN
         13   -1    0    0    0    0  0.00000000000E+00  0.00000000000E+00  0.74505805969E-08  0.10566000000E+00  0.10566000000E+00 0. -1.
     999900   -1    0    0    0    0 -0.00000000000E+00 -0.00000000000E+00 -0.74505805969E-08  0.93827000000E+00  0.93827000000E+00 0. -1.
     999902    2    1    2    0    0 -0.16945813727E-01 -0.10201218069E-01 -0.14098450117E-01  0.10196402542E+01  0.10193508995E+01 0.  0.
     999903    2    3    3    0    0  0.10287003184E+00 -0.25843468912E-01 -0.71573277670E-01  0.12952572641E+00  0.20101029600E-01 0.  0.
         14    1    1    2    0    0  0.16945813727E-01  0.10201218069E-01  0.14098450117E-01  0.24289745751E-01  0.00000000000E+00 0. -1.
     999901    1    3    3    0    0 -0.11981584556E+00  0.15642250843E-01  0.57474827553E-01  0.89011452783E+00  0.88000000000E+00 0.  1.
        -11    1    4    4    0    0  0.30112909862E-01 -0.39049957252E-02 -0.30923774206E-01  0.43342557194E-01  0.51100000000E-03 0. -1.
         11    1    4    4    0    0  0.72757121976E-01 -0.21938473187E-01 -0.40649503464E-01  0.86183169220E-01  0.51100000000E-03 0.  1.
</event>
<event>
 8    1  0.1123361E+005  0.1043930E+01  0.7957747E-01            NaN
         13   -1    0    0    0    0  0.00000000000E+00  0.00000000000E+00  0.74505805969E-08  0.10566000000E+00  0.10566000000E+00 0. -1.
     999900   -1    0    0    0    0 -0.00000000000E+00 -0.00000000000E+00 -0.74505805969E-08  0.93827000000E+00  0.93827000000E+00 0.  1.
     999902    2    1    2    0    0  0.72084548991E-02  0.20673103533E-01 -0.95388741340E-02  0.10200484349E+01  0.10197688367E+01 0.  0.
     999903    2    3    3    0    0  0.47872704949E-02 -0.29871250539E-01 -0.12583356013E+00  0.13095617431E+00  0.20005628384E-01 0.  0.
         14    1    1    2    0    0 -0.72084548991E-02 -0.20673103533E-01  0.95388741340E-02  0.23881565097E-01  0.00000000000E+00 0. -1.
     999901    1    3    3    0    0  0.24211844042E-02  0.50544354073E-01  0.11629468599E+00  0.88909226060E+00  0.88000000000E+00 0. -1.
        -11    1    4    4    0    0  0.66218864612E-02 -0.11900805711E-01 -0.24605459749E-01  0.28127714577E-01  0.51100000000E-03 0. -1.
         11    1    4    4    0    0 -0.18346159663E-02 -0.17970444828E-01 -0.10122810038E+00  0.10282845973E+00  0.51100000000E-03 0.  1.
</event>
<event>
 8    1  0.1123361E+005  0.1043930E+01  0.7957747E-01            NaN
         13   -1    0    0    0    0  0.00000000000E+00  0.00000000000E+00  0.74505805969E-08  0.10566000000E+00  0.10566000000E+00 0. -1.
     999900   -1    0    0    0    0 -0.00000000000E+00 -0.00000000000E+00 -0.74505805969E-08  0.93827000000E+00  0.93827000000E+00 0.  1.
     999902    2    1    2    0    0 -0.36439262009E-02  0.20312967511E-01 -0.11107004272E-01  0.10204936950E+01  0.10202245445E+01 0.  0.
     999903    2    3    3    0    0  0.80087473602E-01 -0.83063298208E-03 -0.10364474221E+00  0.13143732330E+00  0.10901559046E-01 0.  0.
         14    1    1    2    0    0  0.36439262009E-02 -0.20312967511E-01  0.11107004272E-01  0.23436304981E-01  0.00000000000E+00 0. -1.
     999901    1    3    3    0    0 -0.83731399803E-01  0.21143600493E-01  0.92537737934E-01  0.88905637172E+00  0.88000000000E+00 0. -1.
        -11    1    4    4    0    0  0.45089277141E-01  0.43322267891E-02 -0.62139647318E-01  0.76898686542E-01  0.51100000000E-03 0.  1.
         11    1    4    4    0    0  0.34998196461E-01 -0.51628597712E-02 -0.41505094889E-01  0.54538636756E-01  0.51100000000E-03 0. -1.
</event>
<event>
 8    1  0.1123361E+005  0.1043930E+01  0.7957747E-01            NaN
         13   -1    0    0    0    0  0.00000000000E+00  0.00000000000E+00  0.74505805969E-08  0.10566000000E+00  0.10566000000E+00 0.  1.
     999900   -1    0    0    0    0 -0.00000000000E+00 -0.00000000000E+00 -0.74505805969E-08  0.93827000000E+00  0.93827000000E+00 0.  1.
     999902    2    1    2    0    0  0.92753596507E-03  0.18921276446E-01 -0.16464088727E-01  0.10188313697E+01  0.10185221739E+01 0.  0.
     999903    2    3    3    0    0  0.42193056711E-02 -0.20901284944E-01 -0.12759223619E+00  0.13094278587E+00  0.20287143250E-01 0.  0.
         14    1    1    2    0    0 -0.92753596507E-03 -0.18921276446E-01  0.16464088727E-01  0.25098630300E-01  0.00000000000E+00 0.  1.
     999901    1    3    3    0    0 -0.32917697060E-02  0.39822561390E-01  0.11112814747E+00  0.88788858383E+00  0.88000000000E+00 0. -1.
        -11    1    4    4    0    0  0.12240857181E-01 -0.12514471714E-01 -0.67279643696E-01  0.69521666865E-01  0.51100000000E-03 0. -1.
         11    1    4    4    0    0 -0.80215515100E-02 -0.83868132306E-02 -0.60312592496E-01  0.61421119001E-01  0.51100000000E-03 0.  1.
</event>
<event>
 8    1  0.1123361E+005  0.1043930E+01  0.7957747E-01            NaN
         13   -1    0    0    0    0  0.00000000000E+00  0.00000000000E+00  0.74505805969E-08  0.10566000000E+00  0.10566000000E+00 0. -1.
     999900   -1    0    0    0    0 -0.00000000000E+00 -0.00000000000E+00 -0.74505805969E-08  0.93827000000E+00  0.93827000000E+00 0.  1.
     999902    2    1    2    0    0 -0.14034921874E-01 -0.28446274143E-02 -0.18929124078E-01  0.10201943164E+01  0.10199181637E+01 0.  0.
     999903    2    3    3    0    0  0.17644551614E-01 -0.11842225610E+00 -0.49821235879E-01  0.13153459533E+00  0.22000756402E-01 0.  0.
         14    1    1    2    0    0  0.14034921874E-01  0.28446274143E-02  0.18929124078E-01  0.23735683591E-01  0.00000000000E+00 0. -1.
     999901    1    3    3    0    0 -0.31679473488E-01  0.11557762869E+00  0.30892111801E-01  0.88865972108E+00  0.88000000000E+00 0. -1.
        -11    1    4    4    0    0 -0.43768519024E-02 -0.37591591462E-01 -0.18071625502E-01  0.41941975997E-01  0.51100000000E-03 0. -1.
         11    1    4    4    0    0  0.22021403516E-01 -0.80830664642E-01 -0.31749610377E-01  0.89592619335E-01  0.51100000000E-03 0.  1.
</event>
<event>
 8    1  0.1123361E+005  0.1043930E+01  0.7957747E-01            NaN
         13   -1    0    0    0    0  0.00000000000E+00  0.00000000000E+00  0.74505805969E-08  0.10566000000E+00  0.10566000000E+00 0.  1.
     999900   -1    0    0    0    0 -0.00000000000E+00 -0.00000000000E+00 -0.74505805969E-08  0.93827000000E+00  0.93827000000E+00 0.  1.
     999902    2    1    2    0    0  0.34089278352E-02 -0.50886593339E-02  0.24740264279E-01  0.10184428283E+01  0.10181238621E+01 0.  0.
     999903    2    3    3    0    0 -0.67967245781E-01 -0.93625203272E-01 -0.50705538014E-01  0.12792312229E+00  0.20200209019E-01 0.  0.
         14    1    1    2    0    0 -0.34089278352E-02  0.50886593339E-02 -0.24740264279E-01  0.25487171664E-01  0.00000000000E+00 0. -1.
     999901    1    3    3    0    0  0.71376173616E-01  0.88536543938E-01  0.75445802293E-01  0.89051970605E+00  0.88000000000E+00 0.  1.
        -11    1    4    4    0    0 -0.29208977208E-01 -0.46878587597E-01 -0.14064105716E-01  0.56998478184E-01  0.51100000000E-03 0.  1.
         11    1    4    4    0    0 -0.38758268574E-01 -0.46746615675E-01 -0.36641432297E-01  0.70924644107E-01  0.51100000000E-03 0. -1.
</event>
<event>
 8    1  0.1123361E+005  0.1043930E+01  0.7957747E-01            NaN
         13   -1    0    0    0    0  0.00000000000E+00  0.00000000000E+00  0.74505805969E-08  0.10566000000E+00  0.10566000000E+00 0. -1.
     999900   -1    0    0    0    0 -0.00000000000E+00 -0.00000000000E+00 -0.74505805969E-08  0.93827000000E+00  0.93827000000E+00 0.  1.
     999902    2    1    2    0    0  0.48152589755E-02  0.39107643455E-02 -0.22448159514E-01  0.10206405032E+01  0.10203747528E+01 0.  0.
     999903    2    3    3    0    0 -0.69937564083E-01 -0.42732809231E-01 -0.10223739799E+00  0.13264842546E+00  0.20634034369E-01 0.  0.
         14    1    1    2    0    0 -0.48152589755E-02 -0.39107643455E-02  0.22448159514E-01  0.23289496825E-01  0.00000000000E+00 0. -1.
     999901    1    3    3    0    0  0.74752823058E-01  0.46643573577E-01  0.79789238475E-01  0.88799207772E+00  0.88000000000E+00 0.  1.
        -11    1    4    4    0    0 -0.25243748427E-01 -0.25526221560E-01 -0.52471870675E-01  0.63579817198E-01  0.51100000000E-03 0.  1.
         11    1    4    4    0    0 -0.44693815656E-01 -0.17206587671E-01 -0.49765527314E-01  0.69068608260E-01  0.51100000000E-03 0. -1.
</event>
<event>
 8    1  0.1123361E+005  0.1043930E+01  0.7957747E-01            NaN
         13   -1    0    0    0    0  0.00000000000E+00  0.00000000000E+00  0.74505805969E-08  0.10566000000E+00  0.10566000000E+00 0.  1.
     999900   -1    0    0    0    0 -0.00000000000E+00 -0.00000000000E+00 -0.74505805969E-08  0.93827000000E+00  0.93827000000E+00 0. -1.
     999902    2    1    2    0    0  0.12859428004E-01  0.13360554198E-01  0.15327147920E-01  0.10198719294E+01  0.10195881333E+01 0.  0.
     999903    2    3    3    0    0 -0.62724634972E-01  0.38594584201E-01  0.10707275926E+00  0.13152123062E+00  0.20232067784E-01 0.  0.
         14    1    1    2    0    0 -0.12859428004E-01 -0.13360554198E-01 -0.15327147920E-01  0.24058070588E-01  0.00000000000E+00 0. -1.
     999901    1    3    3    0    0  0.75584062976E-01 -0.25234030003E-01 -0.91745611336E-01  0.88835069879E+00  0.88000000000E+00 0. -1.
        -11    1    4    4    0    0 -0.16823193793E-01  0.65035896183E-02  0.41698634654E-01  0.45435160177E-01  0.51100000000E-03 0.  1.
         11    1    4    4    0    0 -0.45901441180E-01  0.32090994582E-01  0.65374124602E-01  0.86086070442E-01  0.51100000000E-03 0. -1.
</event>
<event>
 8    1  0.1123361E+005  0.1043930E+01  0.7957747E-01            NaN
         13   -1    0    0    0    0  0.00000000000E+00  0.00000000000E+00  0.74505805969E-08  0.10566000000E+00  0.10566000000E+00 0.  1.
     999900   -1    0    0    0    0 -0.00000000000E+00 -0.00000000000E+00 -0.74505805969E-08  0.93827000000E+00  0.93827000000E+00 0.  1.
     999902    2    1    2    0    0 -0.14697133276E-01 -0.10456264768E-02 -0.18249629948E-01  0.10204747649E+01  0.10202051743E+01 0.  0.
     999903    2    3    3    0    0  0.58866898852E-01 -0.88862216837E-01  0.68113487010E-01  0.12885712916E+00  0.24554169905E-01 0.  0.
         14    1    1    2    0    0  0.14697133276E-01  0.10456264768E-02  0.18249629948E-01  0.23455235120E-01  0.00000000000E+00 0.  1.
     999901    1    3    3    0    0 -0.73564032128E-01  0.87816590361E-01 -0.86363116959E-01  0.89161763573E+00  0.88000000000E+00 0.  1.
        -11    1    4    4    0    0  0.36421139718E-01 -0.73939622101E-01  0.51436211810E-01  0.97157151776E-01  0.51100000000E-03 0. -1.
         11    1    4    4    0    0  0.22445759134E-01 -0.14922594737E-01  0.16677275200E-01  0.31699977380E-01  0.51100000000E-03 0.  1.
</event>
<event>
 8    1  0.1123361E+005  0.1043930E+01  0.7957747E-01            NaN
         13   -1    0    0    0    0  0.00000000000E+00  0.00000000000E+00  0.74505805969E-08  0.10566000000E+00  0.10566000000E+00 0.  1.
     999900   -1    0    0    0    0 -0.00000000000E+00 -0.00000000000E+00 -0.74505805969E-08  0.93827000000E+00  0.93827000000E+00 0. -1.
     999902    2    1    2    0    0 -0.66523075417E-03 -0.25549363271E-01  0.35918228140E-02  0.10181208217E+01  0.10177936401E+01 0.  0.
     999903    2    3    3    0    0  0.56140124603E-01  0.51256109215E-01 -0.99548688397E-01  0.12696208493E+00  0.20749152398E-01 0.  0.
         14    1    1    2    0    0  0.66523075417E-03  0.25549363271E-01 -0.35918228140E-02  0.25809178341E-01  0.00000000000E+00 0. -1.
     999901    1    3    3    0    0 -0.56805355357E-01 -0.76805472486E-01  0.10314051121E+00  0.89115873673E+00  0.88000000000E+00 0.  1.
        -11    1    4    4    0    0  0.44627681475E-01  0.50173511329E-01 -0.82892631262E-01  0.10667924180E+00  0.51100000000E-03 0.  1.
         11    1    4    4    0    0  0.11512443128E-01  0.10825978857E-02 -0.16656057136E-01  0.20282843125E-01  0.51100000000E-03 0. -1.
</event>
<event>
 8    1  0.1123361E+005  0.1043930E+01  0.7957747E-01            NaN
         13   -1    0    0    0    0  0.00000000000E+00  0.00000000000E+00  0.74505805969E-08  0.10566000000E+00  0.10566000000E+00 0.  1.
     999900   -1    0    0    0    0 -0.00000000000E+00 -0.00000000000E+00 -0.74505805969E-08  0.93827000000E+00  0.93827000000E+00 0. -1.
     999902    2    1    2    0    0  0.14778778060E-01 -0.17879136111E-01 -0.98948966833E-02  0.10187112615E+01  0.10183990621E+01 0.  0.
     999903    2    3    3    0    0  0.18463038052E-02 -0.10938405209E+00  0.68359411722E-01  0.13041844083E+00  0.19175005851E-01 0.  0.
         14    1    1    2    0    0 -0.14778778060E-01  0.17879136111E-01  0.98948966833E-02  0.25218738458E-01  0.00000000000E+00 0.  1.
     999901    1    3    3    0    0  0.12932474255E-01  0.91504915978E-01 -0.78254308405E-01  0.88829282071E+00  0.88000000000E+00 0. -1.
        -11    1    4    4    0    0  0.71466684978E-02 -0.91735950305E-01  0.51551471101E-01  0.10547215150E+00  0.51100000000E-03 0.  1.
         11    1    4    4    0    0 -0.53003646926E-02 -0.17648101784E-01  0.16807940621E-01  0.24946289331E-01  0.51100000000E-03 0. -1.
</event>
<event>
 8    1  0.1123361E+005  0.1043930E+01  0.7957747E-01            NaN
         13   -1    0    0    0    0  0.00000000000E+00  0.00000000000E+00  0.74505805969E-08  0.10566000000E+00  0.10566000000E+00 0. -1.
     999900   -1    0    0    0    0 -0.00000000000E+00 -0.00000000000E+00 -0.74505805969E-08  0.93827000000E+00  0.93827000000E+00 0. -1.
     999902    2    1    2    0    0 -0.15980529959E-01  0.16683985415E-01  0.35347816407E-02  0.10205584920E+01  0.10202908449E+01 0.  0.
     999903    2    3    3    0    0 -0.34932649144E-01  0.51095451015E-01 -0.11482398634E+00  0.13176597975E+00  0.18619626495E-01 0.  0.
         14    1    1    2    0    0  0.15980529959E-01 -0.16683985415E-01 -0.35347816407E-02  0.23371508046E-01  0.00000000000E+00 0.  1.
     999901    1    3    3    0    0  0.18952119185E-01 -0.34411465599E-01  0.11835876798E+00  0.88879251220E+00  0.88000000000E+00 0.  1.
        -11    1    4    4    0    0 -0.19738525599E-01  0.20769352423E-01 -0.36458048855E-01  0.46372684203E-01  0.51100000000E-03 0.  1.
         11    1    4    4    0    0 -0.15194123545E-01  0.30326098592E-01 -0.78365937484E-01  0.85393295550E-01  0.51100000000E-03 0. -1.
</event>
<event>
 8    1  0.1123361E+005  0.1043930E+01  0.7957747E-01            NaN
         13   -1    0    0    0    0  0.00000000000E+00  0.00000000000E+00  0.74505805969E-08  0.10566000000E+00  0.10566000000E+00 0. -1.
     999900   -1    0    0    0    0 -0.00000000000E+00 -0.00000000000E+00 -0.74505805969E-08  0.93827000000E+00  0.93827000000E+00 0.  1.
     999902    2    1    2    0    0 -0.21301535654E-01  0.94661371813E-02  0.68743791311E-02  0.10196273198E+01  0.10193376531E+01 0.  0.
     999903    2    3    3    0    0  0.44759522123E-01  0.12764340191E-01 -0.11789377214E+00  0.12836864074E+00  0.20327892542E-01 0.  0.
         14    1    1    2    0    0  0.21301535654E-01 -0.94661371813E-02 -0.68743791311E-02  0.24302680157E-01  0.00000000000E+00 0. -1.
     999901    1    3    3    0    0 -0.66061057777E-01 -0.32982030094E-02  0.12476815127E+00  0.89125867910E+00  0.88000000000E+00 0. -1.
        -11    1    4    4    0    0  0.67277242954E-02  0.59084953051E-02 -0.44772543352E-01  0.45661957362E-01  0.51100000000E-03 0.  1.
         11    1    4    4    0    0  0.38031797827E-01  0.68558448856E-02 -0.73121228791E-01  0.82706683382E-01  0.51100000000E-03 0. -1.
</event>
<event>
 8    1  0.1123361E+005  0.1043930E+01  0.7957747E-01            NaN
         13   -1    0    0    0    0  0.00000000000E+00  0.00000000000E+00  0.74505805969E-08  0.10566000000E+00  0.10566000000E+00 0. -1.
     999900   -1    0    0    0    0 -0.00000000000E+00 -0.00000000000E+00 -0.74505805969E-08  0.93827000000E+00  0.93827000000E+00 0. -1.
     999902    2    1    2    0    0  0.46017788986E-02 -0.62096831733E-02  0.24836011560E-01  0.10179191560E+01  0.10175867748E+01 0.  0.
     999903    2    3    3    0    0  0.10686685943E+00  0.50269814359E-01  0.50279470302E-01  0.12983388426E+00  0.19525175713E-01 0.  0.
         14    1    1    2    0    0 -0.46017788986E-02  0.62096831733E-02 -0.24836011560E-01  0.26010843976E-01  0.00000000000E+00 0.  1.
     999901    1    3    3    0    0 -0.10226508053E+00 -0.56479497532E-01 -0.25443458742E-01  0.88808527177E+00  0.88000000000E+00 0. -1.
        -11    1    4    4    0    0  0.56030465375E-01  0.29506787407E-01  0.36969500255E-01  0.73328498030E-01  0.51100000000E-03 0.  1.
         11    1    4    4    0    0  0.50836394057E-01  0.20763026951E-01  0.13309970047E-01  0.56505386226E-01  0.51100000000E-03 0. -1.
</event>
<event>
 8    1  0.1123361E+005  0.1043930E+01  0.7957747E-01            NaN
         13   -1    0    0    0    0  0.00000000000E+00  0.00000000000E+00  0.74505805969E-08  0.10566000000E+00  0.10566000000E+00 0. -1.
     999900   -1    0    0    0    0 -0.00000000000E+00 -0.00000000000E+00 -0.74505805969E-08  0.93827000000E+00  0.93827000000E+00 0.  1.
     999902    2    1    2    0    0  0.28986009532E-02  0.14193612650E-02 -0.24685388283E-01  0.10190345211E+01  0.10187303718E+01 0.  0.
     999903    2    3    3    0    0 -0.62067048282E-01  0.55103252111E-01 -0.10032998625E+00  0.13177773703E+00  0.20262748106E-01 0.  0.
         14    1    1    2    0    0 -0.28986009532E-02 -0.14193612650E-02  0.24685388283E-01  0.24895478879E-01  0.00000000000E+00 0. -1.
     999901    1    3    3    0    0  0.64965649235E-01 -0.53683890846E-01  0.75644597962E-01  0.88725678409E+00  0.88000000000E+00 0. -1.
        -11    1    4    4    0    0 -0.33425579846E-01  0.39068911019E-01 -0.50239423734E-01  0.71888177153E-01  0.51100000000E-03 0. -1.
         11    1    4    4    0    0 -0.28641468436E-01  0.16034341092E-01 -0.50090562512E-01  0.59889559876E-01  0.51100000000E-03 0.  1.
</event>
<event>
 8    1  0.1123361E+005  0.1043930E+01  0.7957747E-01            NaN
         13   -1    0    0    0    0  0.00000000000E+00  0.00000000000E+00  0.74505805969E-08  0.10566000000E+00  0.10566000000E+00 0. -1.
     999900   -1    0    0    0    0 -0.00000000000E+00 -0.00000000000E+00 -0.74505805969E-08  0.93827000000E+00  0.93827000000E+00 0. -1.
     999902    2    1    2    0    0  0.15492353213E-01 -0.11424805638E-01 -0.15561192674E-01  0.10191774262E+01  0.10188768013E+01 0.  0.
     999903    2    3    3    0    0  0.42088142644E-01 -0.38310336583E-01 -0.11795856602E+00  0.13243316214E+00  0.19627162220E-01 0.  0.
         14    1    1    2    0    0 -0.15492353213E-01  0.11424805638E-01  0.15561192674E-01  0.24752573793E-01  0.00000000000E+00 0.  1.
     999901    1    3    3    0    0 -0.26595789431E-01  0.26885530945E-01  0.10239737334E+00  0.88674426407E+00  0.88000000000E+00 0.  1.
        -11    1    4    4    0    0  0.14850103899E-01 -0.26475292818E-01 -0.55111822551E-01  0.62920909255E-01  0.51100000000E-03 0.  1.
         11    1    4    4    0    0  0.27238038745E-01 -0.11835043765E-01 -0.62846743467E-01  0.69512252884E-01  0.51100000000E-03 0. -1.
</event>
<event>
 8    1  0.1123361E+005  0.1043930E+01  0.7957747E-01            NaN
         13   -1    0    0    0    0  0.00000000000E+00  0.00000000000E+00  0.74505805969E-08  0.10566000000E+00  0.10566000000E+00 0. -1.
     999900   -1    0    0    0    0 -0.00000000000E+00 -0.00000000000E+00 -0.74505805969E-08  0.93827000000E+00  0.93827000000E+00 0. -1.
     999902    2    1    2    0    0  0.18714882463E-01  0.13103751703E-01  0.82327651446E-02  0.10196455697E+01  0.10193563431E+01 0.  0.
     999903    2    3    3    0    0  0.14182475853E-02 -0.12671201229E+00 -0.40753275100E-02  0.12835487042E+00  0.20010471770E-01 0.  0.
         14    1    1    2    0    0 -0.18714882463E-01 -0.13103751703E-01 -0.82327651446E-02  0.24284430325E-01  0.00000000000E+00 0. -1.
     999901    1    3    3    0    0  0.17296634877E-01  0.13981576399E+00  0.12308092655E-01  0.89129069926E+00  0.88000000000E+00 0. -1.
        -11    1    4    4    0    0 -0.86101278025E-03 -0.70575585884E-02 -0.49431650342E-02  0.86744727674E-02  0.51100000000E-03 0. -1.
         11    1    4    4    0    0  0.22792603656E-02 -0.11965445370E+00  0.86783752417E-03  0.11968039765E+00  0.51100000000E-03 0.  1.
</event>
<event>
 8    1  0.1123361E+005  0.1043930E+01  0.7957747E-01            NaN
         13   -1    0    0    0    0  0.00000000000E+00  0.00000000000E+00  0.74505805969E-08  0.10566000000E+00  0.10566000000E+00 0. -1.
     999900   -1    0    0    0    0 -0.00000000000E+00 -0.00000000000E+00 -0.74505805969E-08  0.93827000000E+00  0.93827000000E+00 0. -1.
     999902    2    1    2    0    0  0.11223375982E-01  0.15264517875E-01  0.10930825242E-01  0.10220564403E+01  0.10218223498E+01 0.  0.
     999903    2    3    3    0    0  0.42113025848E-01 -0.11838179449E+00 -0.28721878576E-01  0.13054769428E+00  0.20736392179E-01 0.  0.
         14    1    1    2    0    0 -0.11223375982E-01 -0.15264517875E-01 -0.10930825242E-01  0.21873559721E-01  0.00000000000E+00 0.  1.
     999901    1    3    3    0    0 -0.30889649866E-01  0.13364631236E+00  0.39652703818E-01  0.89150874600E+00  0.88000000000E+00 0.  1.
        -11    1    4    4    0    0  0.23806506717E-01 -0.41839444680E-01 -0.52891584150E-02  0.48430622656E-01  0.51100000000E-03 0.  1.
         11    1    4    4    0    0  0.18306519131E-01 -0.76542349806E-01 -0.23432720161E-01  0.82117071621E-01  0.51100000000E-03 0. -1.
</event>
<event>
 8    1  0.1330541E+005  0.1043930E+01  0.7957747E-01            NaN
         13   -1    0    0    0    0  0.00000000000E+00  0.00000000000E+00  0.74505805969E-08  0.10566000000E+00  0.10566000000E+00 0. -1.
     999900   -1    0    0    0    0 -0.00000000000E+00 -0.00000000000E+00 -0.74505805969E-08  0.93827000000E+00  0.93827000000E+00 0.  1.
     999902    2    1    2    0    0 -0.15256513248E-01  0.13825776106E-01  0.11677518985E-01  0.10202598135E+01  0.10199852005E+01 0.  0.
     999903    2    3    3    0    0  0.11617083632E+00 -0.46349772050E-01  0.21411876194E-01  0.12841397335E+00  0.19690493336E-01 0.  0.
         14    1    1    2    0    0  0.15256513248E-01 -0.13825776106E-01 -0.11677518985E-01  0.23670186544E-01  0.00000000000E+00 0.  1.
     999901    1    3    3    0    0 -0.13142734957E+00  0.60175548155E-01 -0.97343572092E-02  0.89184584011E+00  0.88000000000E+00 0.  1.
        -11    1    4    4    0    0  0.68222623014E-01 -0.23133588148E-01  0.21354831356E-01  0.75138399868E-01  0.51100000000E-03 0. -1.
         11    1    4    4    0    0  0.47948213307E-01 -0.23216183902E-01  0.57044837907E-04  0.53275573478E-01  0.51100000000E-03 0.  1.
</event>
<event>
 8    1  0.1123361E+005  0.1043930E+01  0.7957747E-01            NaN
         13   -1    0    0    0    0  0.00000000000E+00  0.00000000000E+00  0.74505805969E-08  0.10566000000E+00  0.10566000000E+00 0. -1.
     999900   -1    0    0    0    0 -0.00000000000E+00 -0.00000000000E+00 -0.74505805969E-08  0.93827000000E+00  0.93827000000E+00 0. -1.
     999902    2    1    2    0    0  0.12252265237E-01  0.19722247935E-01  0.71581600331E-02  0.10196334092E+01  0.10193438894E+01 0.  0.
     999903    2    3    3    0    0 -0.48603621744E-01  0.73921303796E-01  0.95099078369E-01  0.13150358667E+00  0.20559362802E-01 0.  0.
         14    1    1    2    0    0 -0.12252265237E-01 -0.19722247935E-01 -0.71581600331E-02  0.24296590751E-01  0.00000000000E+00 0.  1.
     999901    1    3    3    0    0  0.60855886981E-01 -0.54199055861E-01 -0.87940918336E-01  0.88812982258E+00  0.88000000000E+00 0.  1.
        -11    1    4    4    0    0 -0.23359801696E-01  0.33240980194E-01  0.29146424376E-01  0.50004182569E-01  0.51100000000E-03 0.  1.
         11    1    4    4    0    0 -0.25243820048E-01  0.40680323602E-01  0.65952653993E-01  0.81499404100E-01  0.51100000000E-03 0. -1.
</event>
<event>
 8    1  0.1123361E+005  0.1043930E+01  0.7957747E-01            NaN
         13   -1    0    0    0    0  0.00000000000E+00  0.00000000000E+00  0.74505805969E-08  0.10566000000E+00  0.10566000000E+00 0.  1.
     999900   -1    0    0    0    0 -0.00000000000E+00 -0.00000000000E+00 -0.74505805969E-08  0.93827000000E+00  0.93827000000E+00 0.  1.
     999902    2    1    2    0    0  0.18749210453E-01  0.82482434010E-02  0.70013054811E-02  0.10222831829E+01  0.10220539718E+01 0.  0.
     999903    2    3    3    0    0 -0.10444414072E+00  0.60404399527E-01 -0.45724427151E-01  0.13061235279E+00  0.20287766039E-01 0.  0.
         14    1    1    2    0    0 -0.18749210453E-01 -0.82482434010E-02 -0.70013054811E-02  0.21646817093E-01  0.00000000000E+00 0. -1.
     999901    1    3    3    0    0  0.12319335117E+00 -0.52156156126E-01  0.52725732632E-01  0.89167083011E+00  0.88000000000E+00 0. -1.
        -11    1    4    4    0    0 -0.69798225191E-01  0.30696086855E-01 -0.23119904938E-01  0.79679565218E-01  0.51100000000E-03 0. -1.
         11    1    4    4    0    0 -0.34645915529E-01  0.29708312672E-01 -0.22604522213E-01  0.50932787575E-01  0.51100000000E-03 0.  1.
</event>
<event>
 8    1  0.1123361E+005  0.1043930E+01  0.7957747E-01            NaN
         13   -1    0    0    0    0  0.00000000000E+00  0.00000000000E+00  0.74505805969E-08  0.10566000000E+00  0.10566000000E+00 0. -1.
     999900   -1    0    0    0    0 -0.00000000000E+00 -0.00000000000E+00 -0.74505805969E-08  0.93827000000E+00  0.93827000000E+00 0. -1.
     999902    2    1    2    0    0 -0.13222258623E-01  0.19729945966E-02 -0.14375276875E-01  0.10242991718E+01  0.10241110408E+01 0.  0.
     999903    2    3    3    0    0 -0.39579672140E-01  0.10131480803E+00 -0.79113915987E-01  0.13595543172E+00  0.19840033712E-01 0.  0.
         14    1    1    2    0    0  0.13222258623E-01 -0.19729945966E-02  0.14375276875E-01  0.19630828205E-01  0.00000000000E+00 0. -1.
     999901    1    3    3    0    0  0.26357413518E-01 -0.99341813433E-01  0.64738639111E-01  0.88834374008E+00  0.88000000000E+00 0.  1.
        -11    1    4    4    0    0 -0.63363635215E-02  0.15757623440E-01 -0.42704626496E-02  0.17519993476E-01  0.51100000000E-03 0. -1.
         11    1    4    4    0    0 -0.33243308619E-01  0.85557184589E-01 -0.74843453337E-01  0.11843543824E+00  0.51100000000E-03 0.  1.
</event>
<event>
 8    1  0.1123361E+005  0.1043930E+01  0.7957747E-01            NaN
         13   -1    0    0    0    0  0.00000000000E+00  0.00000000000E+00  0.74505805969E-08  0.10566000000E+00  0.10566000000E+00 0. -1.
     999900   -1    0    0    0    0 -0.00000000000E+00 -0.00000000000E+00 -0.74505805969E-08  0.93827000000E+00  0.93827000000E+00 0. -1.
     999902    2    1    2    0    0  0.46246813631E-03 -0.22857243471E-01 -0.17932434772E-02  0.10209978571E+01  0.10207402907E+01 0.  0.
     999903    2    3    3    0    0  0.67639915864E-01  0.98523005901E-01 -0.45665659625E-01  0.12905012134E+00  0.16930458948E-01 0.  0.
         14    1    1    2    0    0 -0.46246813631E-03  0.22857243471E-01  0.17932434772E-02  0.22932142901E-01  0.00000000000E+00 0.  1.
     999901    1    3    3    0    0 -0.67177447727E-01 -0.12138024937E+00  0.43872416148E-01  0.89194773576E+00  0.88000000000E+00 0. -1.
        -11    1    4    4    0    0  0.38222136628E-01  0.53605106979E-01 -0.34008301659E-01  0.74103069609E-01  0.51100000000E-03 0. -1.
         11    1    4    4    0    0  0.29417779235E-01  0.44917898922E-01 -0.11657357965E-01  0.54947051735E-01  0.51100000000E-03 0.  1.
</event>
<event>
 8    1  0.1123361E+005  0.1043930E+01  0.7957747E-01            NaN
         13   -1    0    0    0    0  0.00000000000E+00  0.00000000000E+00  0.74505805969E-08  0.10566000000E+00  0.10566000000E+00 0. -1.
     999900   -1    0    0    0    0 -0.00000000000E+00 -0.00000000000E+00 -0.74505805969E-08  0.93827000000E+00  0.93827000000E+00 0. -1.
     999902    2    1    2    0    0  0.17141484254E-01 -0.11135540299E-01 -0.13228288715E-01  0.10195821384E+01  0.10192913806E+01 0.  0.
     999903    2    3    3    0    0 -0.30757705199E-01  0.21036777563E-01  0.12047063607E+00  0.12761532691E+00  0.19593750745E-01 0.  0.
         14    1    1    2    0    0 -0.17141484254E-01  0.11135540299E-01  0.13228288715E-01  0.24347861559E-01  0.00000000000E+00 0.  1.
     999901    1    3    3    0    0  0.47899189453E-01 -0.32172317862E-01 -0.13369892478E+00  0.89196681153E+00  0.88000000000E+00 0. -1.
        -11    1    4    4    0    0 -0.15810627768E-01  0.43865648829E-03  0.58933449127E-01  0.61021151390E-01  0.51100000000E-03 0.  1.
         11    1    4    4    0    0 -0.14947077431E-01  0.20598121075E-01  0.61537186940E-01  0.66594175519E-01  0.51100000000E-03 0. -1.
</event>
<event>
 8    1  0.1123361E+005  0.1043930E+01  0.7957747E-01            NaN
         13   -1    0    0    0    0  0.00000000000E+00  0.00000000000E+00  0.74505805969E-08  0.10566000000E+00  0.10566000000E+00 0.  1.
     999900   -1    0    0    0    0 -0.00000000000E+00 -0.00000000000E+00 -0.74505805969E-08  0.93827000000E+00  0.93827000000E+00 0.  1.
     999902    2    1    2    0    0  0.30692138806E-02 -0.14111145637E-01 -0.16754621445E-01  0.10218107359E+01  0.10215712986E+01 0.  0.
     999903    2    3    3    0    0  0.12030266382E+00  0.30410513696E-01  0.37919030879E-01  0.13124065544E+00  0.19716147511E-01 0.  0.
         14    1    1    2    0    0 -0.30692138806E-02  0.14111145637E-01  0.16754621445E-01  0.22119264111E-01  0.00000000000E+00 0.  1.
     999901    1    3    3    0    0 -0.11723344994E+00 -0.44521659333E-01 -0.54673652325E-01  0.89057008045E+00  0.88000000000E+00 0.  1.
        -11    1    4    4    0    0  0.53739613331E-01  0.12418428995E-01  0.27055735890E-01  0.61436449972E-01  0.51100000000E-03 0. -1.
         11    1    4    4    0    0  0.66563050486E-01  0.17992084700E-01  0.10863294990E-01  0.69804205467E-01  0.51100000000E-03 0.  1.
</event>
<event>
 8    1  0.1123361E+005  0.1043930E+01  0.7957747E-01            NaN
         13   -1    0    0    0    0  0.00000000000E+00  0.00000000000E+00  0.74505805969E-08  0.10566000000E+00  0.10566000000E+00 0. -1.
     999900   -1    0    0    0    0 -0.00000000000E+00 -0.00000000000E+00 -0.74505805969E-08  0.93827000000E+00  0.93827000000E+00 0. -1.
     999902    2    1    2    0    0 -0.16545121749E-01  0.17528405550E-01  0.88196534711E-02  0.10182634392E+01  0.10179399095E+01 0.  0.
     999903    2    3    3    0    0 -0.65911918261E-01 -0.82472413932E-01  0.71775043986E-01  0.12899372441E+00  0.18483613503E-01 0.  0.
         14    1    1    2    0    0  0.16545121749E-01 -0.17528405550E-01 -0.88196534711E-02  0.25666560778E-01  0.00000000000E+00 0.  1.
     999901    1    3    3    0    0  0.49366796513E-01  0.10000081948E+00 -0.62955390515E-01  0.88926971482E+00  0.88000000000E+00 0.  1.
        -11    1    4    4    0    0 -0.44779038913E-01 -0.41709653247E-01  0.38770139653E-01  0.72444753776E-01  0.51100000000E-03 0. -1.
         11    1    4    4    0    0 -0.21132879348E-01 -0.40762760685E-01  0.33004904333E-01  0.56548970629E-01  0.51100000000E-03 0.  1.
</event>
<event>
 8    1  0.1123361E+005  0.1043930E+01  0.7957747E-01            NaN
         13   -1    0    0    0    0  0.00000000000E+00  0.00000000000E+00  0.74505805969E-08  0.10566000000E+00  0.10566000000E+00 0.  1.
     999900   -1    0    0    0    0 -0.00000000000E+00 -0.00000000000E+00 -0.74505805969E-08  0.93827000000E+00  0.93827000000E+00 0. -1.
     999902    2    1    2    0    0  0.15831839968E-01 -0.30348892726E-02 -0.16322585172E-01  0.10209891086E+01  0.10207313434E+01 0.  0.
     999903    2    3    3    0    0  0.40436655504E-01 -0.74062737060E-01  0.97557788154E-01  0.13047291477E+00  0.19627718439E-01 0.  0.
         14    1    1    2    0    0 -0.15831839968E-01  0.30348892726E-02  0.16322585172E-01  0.22940891359E-01  0.00000000000E+00 0.  1.
     999901    1    3    3    0    0 -0.24604815536E-01  0.71027847787E-01 -0.11388037333E+00  0.89051619387E+00  0.88000000000E+00 0. -1.
        -11    1    4    4    0    0  0.63357169198E-02 -0.91368131292E-02  0.24719990390E-01  0.27110177220E-01  0.51100000000E-03 0.  1.
         11    1    4    4    0    0  0.34100938584E-01 -0.64925923930E-01  0.72837797764E-01  0.10336273755E+00  0.51100000000E-03 0. -1.
</event>
<event>
 8    1  0.1123361E+005  0.1043930E+01  0.7957747E-01            NaN
         13   -1    0    0    0    0  0.00000000000E+00  0.00000000000E+00  0.74505805969E-08  0.10566000000E+00  0.10566000000E+00 0. -1.
     999900   -1    0    0    0    0 -0.00000000000E+00 -0.00000000000E+00 -0.74505805969E-08  0.93827000000E+00  0.93827000000E+00 0. -1.
     999902    2    1    2    0    0 -0.77098848980E-02  0.16076104723E-01  0.16831665662E-01  0.10194108557E+01  0.10191159425E+01 0.  0.
     999903    2    3    3    0    0  0.59947275429E-01  0.89198697876E-01  0.73310323452E-01  0.13199086282E+00  0.22295757673E-01 0.  0.
         14    1    1    2    0    0  0.77098848980E-02 -0.16076104723E-01 -0.16831665662E-01  0.24519144299E-01  0.00000000000E+00 0.  1.
     999901    1    3    3    0    0 -0.67657160327E-01 -0.73122593153E-01 -0.56478657790E-01  0.88741999288E+00  0.88000000000E+00 0.  1.
        -11    1    4    4    0    0  0.92785962386E-02  0.15471688562E-01  0.31977683647E-02  0.18329002663E-01  0.51100000000E-03 0. -1.
         11    1    4    4    0    0  0.50668679191E-01  0.73727009314E-01  0.70112555087E-01  0.11366186016E+00  0.51100000000E-03 0.  1.
</event>
<event>
 8    1  0.1123361E+005  0.1043930E+01  0.7957747E-01            NaN
         13   -1    0    0    0    0  0.00000000000E+00  0.00000000000E+00  0.74505805969E-08  0.10566000000E+00  0.10566000000E+00 0.  1.
     999900   -1    0    0    0    0 -0.00000000000E+00 -0.00000000000E+00 -0.74505805969E-08  0.93827000000E+00  0.93827000000E+00 0.  1.
     999902    2    1    2    0    0 -0.16203374336E-01  0.16218393888E-01 -0.42140581100E-02  0.10206202611E+01  0.10203540432E+01 0.  0.
     999903    2    3    3    0    0  0.84656403977E-01 -0.29460301841E-01  0.90601336504E-01  0.12862855872E+00  0.17380673834E-01 0.  0.
         14    1    1    2    0    0  0.16203374336E-01 -0.16218393888E-01  0.42140581100E-02  0.23309738864E-01  0.00000000000E+00 0.  1.
     999901    1    3    3    0    0 -0.10085977831E+00  0.45678695728E-01 -0.94815394614E-01  0.89199170242E+00  0.88000000000E+00 0.  1.
        -11    1    4    4    0    0  0.58580584472E-01 -0.18429387026E-01  0.72521619734E-01  0.95031434973E-01  0.51100000000E-03 0. -1.
         11    1    4    4    0    0  0.26075819504E-01 -0.11030914815E-01  0.18079716770E-01  0.33597123746E-01  0.51100000000E-03 0.  1.
</event>
<event>
 8    1  0.1123361E+005  0.1043930E+01  0.7957747E-01            NaN
         13   -1    0    0    0    0  0.00000000000E+00  0.00000000000E+00  0.74505805969E-08  0.10566000000E+00  0.10566000000E+00 0. -1.
     999900   -1    0    0    0    0 -0.00000000000E+00 -0.00000000000E+00 -0.74505805969E-08  0.93827000000E+00  0.93827000000E+00 0.  1.
     999902    2    1    2    0    0 -0.10675219083E-01 -0.17662072262E-01  0.10196882321E-01  0.10209107579E+01  0.10206512088E+01 0.  0.
     999903    2    3    3    0    0 -0.12906383723E+00  0.10210220451E-01  0.19718987618E-01  0.13249452654E+00  0.20105680962E-01 0.  0.
         14    1    1    2    0    0  0.10675219083E-01  0.17662072262E-01 -0.10196882321E-01  0.23019242128E-01  0.00000000000E+00 0.  1.
     999901    1    3    3    0    0  0.11838861815E+00 -0.27872292713E-01 -0.95221052964E-02  0.88841623133E+00  0.88000000000E+00 0. -1.
        -11    1    4    4    0    0 -0.94291472476E-01 -0.13691971734E-02  0.12352848726E-01  0.95108414324E-01  0.51100000000E-03 0. -1.
         11    1    4    4    0    0 -0.34772364757E-01  0.11579417625E-01  0.73661388917E-02  0.37386112215E-01  0.51100000000E-03 0.  1.
</event>
<event>
 8    1  0.1123361E+005  0.1043930E+01  0.7957747E-01            NaN
         13   -1    0    0    0    0  0.00000000000E+00  0.00000000000E+00  0.74505805969E-08  0.10566000000E+00  0.10566000000E+00 0.  1.
     999900   -1    0    0    0    0 -0.00000000000E+00 -0.00000000000E+00 -0.74505805969E-08  0.93827000000E+00  0.93827000000E+00 0. -1.
     999902    2    1    2    0    0 -0.12685975580E-02 -0.64069201579E-02  0.23649422688E-01  0.10193952663E+01  0.10190999734E+01 0.  0.
     999903    2    3    3    0    0 -0.29785338351E-02 -0.10714829607E+00 -0.67704669700E-01  0.12894744697E+00  0.23534926504E-01 0.  0.
         14    1    1    2    0    0  0.12685975580E-02  0.64069201579E-02 -0.23649422688E-01  0.24534733729E-01  0.00000000000E+00 0. -1.
     999901    1    3    3    0    0  0.17099362771E-02  0.10074137592E+00  0.91354092388E-01  0.89044781930E+00  0.88000000000E+00 0.  1.
        -11    1    4    4    0    0  0.18367533202E-02 -0.61036004693E-01 -0.25247238025E-01  0.66079131960E-01  0.51100000000E-03 0.  1.
         11    1    4    4    0    0 -0.48152871553E-02 -0.46112291380E-01 -0.42457431675E-01  0.62868315010E-01  0.51100000000E-03 0. -1.
</event>
<event>
 7    1  0.1123361E+005  0.1043930E+01  0.7957747E-01            NaN
         13   -1    0    0    0    0  0.00000000000E+00  0.00000000000E+00  0.74505805969E-08  0.10566000000E+00  0.10566000000E+00 0.  1.
     999900   -1    0    0    0    0 -0.00000000000E+00 -0.00000000000E+00 -0.74505805969E-08  0.93827000000E+00  0.93827000000E+00 0.  1.
     999903    2    1    2    0    0  0.52136489868E-01 -0.44017209829E-01  0.71586331834E-01  0.99940461394E-01  0.14414041115E-01 0.  0.
         14    1    1    2    0    0 -0.25972348143E-01 -0.45233914970E-01 -0.25055320651E-01  0.57865698169E-01  0.00000000000E+00 0. -1.
     999901    1    1    2    0    0 -0.26164141725E-01  0.89251124799E-01 -0.46531011183E-01  0.88612384044E+00  0.88000000000E+00 0.  1.
        -11    1    3    3    0    0  0.45855436557E-01 -0.34465774168E-01  0.52929022796E-01  0.78053527953E-01  0.51100000000E-03 0. -1.
         11    1    3    3    0    0  0.62810533109E-02 -0.95514356608E-02  0.18657309038E-01  0.21886933440E-01  0.51100000000E-03 0.  1.
</event>
<event>
 8    1  0.1123361E+005  0.1043930E+01  0.7957747E-01            NaN
         13   -1    0    0    0    0  0.00000000000E+00  0.00000000000E+00  0.74505805969E-08  0.10566000000E+00  0.10566000000E+00 0.  1.
     999900   -1    0    0    0    0 -0.00000000000E+00 -0.00000000000E+00 -0.74505805969E-08  0.93827000000E+00  0.93827000000E+00 0.  1.
     999902    2    1    2    0    0  0.32090265132E-02 -0.22801261196E-01 -0.43334575725E-02  0.10204998012E+01  0.10202307925E+01 0.  0.
     999903    2    3    3    0    0  0.59344467296E-01  0.10562115177E+00 -0.38929450949E-01  0.12873728421E+00  0.19498530597E-01 0.  0.
         14    1    1    2    0    0 -0.32090265132E-02  0.22801261196E-01  0.43334575725E-02  0.23430198843E-01  0.00000000000E+00 0.  1.
     999901    1    3    3    0    0 -0.56135440783E-01 -0.12842241297E+00  0.34595993377E-01  0.89176251694E+00  0.88000000000E+00 0.  1.
        -11    1    4    4    0    0  0.12705672560E-01  0.21800990488E-01 -0.16726683794E-01  0.30278051014E-01  0.51100000000E-03 0.  1.
         11    1    4    4    0    0  0.46638794736E-01  0.83820161285E-01 -0.22202767156E-01  0.98459233201E-01  0.51100000000E-03 0. -1.
</event>
<event>
 8    1  0.1123361E+005  0.1043930E+01  0.7957747E-01            NaN
         13   -1    0    0    0    0  0.00000000000E+00  0.00000000000E+00  0.74505805969E-08  0.10566000000E+00  0.10566000000E+00 0. -1.
     999900   -1    0    0    0    0 -0.00000000000E+00 -0.00000000000E+00 -0.74505805969E-08  0.93827000000E+00  0.93827000000E+00 0.  1.
     999902    2    1    2    0    0  0.74750611827E-02  0.23507603102E-01 -0.32165433930E-02  0.10190537042E+01  0.10187500291E+01 0.  0.
     999903    2    3    3    0    0 -0.32447471252E-01 -0.71096150605E-01  0.98400693443E-01  0.12727472839E+00  0.20215315836E-01 0.  0.
         14    1    1    2    0    0 -0.74750611827E-02 -0.23507603102E-01  0.32165433930E-02  0.24876295839E-01  0.00000000000E+00 0. -1.
     999901    1    3    3    0    0  0.39922532434E-01  0.94603753707E-01 -0.10161723684E+00  0.89177897577E+00  0.88000000000E+00 0. -1.
        -11    1    4    4    0    0 -0.15415989492E-01 -0.53423866243E-01  0.74952325389E-01  0.93326707960E-01  0.51100000000E-03 0.  1.
         11    1    4    4    0    0 -0.17031481760E-01 -0.17672284361E-01  0.23448368054E-01  0.33948020426E-01  0.51100000000E-03 0. -1.
</event>
<event>
 8    1  0.1123361E+005  0.1043930E+01  0.7957747E-01            NaN
         13   -1    0    0    0    0  0.00000000000E+00  0.00000000000E+00  0.74505805969E-08  0.10566000000E+00  0.10566000000E+00 0.  1.
     999900   -1    0    0    0    0 -0.00000000000E+00 -0.00000000000E+00 -0.74505805969E-08  0.93827000000E+00  0.93827000000E+00 0.  1.
     999902    2    1    2    0    0  0.59292421004E-02  0.21493938815E-01 -0.81327588811E-02  0.10201963301E+01  0.10199202248E+01 0.  0.
     999903    2    3    3    0    0 -0.46666865194E-02  0.12982221533E-01  0.12713844830E+00  0.12975653851E+00  0.21960378206E-01 0.  0.
         14    1    1    2    0    0 -0.59292421004E-02 -0.21493938815E-01  0.81327588811E-02  0.23733669853E-01  0.00000000000E+00 0.  1.
     999901    1    3    3    0    0  0.10595928620E-01  0.85117172813E-02 -0.13527120718E+00  0.89043979164E+00  0.88000000000E+00 0.  1.
        -11    1    4    4    0    0 -0.30677981658E-02  0.19190045598E-01  0.99286051023E-01  0.10117139064E+00  0.51100000000E-03 0.  1.
         11    1    4    4    0    0 -0.15988883536E-02 -0.62078240643E-02  0.27852397279E-01  0.28585147871E-01  0.51100000000E-03 0. -1.
</event>
<event>
 8    1  0.1123361E+005  0.1043930E+01  0.7957747E-01            NaN
         13   -1    0    0    0    0  0.00000000000E+00  0.00000000000E+00  0.74505805969E-08  0.10566000000E+00  0.10566000000E+00 0.  1.
     999900   -1    0    0    0    0 -0.00000000000E+00 -0.00000000000E+00 -0.74505805969E-08  0.93827000000E+00  0.93827000000E+00 0.  1.
     999902    2    1    2    0    0  0.69775944301E-02 -0.20802857894E-01  0.88901564726E-02  0.10202555285E+01  0.10199808149E+01 0.  0.
     999903    2    3    3    0    0 -0.10876866070E+00 -0.23935266378E-01 -0.63327395326E-01  0.12973748690E+00  0.20443531534E-01 0.  0.
         14    1    1    2    0    0 -0.69775944301E-02  0.20802857894E-01 -0.88901564726E-02  0.23674471540E-01  0.00000000000E+00 0.  1.
     999901    1    3    3    0    0  0.11574625513E+00  0.31324084842E-02  0.72217551799E-01  0.89051804156E+00  0.88000000000E+00 0. -1.
        -11    1    4    4    0    0 -0.29095448736E-01  0.21676859069E-02 -0.12952403648E-01  0.31926006336E-01  0.51100000000E-03 0. -1.
         11    1    4    4    0    0 -0.79673211961E-01 -0.26102952285E-01 -0.50374991679E-01  0.97811480562E-01  0.51100000000E-03 0.  1.
</event>
<event>
 8    1  0.1123361E+005  0.1043930E+01  0.7957747E-01            NaN
         13   -1    0    0    0    0  0.00000000000E+00  0.00000000000E+00  0.74505805969E-08  0.10566000000E+00  0.10566000000E+00 0. -1.
     999900   -1    0    0    0    0 -0.00000000000E+00 -0.00000000000E+00 -0.74505805969E-08  0.93827000000E+00  0.93827000000E+00 0. -1.
     999902    2    1    2    0    0 -0.13544389967E-01 -0.39663121361E-02  0.18561256772E-01  0.10206125734E+01  0.10203461778E+01 0.  0.
     999903    2    3    3    0    0 -0.82336804553E-01  0.98388822377E-01 -0.18078679601E-01  0.13125805756E+00  0.21026870069E-01 0.  0.
         14    1    1    2    0    0  0.13544389967E-01  0.39663121361E-02 -0.18561256772E-01  0.23317426627E-01  0.00000000000E+00 0.  1.
     999901    1    3    3    0    0  0.68792414586E-01 -0.10235513451E+00  0.36639936373E-01  0.88935451582E+00  0.88000000000E+00 0. -1.
        -11    1    4    4    0    0 -0.49436257153E-02  0.14921102426E-01  0.13458382085E-02  0.15784521985E-01  0.51100000000E-03 0.  1.
         11    1    4    4    0    0 -0.77393178837E-01  0.83467719951E-01 -0.19424517810E-01  0.11547353557E+00  0.51100000000E-03 0. -1.
</event>
<event>
 8    1  0.1123361E+005  0.1043930E+01  0.7957747E-01            NaN
         13   -1    0    0    0    0  0.00000000000E+00  0.00000000000E+00  0.74505805969E-08  0.10566000000E+00  0.10566000000E+00 0. -1.
     999900   -1    0    0    0    0 -0.00000000000E+00 -0.00000000000E+00 -0.74505805969E-08  0.93827000000E+00  0.93827000000E+00 0.  1.
     999902    2    1    2    0    0 -0.19261947001E-01 -0.19594415870E-02 -0.13931940251E-01  0.10200770972E+01  0.10197981777E+01 0.  0.
     999903    2    3    3    0    0 -0.99017675537E-01  0.83275049387E-01  0.15585937824E-01  0.13187824568E+00  0.20241450213E-01 0.  0.
         14    1    1    2    0    0  0.19261947001E-01  0.19594415870E-02  0.13931940251E-01  0.23852902816E-01  0.00000000000E+00 0. -1.
     999901    1    3    3    0    0  0.79755728537E-01 -0.85234490974E-01 -0.29517878075E-01  0.88819885150E+00  0.88000000000E+00 0. -1.
        -11    1    4    4    0    0 -0.86572290858E-01  0.62668708738E-01  0.12704218933E-01  0.10762800239E+00  0.51100000000E-03 0.  1.
         11    1    4    4    0    0 -0.12445384679E-01  0.20606340649E-01  0.28817188911E-02  0.24250243288E-01  0.51100000000E-03 0. -1.
</event>
<event>
 8    1  0.1123361E+005  0.1043930E+01  0.7957747E-01            NaN
         13   -1    0    0    0    0  0.00000000000E+00  0.00000000000E+00  0.74505805969E-08  0.10566000000E+00  0.10566000000E+00 0. -1.
     999900   -1    0    0    0    0 -0.00000000000E+00 -0.00000000000E+00 -0.74505805969E-08  0.93827000000E+00  0.93827000000E+00 0.  1.
     999902    2    1    2    0    0  0.82455424520E-02  0.13980883923E-01  0.18444342691E-01  0.10193607537E+01  0.10190646193E+01 0.  0.
     999903    2    3    3    0    0 -0.54802961645E-01  0.19183863886E-01 -0.11173451770E+00  0.12753749737E+00  0.20244148566E-01 0.  0.
         14    1    1    2    0    0 -0.82455424520E-02 -0.13980883923E-01 -0.18444342691E-01  0.24569246283E-01  0.00000000000E+00 0.  1.
     999901    1    3    3    0    0  0.63048504097E-01 -0.52029799624E-02  0.13017886039E+00  0.89182325635E+00  0.88000000000E+00 0. -1.
        -11    1    4    4    0    0 -0.51727685324E-01  0.21893563705E-01 -0.95588926947E-01  0.11087193349E+00  0.51100000000E-03 0. -1.
         11    1    4    4    0    0 -0.30752763205E-02 -0.27096998195E-02 -0.16145590753E-01  0.16665563877E-01  0.51100000000E-03 0.  1.
</event>
<event>
 8    1  0.1123361E+005  0.1043930E+01  0.7957747E-01            NaN
         13   -1    0    0    0    0  0.00000000000E+00  0.00000000000E+00  0.74505805969E-08  0.10566000000E+00  0.10566000000E+00 0.  1.
     999900   -1    0    0    0    0 -0.00000000000E+00 -0.00000000000E+00 -0.74505805969E-08  0.93827000000E+00  0.93827000000E+00 0.  1.
     999902    2    1    2    0    0  0.27738940034E-01  0.38523138217E-02 -0.34114336591E-03  0.10159227600E+01  0.10155366309E+01 0.  0.
     999903    2    3    3    0    0  0.71583537004E-01  0.36954866558E-01  0.95772385949E-01  0.12898649494E+00  0.31229810036E-01 0.  0.
         14    1    1    2    0    0 -0.27738940034E-01 -0.38523138217E-02  0.34114336591E-03  0.28007240043E-01  0.00000000000E+00 0. -1.
     999901    1    3    3    0    0 -0.43844596970E-01 -0.33102552736E-01 -0.96113529315E-01  0.88693626501E+00  0.88000000000E+00 0.  1.
        -11    1    4    4    0    0  0.36778291382E-01  0.21344627171E-02  0.46549626825E-01  0.59366046917E-01  0.51100000000E-03 0. -1.
         11    1    4    4    0    0  0.34805245622E-01  0.34820403841E-01  0.49222759124E-01  0.69620448025E-01  0.51100000000E-03 0.  1.
</event>
<event>
 8    1  0.1123361E+005  0.1043930E+01  0.7957747E-01            NaN
         13   -1    0    0    0    0  0.00000000000E+00  0.00000000000E+00  0.74505805969E-08  0.10566000000E+00  0.10566000000E+00 0.  1.
     999900   -1    0    0    0    0 -0.00000000000E+00 -0.00000000000E+00 -0.74505805969E-08  0.93827000000E+00  0.93827000000E+00 0.  1.
     999902    2    1    2    0    0 -0.23489075431E-01 -0.11622104164E-01  0.35116215912E-02  0.10174887168E+01  0.10171450965E+01 0.  0.
     999903    2    3    3    0    0 -0.47501911559E-01  0.88851505000E-01 -0.76157190680E-01  0.12787156204E+00  0.20004927983E-01 0.  0.
         14    1    1    2    0    0  0.23489075431E-01  0.11622104164E-01 -0.35116215912E-02  0.26441283176E-01  0.00000000000E+00 0.  1.
     999901    1    3    3    0    0  0.24012836128E-01 -0.10047360916E+00  0.79668812271E-01  0.88961715478E+00  0.88000000000E+00 0. -1.
        -11    1    4    4    0    0 -0.20547396326E-01  0.27064279513E-01 -0.16177360569E-01  0.37638262942E-01  0.51100000000E-03 0.  1.
         11    1    4    4    0    0 -0.26954515233E-01  0.61787225488E-01 -0.59979830111E-01  0.90233299098E-01  0.51100000000E-03 0. -1.
</event>
<event>
 8    1  0.1123361E+005  0.1043930E+01  0.7957747E-01            NaN
         13   -1    0    0    0    0  0.00000000000E+00  0.00000000000E+00  0.74505805969E-08  0.10566000000E+00  0.10566000000E+00 0. -1.
     999900   -1    0    0    0    0 -0.00000000000E+00 -0.00000000000E+00 -0.74505805969E-08  0.93827000000E+00  0.93827000000E+00 0. -1.
     999902    2    1    2    0    0  0.13488308388E-01 -0.19641920434E-01 -0.88251721461E-02  0.10185208842E+01  0.10182038933E+01 0.  0.
     999903    2    3    3    0    0 -0.12569515510E+00  0.55737160274E-03  0.19087776956E-02  0.12728844227E+00  0.19978023535E-01 0.  0.
         14    1    1    2    0    0 -0.13488308388E-01  0.19641920434E-01  0.88251721461E-02  0.25409115783E-01  0.00000000000E+00 0. -1.
     999901    1    3    3    0    0  0.13918346348E+00 -0.20199292036E-01 -0.10733949842E-01  0.89123244195E+00  0.88000000000E+00 0. -1.
        -11    1    4    4    0    0 -0.83078385231E-01  0.64005097266E-02 -0.60280202393E-02  0.83543897242E-01  0.51100000000E-03 0. -1.
         11    1    4    4    0    0 -0.42616769866E-01 -0.58431381239E-02  0.79367979349E-02  0.43744545024E-01  0.51100000000E-03 0.  1.
</event>
<event>
 8    1  0.1123361E+005  0.1043930E+01  0.7957747E-01            NaN
         13   -1    0    0    0    0  0.00000000000E+00  0.00000000000E+00  0.74505805969E-08  0.10566000000E+00  0.10566000000E+00 0.  1.
     999900   -1    0    0    0    0 -0.00000000000E+00 -0.00000000000E+00 -0.74505805969E-08  0.93827000000E+00  0.93827000000E+00 0.  1.
     999902    2    1    2    0    0 -0.21820375346E-01  0.14762562930E-01  0.13390816284E-01  0.10143770644E+01  0.10139464743E+01 0.  0.
     999903    2    3    3    0    0  0.64303889539E-01 -0.55398548776E-01 -0.85094530707E-01  0.12194256582E+00  0.20613606836E-01 0.  0.
         14    1    1    2    0    0  0.21820375346E-01 -0.14762562930E-01 -0.13390816284E-01  0.29552935645E-01  0.00000000000E+00 0. -1.
     999901    1    3    3    0    0 -0.86124264885E-01  0.70161111706E-01  0.98485346992E-01  0.89243449853E+00  0.88000000000E+00 0.  1.
        -11    1    4    4    0    0  0.10393257459E-01 -0.89417568697E-02 -0.45353700854E-02  0.14450104475E-01  0.51100000000E-03 0.  1.
         11    1    4    4    0    0  0.53910632080E-01 -0.46456791906E-01 -0.80559160622E-01  0.10749246135E+00  0.51100000000E-03 0. -1.
</event>
<event>
 8    1  0.1123361E+005  0.1043930E+01  0.7957747E-01            NaN
         13   -1    0    0    0    0  0.00000000000E+00  0.00000000000E+00  0.74505805969E-08  0.10566000000E+00  0.10566000000E+00 0.  1.
     999900   -1    0    0    0    0 -0.00000000000E+00 -0.00000000000E+00 -0.74505805969E-08  0.93827000000E+00  0.93827000000E+00 0.  1.
     999902    2    1    2    0    0  0.10240936622E-02  0.41316022646E-02 -0.23518476109E-01  0.10200294221E+01  0.10197493733E+01 0.  0.
     999903    2    3    3    0    0  0.10472056830E-01  0.11254688628E+00  0.59907272405E-01  0.12940997850E+00  0.19534473684E-01 0.  0.
         14    1    1    2    0    0 -0.10240936622E-02 -0.41316022646E-02  0.23518476109E-01  0.23900577892E-01  0.00000000000E+00 0.  1.
     999901    1    3    3    0    0 -0.94479631679E-02 -0.10841528402E+00 -0.83425748514E-01  0.89061944361E+00  0.88000000000E+00 0.  1.
        -11    1    4    4    0    0  0.63110253555E-02  0.64309739271E-01  0.23235694101E-01  0.68671174502E-01  0.51100000000E-03 0. -1.
         11    1    4    4    0    0  0.41610314746E-02  0.48237147012E-01  0.36671578304E-01  0.60738803998E-01  0.51100000000E-03 0.  1.
</event>
<event>
 8    1  0.1123361E+005  0.1043930E+01  0.7957747E-01            NaN
         13   -1    0    0    0    0  0.00000000000E+00  0.00000000000E+00  0.74505805969E-08  0.10566000000E+00  0.10566000000E+00 0.  1.
     999900   -1    0    0    0    0 -0.00000000000E+00 -0.00000000000E+00 -0.74505805969E-08  0.93827000000E+00  0.93827000000E+00 0. -1.
     999902    2    1    2    0    0 -0.78927904152E-02 -0.20113650607E-01  0.14376544807E-02  0.10222753947E+01  0.10220460169E+01 0.  0.
     999903    2    3    3    0    0  0.11104594219E+00 -0.33022793496E-01  0.60418003806E-01  0.13222385140E+00  0.20275737428E-01 0.  0.
         14    1    1    2    0    0  0.78927904152E-02  0.20113650607E-01 -0.14376544807E-02  0.21654605322E-01  0.00000000000E+00 0. -1.
     999901    1    3    3    0    0 -0.11893873260E+00  0.12909142889E-01 -0.58980349325E-01  0.89005154328E+00  0.88000000000E+00 0. -1.
        -11    1    4    4    0    0  0.48653903014E-01 -0.73318702942E-02  0.33753594886E-01  0.59670133981E-01  0.51100000000E-03 0.  1.
         11    1    4    4    0    0  0.62392039175E-01 -0.25690923202E-01  0.26664408920E-01  0.72553717420E-01  0.51100000000E-03 0. -1.
</event>
<event>
 8    1  0.1123361E+005  0.1043930E+01  0.7957747E-01            NaN
         13   -1    0    0    0    0  0.00000000000E+00  0.00000000000E+00  0.74505805969E-08  0.10566000000E+00  0.10566000000E+00 0. -1.
     999900   -1    0    0    0    0 -0.00000000000E+00 -0.00000000000E+00 -0.74505805969E-08  0.93827000000E+00  0.93827000000E+00 0. -1.
     999902    2    1    2    0    0 -0.80622458947E-02  0.17850557062E-01 -0.12737199354E-01  0.10205659583E+01  0.10202984842E+01 0.  0.
     999903    2    3    3    0    0  0.52952081118E-01  0.38765259579E-01  0.11014581487E+00  0.12968975588E+00  0.19510612558E-01 0.  0.
         14    1    1    2    0    0  0.80622458947E-02 -0.17850557062E-01  0.12737199354E-01  0.23364041681E-01  0.00000000000E+00 0. -1.
     999901    1    3    3    0    0 -0.61014327013E-01 -0.20914702518E-01 -0.12288301422E+00  0.89087620244E+00  0.88000000000E+00 0.  1.
        -11    1    4    4    0    0  0.26076113426E-01  0.79683771372E-02  0.50263782864E-01  0.57185380251E-01  0.51100000000E-03 0. -1.
         11    1    4    4    0    0  0.26875967692E-01  0.30796882442E-01  0.59882032007E-01  0.72504375632E-01  0.51100000000E-03 0.  1.
</event>
<event>
 8    1  0.1123361E+005  0.1043930E+01  0.7957747E-01            NaN
         13   -1    0    0    0    0  0.00000000000E+00  0.00000000000E+00  0.74505805969E-08  0.10566000000E+00  0.10566000000E+00 0.  1.
     999900   -1    0    0    0    0 -0.00000000000E+00 -0.00000000000E+00 -0.74505805969E-08  0.93827000000E+00  0.93827000000E+00 0.  1.
     999902    2    1    2    0    0  0.18338650008E-01 -0.11462074932E-01 -0.12010430460E-01  0.10191926662E+01  0.10188924158E+01 0.  0.
     999903    2    3    3    0    0 -0.93524224742E-01  0.47321420733E-01  0.68066716161E-01  0.12656667980E+00  0.19998727770E-01 0.  0.
         14    1    1    2    0    0 -0.18338650008E-01  0.11462074932E-01  0.12010430460E-01  0.24737333844E-01  0.00000000000E+00 0.  1.
     999901    1    3    3    0    0  0.11186287475E+00 -0.58783495665E-01 -0.80077146622E-01  0.89262598636E+00  0.88000000000E+00 0. -1.
        -11    1    4    4    0    0 -0.72527990385E-01  0.36056788720E-01  0.61918602164E-01  0.10195379256E+00  0.51100000000E-03 0. -1.
         11    1    4    4    0    0 -0.20996234358E-01  0.11264632014E-01  0.61481139973E-02  0.24612887241E-01  0.51100000000E-03 0.  1.
</event>
<event>
 8    1  0.1123361E+005  0.1043930E+01  0.7957747E-01            NaN
         13   -1    0    0    0    0  0.00000000000E+00  0.00000000000E+00  0.74505805969E-08  0.10566000000E+00  0.10566000000E+00 0.  1.
     999900   -1    0    0    0    0 -0.00000000000E+00 -0.00000000000E+00 -0.74505805969E-08  0.93827000000E+00  0.93827000000E+00 0. -1.
     999902    2    1    2    0    0 -0.71772163524E-02  0.15394519481E-01 -0.17098366219E-01  0.10198290085E+01  0.10195441868E+01 0.  0.
     999903    2    3    3    0    0 -0.77740177063E-01  0.10761705144E-01  0.10052532607E+00  0.12919107566E+00  0.20631127511E-01 0.  0.
         14    1    1    2    0    0  0.71772163524E-02 -0.15394519481E-01  0.17098366219E-01  0.24100991514E-01  0.00000000000E+00 0.  1.
     999901    1    3    3    0    0  0.70562960711E-01  0.46328143364E-02 -0.11762369229E+00  0.89063793282E+00  0.88000000000E+00 0. -1.
        -11    1    4    4    0    0 -0.58005888911E-01  0.15103140819E-01  0.83355249521E-01  0.10267008695E+00  0.51100000000E-03 0.  1.
         11    1    4    4    0    0 -0.19734288152E-01 -0.43414356747E-02  0.17170076549E-01  0.26520988713E-01  0.51100000000E-03 0. -1.
</event>
<event>
 8    1  0.1123361E+005  0.1043930E+01  0.7957747E-01            NaN
         13   -1    0    0    0    0  0.00000000000E+00  0.00000000000E+00  0.74505805969E-08  0.10566000000E+00  0.10566000000E+00 0. -1.
     999900   -1    0    0    0    0 -0.00000000000E+00 -0.00000000000E+00 -0.74505805969E-08  0.93827000000E+00  0.93827000000E+00 0.  1.
     999902    2    1    2    0    0 -0.50286042427E-02  0.20239965134E-01 -0.10947228727E-01  0.10203761284E+01  0.10201042391E+01 0.  0.
     999903    2    3    3    0    0  0.10545153007E+00  0.65484829744E-01  0.37134762843E-01  0.13101408979E+00  0.19427120017E-01 0.  0.
         14    1    1    2    0    0  0.50286042427E-02 -0.20239965134E-01  0.10947228727E-01  0.23553871572E-01  0.00000000000E+00 0. -1.
     999901    1    3    3    0    0 -0.11048013431E+00 -0.45244864610E-01 -0.48081991570E-01  0.88936203863E+00  0.88000000000E+00 0.  1.
        -11    1    4    4    0    0  0.41067715708E-01  0.30913890336E-01  0.66607840835E-02  0.51834863314E-01  0.51100000000E-03 0.  1.
         11    1    4    4    0    0  0.64383814361E-01  0.34570939408E-01  0.30473978760E-01  0.79179226478E-01  0.51100000000E-03 0. -1.
</event>
<event>
 8    1  0.1123361E+005  0.1043930E+01  0.7957747E-01            NaN
         13   -1    0    0    0    0  0.00000000000E+00  0.00000000000E+00  0.74505805969E-08  0.10566000000E+00  0.10566000000E+00 0.  1.
     999900   -1    0    0    0    0 -0.00000000000E+00 -0.00000000000E+00 -0.74505805969E-08  0.93827000000E+00  0.93827000000E+00 0.  1.
     999902    2    1    2    0    0 -0.27293452698E-01 -0.39182327873E-02 -0.24036740217E-02  0.10162521613E+01  0.10158751855E+01 0.  0.
     999903    2    3    3    0    0 -0.11207268738E+00  0.51793031447E-01 -0.34759752632E-01  0.12983342307E+00  0.20141300381E-01 0.  0.
         14    1    1    2    0    0  0.27293452698E-01  0.39182327873E-02  0.24036740217E-02  0.27677838738E-01  0.00000000000E+00 0.  1.
     999901    1    3    3    0    0  0.84779234677E-01 -0.55711264234E-01  0.32356078610E-01  0.88641873819E+00  0.88000000000E+00 0.  1.
        -11    1    4    4    0    0 -0.55856876282E-01  0.25485409881E-01 -0.27721913901E-01  0.67366626575E-01  0.51100000000E-03 0.  1.
         11    1    4    4    0    0 -0.56215811094E-01  0.26307621565E-01 -0.70378387312E-02  0.62466796495E-01  0.51100000000E-03 0. -1.
</event>
<event>
 8    1  0.1123361E+005  0.1043930E+01  0.7957747E-01            NaN
         13   -1    0    0    0    0  0.00000000000E+00  0.00000000000E+00  0.74505805969E-08  0.10566000000E+00  0.10566000000E+00 0.  1.
     999900   -1    0    0    0    0 -0.00000000000E+00 -0.00000000000E+00 -0.74505805969E-08  0.93827000000E+00  0.93827000000E+00 0.  1.
     999902    2    1    2    0    0  0.31084145555E-03  0.17032509396E-01 -0.16406313165E-01  0.10202789935E+01  0.10200048306E+01 0.  0.
     999903    2    3    3    0    0  0.10982319716E+00  0.69311398954E-01 -0.64035102505E-02  0.13189501431E+00  0.22137867917E-01 0.  0.
         14    1    1    2    0    0 -0.31084145555E-03 -0.17032509396E-01  0.16406313165E-01  0.23651006541E-01  0.00000000000E+00 0. -1.
     999901    1    3    3    0    0 -0.10951235571E+00 -0.52278889558E-01 -0.10002802915E-01  0.88838397915E+00  0.88000000000E+00 0.  1.
        -11    1    4    4    0    0  0.11055157111E-01  0.59450614295E-02  0.59453599342E-02  0.13898513586E-01  0.51100000000E-03 0.  1.
         11    1    4    4    0    0  0.98768040051E-01  0.63366337525E-01 -0.12348870185E-01  0.11799650072E+00  0.51100000000E-03 0. -1.
</event>
<event>
 8    1  0.1123361E+005  0.1043930E+01  0.7957747E-01            NaN
         13   -1    0    0    0    0  0.00000000000E+00  0.00000000000E+00  0.74505805969E-08  0.10566000000E+00  0.10566000000E+00 0.  1.
     999900   -1    0    0    0    0 -0.00000000000E+00 -0.00000000000E+00 -0.74505805969E-08  0.93827000000E+00  0.93827000000E+00 0. -1.
     999902    2    1    2    0    0 -0.19414681159E-01  0.13009942249E-01 -0.46967321516E-02  0.10200920526E+01  0.10198134869E+01 0.  0.
     999903    2    3    3    0    0  0.76599142824E-01  0.10329965712E+00 -0.67900678923E-02  0.13027450444E+00  0.19674695495E-01 0.  0.
         14    1    1    2    0    0  0.19414681159E-01 -0.13009942249E-01  0.46967321516E-02  0.23837947368E-01  0.00000000000E+00 0.  1.
     999901    1    3    3    0    0 -0.96013823983E-01 -0.90289714876E-01  0.20933357407E-02  0.88981754819E+00  0.88000000000E+00 0. -1.
        -11    1    4    4    0    0  0.18501440397E-01  0.23301743625E-01  0.66593011756E-02  0.30493966057E-01  0.51100000000E-03 0.  1.
         11    1    4    4    0    0  0.58097702427E-01  0.79997913499E-01 -0.13449369068E-01  0.99780538387E-01  0.51100000000E-03 0. -1.
</event>
<event>
 8    1  0.1123361E+005  0.1043930E+01  0.7957747E-01            NaN
         13   -1    0    0    0    0  0.00000000000E+00  0.00000000000E+00  0.74505805969E-08  0.10566000000E+00  0.10566000000E+00 0. -1.
     999900   -1    0    0    0    0 -0.00000000000E+00 -0.00000000000E+00 -0.74505805969E-08  0.93827000000E+00  0.93827000000E+00 0. -1.
     999902    2    1    2    0    0  0.14405426802E-01 -0.19027822297E-01  0.12316533980E-03  0.10200639255E+01  0.10197846942E+01 0.  0.
     999903    2    3    3    0    0  0.50477571701E-01 -0.65204283167E-01 -0.10142578916E+00  0.13228824699E+00  0.20332382979E-01 0.  0.
         14    1    1    2    0    0 -0.14405426802E-01  0.19027822297E-01 -0.12316533980E-03  0.23866074508E-01  0.00000000000E+00 0.  1.
     999901    1    3    3    0    0 -0.36072144899E-01  0.46176460870E-01  0.10154895450E+00  0.88777567850E+00  0.88000000000E+00 0.  1.
        -11    1    4    4    0    0  0.50582357599E-01 -0.55214431353E-01 -0.90789421931E-01  0.11768682418E+00  0.51100000000E-03 0. -1.
         11    1    4    4    0    0 -0.10478589776E-03 -0.99898518141E-02 -0.10636367228E-01  0.14601422813E-01  0.51100000000E-03 0.  1.
</event>
<event>
 8    1  0.1123361E+005  0.1043930E+01  0.7957747E-01            NaN
         13   -1    0    0    0    0  0.00000000000E+00  0.00000000000E+00  0.74505805969E-08  0.10566000000E+00  0.10566000000E+00 0.  1.
     999900   -1    0    0    0    0 -0.00000000000E+00 -0.00000000000E+00 -0.74505805969E-08  0.93827000000E+00  0.93827000000E+00 0.  1.
     999902    2    1    2    0    0  0.21097316367E-01 -0.74606090476E-02  0.12806233086E-01  0.10181471171E+01  0.10178206104E+01 0.  0.
     999903    2    3    3    0    0  0.18378666134E-01 -0.10070579215E-02  0.12778141857E+00  0.13064030999E+00  0.20000253170E-01 0.  0.
         14    1    1    2    0    0 -0.21097316367E-01  0.74606090476E-02 -0.12806233086E-01  0.25782882909E-01  0.00000000000E+00 0.  1.
     999901    1    3    3    0    0  0.27186502337E-02 -0.64535511262E-02 -0.11497518548E+00  0.88750680711E+00  0.88000000000E+00 0.  1.
        -11    1    4    4    0    0 -0.31121667211E-02 -0.27875195955E-02  0.41113879395E-01  0.41328779889E-01  0.51100000000E-03 0. -1.
         11    1    4    4    0    0  0.21490832855E-01  0.17804616741E-02  0.86667539174E-01  0.89311530096E-01  0.51100000000E-03 0.  1.
</event>
<event>
 8    1  0.1123361E+005  0.1043930E+01  0.7957747E-01            NaN
         13   -1    0    0    0    0  0.00000000000E+00  0.00000000000E+00  0.74505805969E-08  0.10566000000E+00  0.10566000000E+00 0.  1.
     999900   -1    0    0    0    0 -0.00000000000E+00 -0.00000000000E+00 -0.74505805969E-08  0.93827000000E+00  0.93827000000E+00 0. -1.
     999902    2    1    2    0    0 -0.29338719069E-02  0.18667543704E-01 -0.13138783297E-01  0.10209145178E+01  0.10206550545E+01 0.  0.
     999903    2    3    3    0    0 -0.35743936934E-01  0.12720291296E+00 -0.65635687917E-02  0.13361543625E+00  0.18756179684E-01 0.  0.
         14    1    1    2    0    0  0.29338719069E-02 -0.18667543704E-01  0.13138783297E-01  0.23015482155E-01  0.00000000000E+00 0. -1.
     999901    1    3    3    0    0  0.32810065027E-01 -0.10853536926E+00 -0.65752145054E-02  0.88729908159E+00  0.88000000000E+00 0. -1.
        -11    1    4    4    0    0 -0.68427122025E-02  0.27154148664E-01  0.62286644500E-02  0.28691948031E-01  0.51100000000E-03 0. -1.
         11    1    4    4    0    0 -0.28901224732E-01  0.10004876430E+00 -0.12792233242E-01  0.10492348822E+00  0.51100000000E-03 0.  1.
</event>
<event>
 8    1  0.1554889E+005  0.1043930E+01  0.7957747E-01            NaN
         13   -1    0    0    0    0  0.00000000000E+00  0.00000000000E+00  0.74505805969E-08  0.10566000000E+00  0.10566000000E+00 0. -1.
     999900   -1    0    0    0    0 -0.00000000000E+00 -0.00000000000E+00 -0.74505805969E-08  0.93827000000E+00  0.93827000000E+00 0.  1.
     999902    2    1    2    0    0 -0.22810832562E-01 -0.16584843675E-02  0.11633220354E-02  0.10210293893E+01  0.10207725387E+01 0.  0.
     999903    2    3    3    0    0  0.10382941161E+00 -0.39607853366E-01 -0.62125846519E-01  0.12890640175E+00  0.20196802766E-01 0.  0.
         14    1    1    2    0    0  0.22810832562E-01  0.16584843675E-02 -0.11633220354E-02  0.22900610706E-01  0.00000000000E+00 0.  1.
     999901    1    3    3    0    0 -0.12664024417E+00  0.37949368998E-01  0.63289168554E-01  0.89212298755E+00  0.88000000000E+00 0. -1.
        -11    1    4    4    0    0  0.49905347856E-01 -0.83751928775E-02 -0.26519944975E-01  0.57133669607E-01  0.51100000000E-03 0. -1.
         11    1    4    4    0    0  0.53924063756E-01 -0.31232660488E-01 -0.35605901544E-01  0.71772732141E-01  0.51100000000E-03 0.  1.
</event>
<event>
 8    1  0.1123361E+005  0.1043930E+01  0.7957747E-01            NaN
         13   -1    0    0    0    0  0.00000000000E+00  0.00000000000E+00  0.74505805969E-08  0.10566000000E+00  0.10566000000E+00 0. -1.
     999900   -1    0    0    0    0 -0.00000000000E+00 -0.00000000000E+00 -0.74505805969E-08  0.93827000000E+00  0.93827000000E+00 0.  1.
     999902    2    1    2    0    0 -0.83724402533E-02 -0.21631418682E-02 -0.22262881671E-01  0.10200466828E+01  0.10197670432E+01 0.  0.
     999903    2    3    3    0    0  0.53239548776E-02 -0.84188404950E-01 -0.10040074967E+00  0.13267908063E+00  0.20184050112E-01 0.  0.
         14    1    1    2    0    0  0.83724402533E-02  0.21631418682E-02  0.22262881671E-01  0.23883317165E-01  0.00000000000E+00 0. -1.
     999901    1    3    3    0    0 -0.13696395131E-01  0.82025263082E-01  0.78137868002E-01  0.88736760220E+00  0.88000000000E+00 0. -1.
        -11    1    4    4    0    0 -0.66195020599E-02 -0.13603809925E-01 -0.16748670788E-01  0.22575662696E-01  0.51100000000E-03 0.  1.
         11    1    4    4    0    0  0.11943456937E-01 -0.70584595024E-01 -0.83652078885E-01  0.11010341794E+00  0.51100000000E-03 0. -1.
</event>
<event>
 8    1  0.1123361E+005  0.1043930E+01  0.7957747E-01            NaN
         13   -1    0    0    0    0  0.00000000000E+00  0.00000000000E+00  0.74505805969E-08  0.10566000000E+00  0.10566000000E+00 0.  1.
     999900   -1    0    0    0    0 -0.00000000000E+00 -0.00000000000E+00 -0.74505805969E-08  0.93827000000E+00  0.93827000000E+00 0.  1.
     999902    2    1    2    0    0 -0.19382235051E-01 -0.12019182918E-01 -0.97384492326E-02  0.10191314277E+01  0.10188296706E+01 0.  0.
     999903    2    3    3    0    0  0.33153420668E-01  0.58196053637E-01  0.10626859059E+00  0.12719656023E+00  0.20000540637E-01 0.  0.
         14    1    1    2    0    0  0.19382235051E-01  0.12019182918E-01  0.97384492326E-02  0.24798572279E-01  0.00000000000E+00 0.  1.
     999901    1    3    3    0    0 -0.52535655719E-01 -0.70215236555E-01 -0.11600703982E+00  0.89193486750E+00  0.88000000000E+00 0.  1.
        -11    1    4    4    0    0  0.89988252144E-02  0.20322809992E-01  0.53253399963E-01  0.57707722098E-01  0.51100000000E-03 0. -1.
         11    1    4    4    0    0  0.24154595453E-01  0.37873243645E-01  0.53015190630E-01  0.69488838127E-01  0.51100000000E-03 0.  1.
</event>
<event>
 8    1  0.1123361E+005  0.1043930E+01  0.7957747E-01            NaN
         13   -1    0    0    0    0  0.00000000000E+00  0.00000000000E+00  0.74505805969E-08  0.10566000000E+00  0.10566000000E+00 0. -1.
     999900   -1    0    0    0    0 -0.00000000000E+00 -0.00000000000E+00 -0.74505805969E-08  0.93827000000E+00  0.93827000000E+00 0.  1.
     999902    2    1    2    0    0 -0.17581112327E-02 -0.19684983390E-01  0.13463318605E-01  0.10200166047E+01  0.10197362519E+01 0.  0.
     999903    2    3    3    0    0 -0.12339204962E+00  0.23021405827E-01  0.28759789939E-01  0.13049278115E+00  0.21110598756E-01 0.  0.
         14    1    1    2    0    0  0.17581112327E-02  0.19684983390E-01 -0.13463318605E-01  0.23913395285E-01  0.00000000000E+00 0.  1.
     999901    1    3    3    0    0  0.12163393839E+00 -0.42706389217E-01 -0.15296471333E-01  0.88952382356E+00  0.88000000000E+00 0. -1.
        -11    1    4    4    0    0 -0.72018767999E-02 -0.10878102072E-02 -0.26037207911E-02  0.77518283937E-02  0.51100000000E-03 0. -1.
         11    1    4    4    0    0 -0.11619017282E+00  0.24109216034E-01  0.31363510730E-01  0.12274095276E+00  0.51100000000E-03 0.  1.
</event>
<event>
 8    1  0.1123361E+005  0.1043930E+01  0.7957747E-01            NaN
         13   -1    0    0    0    0  0.00000000000E+00  0.00000000000E+00  0.74505805969E-08  0.10566000000E+00  0.10566000000E+00 0.  1.
     999900   -1    0    0    0    0 -0.00000000000E+00 -0.00000000000E+00 -0.74505805969E-08  0.93827000000E+00  0.93827000000E+00 0.  1.
     999902    2    1    2    0    0 -0.56588620768E-02  0.17671461889E-01  0.54863492099E-02  0.10245804958E+01  0.10243977690E+01 0.  0.
     999903    2    3    3    0    0 -0.67256823120E-01 -0.81280129337E-01  0.79810419404E-01  0.13378882901E+00  0.19995200428E-01 0.  0.
         14    1    1    2    0    0  0.56588620768E-02 -0.17671461889E-01 -0.54863492099E-02  0.19349504205E-01  0.00000000000E+00 0. -1.
     999901    1    3    3    0    0  0.61597961043E-01  0.98951591226E-01 -0.74324070194E-01  0.89079166679E+00  0.88000000000E+00 0. -1.
        -11    1    4    4    0    0 -0.15793987989E-01 -0.32065569899E-01  0.21201918804E-01  0.41562402620E-01  0.51100000000E-03 0.  1.
         11    1    4    4    0    0 -0.51462835131E-01 -0.49214559437E-01  0.58608500600E-01  0.92226426386E-01  0.51100000000E-03 0. -1.
</event>
<event>
 8    1  0.1123361E+005  0.1043930E+01  0.7957747E-01            NaN
         13   -1    0    0    0    0  0.00000000000E+00  0.00000000000E+00  0.74505805969E-08  0.10566000000E+00  0.10566000000E+00 0. -1.
     999900   -1    0    0    0    0 -0.00000000000E+00 -0.00000000000E+00 -0.74505805969E-08  0.93827000000E+00  0.93827000000E+00 0. -1.
     999902    2    1    2    0    0 -0.57511210726E-02  0.16562712145E-01 -0.15225212387E-01  0.10207091921E+01  0.10204450249E+01 0.  0.
     999903    2    3    3    0    0 -0.95585137295E-01  0.46451409723E-01  0.75351276103E-01  0.13100835194E+00  0.13824671122E-01 0.  0.
         14    1    1    2    0    0  0.57511210726E-02 -0.16562712145E-01  0.15225212387E-01  0.23220807897E-01  0.00000000000E+00 0.  1.
     999901    1    3    3    0    0  0.89834016222E-01 -0.29888697579E-01 -0.90576488489E-01  0.88970084016E+00  0.88000000000E+00 0. -1.
        -11    1    4    4    0    0 -0.33352730753E-01  0.94313061285E-02  0.26965331309E-01  0.43917472578E-01  0.51100000000E-03 0.  1.
         11    1    4    4    0    0 -0.62232406542E-01  0.37020103595E-01  0.48385944793E-01  0.87090879366E-01  0.51100000000E-03 0. -1.
</event>
<event>
 8    1  0.1123361E+005  0.1043930E+01  0.7957747E-01            NaN
         13   -1    0    0    0    0  0.00000000000E+00  0.00000000000E+00  0.74505805969E-08  0.10566000000E+00  0.10566000000E+00 0.  1.
     999900   -1    0    0    0    0 -0.00000000000E+00 -0.00000000000E+00 -0.74505805969E-08  0.93827000000E+00  0.93827000000E+00 0.  1.
     999902    2    1    2    0    0  0.12028012929E-01  0.19706238959E-01 -0.32743924122E-02  0.10206119685E+01  0.10203455589E+01 0.  0.
     999903    2    3    3    0    0  0.21820381880E-01 -0.35219766775E-01 -0.12249009455E+00  0.13082258876E+00  0.19853599973E-01 0.  0.
         14    1    1    2    0    0 -0.12028012929E-01 -0.19706238959E-01  0.32743924122E-02  0.23318031533E-01  0.00000000000E+00 0. -1.
     999901    1    3    3    0    0 -0.97923689514E-02  0.54926005734E-01  0.11921570213E+00  0.88978937970E+00  0.88000000000E+00 0. -1.
        -11    1    4    4    0    0  0.89577478282E-03 -0.12293584510E-01 -0.57370642871E-01  0.58682079181E-01  0.51100000000E-03 0. -1.
         11    1    4    4    0    0  0.20924607097E-01 -0.22926182265E-01 -0.65119451676E-01  0.72140509584E-01  0.51100000000E-03 0.  1.
</event>
<event>
 8    1  0.1123361E+005  0.1043930E+01  0.7957747E-01            NaN
         13   -1    0    0    0    0  0.00000000000E+00  0.00000000000E+00  0.74505805969E-08  0.10566000000E+00  0.10566000000E+00 0.  1.
     999900   -1    0    0    0    0 -0.00000000000E+00 -0.00000000000E+00 -0.74505805969E-08  0.93827000000E+00  0.93827000000E+00 0.  1.
     999902    2    1    2    0    0  0.78959573983E-02  0.10107883740E-01  0.20139138725E-01  0.10200532254E+01  0.10197737407E+01 0.  0.
     999903    2    3    3    0    0  0.78726110027E-01  0.74508782665E-01 -0.68816700190E-01  0.13040299773E+00  0.22800098650E-01 0.  0.
         14    1    1    2    0    0 -0.78959573983E-02 -0.10107883740E-01 -0.20139138725E-01  0.23876774604E-01  0.00000000000E+00 0. -1.
     999901    1    3    3    0    0 -0.70830152629E-01 -0.64400898925E-01  0.88955838915E-01  0.88965022766E+00  0.88000000000E+00 0. -1.
        -11    1    4    4    0    0  0.33748444229E-01  0.47417912910E-01 -0.34144487257E-01  0.67479797597E-01  0.51100000000E-03 0.  1.
         11    1    4    4    0    0  0.44977665798E-01  0.27090869754E-01 -0.34672212933E-01  0.62923200136E-01  0.51100000000E-03 0. -1.
</event>
<event>
 8    1  0.1123361E+005  0.1043930E+01  0.7957747E-01            NaN
         13   -1    0    0    0    0  0.00000000000E+00  0.00000000000E+00  0.74505805969E-08  0.10566000000E+00  0.10566000000E+00 0.  1.
     999900   -1    0    0    0    0 -0.00000000000E+00 -0.00000000000E+00 -0.74505805969E-08  0.93827000000E+00  0.93827000000E+00 0.  1.
     999902    2    1    2    0    0 -0.46867643619E-02 -0.18325618865E-01  0.14048829261E-01  0.10203680886E+01  0.10200960114E+01 0.  0.
     999903    2    3    3    0    0  0.10788303512E+00 -0.10323154356E-01 -0.67652097292E-01  0.12940734835E+00  0.20594629316E-01 0.  0.
         14    1    1    2    0    0  0.46867643619E-02  0.18325618865E-01 -0.14048829261E-01  0.23561911437E-01  0.00000000000E+00 0. -1.
     999901    1    3    3    0    0 -0.11256979949E+00 -0.80024645088E-02  0.81700926553E-01  0.89096074021E+00  0.88000000000E+00 0. -1.
        -11    1    4    4    0    0  0.75966258082E-01  0.22603889433E-02 -0.46245237682E-01  0.88965526213E-01  0.51100000000E-03 0. -1.
         11    1    4    4    0    0  0.31916777042E-01 -0.12583543300E-01 -0.21406859610E-01  0.40441822141E-01  0.51100000000E-03 0.  1.
</event>
<event>
 8    1  0.1123361E+005  0.1043930E+01  0.7957747E-01            NaN
         13   -1    0    0    0    0  0.00000000000E+00  0.00000000000E+00  0.74505805969E-08  0.10566000000E+00  0.10566000000E+00 0. -1.
     999900   -1    0    0    0    0 -0.00000000000E+00 -0.00000000000E+00 -0.74505805969E-08  0.93827000000E+00  0.93827000000E+00 0.  1.
     999902    2    1    2    0    0 -0.65654502089E-02  0.19195606363E-01 -0.12223944307E-01  0.10202445350E+01  0.10199695632E+01 0.  0.
     999903    2    3    3    0    0  0.79171020170E-02  0.12105415048E+00 -0.51672467573E-01  0.13337301477E+00  0.20038196289E-01 0.  0.
         14    1    1    2    0    0  0.65654502089E-02 -0.19195606363E-01  0.12223944307E-01  0.23685465047E-01  0.00000000000E+00 0. -1.
     999901    1    3    3    0    0 -0.14482552226E-01 -0.10185854412E+00  0.39448523266E-01  0.88687152019E+00  0.88000000000E+00 0.  1.
        -11    1    4    4    0    0  0.20479631085E-02  0.20494065100E-01 -0.10334029285E-02  0.20628376083E-01  0.51100000000E-03 0. -1.
         11    1    4    4    0    0  0.58691389085E-02  0.10056008538E+00 -0.50639064644E-01  0.11274463868E+00  0.51100000000E-03 0.  1.
</event>
<event>
 8    1  0.1123361E+005  0.1043930E+01  0.7957747E-01            NaN
         13   -1    0    0    0    0  0.00000000000E+00  0.00000000000E+00  0.74505805969E-08  0.10566000000E+00  0.10566000000E+00 0.  1.
     999900   -1    0    0    0    0 -0.00000000000E+00 -0.00000000000E+00 -0.74505805969E-08  0.93827000000E+00  0.93827000000E+00 0. -1.
     999902    2    1    2    0    0  0.20428908130E-01  0.23497504663E-02 -0.11875485792E-01  0.10201836576E+01  0.10199072538E+01 0.  0.
     999903    2    3    3    0    0 -0.11495855816E+00  0.21640723198E-01  0.46973534412E-01  0.12767869132E+00  0.20286554351E-01 0.  0.
         14    1    1    2    0    0 -0.20428908130E-01 -0.23497504663E-02  0.11875485792E-01  0.23746342401E-01  0.00000000000E+00 0.  1.
     999901    1    3    3    0    0  0.13538746629E+00 -0.19290972732E-01 -0.58849020204E-01  0.89250496628E+00  0.88000000000E+00 0. -1.
        -11    1    4    4    0    0 -0.44192716748E-01  0.63016663594E-02  0.76964379316E-02  0.45301252635E-01  0.51100000000E-03 0.  1.
         11    1    4    4    0    0 -0.70765841409E-01  0.15339056839E-01  0.39277096480E-01  0.82377438683E-01  0.51100000000E-03 0. -1.
</event>
<event>
 8    1  0.1123361E+005  0.1043930E+01  0.7957747E-01            NaN
         13   -1    0    0    0    0  0.00000000000E+00  0.00000000000E+00  0.74505805969E-08  0.10566000000E+00  0.10566000000E+00 0. -1.
     999900   -1    0    0    0    0 -0.00000000000E+00 -0.00000000000E+00 -0.74505805969E-08  0.93827000000E+00  0.93827000000E+00 0.  1.
     999902    2    1    2    0    0 -0.16697482499E-01  0.17063578618E-01  0.36411377287E-02  0.10197798546E+01  0.10194938560E+01 0.  0.
     999903    2    3    3    0    0 -0.92205899306E-01  0.83883196413E-01 -0.41356737554E-01  0.13288009079E+00  0.20209410688E-01 0.  0.
         14    1    1    2    0    0  0.16697482499E-01 -0.17063578618E-01 -0.36411377287E-02  0.24150145362E-01  0.00000000000E+00 0. -1.
     999901    1    3    3    0    0  0.75508416806E-01 -0.66819617795E-01  0.44997875283E-01  0.88689976385E+00  0.88000000000E+00 0. -1.
        -11    1    4    4    0    0 -0.64928139025E-01  0.63543835203E-01 -0.38691718598E-01  0.98746100878E-01  0.51100000000E-03 0. -1.
         11    1    4    4    0    0 -0.27277760281E-01  0.20339361210E-01 -0.26650189561E-02  0.34133989913E-01  0.51100000000E-03 0.  1.
</event>
<event>
 8    1  0.1123361E+005  0.1043930E+01  0.7957747E-01            NaN
         13   -1    0    0    0    0  0.00000000000E+00  0.00000000000E+00  0.74505805969E-08  0.10566000000E+00  0.10566000000E+00 0.  1.
     999900   -1    0    0    0    0 -0.00000000000E+00 -0.00000000000E+00 -0.74505805969E-08  0.93827000000E+00  0.93827000000E+00 0. -1.
     999902    2    1    2    0    0  0.13958177583E-01 -0.20722107866E-01  0.28747316662E-02  0.10187804362E+01  0.10184699685E+01 0.  0.
     999903    2    3    3    0    0 -0.14996927935E-01 -0.78733224241E-01  0.10149865702E+00  0.13090073356E+00  0.20228599115E-01 0.  0.
         14    1    1    2    0    0 -0.13958177583E-01  0.20722107866E-01 -0.28747316662E-02  0.25149563774E-01  0.00000000000E+00 0.  1.
     999901    1    3    3    0    0  0.28955105517E-01  0.58011116375E-01 -0.98623925354E-01  0.88787970267E+00  0.88000000000E+00 0. -1.
        -11    1    4    4    0    0  0.45383963849E-02 -0.81216593499E-02  0.97186433579E-02  0.13463712046E-01  0.51100000000E-03 0.  1.
         11    1    4    4    0    0 -0.19535324320E-01 -0.70611564892E-01  0.91780013662E-01  0.11743702151E+00  0.51100000000E-03 0. -1.
</event>
<event>
 8    1  0.1123361E+005  0.1043930E+01  0.7957747E-01            NaN
         13   -1    0    0    0    0  0.00000000000E+00  0.00000000000E+00  0.74505805969E-08  0.10566000000E+00  0.10566000000E+00 0. -1.
     999900   -1    0    0    0    0 -0.00000000000E+00 -0.00000000000E+00 -0.74505805969E-08  0.93827000000E+00  0.93827000000E+00 0.  1.
     999902    2    1    2    0    0  0.17974705898E-01 -0.12174872351E-01 -0.45551952929E-02  0.10217474083E+01  0.10215065830E+01 0.  0.
     999903    2    3    3    0    0  0.10864704453E+00  0.48691726557E-01  0.55521639037E-01  0.13296428412E+00  0.20537378875E-01 0.  0.
         14    1    1    2    0    0 -0.17974705898E-01  0.12174872351E-01  0.45551952929E-02  0.22182591667E-01  0.00000000000E+00 0. -1.
     999901    1    3    3    0    0 -0.90672338633E-01 -0.60866598908E-01 -0.60076834330E-01  0.88878312421E+00  0.88000000000E+00 0.  1.
        -11    1    4    4    0    0  0.79630744821E-01  0.44734251362E-01  0.38789737375E-01  0.99232623730E-01  0.51100000000E-03 0.  1.
         11    1    4    4    0    0  0.29016299709E-01  0.39574751945E-02  0.16731901662E-01  0.33731660394E-01  0.51100000000E-03 0. -1.
</event>
<event>
 8    1  0.1123361E+005  0.1043930E+01  0.7957747E-01            NaN
         13   -1    0    0    0    0  0.00000000000E+00  0.00000000000E+00  0.74505805969E-08  0.10566000000E+00  0.10566000000E+00 0.  1.
     999900   -1    0    0    0    0 -0.00000000000E+00 -0.00000000000E+00 -0.74505805969E-08  0.93827000000E+00  0.93827000000E+00 0. -1.
     999902    2    1    2    0    0  0.54371582198E-02 -0.19485470361E-01  0.12427219164E-01  0.10201880114E+01  0.10199117102E+01 0.  0.
     999903    2    3    3    0    0  0.81244991302E-01 -0.10251877744E+00  0.16253415718E-01  0.13302624636E+00  0.17915366522E-01 0.  0.
         14    1    1    2    0    0 -0.54371582198E-02  0.19485470361E-01 -0.12427219164E-01  0.23741988561E-01  0.00000000000E+00 0. -1.
     999901    1    3    3    0    0 -0.75807833082E-01  0.83033307081E-01 -0.38261965541E-02  0.88716176508E+00  0.88000000000E+00 0.  1.
        -11    1    4    4    0    0  0.44702887337E-01 -0.53015687751E-01  0.17344286161E-01  0.71484940144E-01  0.51100000000E-03 0.  1.
         11    1    4    4    0    0  0.36542103965E-01 -0.49503089690E-01 -0.10908704428E-02  0.61541306213E-01  0.51100000000E-03 0. -1.
</event>
<event>
 8    1  0.1123361E+005  0.1043930E+01  0.7957747E-01            NaN
         13   -1    0    0    0    0  0.00000000000E+00  0.00000000000E+00  0.74505805969E-08  0.10566000000E+00  0.10566000000E+00 0. -1.
     999900   -1    0    0    0    0 -0.00000000000E+00 -0.00000000000E+00 -0.74505805969E-08  0.93827000000E+00  0.93827000000E+00 0.  1.
     999902    2    1    2    0    0  0.62486632874E-02  0.22660974622E-02  0.23099419477E-01  0.10198932745E+01  0.10196099878E+01 0.  0.
     999903    2    3    3    0    0  0.62221248626E-01 -0.93951097101E-01  0.65599940276E-01  0.13186344784E+00  0.19655133819E-01 0.  0.
         14    1    1    2    0    0 -0.62486632874E-02 -0.22660974622E-02 -0.23099419477E-01  0.24036725459E-01  0.00000000000E+00 0.  1.
     999901    1    3    3    0    0 -0.55972585339E-01  0.96217194563E-01 -0.42500520799E-01  0.88802982670E+00  0.88000000000E+00 0. -1.
        -11    1    4    4    0    0  0.20748023135E-01 -0.28056977573E-01  0.30929225218E-01  0.46632097831E-01  0.51100000000E-03 0.  1.
         11    1    4    4    0    0  0.41473225491E-01 -0.65894119529E-01  0.34670715058E-01  0.85231350011E-01  0.51100000000E-03 0. -1.
</event>
<event>
 8    1  0.1123361E+005  0.1043930E+01  0.7957747E-01            NaN
         13   -1    0    0    0    0  0.00000000000E+00  0.00000000000E+00  0.74505805969E-08  0.10566000000E+00  0.10566000000E+00 0.  1.
     999900   -1    0    0    0    0 -0.00000000000E+00 -0.00000000000E+00 -0.74505805969E-08  0.93827000000E+00  0.93827000000E+00 0. -1.
     999902    2    1    2    0    0  0.16020006357E-01 -0.10524582691E-02  0.17567379069E-01  0.10201316581E+01  0.10198540281E+01 0.  0.
     999903    2    3    3    0    0 -0.62073837019E-01 -0.90868204660E-01 -0.63255166231E-01  0.12844909093E+00  0.19691649160E-01 0.  0.
         14    1    1    2    0    0 -0.16020006357E-01  0.10524582691E-02 -0.17567379069E-01  0.23798341947E-01  0.00000000000E+00 0. -1.
     999901    1    3    3    0    0  0.78093843376E-01  0.89815746391E-01  0.80822545301E-01  0.89168256712E+00  0.88000000000E+00 0.  1.
        -11    1    4    4    0    0 -0.33100703331E-01 -0.59705512622E-01 -0.30617560765E-01  0.74820458075E-01  0.51100000000E-03 0. -1.
         11    1    4    4    0    0 -0.28973133688E-01 -0.31162692038E-01 -0.32637605467E-01  0.53628632859E-01  0.51100000000E-03 0.  1.
</event>
<event>
 8    1  0.1123361E+005  0.1043930E+01  0.7957747E-01            NaN
         13   -1    0    0    0    0  0.00000000000E+00  0.00000000000E+00  0.74505805969E-08  0.10566000000E+00  0.10566000000E+00 0.  1.
     999900   -1    0    0    0    0 -0.00000000000E+00 -0.00000000000E+00 -0.74505805969E-08  0.93827000000E+00  0.93827000000E+00 0.  1.
     999902    2    1    2    0    0  0.22409705612E-01 -0.13767996174E-02  0.77095664119E-02  0.10201912575E+01  0.10199150327E+01 0.  0.
     999903    2    3    3    0    0  0.25092644165E-01 -0.11424254334E+00  0.56748619952E-01  0.13162460097E+00  0.20582279159E-01 0.  0.
         14    1    1    2    0    0 -0.22409705612E-01  0.13767996174E-02 -0.77095664119E-02  0.23738742533E-01  0.00000000000E+00 0. -1.
     999901    1    3    3    0    0 -0.26829385532E-02  0.11286574372E+00 -0.49039053540E-01  0.88856665650E+00  0.88000000000E+00 0. -1.
        -11    1    4    4    0    0  0.21120293333E-01 -0.58721270898E-01  0.22896094823E-01  0.66473654371E-01  0.51100000000E-03 0. -1.
         11    1    4    4    0    0  0.39723508321E-02 -0.55521272438E-01  0.33852525129E-01  0.65150946600E-01  0.51100000000E-03 0.  1.
</event>
<event>
 8    1  0.1123361E+005  0.1043930E+01  0.7957747E-01            NaN
         13   -1    0    0    0    0  0.00000000000E+00  0.00000000000E+00  0.74505805969E-08  0.10566000000E+00  0.10566000000E+00 0.  1.
     999900   -1    0    0    0    0 -0.00000000000E+00 -0.00000000000E+00 -0.74505805969E-08  0.93827000000E+00  0.93827000000E+00 0. -1.
     999902    2    1    2    0    0 -0.14187907661E-01 -0.27419294983E-01 -0.48466134243E-02  0.10126793340E+01  0.10121970310E+01 0.  0.
     999903    2    3    3    0    0  0.67888227208E-01 -0.53765627576E-01 -0.87470121636E-01  0.12461556084E+00  0.19454092715E-01 0.  0.
         14    1    1    2    0    0  0.14187907661E-01  0.27419294983E-01  0.48466134243E-02  0.31250665958E-01  0.00000000000E+00 0.  1.
     999901    1    3    3    0    0 -0.82076134870E-01  0.26346332594E-01  0.82623508212E-01  0.88806377320E+00  0.88000000000E+00 0.  1.
        -11    1    4    4    0    0  0.79939819947E-02 -0.14077908384E-01 -0.10408066736E-01  0.19253057595E-01  0.51100000000E-03 0. -1.
         11    1    4    4    0    0  0.59894245213E-01 -0.39687719192E-01 -0.77062054901E-01  0.10536250325E+00  0.51100000000E-03 0.  1.
</event>
<event>
 8    1  0.1123361E+005  0.1043930E+01  0.7957747E-01            NaN
         13   -1    0    0    0    0  0.00000000000E+00  0.00000000000E+00  0.74505805969E-08  0.10566000000E+00  0.10566000000E+00 0. -1.
     999900   -1    0    0    0    0 -0.00000000000E+00 -0.00000000000E+00 -0.74505805969E-08  0.93827000000E+00  0.93827000000E+00 0. -1.
     999902    2    1    2    0    0 -0.22376334205E-01  0.32724967630E-02 -0.64625522129E-02  0.10204103455E+01  0.10201392547E+01 0.  0.
     999903    2    3    3    0    0  0.29987290676E-01 -0.12437117780E+00 -0.69804309244E-02  0.12966059103E+00  0.19892586056E-01 0.  0.
         14    1    1    2    0    0  0.22376334205E-01 -0.32724967630E-02  0.64625522129E-02  0.23519654517E-01  0.00000000000E+00 0.  1.
     999901    1    3    3    0    0 -0.52363624881E-01  0.12764367456E+00  0.51787871149E-03  0.89074975446E+00  0.88000000000E+00 0. -1.
        -11    1    4    4    0    0  0.13378626866E-01 -0.70277942218E-01  0.53614161845E-02  0.71742475032E-01  0.51100000000E-03 0. -1.
         11    1    4    4    0    0  0.16608663811E-01 -0.54093235582E-01 -0.12341847109E-01  0.57918115994E-01  0.51100000000E-03 0.  1.
</event>
<event>
 8    1  0.1123361E+005  0.1043930E+01  0.7957747E-01            NaN
         13   -1    0    0    0    0  0.00000000000E+00  0.00000000000E+00  0.74505805969E-08  0.10566000000E+00  0.10566000000E+00 0. -1.
     999900   -1    0    0    0    0 -0.00000000000E+00 -0.00000000000E+00 -0.74505805969E-08  0.93827000000E+00  0.93827000000E+00 0. -1.
     999902    2    1    2    0    0  0.16718756063E-01 -0.15828232017E-01 -0.71523078994E-02  0.10198218014E+01  0.10195368072E+01 0.  0.
     999903    2    3    3    0    0  0.21980568381E-01 -0.12254974934E+00 -0.41299762663E-01  0.13270105559E+00  0.20057749340E-01 0.  0.
         14    1    1    2    0    0 -0.16718756063E-01  0.15828232017E-01  0.71523078994E-02  0.24108198633E-01  0.00000000000E+00 0. -1.
     999901    1    3    3    0    0 -0.52618123179E-02  0.10672151732E+00  0.34147454764E-01  0.88712074578E+00  0.88000000000E+00 0.  1.
        -11    1    4    4    0    0 -0.16315895959E-02 -0.37613876211E-01 -0.16587682702E-01  0.41144599970E-01  0.51100000000E-03 0.  1.
         11    1    4    4    0    0  0.23612157977E-01 -0.84935873126E-01 -0.24712079961E-01  0.91556455616E-01  0.51100000000E-03 0. -1.
</event>
<event>
 8    1  0.1123361E+005  0.1043930E+01  0.7957747E-01            NaN
         13   -1    0    0    0    0  0.00000000000E+00  0.00000000000E+00  0.74505805969E-08  0.10566000000E+00  0.10566000000E+00 0. -1.
     999900   -1    0    0    0    0 -0.00000000000E+00 -0.00000000000E+00 -0.74505805969E-08  0.93827000000E+00  0.93827000000E+00 0.  1.
     999902    2    1    2    0    0 -0.11087416219E-01  0.17046949660E-01  0.12319670269E-01  0.10201538866E+01  0.10198767812E+01 0.  0.
     999903    2    3    3    0    0 -0.37074941487E-01 -0.67106940017E-01  0.10431589392E+00  0.13098543590E+00  0.19937051172E-01 0.  0.
         14    1    1    2    0    0  0.11087416219E-01 -0.17046949660E-01 -0.12319670269E-01  0.23776113363E-01  0.00000000000E+00 0.  1.
     999901    1    3    3    0    0  0.25987525269E-01  0.84153889678E-01 -0.91996223650E-01  0.88916845074E+00  0.88000000000E+00 0.  1.
        -11    1    4    4    0    0 -0.33685036149E-01 -0.50978369730E-01  0.91833391815E-01  0.11030461828E+00  0.51100000000E-03 0. -1.
         11    1    4    4    0    0 -0.33899053388E-02 -0.16128570287E-01  0.12482502104E-01  0.20680817621E-01  0.51100000000E-03 0.  1.
</event>
<event>
 8    1  0.1123361E+005  0.1043930E+01  0.7957747E-01            NaN
         13   -1    0    0    0    0  0.00000000000E+00  0.00000000000E+00  0.74505805969E-08  0.10566000000E+00  0.10566000000E+00 0.  1.
     999900   -1    0    0    0    0 -0.00000000000E+00 -0.00000000000E+00 -0.74505805969E-08  0.93827000000E+00  0.93827000000E+00 0.  1.
     999902    2    1    2    0    0  0.21002069697E-01 -0.67766883172E-02  0.27625309577E-02  0.10216894511E+01  0.10214473518E+01 0.  0.
     999903    2    3    3    0    0 -0.31092691767E-01  0.26719384562E-01 -0.12233349467E+00  0.13068728128E+00  0.20808665962E-01 0.  0.
         14    1    1    2    0    0 -0.21002069697E-01  0.67766883172E-02 -0.27625309577E-02  0.22240548856E-01  0.00000000000E+00 0. -1.
     999901    1    3    3    0    0  0.52094761464E-01 -0.33496072879E-01  0.12509602562E+00  0.89100216986E+00  0.88000000000E+00 0. -1.
        -11    1    4    4    0    0 -0.91021298059E-02 -0.20265962661E-02 -0.33091108970E-01  0.34383694876E-01  0.51100000000E-03 0. -1.
         11    1    4    4    0    0 -0.21990561961E-01  0.28745980828E-01 -0.89242385697E-01  0.96303586408E-01  0.51100000000E-03 0.  1.
</event>
<event>
 8    1  0.1123361E+005  0.1043930E+01  0.7957747E-01            NaN
         13   -1    0    0    0    0  0.00000000000E+00  0.00000000000E+00  0.74505805969E-08  0.10566000000E+00  0.10566000000E+00 0.  1.
     999900   -1    0    0    0    0 -0.00000000000E+00 -0.00000000000E+00 -0.74505805969E-08  0.93827000000E+00  0.93827000000E+00 0. -1.
     999902    2    1    2    0    0  0.75743535746E-02 -0.19829093582E-01  0.23292961166E-01  0.10124161011E+01  0.10119255091E+01 0.  0.
     999903    2    3    3    0    0  0.27439111685E-01 -0.14656515615E-01  0.12109189292E+00  0.12676041448E+00  0.20910233110E-01 0.  0.
         14    1    1    2    0    0 -0.75743535746E-02  0.19829093582E-01 -0.23292961166E-01  0.31513898906E-01  0.00000000000E+00 0. -1.
     999901    1    3    3    0    0 -0.19864758111E-01 -0.51725779667E-02 -0.97798931753E-01  0.88565568661E+00  0.88000000000E+00 0. -1.
        -11    1    4    4    0    0  0.10403411453E-01  0.17373022318E-02  0.16973676247E-01  0.19990397576E-01  0.51100000000E-03 0.  1.
         11    1    4    4    0    0  0.17035700232E-01 -0.16393817847E-01  0.10411821667E+00  0.10677001691E+00  0.51100000000E-03 0. -1.
</event>
<event>
 8    1  0.1123361E+005  0.1043930E+01  0.7957747E-01            NaN
         13   -1    0    0    0    0  0.00000000000E+00  0.00000000000E+00  0.74505805969E-08  0.10566000000E+00  0.10566000000E+00 0.  1.
     999900   -1    0    0    0    0 -0.00000000000E+00 -0.00000000000E+00 -0.74505805969E-08  0.93827000000E+00  0.93827000000E+00 0. -1.
     999902    2    1    2    0    0  0.16448738296E-01  0.16361013302E-01 -0.67993966253E-02  0.10197540710E+01  0.10194674540E+01 0.  0.
     999903    2    3    3    0    0 -0.38825463955E-02 -0.11581842649E+00  0.49691993537E-01  0.12785943452E+00  0.21207515000E-01 0.  0.
         14    1    1    2    0    0 -0.16448738296E-01 -0.16361013302E-01  0.67993966253E-02  0.24175928985E-01  0.00000000000E+00 0.  1.
     999901    1    3    3    0    0  0.20331284692E-01  0.13217943980E+00 -0.56491390162E-01  0.89189463649E+00  0.88000000000E+00 0. -1.
        -11    1    4    4    0    0 -0.72845993255E-03 -0.49081010519E-01  0.98479564035E-02  0.50067151045E-01  0.51100000000E-03 0. -1.
         11    1    4    4    0    0 -0.31540864629E-02 -0.66737415975E-01  0.39844037133E-01  0.77792283477E-01  0.51100000000E-03 0.  1.
</event>
<event>
 8    1  0.1123361E+005  0.1043930E+01  0.7957747E-01            NaN
         13   -1    0    0    0    0  0.00000000000E+00  0.00000000000E+00  0.74505805969E-08  0.10566000000E+00  0.10566000000E+00 0. -1.
     999900   -1    0    0    0    0 -0.00000000000E+00 -0.00000000000E+00 -0.74505805969E-08  0.93827000000E+00  0.93827000000E+00 0. -1.
     999902    2    1    2    0    0 -0.17736866536E-01 -0.12182894419E-01 -0.99780506109E-02  0.10202112132E+01  0.10199354582E+01 0.  0.
     999903    2    3    3    0    0 -0.69250933344E-01  0.62864832931E-01 -0.90727248262E-01  0.13183837858E+00  0.20056058948E-01 0.  0.
         14    1    1    2    0    0  0.17736866536E-01  0.12182894419E-01  0.99780506109E-02  0.23718786751E-01  0.00000000000E+00 0. -1.
     999901    1    3    3    0    0  0.51514066808E-01 -0.75047727350E-01  0.80749197651E-01  0.88837283467E+00  0.88000000000E+00 0. -1.
        -11    1    4    4    0    0 -0.28384119651E-01  0.38897187712E-01 -0.42419431739E-01  0.64174128512E-01  0.51100000000E-03 0.  1.
         11    1    4    4    0    0 -0.40866813694E-01  0.23967645219E-01 -0.48307816522E-01  0.67664250066E-01  0.51100000000E-03 0. -1.
</event>
<event>
 8    1  0.1123361E+005  0.1043930E+01  0.7957747E-01            NaN
         13   -1    0    0    0    0  0.00000000000E+00  0.00000000000E+00  0.74505805969E-08  0.10566000000E+00  0.10566000000E+00 0. -1.
     999900   -1    0    0    0    0 -0.00000000000E+00 -0.00000000000E+00 -0.74505805969E-08  0.93827000000E+00  0.93827000000E+00 0.  1.
     999902    2    1    2    0    0 -0.22469777888E-01 -0.60818672904E-02  0.48110241995E-02  0.10201597248E+01  0.10198827571E+01 0.  0.
     999903    2    3    3    0    0 -0.33719048654E-01  0.12435992352E+00 -0.40246190848E-02  0.13042961098E+00  0.19832323158E-01 0.  0.
         14    1    1    2    0    0  0.22469777888E-01  0.60818672904E-02 -0.48110241995E-02  0.23770275175E-01  0.00000000000E+00 0.  1.
     999901    1    3    3    0    0  0.11249270766E-01 -0.13044179081E+00  0.88356432843E-02  0.88973011384E+00  0.88000000000E+00 0.  1.
        -11    1    4    4    0    0 -0.11671095691E-01  0.37603389681E-01 -0.10278473782E-01  0.40695669726E-01  0.51100000000E-03 0. -1.
         11    1    4    4    0    0 -0.22047952963E-01  0.86756533842E-01  0.62538546974E-02  0.89733941258E-01  0.51100000000E-03 0.  1.
</event>
<event>
 8    1  0.1123361E+005  0.1043930E+01  0.7957747E-01            NaN
         13   -1    0    0    0    0  0.00000000000E+00  0.00000000000E+00  0.74505805969E-08  0.10566000000E+00  0.10566000000E+00 0. -1.
     999900   -1    0    0    0    0 -0.00000000000E+00 -0.00000000000E+00 -0.74505805969E-08  0.93827000000E+00  0.93827000000E+00 0.  1.
     999902    2    1    2    0    0 -0.59308815777E-02 -0.45455572897E-02  0.21263873144E-01  0.10213913721E+01  0.10211426664E+01 0.  0.
     999903    2    3    3    0    0 -0.90184767890E-01  0.79455340347E-01  0.52767257316E-01  0.13282661283E+00  0.20299806979E-01 0.  0.
         14    1    1    2    0    0  0.59308815777E-02  0.45455572897E-02 -0.21263873144E-01  0.22538627918E-01  0.00000000000E+00 0.  1.
     999901    1    3    3    0    0  0.84253886312E-01 -0.84000897636E-01 -0.31503384173E-01  0.88856475925E+00  0.88000000000E+00 0. -1.
        -11    1    4    4    0    0 -0.23763416835E-01  0.32885571648E-01  0.14059849810E-01  0.42943000594E-01  0.51100000000E-03 0. -1.
         11    1    4    4    0    0 -0.66421351054E-01  0.46569768698E-01  0.38707407506E-01  0.89883612240E-01  0.51100000000E-03 0.  1.
</event>
<event>
 8    1  0.1123361E+005  0.1043930E+01  0.7957747E-01            NaN
         13   -1    0    0    0    0  0.00000000000E+00  0.00000000000E+00  0.74505805969E-08  0.10566000000E+00  0.10566000000E+00 0. -1.
     999900   -1    0    0    0    0 -0.00000000000E+00 -0.00000000000E+00 -0.74505805969E-08  0.93827000000E+00  0.93827000000E+00 0. -1.
     999902    2    1    2    0    0  0.22095935022E-01 -0.75177788631E-02 -0.14311103478E-02  0.10205463429E+01  0.10202784142E+01 0.  0.
     999903    2    3    3    0    0  0.12088159725E+00 -0.61151685449E-03  0.54052236690E-01  0.13325568852E+00  0.14923127218E-01 0.  0.
         14    1    1    2    0    0 -0.22095935022E-01  0.75177788631E-02  0.14311103478E-02  0.23383657121E-01  0.00000000000E+00 0. -1.
     999901    1    3    3    0    0 -0.98785662223E-01 -0.69062620086E-02 -0.55483347038E-01  0.88729065436E+00  0.88000000000E+00 0. -1.
        -11    1    4    4    0    0  0.56322131964E-01  0.12179898507E-02  0.17251529685E-01  0.58919796721E-01  0.51100000000E-03 0.  1.
         11    1    4    4    0    0  0.64559465281E-01 -0.18295067052E-02  0.36800707005E-01  0.74335891797E-01  0.51100000000E-03 0. -1.
</event>
<event>
 8    1  0.1123361E+005  0.1043930E+01  0.7957747E-01            NaN
         13   -1    0    0    0    0  0.00000000000E+00  0.00000000000E+00  0.74505805969E-08  0.10566000000E+00  0.10566000000E+00 0. -1.
     999900   -1    0    0    0    0 -0.00000000000E+00 -0.00000000000E+00 -0.74505805969E-08  0.93827000000E+00  0.93827000000E+00 0.  1.
     999902    2    1    2    0    0 -0.22311560456E-02  0.65171574118E-02 -0.23424490408E-01  0.10195136500E+01  0.10192212342E+01 0.  0.
     999903    2    3    3    0    0  0.76836659378E-01  0.42842014817E-01  0.90492551614E-01  0.12791491333E+00  0.20832971413E-01 0.  0.
         14    1    1    2    0    0  0.22311560456E-02 -0.65171574118E-02  0.23424490408E-01  0.24416350033E-01  0.00000000000E+00 0. -1.
     999901    1    3    3    0    0 -0.79067815423E-01 -0.36324857406E-01 -0.11391704202E+00  0.89159873663E+00  0.88000000000E+00 0.  1.
        -11    1    4    4    0    0  0.32029794085E-01  0.15980309929E-01  0.51517180128E-01  0.62734033697E-01  0.51100000000E-03 0. -1.
         11    1    4    4    0    0  0.44806865293E-01  0.26861704889E-01  0.38975371486E-01  0.65180879637E-01  0.51100000000E-03 0.  1.
</event>
<event>
 8    1  0.1123361E+005  0.1043930E+01  0.7957747E-01            NaN
         13   -1    0    0    0    0  0.00000000000E+00  0.00000000000E+00  0.74505805969E-08  0.10566000000E+00  0.10566000000E+00 0. -1.
     999900   -1    0    0    0    0 -0.00000000000E+00 -0.00000000000E+00 -0.74505805969E-08  0.93827000000E+00  0.93827000000E+00 0.  1.
     999902    2    1    2    0    0 -0.76104554584E-02 -0.15546645566E-01  0.15179176093E-01  0.10209077367E+01  0.10206481187E+01 0.  0.
     999903    2    3    3    0    0 -0.29959564991E-01 -0.12081037131E+00  0.44823539073E-01  0.13385716153E+00  0.20392858702E-01 0.  0.
         14    1    1    2    0    0  0.76104554584E-02  0.15546645566E-01 -0.15179176093E-01  0.23022263301E-01  0.00000000000E+00 0.  1.
     999901    1    3    3    0    0  0.22349109532E-01  0.10526372575E+00 -0.29644362980E-01  0.88705057517E+00  0.88000000000E+00 0. -1.
        -11    1    4    4    0    0 -0.80948114186E-02 -0.57439797897E-01  0.12099272321E-01  0.59257994111E-01  0.51100000000E-03 0.  1.
         11    1    4    4    0    0 -0.21864753572E-01 -0.63370573416E-01  0.32724266752E-01  0.74599167417E-01  0.51100000000E-03 0. -1.
</event>
<event>
 8    1  0.1123361E+005  0.1043930E+01  0.7957747E-01            NaN
         13   -1    0    0    0    0  0.00000000000E+00  0.00000000000E+00  0.74505805969E-08  0.10566000000E+00  0.10566000000E+00 0. -1.
     999900   -1    0    0    0    0 -0.00000000000E+00 -0.00000000000E+00 -0.74505805969E-08  0.93827000000E+00  0.93827000000E+00 0. -1.
     999902    2    1    2    0    0 -0.20214270253E-01 -0.11587027458E-01 -0.54835444618E-02  0.10199937265E+01  0.10197128307E+01 0.  0.
     999903    2    3    3    0    0  0.12053123277E+00 -0.37150563965E-01  0.94546699679E-02  0.12831780937E+00  0.21636241386E-01 0.  0.
         14    1    1    2    0    0  0.20214270253E-01  0.11587027458E-01  0.54835444618E-02  0.23936273458E-01  0.00000000000E+00 0. -1.
     999901    1    3    3    0    0 -0.14074550302E+00  0.25563536506E-01 -0.14938214430E-01  0.89167591717E+00  0.88000000000E+00 0.  1.
        -11    1    4    4    0    0  0.62505941845E-01 -0.83574800145E-02  0.75145641368E-02  0.63510393113E-01  0.51100000000E-03 0. -1.
         11    1    4    4    0    0  0.58025290922E-01 -0.28793083950E-01  0.19401058311E-02  0.64807416254E-01  0.51100000000E-03 0.  1.
</event>
<event>
 8    1  0.1529013E+005  0.1043930E+01  0.7957747E-01            NaN
         13   -1    0    0    0    0  0.00000000000E+00  0.00000000000E+00  0.74505805969E-08  0.10566000000E+00  0.10566000000E+00 0. -1.
     999900   -1    0    0    0    0 -0.00000000000E+00 -0.00000000000E+00 -0.74505805969E-08  0.93827000000E+00  0.93827000000E+00 0.  1.
     999902    2    1    2    0    0 -0.22407232302E-01  0.51802890976E-03 -0.61299335303E-02  0.10206936384E+01  0.10204291132E+01 0.  0.
     999903    2    3    3    0    0  0.70889516491E-01 -0.77795806440E-01  0.71672688524E-01  0.12890297459E+00  0.20037253523E-01 0.  0.
         14    1    1    2    0    0  0.22407232302E-01 -0.51802890976E-03  0.61299335303E-02  0.23236361558E-01  0.00000000000E+00 0.  1.
     999901    1    3    3    0    0 -0.93296748793E-01  0.78313835350E-01 -0.77802622054E-01  0.89179066386E+00  0.88000000000E+00 0. -1.
        -11    1    4    4    0    0  0.46137361992E-01 -0.36299164249E-01  0.42239043056E-01  0.72323463523E-01  0.51100000000E-03 0. -1.
         11    1    4    4    0    0  0.24752154499E-01 -0.41496642191E-01  0.29433645468E-01  0.56579511062E-01  0.51100000000E-03 0.  1.
</event>
<event>
 8    1  0.1123361E+005  0.1043930E+01  0.7957747E-01            NaN
         13   -1    0    0    0    0  0.00000000000E+00  0.00000000000E+00  0.74505805969E-08  0.10566000000E+00  0.10566000000E+00 0.  1.
     999900   -1    0    0    0    0 -0.00000000000E+00 -0.00000000000E+00 -0.74505805969E-08  0.93827000000E+00  0.93827000000E+00 0.  1.
     999902    2    1    2    0    0  0.57016341107E-02  0.15002669028E-01 -0.14701145917E-01  0.10221650649E+01  0.10219333185E+01 0.  0.
     999903    2    3    3    0    0 -0.81184311543E-01  0.18990378242E-01  0.98431494893E-01  0.13066965615E+00  0.20839216490E-01 0.  0.
         14    1    1    2    0    0 -0.57016341107E-02 -0.15002669028E-01  0.14701145917E-01  0.21764935120E-01  0.00000000000E+00 0.  1.
     999901    1    3    3    0    0  0.86885945653E-01 -0.39877092142E-02 -0.11313264081E+00  0.89149540873E+00  0.88000000000E+00 0.  1.
        -11    1    4    4    0    0 -0.20654700032E-01  0.16080463460E-02  0.12746226044E-01  0.24329608420E-01  0.51100000000E-03 0.  1.
         11    1    4    4    0    0 -0.60529611511E-01  0.17382331896E-01  0.85685268849E-01  0.10634004773E+00  0.51100000000E-03 0. -1.
</event>
<event>
 8    1  0.1123361E+005  0.1043930E+01  0.7957747E-01            NaN
         13   -1    0    0    0    0  0.00000000000E+00  0.00000000000E+00  0.74505805969E-08  0.10566000000E+00  0.10566000000E+00 0. -1.
     999900   -1    0    0    0    0 -0.00000000000E+00 -0.00000000000E+00 -0.74505805969E-08  0.93827000000E+00  0.93827000000E+00 0. -1.
     999902    2    1    2    0    0  0.13184495688E-02 -0.38598804719E-02  0.23118551057E-01  0.10204543873E+01  0.10201843227E+01 0.  0.
     999903    2    3    3    0    0  0.56521386997E-01 -0.10980148695E+00  0.43154491958E-01  0.13215689933E+00  0.18764384865E-01 0.  0.
         14    1    1    2    0    0 -0.13184495688E-02  0.38598804719E-02 -0.23118551057E-01  0.23475612655E-01  0.00000000000E+00 0.  1.
     999901    1    3    3    0    0 -0.55202937428E-01  0.10594160648E+00 -0.20035940900E-01  0.88829748801E+00  0.88000000000E+00 0. -1.
        -11    1    4    4    0    0  0.25074106110E-01 -0.37354071913E-01  0.23538246159E-01  0.50777432378E-01  0.51100000000E-03 0.  1.
         11    1    4    4    0    0  0.31447280887E-01 -0.72447415041E-01  0.19616245798E-01  0.81379466953E-01  0.51100000000E-03 0. -1.
</event>
<event>
 8    1  0.1123361E+005  0.1043930E+01  0.7957747E-01            NaN
         13   -1    0    0    0    0  0.00000000000E+00  0.00000000000E+00  0.74505805969E-08  0.10566000000E+00  0.10566000000E+00 0.  1.
     999900   -1    0    0    0    0 -0.00000000000E+00 -0.00000000000E+00 -0.74505805969E-08  0.93827000000E+00  0.93827000000E+00 0. -1.
     999902    2    1    2    0    0 -0.36479565297E-03 -0.23866790026E-01  0.76576605657E-02  0.10188621619E+01  0.10185537337E+01 0.  0.
     999903    2    3    3    0    0 -0.78098779488E-01  0.98078368779E-01 -0.35801224211E-03  0.12702280135E+00  0.20393089781E-01 0.  0.
         14    1    1    2    0    0  0.36479565297E-03  0.23866790026E-01 -0.76576605657E-02  0.25067838107E-01  0.00000000000E+00 0.  1.
     999901    1    3    3    0    0  0.77733983835E-01 -0.12194515880E+00  0.80156728078E-02  0.89183936054E+00  0.88000000000E+00 0.  1.
        -11    1    4    4    0    0 -0.43962082714E-01  0.67954703920E-01 -0.59250486964E-02  0.81153396876E-01  0.51100000000E-03 0. -1.
         11    1    4    4    0    0 -0.34136696774E-01  0.30123664859E-01  0.55670364543E-02  0.45869404477E-01  0.51100000000E-03 0.  1.
</event>
<event>
 8    1  0.1123361E+005  0.1043930E+01  0.7957747E-01            NaN
         13   -1    0    0    0    0  0.00000000000E+00  0.00000000000E+00  0.74505805969E-08  0.10566000000E+00  0.10566000000E+00 0.  1.
     999900   -1    0    0    0    0 -0.00000000000E+00 -0.00000000000E+00 -0.74505805969E-08  0.93827000000E+00  0.93827000000E+00 0. -1.
     999902    2    1    2    0    0  0.20450246118E-01  0.49086831216E-02  0.10397043516E-01  0.10204692615E+01  0.10201995430E+01 0.  0.
     999903    2    3    3    0    0 -0.92196588843E-01 -0.68244308359E-01  0.56165437443E-01  0.12910210065E+00  0.18849387567E-01 0.  0.
         14    1    1    2    0    0 -0.20450246118E-01 -0.49086831216E-02 -0.10397043516E-01  0.23460738482E-01  0.00000000000E+00 0. -1.
     999901    1    3    3    0    0  0.11264683496E+00  0.73152991480E-01 -0.45768393928E-01  0.89136716087E+00  0.88000000000E+00 0. -1.
        -11    1    4    4    0    0 -0.16378069589E-01 -0.10639226663E-01  0.17842734833E-01  0.26458620803E-01  0.51100000000E-03 0.  1.
         11    1    4    4    0    0 -0.75818519253E-01 -0.57605081696E-01  0.38322702610E-01  0.10264347985E+00  0.51100000000E-03 0. -1.
</event>
<event>
 8    1  0.1123361E+005  0.1043930E+01  0.7957747E-01            NaN
         13   -1    0    0    0    0  0.00000000000E+00  0.00000000000E+00  0.74505805969E-08  0.10566000000E+00  0.10566000000E+00 0.  1.
     999900   -1    0    0    0    0 -0.00000000000E+00 -0.00000000000E+00 -0.74505805969E-08  0.93827000000E+00  0.93827000000E+00 0.  1.
     999902    2    1    2    0    0 -0.40033316853E-02 -0.22646420731E-01  0.16099456017E-02  0.10208761725E+01  0.10206158340E+01 0.  0.
     999903    2    3    3    0    0 -0.11203091574E+00  0.19592918035E-01 -0.62023176457E-01  0.13098668788E+00  0.19386321586E-01 0.  0.
         14    1    1    2    0    0  0.40033316853E-02  0.22646420731E-01 -0.16099456017E-02  0.23053827477E-01  0.00000000000E+00 0. -1.
     999901    1    3    3    0    0  0.10802758406E+00 -0.42239338766E-01  0.63633122058E-01  0.88988948464E+00  0.88000000000E+00 0. -1.
        -11    1    4    4    0    0 -0.96117170158E-01  0.11172314182E-01 -0.47218640240E-01  0.10767168667E+00  0.51100000000E-03 0. -1.
         11    1    4    4    0    0 -0.15913745584E-01  0.84206038532E-02 -0.14804536216E-01  0.23315001208E-01  0.51100000000E-03 0.  1.
</event>
<event>
 8    1  0.1123361E+005  0.1043930E+01  0.7957747E-01            NaN
         13   -1    0    0    0    0  0.00000000000E+00  0.00000000000E+00  0.74505805969E-08  0.10566000000E+00  0.10566000000E+00 0.  1.
     999900   -1    0    0    0    0 -0.00000000000E+00 -0.00000000000E+00 -0.74505805969E-08  0.93827000000E+00  0.93827000000E+00 0. -1.
     999902    2    1    2    0    0  0.20958406777E-01 -0.62116554302E-02 -0.77456018078E-02  0.10207387554E+01  0.10204752682E+01 0.  0.
     999903    2    3    3    0    0 -0.42912578408E-01  0.10655479373E-01 -0.12164455223E+00  0.13094272604E+00  0.19838643856E-01 0.  0.
         14    1    1    2    0    0 -0.20958406777E-01  0.62116554302E-02  0.77456018078E-02  0.23191244580E-01  0.00000000000E+00 0.  1.
     999901    1    3    3    0    0  0.63870985185E-01 -0.16867134803E-01  0.11389895042E+00  0.88979602938E+00  0.88000000000E+00 0.  1.
        -11    1    4    4    0    0 -0.40717797573E-01  0.14208750983E-01 -0.10017489072E+00  0.10906464823E+00  0.51100000000E-03 0.  1.
         11    1    4    4    0    0 -0.21947808356E-02 -0.35532716097E-02 -0.21469661516E-01  0.21878077810E-01  0.51100000000E-03 0. -1.
</event>
<event>
 8    1  0.1123361E+005  0.1043930E+01  0.7957747E-01            NaN
         13   -1    0    0    0    0  0.00000000000E+00  0.00000000000E+00  0.74505805969E-08  0.10566000000E+00  0.10566000000E+00 0.  1.
     999900   -1    0    0    0    0 -0.00000000000E+00 -0.00000000000E+00 -0.74505805969E-08  0.93827000000E+00  0.93827000000E+00 0. -1.
     999902    2    1    2    0    0  0.23176372780E-01  0.87897578483E-04  0.32607649385E-02  0.10205252020E+01  0.10202567830E+01 0.  0.
     999903    2    3    3    0    0 -0.54528383993E-01 -0.11524985268E+00  0.72955821358E-02  0.12959473019E+00  0.22038497435E-01 0.  0.
         14    1    1    2    0    0 -0.23176372780E-01 -0.87897578483E-04 -0.32607649385E-02  0.23404797996E-01  0.00000000000E+00 0. -1.
     999901    1    3    3    0    0  0.77704756774E-01  0.11533775026E+00 -0.40348171973E-02  0.89093047182E+00  0.88000000000E+00 0.  1.
        -11    1    4    4    0    0 -0.41046135238E-01 -0.10181400813E+00  0.18608139030E-02  0.10979344798E+00  0.51100000000E-03 0.  1.
         11    1    4    4    0    0 -0.13482248756E-01 -0.13435844550E-01  0.54347682328E-02  0.19801282206E-01  0.51100000000E-03 0. -1.
</event>
<event>
 8    1  0.1123361E+005  0.1043930E+01  0.7957747E-01            NaN
         13   -1    0    0    0    0  0.00000000000E+00  0.00000000000E+00  0.74505805969E-08  0.10566000000E+00  0.10566000000E+00 0.  1.
     999900   -1    0    0    0    0 -0.00000000000E+00 -0.00000000000E+00 -0.74505805969E-08  0.93827000000E+00  0.93827000000E+00 0. -1.
     999902    2    1    2    0    0  0.21107088961E-01 -0.67242771299E-02 -0.73428698510E-02  0.10205924156E+01  0.10203255539E+01 0.  0.
     999903    2    3    3    0    0 -0.47763921979E-01 -0.19336914001E-01  0.11689525177E+00  0.12911195839E+00  0.18710676823E-01 0.  0.
         14    1    1    2    0    0 -0.21107088961E-01  0.67242771299E-02  0.73428698510E-02  0.23337584386E-01  0.00000000000E+00 0.  1.
     999901    1    3    3    0    0  0.68871010940E-01  0.12612636871E-01 -0.12423812162E+00  0.89148045723E+00  0.88000000000E+00 0. -1.
        -11    1    4    4    0    0 -0.94134989493E-02 -0.10545405803E-01  0.44769953305E-01  0.46951351269E-01  0.51100000000E-03 0. -1.
         11    1    4    4    0    0 -0.38350423030E-01 -0.87915081986E-02  0.72125298460E-01  0.82160607117E-01  0.51100000000E-03 0.  1.
</event>
<event>
 8    1  0.1123361E+005  0.1043930E+01  0.7957747E-01            NaN
         13   -1    0    0    0    0  0.00000000000E+00  0.00000000000E+00  0.74505805969E-08  0.10566000000E+00  0.10566000000E+00 0. -1.
     999900   -1    0    0    0    0 -0.00000000000E+00 -0.00000000000E+00 -0.74505805969E-08  0.93827000000E+00  0.93827000000E+00 0.  1.
     999902    2    1    2    0    0 -0.12971526038E-01  0.17988005140E-01 -0.55263205230E-02  0.10210746060E+01  0.10208187802E+01 0.  0.
     999903    2    3    3    0    0 -0.11544597801E+00 -0.98318995642E-02  0.60520204257E-01  0.13223429197E+00  0.19969295430E-01 0.  0.
         14    1    1    2    0    0  0.12971526038E-01 -0.17988005140E-01  0.55263205230E-02  0.22855394007E-01  0.00000000000E+00 0. -1.
     999901    1    3    3    0    0  0.10247445197E+00  0.27819904705E-01 -0.66046524780E-01  0.88884031403E+00  0.88000000000E+00 0. -1.
        -11    1    4    4    0    0 -0.10469326791E+00 -0.31847612461E-02  0.56183924777E-01  0.11886007561E+00  0.51100000000E-03 0.  1.
         11    1    4    4    0    0 -0.10752710102E-01 -0.66471383182E-02  0.43362794802E-02  0.13374216354E-01  0.51100000000E-03 0. -1.
</event>
<event>
 8    1  0.1123361E+005  0.1043930E+01  0.7957747E-01            NaN
         13   -1    0    0    0    0  0.00000000000E+00  0.00000000000E+00  0.74505805969E-08  0.10566000000E+00  0.10566000000E+00 0.  1.
     999900   -1    0    0    0    0 -0.00000000000E+00 -0.00000000000E+00 -0.74505805969E-08  0.93827000000E+00  0.93827000000E+00 0. -1.
     999902    2    1    2    0    0  0.83429908869E-02  0.17501523934E-01  0.13907714374E-01  0.10200692926E+01  0.10197901884E+01 0.  0.
     999903    2    3    3    0    0 -0.11202736367E+00 -0.28852303193E-01  0.55105820688E-01  0.12971263179E+00  0.20152661406E-01 0.  0.
         14    1    1    2    0    0 -0.83429908869E-02 -0.17501523934E-01 -0.13907714374E-01  0.23860707367E-01  0.00000000000E+00 0. -1.
     999901    1    3    3    0    0  0.12037035456E+00  0.46353827127E-01 -0.41198106314E-01  0.89035666084E+00  0.88000000000E+00 0.  1.
        -11    1    4    4    0    0 -0.66939503076E-01 -0.89479045995E-02  0.38281153125E-01  0.77631629342E-01  0.51100000000E-03 0.  1.
         11    1    4    4    0    0 -0.45087860593E-01 -0.19904398593E-01  0.16824667563E-01  0.52081002447E-01  0.51100000000E-03 0. -1.
</event>
<event>
 8    1  0.1123361E+005  0.1043930E+01  0.7957747E-01            NaN
         13   -1    0    0    0    0  0.00000000000E+00  0.00000000000E+00  0.74505805969E-08  0.10566000000E+00  0.10566000000E+00 0. -1.
     999900   -1    0    0    0    0 -0.00000000000E+00 -0.00000000000E+00 -0.74505805969E-08  0.93827000000E+00  0.93827000000E+00 0.  1.
     999902    2    1    2    0    0 -0.43854870830E-03  0.31909051007E-02  0.23820751726E-01  0.10198924791E+01  0.10196091734E+01 0.  0.
     999903    2    3    3    0    0  0.10879095573E+00 -0.45762234312E-01  0.53899835522E-01  0.13127993932E+00  0.19989398693E-01 0.  0.
         14    1    1    2    0    0  0.43854870830E-03 -0.31909051007E-02 -0.23820751726E-01  0.24037520944E-01  0.00000000000E+00 0.  1.
     999901    1    3    3    0    0 -0.10922950444E+00  0.48953139413E-01 -0.30079083796E-01  0.88861253974E+00  0.88000000000E+00 0.  1.
        -11    1    4    4    0    0  0.49273309156E-01 -0.10994981032E-01  0.18320651186E-01  0.53708993511E-01  0.51100000000E-03 0. -1.
         11    1    4    4    0    0  0.59517646574E-01 -0.34767253280E-01  0.35579184336E-01  0.77570945807E-01  0.51100000000E-03 0.  1.
</event>
<event>
 8    1  0.1123361E+005  0.1043930E+01  0.7957747E-01            NaN
         13   -1    0    0    0    0  0.00000000000E+00  0.00000000000E+00  0.74505805969E-08  0.10566000000E+00  0.10566000000E+00 0. -1.
     999900   -1    0    0    0    0 -0.00000000000E+00 -0.00000000000E+00 -0.74505805969E-08  0.93827000000E+00  0.93827000000E+00 0. -1.
     999902    2    1    2    0    0  0.15918477726E-01  0.68970423045E-02  0.18265567655E-02  0.10264857048E+01  0.10263374682E+01 0.  0.
     999903    2    3    3    0    0 -0.11781439215E+00 -0.59096643423E-01  0.13528508255E-01  0.13386227764E+00  0.19064222425E-01 0.  0.
         14    1    1    2    0    0 -0.15918477726E-01 -0.68970423045E-02 -0.18265567655E-02  0.17444295207E-01  0.00000000000E+00 0. -1.
     999901    1    3    3    0    0  0.13373286988E+00  0.65993685728E-01 -0.11701951490E-01  0.89262342716E+00  0.88000000000E+00 0.  1.
        -11    1    4    4    0    0 -0.97572314688E-01 -0.50049798270E-01  0.18298404101E-01  0.11117747800E+00  0.51100000000E-03 0.  1.
         11    1    4    4    0    0 -0.20242077463E-01 -0.90468451533E-02 -0.47698958460E-02  0.22684799638E-01  0.51100000000E-03 0. -1.
</event>
<event>
 8    1  0.1123361E+005  0.1043930E+01  0.7957747E-01            NaN
         13   -1    0    0    0    0  0.00000000000E+00  0.00000000000E+00  0.74505805969E-08  0.10566000000E+00  0.10566000000E+00 0. -1.
     999900   -1    0    0    0    0 -0.00000000000E+00 -0.00000000000E+00 -0.74505805969E-08  0.93827000000E+00  0.93827000000E+00 0. -1.
     999902    2    1    2    0    0 -0.85845077982E-02  0.57987716300E-02  0.21461867656E-01  0.10200986910E+01  0.10198202822E+01 0.  0.
     999903    2    3    3    0    0  0.10720970600E+00 -0.23586295721E-01 -0.62743062377E-01  0.12804361848E+00  0.20204998152E-01 0.  0.
         14    1    1    2    0    0  0.85845077982E-02 -0.57987716300E-02 -0.21461867656E-01  0.23831309025E-01  0.00000000000E+00 0.  1.
     999901    1    3    3    0    0 -0.11579421379E+00  0.29385067351E-01  0.84204930033E-01  0.89205507250E+00  0.88000000000E+00 0.  1.
        -11    1    4    4    0    0  0.32486141737E-01 -0.73738158867E-02 -0.30113098770E-01  0.44908600560E-01  0.51100000000E-03 0.  1.
         11    1    4    4    0    0  0.74723564258E-01 -0.16212479835E-01 -0.32629963607E-01  0.83135017915E-01  0.51100000000E-03 0. -1.
</event>
<event>
 8    1  0.1123361E+005  0.1043930E+01  0.7957747E-01            NaN
         13   -1    0    0    0    0  0.00000000000E+00  0.00000000000E+00  0.74505805969E-08  0.10566000000E+00  0.10566000000E+00 0. -1.
     999900   -1    0    0    0    0 -0.00000000000E+00 -0.00000000000E+00 -0.74505805969E-08  0.93827000000E+00  0.93827000000E+00 0.  1.
     999902    2    1    2    0    0  0.93954608333E-02 -0.23067009262E-02 -0.16894062038E-01  0.10244619522E+01  0.10242769580E+01 0.  0.
     999903    2    3    3    0    0  0.81411824915E-02 -0.12867406186E+00 -0.35754214797E-01  0.13523420381E+00  0.19662984427E-01 0.  0.
         14    1    1    2    0    0 -0.93954608333E-02  0.23067009262E-02  0.16894062038E-01  0.19468047811E-01  0.00000000000E+00 0. -1.
     999901    1    3    3    0    0  0.12542783418E-02  0.12636736093E+00  0.18860152759E-01  0.88922774838E+00  0.88000000000E+00 0. -1.
        -11    1    4    4    0    0  0.86406382509E-02 -0.21535380589E-01 -0.80893831557E-02  0.24579106724E-01  0.51100000000E-03 0.  1.
         11    1    4    4    0    0 -0.49945575939E-03 -0.10713868127E+00 -0.27664831641E-01  0.11065509709E+00  0.51100000000E-03 0. -1.
</event>
<event>
 8    1  0.1123361E+005  0.1043930E+01  0.7957747E-01            NaN
         13   -1    0    0    0    0  0.00000000000E+00  0.00000000000E+00  0.74505805969E-08  0.10566000000E+00  0.10566000000E+00 0. -1.
     999900   -1    0    0    0    0 -0.00000000000E+00 -0.00000000000E+00 -0.74505805969E-08  0.93827000000E+00  0.93827000000E+00 0. -1.
     999902    2    1    2    0    0 -0.14685961221E-01 -0.17678679256E-01  0.66025640088E-02  0.10200175135E+01  0.10197371823E+01 0.  0.
     999903    2    3    3    0    0  0.88752301549E-01  0.18074597739E-01  0.90727556149E-01  0.12925672336E+00  0.16496938355E-01 0.  0.
         14    1    1    2    0    0  0.14685961221E-01  0.17678679256E-01 -0.66025640088E-02  0.23912486461E-01  0.00000000000E+00 0.  1.
     999901    1    3    3    0    0 -0.10343826277E+00 -0.35753276994E-01 -0.84124992140E-01  0.89076079018E+00  0.88000000000E+00 0. -1.
        -11    1    4    4    0    0  0.26704415406E-01  0.23798879805E-02  0.36976785823E-01  0.45676399593E-01  0.51100000000E-03 0.  1.
         11    1    4    4    0    0  0.62047886143E-01  0.15694709758E-01  0.53750770326E-01  0.83580323766E-01  0.51100000000E-03 0. -1.
</event>
<event>
 8    1  0.1123361E+005  0.1043930E+01  0.7957747E-01            NaN
         13   -1    0    0    0    0  0.00000000000E+00  0.00000000000E+00  0.74505805969E-08  0.10566000000E+00  0.10566000000E+00 0.  1.
     999900   -1    0    0    0    0 -0.00000000000E+00 -0.00000000000E+00 -0.74505805969E-08  0.93827000000E+00  0.93827000000E+00 0. -1.
     999902    2    1    2    0    0 -0.92925141850E-02  0.55609804171E-02 -0.21360478364E-01  0.10199811930E+01  0.10196999993E+01 0.  0.
     999903    2    3    3    0    0  0.20561554490E-01 -0.23069760339E-01 -0.12749117727E+00  0.13263982122E+00  0.19604349665E-01 0.  0.
         14    1    1    2    0    0  0.92925141850E-02 -0.55609804171E-02  0.21360478364E-01  0.23948807048E-01  0.00000000000E+00 0. -1.
     999901    1    3    3    0    0 -0.29854068675E-01  0.28630740757E-01  0.10613069891E+00  0.88734137173E+00  0.88000000000E+00 0.  1.
        -11    1    4    4    0    0  0.20080323859E-01 -0.10023136533E-01 -0.95082271388E-01  0.97696377238E-01  0.51100000000E-03 0. -1.
         11    1    4    4    0    0  0.48123063127E-03 -0.13046623806E-01 -0.32408905886E-01  0.34943443983E-01  0.51100000000E-03 0.  1.
</event>
<event>
 8    1  0.1123361E+005  0.1043930E+01  0.7957747E-01            NaN
         13   -1    0    0    0    0  0.00000000000E+00  0.00000000000E+00  0.74505805969E-08  0.10566000000E+00  0.10566000000E+00 0. -1.
     999900   -1    0    0    0    0 -0.00000000000E+00 -0.00000000000E+00 -0.74505805969E-08  0.93827000000E+00  0.93827000000E+00 0.  1.
     999902    2    1    2    0    0 -0.74544036401E-03  0.54009589147E-02 -0.22942253265E-01  0.10203487994E+01  0.10200762713E+01 0.  0.
     999903    2    3    3    0    0  0.79430293741E-01  0.76259633088E-01  0.65149565883E-01  0.12950129915E+00  0.20035402249E-01 0.  0.
         14    1    1    2    0    0  0.74544036401E-03 -0.54009589147E-02  0.22942253265E-01  0.23581200636E-01  0.00000000000E+00 0. -1.
     999901    1    3    3    0    0 -0.80175734105E-01 -0.70858674173E-01 -0.88091819148E-01  0.89084750022E+00  0.88000000000E+00 0.  1.
        -11    1    4    4    0    0  0.31775521818E-01  0.39848229166E-01  0.21471203245E-01  0.55306770329E-01  0.51100000000E-03 0.  1.
         11    1    4    4    0    0  0.47654771923E-01  0.36411403923E-01  0.43678362638E-01  0.74194528817E-01  0.51100000000E-03 0. -1.
</event>
<event>
 8    1  0.1310430E+005  0.1043930E+01  0.7957747E-01            NaN
         13   -1    0    0    0    0  0.00000000000E+00  0.00000000000E+00  0.74505805969E-08  0.10566000000E+00  0.10566000000E+00 0. -1.
     999900   -1    0    0    0    0 -0.00000000000E+00 -0.00000000000E+00 -0.74505805969E-08  0.93827000000E+00  0.93827000000E+00 0. -1.
     999902    2    1    2    0    0 -0.14338760984E-01 -0.60067586888E-02 -0.16116010995E-01  0.10215378803E+01  0.10212924330E+01 0.  0.
     999903    2    3    3    0    0 -0.15473702869E-02  0.26678364547E-01 -0.12934855264E+00  0.13358881333E+00  0.20019827361E-01 0.  0.
         14    1    1    2    0    0  0.14338760984E-01  0.60067586888E-02  0.16116010995E-01  0.22392119750E-01  0.00000000000E+00 0. -1.
     999901    1    3    3    0    0 -0.12791390697E-01 -0.32685123236E-01  0.11323254164E+00  0.88794906692E+00  0.88000000000E+00 0.  1.
        -11    1    4    4    0    0  0.91586734176E-02  0.14503347451E-01 -0.68049087873E-01  0.70179540234E-01  0.51100000000E-03 0.  1.
         11    1    4    4    0    0 -0.10706043705E-01  0.12175017096E-01 -0.61299464766E-01  0.63409273097E-01  0.51100000000E-03 0. -1.
</event>
<event>
 7    1  0.1123361E+005  0.1043930E+01  0.7957747E-01            NaN
         13   -1    0    0    0    0  0.00000000000E+00  0.00000000000E+00  0.74505805969E-08  0.10566000000E+00  0.10566000000E+00 0.  1.
     999900   -1    0    0    0    0 -0.00000000000E+00 -0.00000000000E+00 -0.74505805969E-08  0.93827000000E+00  0.93827000000E+00 0.  1.
     999903    2    1    2    0    0 -0.10606607519E+00 -0.10929943447E-01 -0.97434689242E-02  0.10889993598E+00  0.19869194731E-01 0.  0.
         14    1    1    2    0    0 -0.11962326405E-01  0.22923636813E-01  0.38762289920E-01  0.46595123109E-01  0.00000000000E+00 0.  1.
     999901    1    1    2    0    0  0.11802840159E+00 -0.11993693365E-01 -0.29018820995E-01  0.88843494091E+00  0.88000000000E+00 0. -1.
        -11    1    3    3    0    0 -0.23611771363E-01  0.20113777122E-02  0.47814467954E-02  0.24180255203E-01  0.51100000000E-03 0. -1.
         11    1    3    3    0    0 -0.82454303827E-01 -0.12941321160E-01 -0.14524915720E-01  0.84719680775E-01  0.51100000000E-03 0.  1.
</event>
<event>
 8    1  0.1123361E+005  0.1043930E+01  0.7957747E-01            NaN
         13   -1    0    0    0    0  0.00000000000E+00  0.00000000000E+00  0.74505805969E-08  0.10566000000E+00  0.10566000000E+00 0.  1.
     999900   -1    0    0    0    0 -0.00000000000E+00 -0.00000000000E+00 -0.74505805969E-08  0.93827000000E+00  0.93827000000E+00 0.  1.
     999902    2    1    2    0    0  0.20086679037E-01 -0.80054713284E-03 -0.10382551088E-01  0.10213045074E+01  0.10210538594E+01 0.  0.
     999903    2    3    3    0    0  0.20680188445E-01 -0.54414428048E-01  0.11528906497E+00  0.13076076583E+00  0.20450163968E-01 0.  0.
         14    1    1    2    0    0 -0.20086679037E-01  0.80054713284E-03  0.10382551088E-01  0.22625492648E-01  0.00000000000E+00 0.  1.
     999901    1    3    3    0    0 -0.59350940814E-03  0.53613880915E-01 -0.12567161605E+00  0.89054374152E+00  0.88000000000E+00 0.  1.
        -11    1    4    4    0    0  0.16832790021E-01 -0.55155081948E-01  0.10613658401E+00  0.12079181044E+00  0.51100000000E-03 0.  1.
         11    1    4    4    0    0  0.38473984243E-02  0.74065389978E-03  0.91524809573E-02  0.99689553870E-02  0.51100000000E-03 0. -1.
</event>
<event>
 8    1  0.1459512E+005  0.1043930E+01  0.7957747E-01            NaN
         13   -1    0    0    0    0  0.00000000000E+00  0.00000000000E+00  0.74505805969E-08  0.10566000000E+00  0.10566000000E+00 0. -1.
     999900   -1    0    0    0    0 -0.00000000000E+00 -0.00000000000E+00 -0.74505805969E-08  0.93827000000E+00  0.93827000000E+00 0.  1.
     999902    2    1    2    0    0  0.70826021560E-02  0.26417458143E-01 -0.53329287880E-02  0.10160645110E+01  0.10156823347E+01 0.  0.
     999903    2    3    3    0    0  0.11219576104E+00 -0.13165359337E-01 -0.54637932323E-01  0.12755645870E+00  0.22893908055E-01 0.  0.
         14    1    1    2    0    0 -0.70826021560E-02 -0.26417458143E-01  0.53329287880E-02  0.27865489005E-01  0.00000000000E+00 0.  1.
     999901    1    3    3    0    0 -0.10511315889E+00  0.39582817480E-01  0.49305003535E-01  0.88850805229E+00  0.88000000000E+00 0.  1.
        -11    1    4    4    0    0  0.62967812532E-01 -0.51787273575E-02 -0.18079464150E-01  0.65718283430E-01  0.51100000000E-03 0. -1.
         11    1    4    4    0    0  0.49227948512E-01 -0.79866319796E-02 -0.36558468173E-01  0.61838175274E-01  0.51100000000E-03 0.  1.
</event>
<event>
 8    1  0.1123361E+005  0.1043930E+01  0.7957747E-01            NaN
         13   -1    0    0    0    0  0.00000000000E+00  0.00000000000E+00  0.74505805969E-08  0.10566000000E+00  0.10566000000E+00 0. -1.
     999900   -1    0    0    0    0 -0.00000000000E+00 -0.00000000000E+00 -0.74505805969E-08  0.93827000000E+00  0.93827000000E+00 0.  1.
     999902    2    1    2    0    0  0.95784847085E-03  0.14082583654E-02 -0.22475790541E-01  0.10213897732E+01  0.10211410318E+01 0.  0.
     999903    2    3    3    0    0 -0.11577544997E+00  0.58910319795E-01  0.41493810928E-02  0.13142233005E+00  0.19499509689E-01 0.  0.
         14    1    1    2    0    0 -0.95784847085E-03 -0.14082583654E-02  0.22475790541E-01  0.22540226835E-01  0.00000000000E+00 0. -1.
     999901    1    3    3    0    0  0.11673329844E+00 -0.57502061430E-01 -0.26625171634E-01  0.88996744311E+00  0.88000000000E+00 0. -1.
        -11    1    4    4    0    0 -0.92541435104E-01  0.54079112314E-01 -0.73738306820E-03  0.10718802384E+00  0.51100000000E-03 0.  1.
         11    1    4    4    0    0 -0.23234014869E-01  0.48312074812E-02  0.48867641610E-02  0.24234306213E-01  0.51100000000E-03 0. -1.
</event>
<event>
 8    1  0.1123361E+005  0.1043930E+01  0.7957747E-01            NaN
         13   -1    0    0    0    0  0.00000000000E+00  0.00000000000E+00  0.74505805969E-08  0.10566000000E+00  0.10566000000E+00 0. -1.
     999900   -1    0    0    0    0 -0.00000000000E+00 -0.00000000000E+00 -0.74505805969E-08  0.93827000000E+00  0.93827000000E+00 0. -1.
     999902    2    1    2    0    0 -0.93254472111E-02 -0.21844156859E-01  0.25265915551E-02  0.10200445480E+01  0.10197648577E+01 0.  0.
     999903    2    3    3    0    0  0.42999468793E-01  0.59734659792E-01 -0.10377213233E+00  0.12836499853E+00  0.17080207918E-01 0.  0.
         14    1    1    2    0    0  0.93254472111E-02  0.21844156859E-01 -0.25265915551E-02  0.23885452046E-01  0.00000000000E+00 0.  1.
     999901    1    3    3    0    0 -0.52324916004E-01 -0.81578816651E-01  0.10629872388E+00  0.89167954942E+00  0.88000000000E+00 0.  1.
        -11    1    4    4    0    0  0.34783142256E-02  0.15247461597E-02 -0.12685653548E-02  0.40365702970E-02  0.51100000000E-03 0. -1.
         11    1    4    4    0    0  0.39521154567E-01  0.58209913632E-01 -0.10250356697E+00  0.12432842823E+00  0.51100000000E-03 0.  1.
</event>
<event>
 8    1  0.1123361E+005  0.1043930E+01  0.7957747E-01            NaN
         13   -1    0    0    0    0  0.00000000000E+00  0.00000000000E+00  0.74505805969E-08  0.10566000000E+00  0.10566000000E+00 0. -1.
     999900   -1    0    0    0    0 -0.00000000000E+00 -0.00000000000E+00 -0.74505805969E-08  0.93827000000E+00  0.93827000000E+00 0.  1.
     999902    2    1    2    0    0  0.14627306941E-01  0.36744090644E-02  0.18971827626E-01  0.10196938775E+01  0.10194058143E+01 0.  0.
     999903    2    3    3    0    0  0.47789681204E-01  0.11027765389E+00 -0.40913062186E-01  0.13062121742E+00  0.30708454942E-01 0.  0.
         14    1    1    2    0    0 -0.14627306941E-01 -0.36744090644E-02 -0.18971827626E-01  0.24236122499E-01  0.00000000000E+00 0.  1.
     999901    1    3    3    0    0 -0.33162374263E-01 -0.10660324483E+00  0.59884889813E-01  0.88907266008E+00  0.88000000000E+00 0.  1.
        -11    1    4    4    0    0  0.34404703341E-01  0.81603308088E-01 -0.15226282908E-01  0.89860360088E-01  0.51100000000E-03 0.  1.
         11    1    4    4    0    0  0.13384977862E-01  0.28674345805E-01 -0.25686779278E-01  0.40760857332E-01  0.51100000000E-03 0. -1.
</event>
<event>
 8    1  0.1123361E+005  0.1043930E+01  0.7957747E-01            NaN
         13   -1    0    0    0    0  0.00000000000E+00  0.00000000000E+00  0.74505805969E-08  0.10566000000E+00  0.10566000000E+00 0.  1.
     999900   -1    0    0    0    0 -0.00000000000E+00 -0.00000000000E+00 -0.74505805969E-08  0.93827000000E+00  0.93827000000E+00 0. -1.
     999902    2    1    2    0    0 -0.21135457998E-01  0.50094641033E-02  0.16948276139E-02  0.10221429682E+01  0.10219107459E+01 0.  0.
     999903    2    3    3    0    0  0.19285318787E-01 -0.12595549883E+00 -0.23811790532E-01  0.13116808172E+00  0.20033798659E-01 0.  0.
         14    1    1    2    0    0  0.21135457998E-01 -0.50094641033E-02 -0.16948276139E-02  0.21787031832E-01  0.00000000000E+00 0.  1.
     999901    1    3    3    0    0 -0.40420776786E-01  0.13096496293E+00  0.25506618146E-01  0.89097488645E+00  0.88000000000E+00 0.  1.
        -11    1    4    4    0    0  0.80119371205E-02 -0.32302004626E-01 -0.14738255034E-01  0.36401757125E-01  0.51100000000E-03 0. -1.
         11    1    4    4    0    0  0.11273381667E-01 -0.93653494200E-01 -0.90735354974E-02  0.94766324596E-01  0.51100000000E-03 0.  1.
</event>
<event>
 8    1  0.1123361E+005  0.1043930E+01  0.7957747E-01            NaN
         13   -1    0    0    0    0  0.00000000000E+00  0.00000000000E+00  0.74505805969E-08  0.10566000000E+00  0.10566000000E+00 0.  1.
     999900   -1    0    0    0    0 -0.00000000000E+00 -0.00000000000E+00 -0.74505805969E-08  0.93827000000E+00  0.93827000000E+00 0. -1.
     999902    2    1    2    0    0 -0.71170358421E-02 -0.35658672596E-02 -0.23362495017E-01  0.10192485539E+01  0.10189496753E+01 0.  0.
     999903    2    3    3    0    0  0.47501453757E-01 -0.53312380237E-01 -0.10907531528E+00  0.13200305094E+00  0.20707077483E-01 0.  0.
         14    1    1    2    0    0  0.71170358421E-02  0.35658672596E-02  0.23362495017E-01  0.24681446106E-01  0.00000000000E+00 0.  1.
     999901    1    3    3    0    0 -0.54618489600E-01  0.49746512977E-01  0.85712820262E-01  0.88724550296E+00  0.88000000000E+00 0.  1.
        -11    1    4    4    0    0  0.71164758290E-02 -0.76916311134E-02 -0.32461025459E-01  0.34114288975E-01  0.51100000000E-03 0. -1.
         11    1    4    4    0    0  0.40384977928E-01 -0.45620749124E-01 -0.76614289819E-01  0.97888761962E-01  0.51100000000E-03 0.  1.
</event>
<event>
 8    1  0.1123361E+005  0.1043930E+01  0.7957747E-01            NaN
         13   -1    0    0    0    0  0.00000000000E+00  0.00000000000E+00  0.74505805969E-08  0.10566000000E+00  0.10566000000E+00 0. -1.
     999900   -1    0    0    0    0 -0.00000000000E+00 -0.00000000000E+00 -0.74505805969E-08  0.93827000000E+00  0.93827000000E+00 0.  1.
     999902    2    1    2    0    0 -0.13715545738E-01  0.80146581710E-02  0.17267318899E-01  0.10204670240E+01  0.10201972534E+01 0.  0.
     999903    2    3    3    0    0 -0.31187389848E-01  0.77310857478E-01 -0.97670543034E-01  0.13011993400E+00  0.21024753950E-01 0.  0.
         14    1    1    2    0    0  0.13715545738E-01 -0.80146581710E-02 -0.17267318899E-01  0.23462975993E-01  0.00000000000E+00 0.  1.
     999901    1    3    3    0    0  0.17471844110E-01 -0.69296199307E-01  0.11493786193E+00  0.89034709001E+00  0.88000000000E+00 0. -1.
        -11    1    4    4    0    0 -0.99361561056E-02  0.96622676534E-02 -0.24976872615E-01  0.28569072456E-01  0.51100000000E-03 0.  1.
         11    1    4    4    0    0 -0.21251233742E-01  0.67648589824E-01 -0.72693670419E-01  0.10155086155E+00  0.51100000000E-03 0. -1.
</event>
<event>
 8    1  0.1123361E+005  0.1043930E+01  0.7957747E-01            NaN
         13   -1    0    0    0    0  0.00000000000E+00  0.00000000000E+00  0.74505805969E-08  0.10566000000E+00  0.10566000000E+00 0. -1.
     999900   -1    0    0    0    0 -0.00000000000E+00 -0.00000000000E+00 -0.74505805969E-08  0.93827000000E+00  0.93827000000E+00 0.  1.
     999902    2    1    2    0    0  0.47701113883E-03  0.23847332808E-01 -0.14690793286E-02  0.10200326986E+01  0.10197527274E+01 0.  0.
     999903    2    3    3    0    0 -0.11491181245E-01 -0.57104810533E-01 -0.11313452507E+00  0.12920967523E+00  0.22421257248E-01 0.  0.
         14    1    1    2    0    0 -0.47701113883E-03 -0.23847332808E-01  0.14690793286E-02  0.23897301432E-01  0.00000000000E+00 0. -1.
     999901    1    3    3    0    0  0.11968192384E-01  0.80952143341E-01  0.11166544574E+00  0.89082302334E+00  0.88000000000E+00 0. -1.
        -11    1    4    4    0    0 -0.58216115965E-02 -0.10507489872E-01 -0.91147614271E-02  0.15087693722E-01  0.51100000000E-03 0.  1.
         11    1    4    4    0    0 -0.56695696484E-02 -0.46597320661E-01 -0.10401976365E+00  0.11412198150E+00  0.51100000000E-03 0. -1.
</event>
<event>
 8    1  0.1123361E+005  0.1043930E+01  0.7957747E-01            NaN
         13   -1    0    0    0    0  0.00000000000E+00  0.00000000000E+00  0.74505805969E-08  0.10566000000E+00  0.10566000000E+00 0.  1.
     999900   -1    0    0    0    0 -0.00000000000E+00 -0.00000000000E+00 -0.74505805969E-08  0.93827000000E+00  0.93827000000E+00 0.  1.
     999902    2    1    2    0    0 -0.55866084051E-02 -0.25746514871E-02  0.20425319539E-01  0.10225985045E+01  0.10223759918E+01 0.  0.
     999903    2    3    3    0    0  0.11209262543E+00 -0.25346820896E-01  0.64687095989E-01  0.13337070539E+00  0.19902428637E-01 0.  0.
         14    1    1    2    0    0  0.55866084051E-02  0.25746514871E-02 -0.20425319539E-01  0.21331495541E-01  0.00000000000E+00 0. -1.
     999901    1    3    3    0    0 -0.11767923383E+00  0.22772169409E-01 -0.44261776450E-01  0.88922779906E+00  0.88000000000E+00 0. -1.
        -11    1    4    4    0    0  0.94369968266E-01 -0.26161013957E-01  0.48214620118E-01  0.10915585315E+00  0.51100000000E-03 0. -1.
         11    1    4    4    0    0  0.17722657160E-01  0.81419306084E-03  0.16472475871E-01  0.24214852250E-01  0.51100000000E-03 0.  1.
</event>
<event>
 8    1  0.1123361E+005  0.1043930E+01  0.7957747E-01            NaN
         13   -1    0    0    0    0  0.00000000000E+00  0.00000000000E+00  0.74505805969E-08  0.10566000000E+00  0.10566000000E+00 0.  1.
     999900   -1    0    0    0    0 -0.00000000000E+00 -0.00000000000E+00 -0.74505805969E-08  0.93827000000E+00  0.93827000000E+00 0.  1.
     999902    2    1    2    0    0 -0.17121958807E-01  0.16752390542E-01  0.86130280667E-03  0.10199603128E+01  0.10196786228E+01 0.  0.
     999903    2    3    3    0    0 -0.98007040811E-01  0.55456820328E-01 -0.67518602645E-01  0.13276459546E+00  0.19668175727E-01 0.  0.
         14    1    1    2    0    0  0.17121958807E-01 -0.16752390542E-01 -0.86130280667E-03  0.23969687207E-01  0.00000000000E+00 0.  1.
     999901    1    3    3    0    0  0.80885082004E-01 -0.38704429785E-01  0.68379905452E-01  0.88719571733E+00  0.88000000000E+00 0. -1.
        -11    1    4    4    0    0 -0.23010548832E-01  0.14962310946E-01 -0.73019068057E-02  0.28406602585E-01  0.51100000000E-03 0.  1.
         11    1    4    4    0    0 -0.74996491979E-01  0.40494509382E-01 -0.60216695839E-01  0.10435799288E+00  0.51100000000E-03 0. -1.
</event>
<event>
 8    1  0.1165613E+005  0.1043930E+01  0.7957747E-01            NaN
         13   -1    0    0    0    0  0.00000000000E+00  0.00000000000E+00  0.74505805969E-08  0.10566000000E+00  0.10566000000E+00 0.  1.
     999900   -1    0    0    0    0 -0.00000000000E+00 -0.00000000000E+00 -0.74505805969E-08  0.93827000000E+00  0.93827000000E+00 0. -1.
     999902    2    1    2    0    0  0.26524583497E-01 -0.31720987555E-02 -0.61666111926E-02  0.10165138946E+01  0.10161441114E+01 0.  0.
     999903    2    3    3    0    0  0.57404567959E-01 -0.11005851091E+00  0.27798796869E-01  0.12885859695E+00  0.20581658240E-01 0.  0.
         14    1    1    2    0    0 -0.26524583497E-01  0.31720987555E-02  0.61666111926E-02  0.27416105373E-01  0.00000000000E+00 0.  1.
     999901    1    3    3    0    0 -0.30879984462E-01  0.10688641215E+00 -0.33965408061E-01  0.88765529767E+00  0.88000000000E+00 0. -1.
        -11    1    4    4    0    0  0.50957204150E-01 -0.79713602187E-01  0.23945325167E-01  0.97593722886E-01  0.51100000000E-03 0. -1.
         11    1    4    4    0    0  0.64473638090E-02 -0.30344908720E-01  0.38534717015E-02  0.31264874067E-01  0.51100000000E-03 0.  1.
</event>
<event>
 8    1  0.1135976E+005  0.1043930E+01  0.7957747E-01            NaN
         13   -1    0    0    0    0  0.00000000000E+00  0.00000000000E+00  0.74505805969E-08  0.10566000000E+00  0.10566000000E+00 0.  1.
     999900   -1    0    0    0    0 -0.00000000000E+00 -0.00000000000E+00 -0.74505805969E-08  0.93827000000E+00  0.93827000000E+00 0.  1.
     999902    2    1    2    0    0 -0.21465426945E-01 -0.77647582643E-02 -0.71387047342E-02  0.10200131204E+01  0.10197326849E+01 0.  0.
     999903    2    3    3    0    0  0.41527894090E-01 -0.10098051361E-01 -0.12151390379E+00  0.13037539136E+00  0.20138948109E-01 0.  0.
         14    1    1    2    0    0  0.21465426945E-01  0.77647582643E-02  0.71387047342E-02  0.23916879607E-01  0.00000000000E+00 0. -1.
     999901    1    3    3    0    0 -0.62993321036E-01  0.23332930967E-02  0.11437519905E+00  0.88963772903E+00  0.88000000000E+00 0. -1.
        -11    1    4    4    0    0  0.15193983166E-01 -0.13245378119E-01 -0.62548583954E-01  0.65718213926E-01  0.51100000000E-03 0. -1.
         11    1    4    4    0    0  0.26333910924E-01  0.31473267576E-02 -0.58965319833E-01  0.64657177439E-01  0.51100000000E-03 0.  1.
</event>
<event>
 8    1  0.1123361E+005  0.1043930E+01  0.7957747E-01            NaN
         13   -1    0    0    0    0  0.00000000000E+00  0.00000000000E+00  0.74505805969E-08  0.10566000000E+00  0.10566000000E+00 0. -1.
     999900   -1    0    0    0    0 -0.00000000000E+00 -0.00000000000E+00 -0.74505805969E-08  0.93827000000E+00  0.93827000000E+00 0.  1.
     999902    2    1    2    0    0  0.14066764487E-01  0.20462209478E-01 -0.32395000517E-02  0.10188886294E+01  0.10185808603E+01 0.  0.
     999903    2    3    3    0    0  0.11101869297E+00  0.26085142799E-01  0.61561509392E-01  0.13117782931E+00  0.20303167242E-01 0.  0.
         14    1    1    2    0    0 -0.14066764487E-01 -0.20462209478E-01  0.32395000517E-02  0.25041370579E-01  0.00000000000E+00 0.  1.
     999901    1    3    3    0    0 -0.96951928480E-01 -0.56229333204E-02 -0.64801009444E-01  0.88771080011E+00  0.88000000000E+00 0.  1.
        -11    1    4    4    0    0  0.24757843857E-01 -0.11177168406E-02  0.79438212845E-02  0.26030089147E-01  0.51100000000E-03 0. -1.
         11    1    4    4    0    0  0.86260849110E-01  0.27202859639E-01  0.53617688108E-01  0.10514774016E+00  0.51100000000E-03 0.  1.
</event>
<event>
 8    1  0.1123361E+005  0.1043930E+01  0.7957747E-01            NaN
         13   -1    0    0    0    0  0.00000000000E+00  0.00000000000E+00  0.74505805969E-08  0.10566000000E+00  0.10566000000E+00 0.  1.
     999900   -1    0    0    0    0 -0.00000000000E+00 -0.00000000000E+00 -0.74505805969E-08  0.93827000000E+00  0.93827000000E+00 0.  1.
     999902    2    1    2    0    0 -0.15235153621E-01 -0.87763583851E-02  0.15855982893E-01  0.10202541354E+01  0.10199793891E+01 0.  0.
     999903    2    3    3    0    0 -0.14756232947E-01  0.22768694364E-01 -0.12379345655E+00  0.12868401157E+00  0.22329243061E-01 0.  0.
         14    1    1    2    0    0  0.15235153621E-01  0.87763583851E-02 -0.15855982893E-01  0.23675864627E-01  0.00000000000E+00 0. -1.
     999901    1    3    3    0    0 -0.47892067336E-03 -0.31545052749E-01  0.13964943944E+00  0.89157012380E+00  0.88000000000E+00 0. -1.
        -11    1    4    4    0    0 -0.12288945302E-02  0.80951168242E-02 -0.81539368721E-01  0.81951027270E-01  0.51100000000E-03 0.  1.
         11    1    4    4    0    0 -0.13527338417E-01  0.14673577540E-01 -0.42254087829E-01  0.46732984302E-01  0.51100000000E-03 0. -1.
</event>
<event>
 8    1  0.1123361E+005  0.1043930E+01  0.7957747E-01            NaN
         13   -1    0    0    0    0  0.00000000000E+00  0.00000000000E+00  0.74505805969E-08  0.10566000000E+00  0.10566000000E+00 0.  1.
     999900   -1    0    0    0    0 -0.00000000000E+00 -0.00000000000E+00 -0.74505805969E-08  0.93827000000E+00  0.93827000000E+00 0.  1.
     999902    2    1    2    0    0 -0.85430751182E-02 -0.22899237382E-01 -0.70906718278E-02  0.10184812902E+01  0.10181632981E+01 0.  0.
     999903    2    3    3    0    0 -0.11831296214E+00 -0.65830654213E-02  0.49249637199E-01  0.12972380019E+00  0.19011675643E-01 0.  0.
         14    1    1    2    0    0  0.85430751182E-02  0.22899237382E-01  0.70906718278E-02  0.25448709832E-01  0.00000000000E+00 0.  1.
     999901    1    3    3    0    0  0.10976988703E+00 -0.16316171961E-01 -0.56340309027E-01  0.88875748997E+00  0.88000000000E+00 0.  1.
        -11    1    4    4    0    0 -0.66877498157E-01 -0.50700645801E-02  0.17720439787E-01  0.69372764266E-01  0.51100000000E-03 0. -1.
         11    1    4    4    0    0 -0.51435463986E-01 -0.15130008412E-02  0.31529197413E-01  0.60351035927E-01  0.51100000000E-03 0.  1.
</event>
<event>
 8    1  0.1123361E+005  0.1043930E+01  0.7957747E-01            NaN
         13   -1    0    0    0    0  0.00000000000E+00  0.00000000000E+00  0.74505805969E-08  0.10566000000E+00  0.10566000000E+00 0. -1.
     999900   -1    0    0    0    0 -0.00000000000E+00 -0.00000000000E+00 -0.74505805969E-08  0.93827000000E+00  0.93827000000E+00 0.  1.
     999902    2    1    2    0    0  0.18934203208E-01  0.10622135241E-01 -0.70688540979E-03  0.10222082714E+01  0.10219774540E+01 0.  0.
     999903    2    3    3    0    0 -0.80739296260E-01 -0.45376917238E-01  0.89517669610E-01  0.13023788468E+00  0.19250840396E-01 0.  0.
         14    1    1    2    0    0 -0.18934203208E-01 -0.10622135241E-01  0.70688540979E-03  0.21721728642E-01  0.00000000000E+00 0.  1.
     999901    1    3    3    0    0  0.99673499468E-01  0.55999052479E-01 -0.90224555020E-01  0.89197038667E+00  0.88000000000E+00 0.  1.
        -11    1    4    4    0    0 -0.30995312547E-01 -0.12824527791E-01  0.21245653664E-01  0.39709153020E-01  0.51100000000E-03 0. -1.
         11    1    4    4    0    0 -0.49743983712E-01 -0.32552389447E-01  0.68272015946E-01  0.90528731664E-01  0.51100000000E-03 0.  1.
</event>
<event>
 8    1  0.1123361E+005  0.1043930E+01  0.7957747E-01            NaN
         13   -1    0    0    0    0  0.00000000000E+00  0.00000000000E+00  0.74505805969E-08  0.10566000000E+00  0.10566000000E+00 0. -1.
     999900   -1    0    0    0    0 -0.00000000000E+00 -0.00000000000E+00 -0.74505805969E-08  0.93827000000E+00  0.93827000000E+00 0. -1.
     999902    2    1    2    0    0  0.25523485274E-02 -0.15091893853E-01 -0.37633851003E-02  0.10281679313E+01  0.10280471060E+01 0.  0.
     999903    2    3    3    0    0 -0.41672735829E-01  0.78507556017E-01 -0.10204462506E+00  0.13666587450E+00  0.19089329109E-01 0.  0.
         14    1    1    2    0    0 -0.25523485274E-02  0.15091893853E-01  0.37633851003E-02  0.15762068725E-01  0.00000000000E+00 0.  1.
     999901    1    3    3    0    0  0.44225084357E-01 -0.93599449870E-01  0.98281239963E-01  0.89150205677E+00  0.88000000000E+00 0.  1.
        -11    1    4    4    0    0 -0.37345204224E-01  0.66900884729E-01 -0.76503614583E-01  0.10827491317E+00  0.51100000000E-03 0. -1.
         11    1    4    4    0    0 -0.43275316055E-02  0.11606671288E-01 -0.25541010480E-01  0.28390961335E-01  0.51100000000E-03 0.  1.
</event>
<event>
 8    1  0.1123361E+005  0.1043930E+01  0.7957747E-01            NaN
         13   -1    0    0    0    0  0.00000000000E+00  0.00000000000E+00  0.74505805969E-08  0.10566000000E+00  0.10566000000E+00 0.  1.
     999900   -1    0    0    0    0 -0.00000000000E+00 -0.00000000000E+00 -0.74505805969E-08  0.93827000000E+00  0.93827000000E+00 0.  1.
     999902    2    1    2    0    0  0.66874910638E-02 -0.20471261881E-01  0.88415473395E-02  0.10206497925E+01  0.10203842565E+01 0.  0.
     999903    2    3    3    0    0 -0.53443787371E-01 -0.72173211578E-01  0.95830919447E-01  0.13281196214E+00  0.19754525709E-01 0.  0.
         14    1    1    2    0    0 -0.66874910638E-02  0.20471261881E-01 -0.88415473395E-02  0.23280207454E-01  0.00000000000E+00 0. -1.
     999901    1    3    3    0    0  0.60131278435E-01  0.51701949697E-01 -0.86989372108E-01  0.88783783041E+00  0.88000000000E+00 0.  1.
        -11    1    4    4    0    0 -0.64488001452E-02 -0.19160266522E-01  0.29461506944E-01  0.35734358101E-01  0.51100000000E-03 0.  1.
         11    1    4    4    0    0 -0.46994987226E-01 -0.53012945057E-01  0.66369412503E-01  0.97077604034E-01  0.51100000000E-03 0. -1.
</event>
<event>
 8    1  0.1123361E+005  0.1043930E+01  0.7957747E-01            NaN
         13   -1    0    0    0    0  0.00000000000E+00  0.00000000000E+00  0.74505805969E-08  0.10566000000E+00  0.10566000000E+00 0.  1.
     999900   -1    0    0    0    0 -0.00000000000E+00 -0.00000000000E+00 -0.74505805969E-08  0.93827000000E+00  0.93827000000E+00 0.  1.
     999902    2    1    2    0    0  0.56447435813E-02  0.43268396567E-02 -0.22170941490E-01  0.10206462005E+01  0.10203805816E+01 0.  0.
     999903    2    3    3    0    0 -0.78246306743E-01  0.45137690450E-01 -0.94889124121E-01  0.13273225877E+00  0.21307534462E-01 0.  0.
         14    1    1    2    0    0 -0.56447435813E-02 -0.43268396567E-02  0.22170941490E-01  0.23283799477E-01  0.00000000000E+00 0.  1.
     999901    1    3    3    0    0  0.83891050324E-01 -0.40810850793E-01  0.72718182631E-01  0.88791394175E+00  0.88000000000E+00 0.  1.
        -11    1    4    4    0    0 -0.17042804503E-01  0.83598926767E-02 -0.33762782993E-01  0.38736696134E-01  0.51100000000E-03 0.  1.
         11    1    4    4    0    0 -0.61203502240E-01  0.36777797773E-01 -0.61126341128E-01  0.93995562641E-01  0.51100000000E-03 0. -1.
</event>
<event>
 8    1  0.1123361E+005  0.1043930E+01  0.7957747E-01            NaN
         13   -1    0    0    0    0  0.00000000000E+00  0.00000000000E+00  0.74505805969E-08  0.10566000000E+00  0.10566000000E+00 0. -1.
     999900   -1    0    0    0    0 -0.00000000000E+00 -0.00000000000E+00 -0.74505805969E-08  0.93827000000E+00  0.93827000000E+00 0.  1.
     999902    2    1    2    0    0 -0.23327121617E-01 -0.12171625872E-04 -0.46923865000E-02  0.10201356048E+01  0.10198580681E+01 0.  0.
     999903    2    3    3    0    0 -0.94051569020E-01  0.45806013652E-01 -0.79672355744E-01  0.13293593769E+00  0.19503608323E-01 0.  0.
         14    1    1    2    0    0  0.23327121617E-01  0.12171625872E-04  0.46923865000E-02  0.23794395184E-01  0.00000000000E+00 0.  1.
     999901    1    3    3    0    0  0.70724447403E-01 -0.45818185278E-01  0.74979969244E-01  0.88719966713E+00  0.88000000000E+00 0. -1.
        -11    1    4    4    0    0 -0.51740890993E-01  0.15088258516E-01 -0.36078052354E-01  0.64858787597E-01  0.51100000000E-03 0. -1.
         11    1    4    4    0    0 -0.42310678027E-01  0.30717755135E-01 -0.43594303390E-01  0.68077150093E-01  0.51100000000E-03 0.  1.
</event>
<event>
 8    1  0.1123361E+005  0.1043930E+01  0.7957747E-01            NaN
         13   -1    0    0    0    0  0.00000000000E+00  0.00000000000E+00  0.74505805969E-08  0.10566000000E+00  0.10566000000E+00 0. -1.
     999900   -1    0    0    0    0 -0.00000000000E+00 -0.00000000000E+00 -0.74505805969E-08  0.93827000000E+00  0.93827000000E+00 0. -1.
     999902    2    1    2    0    0  0.10949691926E-01 -0.44165554686E-02  0.23377452719E-01  0.10177401735E+01  0.10174031422E+01 0.  0.
     999903    2    3    3    0    0  0.98467945208E-01  0.75772418344E-01  0.30620072443E-01  0.12974120296E+00  0.21396151361E-01 0.  0.
         14    1    1    2    0    0 -0.10949691926E-01  0.44165554686E-02 -0.23377452719E-01  0.26189826481E-01  0.00000000000E+00 0.  1.
     999901    1    3    3    0    0 -0.87518253282E-01 -0.80188973812E-01 -0.72426197232E-02  0.88799897056E+00  0.88000000000E+00 0. -1.
        -11    1    4    4    0    0  0.49662730153E-01  0.47501364594E-01  0.88951633571E-02  0.69297557364E-01  0.51100000000E-03 0.  1.
         11    1    4    4    0    0  0.48805215055E-01  0.28271053750E-01  0.21724909085E-01  0.60443645592E-01  0.51100000000E-03 0. -1.
</event>
<event>
 8    1  0.1123361E+005  0.1043930E+01  0.7957747E-01            NaN
         13   -1    0    0    0    0  0.00000000000E+00  0.00000000000E+00  0.74505805969E-08  0.10566000000E+00  0.10566000000E+00 0.  1.
     999900   -1    0    0    0    0 -0.00000000000E+00 -0.00000000000E+00 -0.74505805969E-08  0.93827000000E+00  0.93827000000E+00 0. -1.
     999902    2    1    2    0    0 -0.17055511715E-01 -0.14109171213E-01 -0.95218705200E-02  0.10198338341E+01  0.10195491278E+01 0.  0.
     999903    2    3    3    0    0 -0.94332803025E-01  0.53676130996E-01 -0.73458291256E-01  0.13154644096E+00  0.11337583905E-01 0.  0.
         14    1    1    2    0    0  0.17055511715E-01  0.14109171213E-01  0.95218705200E-02  0.24096165885E-01  0.00000000000E+00 0. -1.
     999901    1    3    3    0    0  0.77277291310E-01 -0.67785302209E-01  0.63936420736E-01  0.88828739316E+00  0.88000000000E+00 0.  1.
        -11    1    4    4    0    0 -0.81898790788E-01  0.42379335553E-01 -0.64148293077E-01  0.11233291877E+00  0.51100000000E-03 0.  1.
         11    1    4    4    0    0 -0.12434012237E-01  0.11296795443E-01 -0.93099981789E-02  0.19213522183E-01  0.51100000000E-03 0. -1.
</event>
<event>
 8    1  0.1123361E+005  0.1043930E+01  0.7957747E-01            NaN
         13   -1    0    0    0    0  0.00000000000E+00  0.00000000000E+00  0.74505805969E-08  0.10566000000E+00  0.10566000000E+00 0.  1.
     999900   -1    0    0    0    0 -0.00000000000E+00 -0.00000000000E+00 -0.74505805969E-08  0.93827000000E+00  0.93827000000E+00 0. -1.
     999902    2    1    2    0    0  0.13172009087E-01  0.18495731625E-01 -0.11783271713E-01  0.10183479867E+01  0.10180266119E+01 0.  0.
     999903    2    3    3    0    0  0.11272069888E+00  0.11420924977E-01 -0.63176396820E-01  0.13121707876E+00  0.19755281848E-01 0.  0.
         14    1    1    2    0    0 -0.13172009087E-01 -0.18495731625E-01  0.11783271713E-01  0.25582013291E-01  0.00000000000E+00 0.  1.
     999901    1    3    3    0    0 -0.99548689790E-01  0.70748066477E-02  0.51393125106E-01  0.88713090795E+00  0.88000000000E+00 0. -1.
        -11    1    4    4    0    0  0.20716057630E-01 -0.36574529657E-02 -0.17636002012E-01  0.27455813481E-01  0.51100000000E-03 0. -1.
         11    1    4    4    0    0  0.92004641248E-01  0.15078377943E-01 -0.45540394808E-01  0.10376126528E+00  0.51100000000E-03 0.  1.
</event>
<event>
 8    1  0.1123361E+005  0.1043930E+01  0.7957747E-01            NaN
         13   -1    0    0    0    0  0.00000000000E+00  0.00000000000E+00  0.74505805969E-08  0.10566000000E+00  0.10566000000E+00 0.  1.
     999900   -1    0    0    0    0 -0.00000000000E+00 -0.00000000000E+00 -0.74505805969E-08  0.93827000000E+00  0.93827000000E+00 0.  1.
     999902    2    1    2    0    0  0.15134157744E-02 -0.11637966106E-01 -0.17356987306E-01  0.10229777283E+01  0.10227631372E+01 0.  0.
     999903    2    3    3    0    0 -0.13121890647E+00 -0.65508161463E-02 -0.13520547653E-02  0.13286542843E+00  0.19750428121E-01 0.  0.
         14    1    1    2    0    0 -0.15134157744E-02  0.11637966106E-01  0.17356987306E-01  0.20952271732E-01  0.00000000000E+00 0.  1.
     999901    1    3    3    0    0  0.13273232225E+00 -0.50871499596E-02 -0.16004932541E-01  0.89011229984E+00  0.88000000000E+00 0.  1.
        -11    1    4    4    0    0 -0.81047006872E-01  0.39461117076E-02 -0.61693020218E-02  0.81378808845E-01  0.51100000000E-03 0.  1.
         11    1    4    4    0    0 -0.50171899600E-01 -0.10496927854E-01  0.48172472565E-02  0.51486619582E-01  0.51100000000E-03 0. -1.
</event>
<event>
 8    1  0.1123361E+005  0.1043930E+01  0.7957747E-01            NaN
         13   -1    0    0    0    0  0.00000000000E+00  0.00000000000E+00  0.74505805969E-08  0.10566000000E+00  0.10566000000E+00 0.  1.
     999900   -1    0    0    0    0 -0.00000000000E+00 -0.00000000000E+00 -0.74505805969E-08  0.93827000000E+00  0.93827000000E+00 0.  1.
     999902    2    1    2    0    0 -0.66251965895E-02  0.34251564764E-02 -0.24166706505E-01  0.10186386056E+01  0.10183245820E+01 0.  0.
     999903    2    3    3    0    0  0.54106631396E-01  0.17160137731E-01  0.11002326963E+00  0.12629116524E+00  0.24946756705E-01 0.  0.
         14    1    1    2    0    0  0.66251965895E-02 -0.34251564764E-02  0.24166706505E-01  0.25291394387E-01  0.00000000000E+00 0.  1.
     999901    1    3    3    0    0 -0.60731827986E-01 -0.13734981255E-01 -0.13418997614E+00  0.89234744037E+00  0.88000000000E+00 0.  1.
        -11    1    4    4    0    0  0.30536662936E-02  0.53099613487E-02  0.24278274469E-02  0.66087846439E-02  0.51100000000E-03 0.  1.
         11    1    4    4    0    0  0.51052965103E-01  0.11850176382E-01  0.10759544218E+00  0.11968238060E+00  0.51100000000E-03 0. -1.
</event>
<event>
 8    1  0.1123361E+005  0.1043930E+01  0.7957747E-01            NaN
         13   -1    0    0    0    0  0.00000000000E+00  0.00000000000E+00  0.74505805969E-08  0.10566000000E+00  0.10566000000E+00 0. -1.
     999900   -1    0    0    0    0 -0.00000000000E+00 -0.00000000000E+00 -0.74505805969E-08  0.93827000000E+00  0.93827000000E+00 0. -1.
     999902    2    1    2    0    0 -0.20763394015E-01 -0.32395236043E-02  0.13122747034E-01  0.10191546184E+01  0.10188534324E+01 0.  0.
     999903    2    3    3    0    0  0.87900723250E-01  0.92393871247E-02  0.91717149708E-01  0.12890707207E+00  0.19826604782E-01 0.  0.
         14    1    1    2    0    0  0.20763394015E-01  0.32395236043E-02 -0.13122747034E-01  0.24775381610E-01  0.00000000000E+00 0.  1.
     999901    1    3    3    0    0 -0.10866411727E+00 -0.12478910729E-01 -0.78594402675E-01  0.89024754632E+00  0.88000000000E+00 0. -1.
        -11    1    4    4    0    0  0.60364171087E-01  0.13492936088E-01  0.54700538372E-01  0.82573013112E-01  0.51100000000E-03 0. -1.
         11    1    4    4    0    0  0.27536552163E-01 -0.42535489630E-02  0.37016611337E-01  0.46334058959E-01  0.51100000000E-03 0.  1.
</event>
<event>
 8    1  0.1123361E+005  0.1043930E+01  0.7957747E-01            NaN
         13   -1    0    0    0    0  0.00000000000E+00  0.00000000000E+00  0.74505805969E-08  0.10566000000E+00  0.10566000000E+00 0.  1.
     999900   -1    0    0    0    0 -0.00000000000E+00 -0.00000000000E+00 -0.74505805969E-08  0.93827000000E+00  0.93827000000E+00 0. -1.
     999902    2    1    2    0    0 -0.19378306180E-01  0.11871747157E-01 -0.49351571275E-02  0.10206746155E+01  0.10204096520E+01 0.  0.
     999903    2    3    3    0    0  0.12426796894E+00  0.58878706918E-02  0.24811990633E-01  0.12851154079E+00  0.20552034249E-01 0.  0.
         14    1    1    2    0    0  0.19378306180E-01 -0.11871747157E-01  0.49351571275E-02  0.23255384470E-01  0.00000000000E+00 0.  1.
     999901    1    3    3    0    0 -0.14364627512E+00  0.59838764657E-02 -0.29747147761E-01  0.89216307474E+00  0.88000000000E+00 0. -1.
        -11    1    4    4    0    0  0.47718775295E-01  0.11346043330E-01  0.53910519069E-02  0.49347125312E-01  0.51100000000E-03 0.  1.
         11    1    4    4    0    0  0.76549193642E-01 -0.54581726383E-02  0.19420938726E-01  0.79164415477E-01  0.51100000000E-03 0. -1.
</event>
<event>
 8    1  0.1123361E+005  0.1043930E+01  0.7957747E-01            NaN
         13   -1    0    0    0    0  0.00000000000E+00  0.00000000000E+00  0.74505805969E-08  0.10566000000E+00  0.10566000000E+00 0. -1.
     999900   -1    0    0    0    0 -0.00000000000E+00 -0.00000000000E+00 -0.74505805969E-08  0.93827000000E+00  0.93827000000E+00 0. -1.
     999902    2    1    2    0    0  0.18361183703E-01 -0.15012546968E-01  0.38294490222E-02  0.10199055476E+01  0.10196225535E+01 0.  0.
     999903    2    3    3    0    0  0.10800464835E+00  0.18226967839E-01  0.71045735194E-01  0.13217876236E+00  0.20651932337E-01 0.  0.
         14    1    1    2    0    0 -0.18361183703E-01  0.15012546968E-01 -0.38294490222E-02  0.24024452402E-01  0.00000000000E+00 0. -1.
     999901    1    3    3    0    0 -0.89643464644E-01 -0.33239514807E-01 -0.67216286172E-01  0.88772678524E+00  0.88000000000E+00 0. -1.
        -11    1    4    4    0    0  0.10049952885E+00  0.16581724968E-01  0.58513869125E-01  0.11747017878E+00  0.51100000000E-03 0.  1.
         11    1    4    4    0    0  0.75051194954E-02  0.16452428712E-02  0.12531866069E-01  0.14708583579E-01  0.51100000000E-03 0. -1.
</event>
<event>
 8    1  0.1123361E+005  0.1043930E+01  0.7957747E-01            NaN
         13   -1    0    0    0    0  0.00000000000E+00  0.00000000000E+00  0.74505805969E-08  0.10566000000E+00  0.10566000000E+00 0. -1.
     999900   -1    0    0    0    0 -0.00000000000E+00 -0.00000000000E+00 -0.74505805969E-08  0.93827000000E+00  0.93827000000E+00 0. -1.
     999902    2    1    2    0    0  0.25033093329E-02 -0.34109795507E-02 -0.23937511646E-01  0.10196214459E+01  0.10193316375E+01 0.  0.
     999903    2    3    3    0    0 -0.71399003393E-01  0.38395064539E-01 -0.10226890271E+00  0.13207138872E+00  0.20295925506E-01 0.  0.
         14    1    1    2    0    0 -0.25033093329E-02  0.34109795507E-02  0.23937511646E-01  0.24308554110E-01  0.00000000000E+00 0. -1.
     999901    1    3    3    0    0  0.73902312726E-01 -0.41806044090E-01  0.78331391062E-01  0.88755005717E+00  0.88000000000E+00 0. -1.
        -11    1    4    4    0    0 -0.60173127333E-01  0.32274889799E-01 -0.72111989987E-01  0.99312003230E-01  0.51100000000E-03 0. -1.
         11    1    4    4    0    0 -0.11225876060E-01  0.61201747396E-02 -0.30156912721E-01  0.32759385495E-01  0.51100000000E-03 0.  1.
</event>
<event>
 8    1  0.1123361E+005  0.1043930E+01  0.7957747E-01            NaN
         13   -1    0    0    0    0  0.00000000000E+00  0.00000000000E+00  0.74505805969E-08  0.10566000000E+00  0.10566000000E+00 0.  1.
     999900   -1    0    0    0    0 -0.00000000000E+00 -0.00000000000E+00 -0.74505805969E-08  0.93827000000E+00  0.93827000000E+00 0.  1.
     999902    2    1    2    0    0 -0.12125795207E-01 -0.19817672638E-01 -0.23250107830E-02  0.10205808944E+01  0.10203137661E+01 0.  0.
     999903    2    3    3    0    0 -0.75135089267E-01  0.32350559200E-02  0.10585782178E+00  0.13142110857E+00  0.20245545674E-01 0.  0.
         14    1    1    2    0    0  0.12125795207E-01  0.19817672638E-01  0.23250107830E-02  0.23349105622E-01  0.00000000000E+00 0.  1.
     999901    1    3    3    0    0  0.63009294060E-01 -0.23052728558E-01 -0.10818283257E+00  0.88915978581E+00  0.88000000000E+00 0.  1.
        -11    1    4    4    0    0 -0.43089629216E-01  0.47198227602E-02  0.76518100107E-01  0.87944719215E-01  0.51100000000E-03 0.  1.
         11    1    4    4    0    0 -0.32045460051E-01 -0.14847668402E-02  0.29339721676E-01  0.43476389357E-01  0.51100000000E-03 0. -1.
</event>
<event>
 8    1  0.1123361E+005  0.1043930E+01  0.7957747E-01            NaN
         13   -1    0    0    0    0  0.00000000000E+00  0.00000000000E+00  0.74505805969E-08  0.10566000000E+00  0.10566000000E+00 0. -1.
     999900   -1    0    0    0    0 -0.00000000000E+00 -0.00000000000E+00 -0.74505805969E-08  0.93827000000E+00  0.93827000000E+00 0. -1.
     999902    2    1    2    0    0  0.17806720993E-01  0.11082471866E-01  0.12162997308E-01  0.10196846087E+01  0.10193963225E+01 0.  0.
     999903    2    3    3    0    0  0.13806511805E-01  0.97965444474E-01  0.85566729655E-01  0.13235560517E+00  0.20211207717E-01 0.  0.
         14    1    1    2    0    0 -0.17806720993E-01 -0.11082471866E-01 -0.12162997308E-01  0.24245391287E-01  0.00000000000E+00 0.  1.
     999901    1    3    3    0    0  0.40002091880E-02 -0.86882972608E-01 -0.73403732347E-01  0.88732900354E+00  0.88000000000E+00 0. -1.
        -11    1    4    4    0    0  0.16836339974E-01  0.47146946883E-01  0.42514947269E-01  0.65681647409E-01  0.51100000000E-03 0. -1.
         11    1    4    4    0    0 -0.30298281690E-02  0.50818497591E-01  0.43051782386E-01  0.66673957763E-01  0.51100000000E-03 0.  1.
</event>
<event>
 8    1  0.1204977E+005  0.1043930E+01  0.7957747E-01            NaN
         13   -1    0    0    0    0  0.00000000000E+00  0.00000000000E+00  0.74505805969E-08  0.10566000000E+00  0.10566000000E+00 0.  1.
     999900   -1    0    0    0    0 -0.00000000000E+00 -0.00000000000E+00 -0.74505805969E-08  0.93827000000E+00  0.93827000000E+00 0. -1.
     999902    2    1    2    0    0  0.22953235355E-01 -0.40190400931E-02  0.68441736372E-02  0.10196432462E+01  0.10193539636E+01 0.  0.
     999903    2    3    3    0    0 -0.10310548245E+00 -0.43855892162E-01 -0.57497102264E-01  0.12744507602E+00  0.19551236392E-01 0.  0.
         14    1    1    2    0    0 -0.22953235355E-01  0.40190400931E-02 -0.68441736372E-02  0.24286753783E-01  0.00000000000E+00 0. -1.
     999901    1    3    3    0    0  0.12605871781E+00  0.39836852069E-01  0.64341275901E-01  0.89219817020E+00  0.88000000000E+00 0.  1.
        -11    1    4    4    0    0 -0.21460605593E-01 -0.57069529057E-02 -0.37826888460E-02  0.22532127281E-01  0.51100000000E-03 0.  1.
         11    1    4    4    0    0 -0.81644876857E-01 -0.38148939256E-01 -0.53714413418E-01  0.10491294874E+00  0.51100000000E-03 0. -1.
</event>
<event>
 8    1  0.1123361E+005  0.1043930E+01  0.7957747E-01            NaN
         13   -1    0    0    0    0  0.00000000000E+00  0.00000000000E+00  0.74505805969E-08  0.10566000000E+00  0.10566000000E+00 0.  1.
     999900   -1    0    0    0    0 -0.00000000000E+00 -0.00000000000E+00 -0.74505805969E-08  0.93827000000E+00  0.93827000000E+00 0.  1.
     999902    2    1    2    0    0  0.82615203256E-02 -0.21838196833E-02 -0.23173588544E-01  0.10192310730E+01  0.10189317658E+01 0.  0.
     999903    2    3    3    0    0 -0.43140101371E-01 -0.71027478841E-01  0.93921335173E-01  0.12732704386E+00  0.22022438587E-01 0.  0.
         14    1    1    2    0    0 -0.82615203256E-02  0.21838196833E-02  0.23173588544E-01  0.24698926951E-01  0.00000000000E+00 0.  1.
     999901    1    3    3    0    0  0.51401621696E-01  0.68843659157E-01 -0.11709492372E+00  0.89190402919E+00  0.88000000000E+00 0.  1.
        -11    1    4    4    0    0 -0.10927030580E-02 -0.99763265638E-02  0.40696218835E-02  0.10841772685E-01  0.51100000000E-03 0.  1.
         11    1    4    4    0    0 -0.42047398313E-01 -0.61051152277E-01  0.89851713290E-01  0.11648527118E+00  0.51100000000E-03 0. -1.
</event>
<event>
 8    1  0.1123361E+005  0.1043930E+01  0.7957747E-01            NaN
         13   -1    0    0    0    0  0.00000000000E+00  0.00000000000E+00  0.74505805969E-08  0.10566000000E+00  0.10566000000E+00 0.  1.
     999900   -1    0    0    0    0 -0.00000000000E+00 -0.00000000000E+00 -0.74505805969E-08  0.93827000000E+00  0.93827000000E+00 0. -1.
     999902    2    1    2    0    0 -0.19926458939E-01  0.12900573359E-01 -0.89722179323E-03  0.10201751360E+01  0.10198985315E+01 0.  0.
     999903    2    3    3    0    0  0.87108968374E-01 -0.81298619191E-01 -0.40483761534E-01  0.12782029358E+00  0.22397648314E-01 0.  0.
         14    1    1    2    0    0  0.19926458939E-01 -0.12900573359E-01  0.89722179323E-03  0.23754864045E-01  0.00000000000E+00 0. -1.
     999901    1    3    3    0    0 -0.10703542731E+00  0.94199192550E-01  0.39586539741E-01  0.89235484237E+00  0.88000000000E+00 0. -1.
        -11    1    4    4    0    0  0.30763366086E-01 -0.15021912922E-01 -0.10756592034E-01  0.35888827704E-01  0.51100000000E-03 0.  1.
         11    1    4    4    0    0  0.56345602288E-01 -0.66276706270E-01 -0.29727169499E-01  0.91931465879E-01  0.51100000000E-03 0. -1.
</event>
<event>
 8    1  0.1123361E+005  0.1043930E+01  0.7957747E-01            NaN
         13   -1    0    0    0    0  0.00000000000E+00  0.00000000000E+00  0.74505805969E-08  0.10566000000E+00  0.10566000000E+00 0. -1.
     999900   -1    0    0    0    0 -0.00000000000E+00 -0.00000000000E+00 -0.74505805969E-08  0.93827000000E+00  0.93827000000E+00 0. -1.
     999902    2    1    2    0    0 -0.17897241506E-01 -0.12891957497E-01  0.81029142645E-02  0.10204316800E+01  0.10201610866E+01 0.  0.
     999903    2    3    3    0    0  0.11539558320E+00  0.48953909183E-01  0.18375190189E-01  0.12818877141E+00  0.19547062509E-01 0.  0.
         14    1    1    2    0    0  0.17897241506E-01  0.12891957497E-01 -0.81029142645E-02  0.23498319966E-01  0.00000000000E+00 0. -1.
     999901    1    3    3    0    0 -0.13329282471E+00 -0.61845866680E-01 -0.10272275924E-01  0.89224290863E+00  0.88000000000E+00 0. -1.
        -11    1    4    4    0    0  0.91323988438E-01  0.30385052743E-01  0.10783807892E-01  0.96849749241E-01  0.51100000000E-03 0. -1.
         11    1    4    4    0    0  0.24071594767E-01  0.18568856440E-01  0.75913822971E-02  0.31339022165E-01  0.51100000000E-03 0.  1.
</event>
<event>
 8    1  0.1123361E+005  0.1043930E+01  0.7957747E-01            NaN
         13   -1    0    0    0    0  0.00000000000E+00  0.00000000000E+00  0.74505805969E-08  0.10566000000E+00  0.10566000000E+00 0.  1.
     999900   -1    0    0    0    0 -0.00000000000E+00 -0.00000000000E+00 -0.74505805969E-08  0.93827000000E+00  0.93827000000E+00 0. -1.
     999902    2    1    2    0    0 -0.51987650765E-02 -0.21014448747E-01 -0.98521823569E-02  0.10201455574E+01  0.10198682555E+01 0.  0.
     999903    2    3    3    0    0  0.10265481561E+00  0.29385157909E-01  0.68810807651E-01  0.12865221402E+00  0.20370720405E-01 0.  0.
         14    1    1    2    0    0  0.51987650765E-02  0.21014448747E-01  0.98521823569E-02  0.23784442639E-01  0.00000000000E+00 0.  1.
     999901    1    3    3    0    0 -0.10785358069E+00 -0.50399606657E-01 -0.78662990008E-01  0.89149334334E+00  0.88000000000E+00 0. -1.
        -11    1    4    4    0    0  0.76773631815E-01  0.13761729984E-01  0.54819850249E-01  0.95336524252E-01  0.51100000000E-03 0.  1.
         11    1    4    4    0    0  0.25881183797E-01  0.15623427926E-01  0.13990957402E-01  0.33315689770E-01  0.51100000000E-03 0. -1.
</event>
<event>
 8    1  0.1123361E+005  0.1043930E+01  0.7957747E-01            NaN
         13   -1    0    0    0    0  0.00000000000E+00  0.00000000000E+00  0.74505805969E-08  0.10566000000E+00  0.10566000000E+00 0.  1.
     999900   -1    0    0    0    0 -0.00000000000E+00 -0.00000000000E+00 -0.74505805969E-08  0.93827000000E+00  0.93827000000E+00 0. -1.
     999902    2    1    2    0    0  0.19925684696E-01  0.25457079678E-03 -0.13185901178E-01  0.10200351113E+01  0.10197551974E+01 0.  0.
     999903    2    3    3    0    0  0.11557764207E+00 -0.29798550445E-01 -0.55978148247E-01  0.13330873666E+00  0.19786895528E-01 0.  0.
         14    1    1    2    0    0 -0.19925684696E-01 -0.25457079678E-03  0.13185901178E-01  0.23894888717E-01  0.00000000000E+00 0.  1.
     999901    1    3    3    0    0 -0.95651957369E-01  0.30053121242E-01  0.42792247069E-01  0.88672637462E+00  0.88000000000E+00 0.  1.
        -11    1    4    4    0    0  0.67401351056E-01 -0.11027736626E-01 -0.23408750951E-01  0.72199611088E-01  0.51100000000E-03 0.  1.
         11    1    4    4    0    0  0.48176291010E-01 -0.18770813819E-01 -0.32569397296E-01  0.61109125571E-01  0.51100000000E-03 0. -1.
</event>
<event>
 8    1  0.1123361E+005  0.1043930E+01  0.7957747E-01            NaN
         13   -1    0    0    0    0  0.00000000000E+00  0.00000000000E+00  0.74505805969E-08  0.10566000000E+00  0.10566000000E+00 0. -1.
     999900   -1    0    0    0    0 -0.00000000000E+00 -0.00000000000E+00 -0.74505805969E-08  0.93827000000E+00  0.93827000000E+00 0.  1.
     999902    2    1    2    0    0  0.13942629658E-01 -0.13371675517E-01  0.13394390295E-01  0.10204223774E+01  0.10201515672E+01 0.  0.
     999903    2    3    3    0    0  0.10054471602E+00  0.32744609942E-01  0.77591195067E-01  0.13264545562E+00  0.19823570411E-01 0.  0.
         14    1    1    2    0    0 -0.13942629658E-01  0.13371675517E-01 -0.13394390295E-01  0.23507622578E-01  0.00000000000E+00 0.  1.
     999901    1    3    3    0    0 -0.86602086363E-01 -0.46116285459E-01 -0.64196804772E-01  0.88777692181E+00  0.88000000000E+00 0.  1.
        -11    1    4    4    0    0  0.33332640361E-01  0.17680275828E-01  0.36162513170E-01  0.52265146575E-01  0.51100000000E-03 0.  1.
         11    1    4    4    0    0  0.67212075660E-01  0.15064334114E-01  0.41428681897E-01  0.80380309041E-01  0.51100000000E-03 0. -1.
</event>
<event>
 8    1  0.1123361E+005  0.1043930E+01  0.7957747E-01            NaN
         13   -1    0    0    0    0  0.00000000000E+00  0.00000000000E+00  0.74505805969E-08  0.10566000000E+00  0.10566000000E+00 0.  1.
     999900   -1    0    0    0    0 -0.00000000000E+00 -0.00000000000E+00 -0.74505805969E-08  0.93827000000E+00  0.93827000000E+00 0. -1.
     999902    2    1    2    0    0  0.12819333103E-01  0.15630251214E-01  0.11667024814E-01  0.10205899160E+01  0.10203229964E+01 0.  0.
     999903    2    3    3    0    0  0.34028357672E-02 -0.70040790682E-01 -0.10600817169E+00  0.12858338589E+00  0.19459265474E-01 0.  0.
         14    1    1    2    0    0 -0.12819333103E-01 -0.15630251214E-01 -0.11667024814E-01  0.23340084023E-01  0.00000000000E+00 0. -1.
     999901    1    3    3    0    0  0.94164973356E-02  0.85671041896E-01  0.11767519650E+00  0.89200653008E+00  0.88000000000E+00 0.  1.
        -11    1    4    4    0    0  0.75486237702E-02 -0.32935954835E-01 -0.36922834794E-01  0.50053128693E-01  0.51100000000E-03 0.  1.
         11    1    4    4    0    0 -0.41457880030E-02 -0.37104835847E-01 -0.69085336892E-01  0.78530257200E-01  0.51100000000E-03 0. -1.
</event>
<event>
 8    1  0.1123361E+005  0.1043930E+01  0.7957747E-01            NaN
         13   -1    0    0    0    0  0.00000000000E+00  0.00000000000E+00  0.74505805969E-08  0.10566000000E+00  0.10566000000E+00 0.  1.
     999900   -1    0    0    0    0 -0.00000000000E+00 -0.00000000000E+00 -0.74505805969E-08  0.93827000000E+00  0.93827000000E+00 0. -1.
     999902    2    1    2    0    0 -0.14014470692E-01 -0.13894762785E-02 -0.18935856271E-01  0.10203312143E+01  0.10200582749E+01 0.  0.
     999903    2    3    3    0    0 -0.12839271571E-01  0.17667193601E-01  0.12486852598E+00  0.12845440773E+00  0.20770398674E-01 0.  0.
         14    1    1    2    0    0  0.14014470692E-01  0.13894762785E-02  0.18935856271E-01  0.23598785685E-01  0.00000000000E+00 0.  1.
     999901    1    3    3    0    0 -0.11751991203E-02 -0.19056669879E-01 -0.14380438225E+00  0.89187680658E+00  0.88000000000E+00 0. -1.
        -11    1    4    4    0    0 -0.18448619558E-01  0.15353910846E-01  0.10225516278E+00  0.10503558244E+00  0.51100000000E-03 0.  1.
         11    1    4    4    0    0  0.56093479865E-02  0.23132827548E-02  0.22613363199E-01  0.23418825293E-01  0.51100000000E-03 0. -1.
</event>
<event>
 7    1  0.1123361E+005  0.1043930E+01  0.7957747E-01            NaN
         13   -1    0    0    0    0  0.00000000000E+00  0.00000000000E+00  0.74505805969E-08  0.10566000000E+00  0.10566000000E+00 0. -1.
     999900   -1    0    0    0    0 -0.00000000000E+00 -0.00000000000E+00 -0.74505805969E-08  0.93827000000E+00  0.93827000000E+00 0. -1.
     999903    2    1    2    0    0  0.68439357865E-01  0.44883566920E-01  0.83190143600E-01  0.11838957439E+00  0.19925136098E-01 0.  0.
         14    1    1    2    0    0 -0.35139345298E-01 -0.19972524509E-01  0.18666936389E-02  0.40461832242E-01  0.00000000000E+00 0.  1.
     999901    1    1    2    0    0 -0.33300012566E-01 -0.24911042410E-01 -0.85056837238E-01  0.88507859336E+00  0.88000000000E+00 0. -1.
        -11    1    3    3    0    0  0.51766694530E-01  0.40059751647E-01  0.56084940352E-01  0.86199512875E-01  0.51100000000E-03 0. -1.
         11    1    3    3    0    0  0.16672663335E-01  0.48238152727E-02  0.27105203248E-01  0.32190061518E-01  0.51100000000E-03 0.  1.
</event>
<event>
 8    1  0.1123361E+005  0.1043930E+01  0.7957747E-01            NaN
         13   -1    0    0    0    0  0.00000000000E+00  0.00000000000E+00  0.74505805969E-08  0.10566000000E+00  0.10566000000E+00 0.  1.
     999900   -1    0    0    0    0 -0.00000000000E+00 -0.00000000000E+00 -0.74505805969E-08  0.93827000000E+00  0.93827000000E+00 0.  1.
     999902    2    1    2    0    0  0.79544064154E-02 -0.18584577498E-01 -0.14007985594E-01  0.10193356356E+01  0.10190388879E+01 0.  0.
     999903    2    3    3    0    0 -0.20472309942E-01  0.89703905040E-01  0.84648136795E-01  0.12677331048E+00  0.20982352904E-01 0.  0.
         14    1    1    2    0    0 -0.79544064154E-02  0.18584577498E-01  0.14007985594E-01  0.24594364448E-01  0.00000000000E+00 0.  1.
     999901    1    3    3    0    0  0.28426716358E-01 -0.10828848254E+00 -0.98656122389E-01  0.89256232507E+00  0.88000000000E+00 0.  1.
        -11    1    4    4    0    0 -0.13340834395E-01  0.65678739632E-01  0.48268604254E-01  0.82594152212E-01  0.51100000000E-03 0. -1.
         11    1    4    4    0    0 -0.71314755475E-02  0.24025165408E-01  0.36379532541E-01  0.44179158268E-01  0.51100000000E-03 0.  1.
</event>
<event>
 8    1  0.1123361E+005  0.1043930E+01  0.7957747E-01            NaN
         13   -1    0    0    0    0  0.00000000000E+00  0.00000000000E+00  0.74505805969E-08  0.10566000000E+00  0.10566000000E+00 0. -1.
     999900   -1    0    0    0    0 -0.00000000000E+00 -0.00000000000E+00 -0.74505805969E-08  0.93827000000E+00  0.93827000000E+00 0.  1.
     999902    2    1    2    0    0  0.14312111116E-01 -0.69027486515E-02 -0.17867237415E-01  0.10200192778E+01  0.10197389884E+01 0.  0.
     999903    2    3    3    0    0  0.11067185314E+00 -0.69713913091E-01  0.32872225393E-02  0.13228173018E+00  0.19477205974E-01 0.  0.
         14    1    1    2    0    0 -0.14312111116E-01  0.69027486515E-02  0.17867237415E-01  0.23910722205E-01  0.00000000000E+00 0. -1.
     999901    1    3    3    0    0 -0.96359742025E-01  0.62811164440E-01 -0.21154459954E-01  0.88773754761E+00  0.88000000000E+00 0.  1.
        -11    1    4    4    0    0  0.21040190135E-01 -0.49485500895E-02 -0.62441799228E-03  0.21629349684E-01  0.51100000000E-03 0. -1.
         11    1    4    4    0    0  0.89631663005E-01 -0.64765363002E-01  0.39116405316E-02  0.11065238050E+00  0.51100000000E-03 0.  1.
</event>
<event>
 8    1  0.1123361E+005  0.1043930E+01  0.7957747E-01            NaN
         13   -1    0    0    0    0  0.00000000000E+00  0.00000000000E+00  0.74505805969E-08  0.10566000000E+00  0.10566000000E+00 0.  1.
     999900   -1    0    0    0    0 -0.00000000000E+00 -0.00000000000E+00 -0.74505805969E-08  0.93827000000E+00  0.93827000000E+00 0. -1.
     999902    2    1    2    0    0 -0.14397480689E-01 -0.11791335696E-01  0.14154955299E-01  0.10205486868E+01  0.10202808125E+01 0.  0.
     999903    2    3    3    0    0  0.29934300471E-01 -0.44253501006E-01  0.11947816725E+00  0.13256666109E+00  0.21082041818E-01 0.  0.
         14    1    1    2    0    0  0.14397480689E-01  0.11791335696E-01 -0.14154955299E-01  0.23381313205E-01  0.00000000000E+00 0. -1.
     999901    1    3    3    0    0 -0.44331781160E-01  0.32462165310E-01 -0.10532321195E+00  0.88798202570E+00  0.88000000000E+00 0. -1.
        -11    1    4    4    0    0  0.71454330166E-02 -0.11669291596E-01  0.56093829285E-01  0.57740872735E-01  0.51100000000E-03 0.  1.
         11    1    4    4    0    0  0.22788867454E-01 -0.32584209410E-01  0.63384337966E-01  0.74825788356E-01  0.51100000000E-03 0. -1.
</event>
<event>
 8    1  0.1123361E+005  0.1043930E+01  0.7957747E-01            NaN
         13   -1    0    0    0    0  0.00000000000E+00  0.00000000000E+00  0.74505805969E-08  0.10566000000E+00  0.10566000000E+00 0. -1.
     999900   -1    0    0    0    0 -0.00000000000E+00 -0.00000000000E+00 -0.74505805969E-08  0.93827000000E+00  0.93827000000E+00 0. -1.
     999902    2    1    2    0    0 -0.90503002137E-02  0.23827185624E-01 -0.50208562841E-02  0.10179520920E+01  0.10176205628E+01 0.  0.
     999903    2    3    3    0    0 -0.10593423500E+00  0.45881823645E-01  0.56767954894E-01  0.13020733074E+00  0.20103342723E-01 0.  0.
         14    1    1    2    0    0  0.90503002137E-02 -0.23827185624E-01  0.50208562841E-02  0.25977908048E-01  0.00000000000E+00 0. -1.
     999901    1    3    3    0    0  0.96883934787E-01 -0.22054638020E-01 -0.61788811178E-01  0.88774476122E+00  0.88000000000E+00 0. -1.
        -11    1    4    4    0    0 -0.44295822745E-01  0.17255354904E-01  0.34313484463E-01  0.58630568158E-01  0.51100000000E-03 0. -1.
         11    1    4    4    0    0 -0.61638412256E-01  0.28626468740E-01  0.22454470431E-01  0.71576762579E-01  0.51100000000E-03 0.  1.
</event>
<event>
 8    1  0.1123361E+005  0.1043930E+01  0.7957747E-01            NaN
         13   -1    0    0    0    0  0.00000000000E+00  0.00000000000E+00  0.74505805969E-08  0.10566000000E+00  0.10566000000E+00 0. -1.
     999900   -1    0    0    0    0 -0.00000000000E+00 -0.00000000000E+00 -0.74505805969E-08  0.93827000000E+00  0.93827000000E+00 0.  1.
     999902    2    1    2    0    0  0.13358438079E-01 -0.42950643691E-02 -0.20141318475E-01  0.10193827363E+01  0.10190871380E+01 0.  0.
     999903    2    3    3    0    0  0.46992314722E-01  0.10960783746E+00  0.44187978517E-01  0.12907752617E+00  0.22051635810E-01 0.  0.
         14    1    1    2    0    0 -0.13358438079E-01  0.42950643691E-02  0.20141318475E-01  0.24547263712E-01  0.00000000000E+00 0. -1.
     999901    1    3    3    0    0 -0.33633876644E-01 -0.11390290183E+00 -0.64329296992E-01  0.89030521011E+00  0.88000000000E+00 0.  1.
        -11    1    4    4    0    0  0.15827581898E-01  0.64292248689E-01  0.22040484352E-01  0.69785741106E-01  0.51100000000E-03 0. -1.
         11    1    4    4    0    0  0.31164732824E-01  0.45315588773E-01  0.22147494165E-01  0.59291785069E-01  0.51100000000E-03 0.  1.
</event>
<event>
 8    1  0.1123361E+005  0.1043930E+01  0.7957747E-01            NaN
         13   -1    0    0    0    0  0.00000000000E+00  0.00000000000E+00  0.74505805969E-08  0.10566000000E+00  0.10566000000E+00 0. -1.
     999900   -1    0    0    0    0 -0.00000000000E+00 -0.00000000000E+00 -0.74505805969E-08  0.93827000000E+00  0.93827000000E+00 0.  1.
     999902    2    1    2    0    0  0.34121023977E-02  0.21915754313E-01  0.79319197528E-02  0.10203745743E+01  0.10201026486E+01 0.  0.
     999903    2    3    3    0    0 -0.11839112714E+00  0.50214054769E-01  0.20770477884E-01  0.13144170330E+00  0.17538481450E-01 0.  0.
         14    1    1    2    0    0 -0.34121023977E-02 -0.21915754313E-01 -0.79319197528E-02  0.23555425720E-01  0.00000000000E+00 0.  1.
     999901    1    3    3    0    0  0.12180322954E+00 -0.28298300456E-01 -0.12838558131E-01  0.88893287098E+00  0.88000000000E+00 0. -1.
        -11    1    4    4    0    0 -0.76635191671E-01  0.23954274001E-01  0.16100586169E-01  0.81891695802E-01  0.51100000000E-03 0.  1.
         11    1    4    4    0    0 -0.41755935474E-01  0.26259780768E-01  0.46698917153E-02  0.49550007497E-01  0.51100000000E-03 0. -1.
</event>
<event>
 8    1  0.1290348E+005  0.1043930E+01  0.7957747E-01            NaN
         13   -1    0    0    0    0  0.00000000000E+00  0.00000000000E+00  0.74505805969E-08  0.10566000000E+00  0.10566000000E+00 0. -1.
     999900   -1    0    0    0    0 -0.00000000000E+00 -0.00000000000E+00 -0.74505805969E-08  0.93827000000E+00  0.93827000000E+00 0.  1.
     999902    2    1    2    0    0 -0.90505069701E-02 -0.15649205715E-01 -0.15603920420E-01  0.10200492201E+01  0.10197696406E+01 0.  0.
     999903    2    3    3    0    0 -0.10120690036E+00 -0.32987329444E-01  0.74617003996E-01  0.13048009599E+00  0.11240888708E-01 0.  0.
         14    1    1    2    0    0  0.90505069701E-02  0.15649205715E-01  0.15603920420E-01  0.23880779895E-01  0.00000000000E+00 0. -1.
     999901    1    3    3    0    0  0.92156393393E-01  0.17338123728E-01 -0.90220924416E-01  0.88956912412E+00  0.88000000000E+00 0.  1.
        -11    1    4    4    0    0 -0.59448161975E-01 -0.20126799998E-01  0.50575012632E-01  0.80605614346E-01  0.51100000000E-03 0.  1.
         11    1    4    4    0    0 -0.41758738388E-01 -0.12860529445E-01  0.24041991364E-01  0.49874481643E-01  0.51100000000E-03 0. -1.
</event>
<event>
 7    1  0.1123361E+005  0.1043930E+01  0.7957747E-01            NaN
         13   -1    0    0    0    0  0.00000000000E+00  0.00000000000E+00  0.74505805969E-08  0.10566000000E+00  0.10566000000E+00 0.  1.
     999900   -1    0    0    0    0 -0.00000000000E+00 -0.00000000000E+00 -0.74505805969E-08  0.93827000000E+00  0.93827000000E+00 0. -1.
     999903    2    1    2    0    0  0.47234714571E-01 -0.39145815437E-01  0.19712361767E-01  0.64914381196E-01  0.78604422824E-02 0.  0.
         14    1    1    2    0    0  0.31742237720E-01 -0.31471350195E-01  0.75316170433E-01  0.87581625170E-01  0.00000000000E+00 0.  1.
     999901    1    1    2    0    0 -0.78976952290E-01  0.70617165632E-01 -0.95028532200E-01  0.89143399363E+00  0.88000000000E+00 0. -1.
        -11    1    3    3    0    0  0.21308415527E-01 -0.19590048283E-01  0.55242596134E-02  0.29471971928E-01  0.51100000000E-03 0. -1.
         11    1    3    3    0    0  0.25926299043E-01 -0.19555767153E-01  0.14188102153E-01  0.35442409268E-01  0.51100000000E-03 0.  1.
</event>
<event>
 8    1  0.1123361E+005  0.1043930E+01  0.7957747E-01            NaN
         13   -1    0    0    0    0  0.00000000000E+00  0.00000000000E+00  0.74505805969E-08  0.10566000000E+00  0.10566000000E+00 0.  1.
     999900   -1    0    0    0    0 -0.00000000000E+00 -0.00000000000E+00 -0.74505805969E-08  0.93827000000E+00  0.93827000000E+00 0.  1.
     999902    2    1    2    0    0 -0.16489567183E-01 -0.69605278124E-02 -0.13113503020E-01  0.10217417433E+01  0.10215007936E+01 0.  0.
     999903    2    3    3    0    0 -0.53375441415E-01 -0.38063583621E-01  0.11233608232E+00  0.13153639270E+00  0.19612574302E-01 0.  0.
         14    1    1    2    0    0  0.16489567183E-01  0.69605278124E-02  0.13113503020E-01  0.22188256686E-01  0.00000000000E+00 0.  1.
     999901    1    3    3    0    0  0.36885874232E-01  0.31103055808E-01 -0.12544958534E+00  0.89020535061E+00  0.88000000000E+00 0. -1.
        -11    1    4    4    0    0 -0.23362074509E-01 -0.27170567080E-01  0.50256141990E-01  0.61724931507E-01  0.51100000000E-03 0.  1.
         11    1    4    4    0    0 -0.30013366905E-01 -0.10893016541E-01  0.62079940325E-01  0.69811461194E-01  0.51100000000E-03 0. -1.
</event>
<event>
 8    1  0.1123361E+005  0.1043930E+01  0.7957747E-01            NaN
         13   -1    0    0    0    0  0.00000000000E+00  0.00000000000E+00  0.74505805969E-08  0.10566000000E+00  0.10566000000E+00 0.  1.
     999900   -1    0    0    0    0 -0.00000000000E+00 -0.00000000000E+00 -0.74505805969E-08  0.93827000000E+00  0.93827000000E+00 0.  1.
     999902    2    1    2    0    0  0.87704683095E-02  0.12979511087E-04  0.19327934705E-01  0.10227052422E+01  0.10224849740E+01 0.  0.
     999903    2    3    3    0    0 -0.11973926814E+00 -0.50540092054E-01  0.94734655666E-02  0.13188119901E+00  0.20275868938E-01 0.  0.
         14    1    1    2    0    0 -0.87704683095E-02 -0.12979511087E-04 -0.19327934705E-01  0.21224757780E-01  0.00000000000E+00 0. -1.
     999901    1    3    3    0    0  0.12850973645E+00  0.50553071565E-01  0.98544691386E-02  0.89082404321E+00  0.88000000000E+00 0. -1.
        -11    1    4    4    0    0 -0.51997318579E-01 -0.12318203856E-01  0.83716756616E-02  0.54090714175E-01  0.51100000000E-03 0. -1.
         11    1    4    4    0    0 -0.67741949564E-01 -0.38221888198E-01  0.11017899050E-02  0.77790484830E-01  0.51100000000E-03 0.  1.
</event>
<event>
 8    1  0.1123361E+005  0.1043930E+01  0.7957747E-01            NaN
         13   -1    0    0    0    0  0.00000000000E+00  0.00000000000E+00  0.74505805969E-08  0.10566000000E+00  0.10566000000E+00 0. -1.
     999900   -1    0    0    0    0 -0.00000000000E+00 -0.00000000000E+00 -0.74505805969E-08  0.93827000000E+00  0.93827000000E+00 0. -1.
     999902    2    1    2    0    0 -0.10594126694E-01 -0.20873544952E-01 -0.62028124694E-02  0.10197139871E+01  0.10194264074E+01 0.  0.
     999903    2    3    3    0    0  0.79280530806E-01  0.97189098613E-01  0.91039282418E-02  0.12716116613E+00  0.18866828265E-01 0.  0.
         14    1    1    2    0    0  0.10594126694E-01  0.20873544952E-01  0.62028124694E-02  0.24216012921E-01  0.00000000000E+00 0. -1.
     999901    1    3    3    0    0 -0.89874657500E-01 -0.11806264357E+00 -0.15306740711E-01  0.89255282095E+00  0.88000000000E+00 0. -1.
        -11    1    4    4    0    0  0.30040495115E-01  0.39930473898E-01 -0.53930752601E-02  0.50261520811E-01  0.51100000000E-03 0. -1.
         11    1    4    4    0    0  0.49240035691E-01  0.57258624716E-01  0.14497003502E-01  0.76899645322E-01  0.51100000000E-03 0.  1.
</event>
<event>
 8    1  0.1123361E+005  0.1043930E+01  0.7957747E-01            NaN
         13   -1    0    0    0    0  0.00000000000E+00  0.00000000000E+00  0.74505805969E-08  0.10566000000E+00  0.10566000000E+00 0. -1.
     999900   -1    0    0    0    0 -0.00000000000E+00 -0.00000000000E+00 -0.74505805969E-08  0.93827000000E+00  0.93827000000E+00 0.  1.
     999902    2    1    2    0    0 -0.21261342082E-01  0.11557228238E-02  0.13592445032E-01  0.10186686674E+01  0.10183553992E+01 0.  0.
     999903    2    3    3    0    0 -0.69732780691E-01 -0.45471658021E-01  0.10024731832E+00  0.13185828177E+00  0.20168025564E-01 0.  0.
         14    1    1    2    0    0  0.21261342082E-01 -0.11557228238E-02 -0.13592445032E-01  0.25261332592E-01  0.00000000000E+00 0.  1.
     999901    1    3    3    0    0  0.48471438609E-01  0.46627380844E-01 -0.86654873291E-01  0.88681038564E+00  0.88000000000E+00 0.  1.
        -11    1    4    4    0    0 -0.38261762499E-02  0.86530072060E-03  0.10668474789E-01  0.11378305909E-01  0.51100000000E-03 0.  1.
         11    1    4    4    0    0 -0.65906604442E-01 -0.46336958741E-01  0.89578843534E-01  0.12047997586E+00  0.51100000000E-03 0. -1.
</event>
<event>
 8    1  0.1123361E+005  0.1043930E+01  0.7957747E-01            NaN
         13   -1    0    0    0    0  0.00000000000E+00  0.00000000000E+00  0.74505805969E-08  0.10566000000E+00  0.10566000000E+00 0. -1.
     999900   -1    0    0    0    0 -0.00000000000E+00 -0.00000000000E+00 -0.74505805969E-08  0.93827000000E+00  0.93827000000E+00 0.  1.
     999902    2    1    2    0    0 -0.89251116171E-02  0.14333436924E-01 -0.15733660470E-01  0.10208507213E+01  0.10205898011E+01 0.  0.
     999903    2    3    3    0    0  0.41819766688E-01  0.44193506946E-02  0.12022201462E+00  0.12891054545E+00  0.19904079586E-01 0.  0.
         14    1    1    2    0    0  0.89251116171E-02 -0.14333436924E-01  0.15733660470E-01  0.23079278655E-01  0.00000000000E+00 0. -1.
     999901    1    3    3    0    0 -0.50744878305E-01  0.99140862293E-02 -0.13595567509E+00  0.89194017589E+00  0.88000000000E+00 0.  1.
        -11    1    4    4    0    0  0.22475187168E-01  0.10673785604E-01  0.80893507053E-01  0.84635006597E-01  0.51100000000E-03 0.  1.
         11    1    4    4    0    0  0.19344579520E-01 -0.62544349090E-02  0.39328507565E-01  0.44275538857E-01  0.51100000000E-03 0. -1.
</event>
<event>
 7    1  0.1123361E+005  0.1043930E+01  0.7957747E-01            NaN
         13   -1    0    0    0    0  0.00000000000E+00  0.00000000000E+00  0.74505805969E-08  0.10566000000E+00  0.10566000000E+00 0. -1.
     999900   -1    0    0    0    0 -0.00000000000E+00 -0.00000000000E+00 -0.74505805969E-08  0.93827000000E+00  0.93827000000E+00 0. -1.
     999903    2    1    2    0    0  0.60195332279E-01  0.54522473352E-01 -0.37162305478E-01  0.91353396967E-01  0.19189269409E-01 0.  0.
         14    1    1    2    0    0  0.31212428713E-01 -0.28553560877E-01  0.52381481946E-01  0.67330091310E-01  0.00000000000E+00 0. -1.
     999901    1    1    2    0    0 -0.91407760992E-01 -0.25968912475E-01 -0.15219176468E-01  0.88524651172E+00  0.88000000000E+00 0. -1.
        -11    1    3    3    0    0  0.35388171452E-01  0.30634036429E-01 -0.31569476550E-01  0.56459364478E-01  0.51100000000E-03 0.  1.
         11    1    3    3    0    0  0.24807160827E-01  0.23888436923E-01 -0.55928289274E-02  0.34894032489E-01  0.51100000000E-03 0. -1.
</event>
<event>
 8    1  0.1123361E+005  0.1043930E+01  0.7957747E-01            NaN
         13   -1    0    0    0    0  0.00000000000E+00  0.00000000000E+00  0.74505805969E-08  0.10566000000E+00  0.10566000000E+00 0.  1.
     999900   -1    0    0    0    0 -0.00000000000E+00 -0.00000000000E+00 -0.74505805969E-08  0.93827000000E+00  0.93827000000E+00 0. -1.
     999902    2    1    2    0    0 -0.66351119318E-02  0.14855965828E-01 -0.16929691581E-01  0.10204493934E+01  0.10201792125E+01 0.  0.
     999903    2    3    3    0    0  0.42575703207E-01  0.49809965745E-01 -0.11410874310E+00  0.13304460721E+00  0.19655509741E-01 0.  0.
         14    1    1    2    0    0  0.66351119318E-02 -0.14855965828E-01  0.16929691581E-01  0.23480606637E-01  0.00000000000E+00 0. -1.
     999901    1    3    3    0    0 -0.49210815139E-01 -0.34953999917E-01  0.97179051523E-01  0.88740478616E+00  0.88000000000E+00 0.  1.
        -11    1    4    4    0    0  0.96967561092E-02  0.70944001221E-02 -0.37422535843E-01  0.39307313595E-01  0.51100000000E-03 0. -1.
         11    1    4    4    0    0  0.32878947098E-01  0.42715565623E-01 -0.76686207261E-01  0.93737293612E-01  0.51100000000E-03 0.  1.
</event>
<event>
 8    1  0.1123361E+005  0.1043930E+01  0.7957747E-01            NaN
         13   -1    0    0    0    0  0.00000000000E+00  0.00000000000E+00  0.74505805969E-08  0.10566000000E+00  0.10566000000E+00 0. -1.
     999900   -1    0    0    0    0 -0.00000000000E+00 -0.00000000000E+00 -0.74505805969E-08  0.93827000000E+00  0.93827000000E+00 0.  1.
     999902    2    1    2    0    0  0.17955912767E-01  0.10650380775E-01  0.11678580497E-01  0.10200085733E+01  0.10197280299E+01 0.  0.
     999903    2    3    3    0    0 -0.68968832500E-01  0.70130188180E-01 -0.80998616369E-01  0.12889532478E+00  0.19449569311E-01 0.  0.
         14    1    1    2    0    0 -0.17955912767E-01 -0.10650380775E-01 -0.11678580497E-01  0.23921426721E-01  0.00000000000E+00 0.  1.
     999901    1    3    3    0    0  0.86924745267E-01 -0.59479807405E-01  0.92677196866E-01  0.89111324850E+00  0.88000000000E+00 0. -1.
        -11    1    4    4    0    0 -0.68738533232E-01  0.64605093128E-01 -0.78821237880E-01  0.12293027565E+00  0.51100000000E-03 0.  1.
         11    1    4    4    0    0 -0.23029926760E-03  0.55250950518E-02 -0.21773784895E-02  0.59650491339E-02  0.51100000000E-03 0. -1.
</event>
<event>
 8    1  0.1123361E+005  0.1043930E+01  0.7957747E-01            NaN
         13   -1    0    0    0    0  0.00000000000E+00  0.00000000000E+00  0.74505805969E-08  0.10566000000E+00  0.10566000000E+00 0.  1.
     999900   -1    0    0    0    0 -0.00000000000E+00 -0.00000000000E+00 -0.74505805969E-08  0.93827000000E+00  0.93827000000E+00 0. -1.
     999902    2    1    2    0    0  0.10946599745E-01  0.66857978924E-02  0.15466345100E-01  0.10238368228E+01  0.10236396358E+01 0.  0.
     999903    2    3    3    0    0 -0.75836622738E-01  0.34884191132E-01  0.10379227609E+00  0.13472043718E+00  0.20215327788E-01 0.  0.
         14    1    1    2    0    0 -0.10946599745E-01 -0.66857978924E-02 -0.15466345100E-01  0.20093177205E-01  0.00000000000E+00 0. -1.
     999901    1    3    3    0    0  0.86783222483E-01 -0.28198393240E-01 -0.88325930993E-01  0.88911638562E+00  0.88000000000E+00 0. -1.
        -11    1    4    4    0    0  0.68205363052E-03  0.27023503151E-02  0.42307244495E-02  0.50919588321E-02  0.51100000000E-03 0. -1.
         11    1    4    4    0    0 -0.76518676368E-01  0.32181840817E-01  0.99561551644E-01  0.12962847835E+00  0.51100000000E-03 0.  1.
</event>
<event>
 8    1  0.1123361E+005  0.1043930E+01  0.7957747E-01            NaN
         13   -1    0    0    0    0  0.00000000000E+00  0.00000000000E+00  0.74505805969E-08  0.10566000000E+00  0.10566000000E+00 0.  1.
     999900   -1    0    0    0    0 -0.00000000000E+00 -0.00000000000E+00 -0.74505805969E-08  0.93827000000E+00  0.93827000000E+00 0.  1.
     999902    2    1    2    0    0  0.14399402209E-01 -0.63182965237E-02 -0.17579782150E-01  0.10203437244E+01  0.10200710777E+01 0.  0.
     999903    2    3    3    0    0 -0.10589013944E+00 -0.68350753804E-01 -0.24659888500E-01  0.12996867565E+00  0.19979974253E-01 0.  0.
         14    1    1    2    0    0 -0.14399402209E-01  0.63182965237E-02  0.17579782150E-01  0.23586275573E-01  0.00000000000E+00 0.  1.
     999901    1    3    3    0    0  0.12028954165E+00  0.62032457280E-01  0.70801063503E-02  0.89037504878E+00  0.88000000000E+00 0.  1.
        -11    1    4    4    0    0 -0.61126539877E-01 -0.30729201900E-01 -0.20129740376E-01  0.71317636637E-01  0.51100000000E-03 0. -1.
         11    1    4    4    0    0 -0.44763599567E-01 -0.37621551903E-01 -0.45301481240E-02  0.58651039009E-01  0.51100000000E-03 0.  1.
</event>
<event>
 8    1  0.1123361E+005  0.1043930E+01  0.7957747E-01            NaN
         13   -1    0    0    0    0  0.00000000000E+00  0.00000000000E+00  0.74505805969E-08  0.10566000000E+00  0.10566000000E+00 0.  1.
     999900   -1    0    0    0    0 -0.00000000000E+00 -0.00000000000E+00 -0.74505805969E-08  0.93827000000E+00  0.93827000000E+00 0. -1.
     999902    2    1    2    0    0 -0.13412360827E-01 -0.41475986300E-02 -0.18988116140E-01  0.10203155436E+01  0.10200422373E+01 0.  0.
     999903    2    3    3    0    0  0.63683357898E-01  0.37520227066E-01  0.10214970330E+00  0.12770458194E+00  0.20262301288E-01 0.  0.
         14    1    1    2    0    0  0.13412360827E-01  0.41475986300E-02  0.18988116140E-01  0.23614456417E-01  0.00000000000E+00 0.  1.
     999901    1    3    3    0    0 -0.77095718724E-01 -0.41667825696E-01 -0.12113781943E+00  0.89261096164E+00  0.88000000000E+00 0. -1.
        -11    1    4    4    0    0  0.43246543692E-01  0.16061832147E-01  0.71303029373E-01  0.84927198894E-01  0.51100000000E-03 0. -1.
         11    1    4    4    0    0  0.20436814206E-01  0.21458394919E-01  0.30846673922E-01  0.42777383048E-01  0.51100000000E-03 0.  1.
</event>
<event>
 8    1  0.1123361E+005  0.1043930E+01  0.7957747E-01            NaN
         13   -1    0    0    0    0  0.00000000000E+00  0.00000000000E+00  0.74505805969E-08  0.10566000000E+00  0.10566000000E+00 0.  1.
     999900   -1    0    0    0    0 -0.00000000000E+00 -0.00000000000E+00 -0.74505805969E-08  0.93827000000E+00  0.93827000000E+00 0.  1.
     999902    2    1    2    0    0 -0.12487668539E-01 -0.70517032186E-02 -0.16984798131E-01  0.10217004757E+01  0.10214586190E+01 0.  0.
     999903    2    3    3    0    0  0.82704630417E-02  0.12859092511E+00 -0.12673050504E-01  0.13105553306E+00  0.20271160738E-01 0.  0.
         14    1    1    2    0    0  0.12487668539E-01  0.70517032186E-02  0.16984798131E-01  0.22229524317E-01  0.00000000000E+00 0.  1.
     999901    1    3    3    0    0 -0.20758131580E-01 -0.13564262833E+00 -0.43117476271E-02  0.89064494262E+00  0.88000000000E+00 0.  1.
        -11    1    4    4    0    0  0.13247201571E-01  0.51938222028E-01 -0.40215383616E-02  0.53754080298E-01  0.51100000000E-03 0. -1.
         11    1    4    4    0    0 -0.49767385293E-02  0.76652703082E-01 -0.86515121426E-02  0.77301452765E-01  0.51100000000E-03 0.  1.
</event>
<event>
 8    1  0.1123361E+005  0.1043930E+01  0.7957747E-01            NaN
         13   -1    0    0    0    0  0.00000000000E+00  0.00000000000E+00  0.74505805969E-08  0.10566000000E+00  0.10566000000E+00 0. -1.
     999900   -1    0    0    0    0 -0.00000000000E+00 -0.00000000000E+00 -0.74505805969E-08  0.93827000000E+00  0.93827000000E+00 0.  1.
     999902    2    1    2    0    0  0.13660551056E-01  0.15069706580E-01  0.12692257885E-01  0.10199550105E+01  0.10196731944E+01 0.  0.
     999903    2    3    3    0    0 -0.70144814414E-01  0.23242099543E-01  0.10572664879E+00  0.13105370822E+00  0.23161606062E-01 0.  0.
         14    1    1    2    0    0 -0.13660551056E-01 -0.15069706580E-01 -0.12692257885E-01  0.23974989505E-01  0.00000000000E+00 0.  1.
     999901    1    3    3    0    0  0.83805365470E-01 -0.81723929627E-02 -0.93034390901E-01  0.88890130227E+00  0.88000000000E+00 0.  1.
        -11    1    4    4    0    0 -0.49340350432E-01  0.24037707837E-01  0.63235478398E-01  0.83733317312E-01  0.51100000000E-03 0.  1.
         11    1    4    4    0    0 -0.20804463982E-01 -0.79560829401E-03  0.42491170388E-01  0.47320390912E-01  0.51100000000E-03 0. -1.
</event>
<event>
 8    1  0.1123361E+005  0.1043930E+01  0.7957747E-01            NaN
         13   -1    0    0    0    0  0.00000000000E+00  0.00000000000E+00  0.74505805969E-08  0.10566000000E+00  0.10566000000E+00 0. -1.
     999900   -1    0    0    0    0 -0.00000000000E+00 -0.00000000000E+00 -0.74505805969E-08  0.93827000000E+00  0.93827000000E+00 0. -1.
     999902    2    1    2    0    0  0.79891045230E-02 -0.54444075861E-02 -0.20977013677E-01  0.10208323277E+01  0.10205709866E+01 0.  0.
     999903    2    3    3    0    0 -0.57574986343E-01 -0.10969202530E+00  0.35543037800E-01  0.13046120726E+00  0.20238567097E-01 0.  0.
         14    1    1    2    0    0 -0.79891045230E-02  0.54444075861E-02  0.20977013677E-01  0.23097672347E-01  0.00000000000E+00 0. -1.
     999901    1    3    3    0    0  0.65564090866E-01  0.10424761771E+00 -0.56520051477E-01  0.89037112039E+00  0.88000000000E+00 0. -1.
        -11    1    4    4    0    0 -0.39917450255E-01 -0.73294770431E-01  0.14006065664E-01  0.84628347518E-01  0.51100000000E-03 0.  1.
         11    1    4    4    0    0 -0.17657536088E-01 -0.36397254865E-01  0.21536972136E-01  0.45832859743E-01  0.51100000000E-03 0. -1.
</event>
<event>
 8    1  0.1123361E+005  0.1043930E+01  0.7957747E-01            NaN
         13   -1    0    0    0    0  0.00000000000E+00  0.00000000000E+00  0.74505805969E-08  0.10566000000E+00  0.10566000000E+00 0.  1.
     999900   -1    0    0    0    0 -0.00000000000E+00 -0.00000000000E+00 -0.74505805969E-08  0.93827000000E+00  0.93827000000E+00 0. -1.
     999902    2    1    2    0    0 -0.18164872884E-01 -0.16910907188E-01  0.16459143227E-01  0.10141500607E+01  0.10137127309E+01 0.  0.
     999903    2    3    3    0    0  0.10334748847E+00  0.45356540787E-01 -0.41297330441E-01  0.12174975854E+00  0.19483712119E-01 0.  0.
         14    1    1    2    0    0  0.18164872884E-01  0.16910907188E-01 -0.16459143227E-01  0.29779939298E-01  0.00000000000E+00 0. -1.
     999901    1    3    3    0    0 -0.12151236136E+00 -0.62267447975E-01  0.57756473668E-01  0.89240030216E+00  0.88000000000E+00 0.  1.
        -11    1    4    4    0    0  0.23962253221E-01  0.40590828185E-02 -0.33050723043E-02  0.24532638601E-01  0.51100000000E-03 0. -1.
         11    1    4    4    0    0  0.79385235253E-01  0.41297457968E-01 -0.37992258136E-01  0.97217119944E-01  0.51100000000E-03 0.  1.
</event>
<event>
 8    1  0.1123361E+005  0.1043930E+01  0.7957747E-01            NaN
         13   -1    0    0    0    0  0.00000000000E+00  0.00000000000E+00  0.74505805969E-08  0.10566000000E+00  0.10566000000E+00 0.  1.
     999900   -1    0    0    0    0 -0.00000000000E+00 -0.00000000000E+00 -0.74505805969E-08  0.93827000000E+00  0.93827000000E+00 0. -1.
     999902    2    1    2    0    0  0.32306110959E-01  0.13315609446E-01  0.10003396294E-01  0.10075836357E+01  0.10069278647E+01 0.  0.
     999903    2    3    3    0    0 -0.74141270865E-01 -0.82637569568E-01  0.25623988297E-01  0.11585382205E+00  0.20967197193E-01 0.  0.
         14    1    1    2    0    0 -0.32306110959E-01 -0.13315609446E-01 -0.10003396294E-01  0.36346364297E-01  0.00000000000E+00 0. -1.
     999901    1    3    3    0    0  0.10644738182E+00  0.95953179014E-01 -0.15620592003E-01  0.89172981365E+00  0.88000000000E+00 0.  1.
        -11    1    4    4    0    0 -0.28301818914E-01 -0.45056832982E-01  0.67107994939E-02  0.53632146173E-01  0.51100000000E-03 0. -1.
         11    1    4    4    0    0 -0.45839451951E-01 -0.37580736586E-01  0.18913188803E-01  0.62221675879E-01  0.51100000000E-03 0.  1.
</event>
<event>
 8    1  0.1123361E+005  0.1043930E+01  0.7957747E-01            NaN
         13   -1    0    0    0    0  0.00000000000E+00  0.00000000000E+00  0.74505805969E-08  0.10566000000E+00  0.10566000000E+00 0. -1.
     999900   -1    0    0    0    0 -0.00000000000E+00 -0.00000000000E+00 -0.74505805969E-08  0.93827000000E+00  0.93827000000E+00 0. -1.
     999902    2    1    2    0    0 -0.77672539380E-02 -0.33075150557E-01 -0.93793149519E-02  0.10086841865E+01  0.10080682124E+01 0.  0.
     999903    2    3    3    0    0  0.62140844712E-01  0.93997281582E-01 -0.21669764145E-01  0.11672813357E+00  0.21422067201E-01 0.  0.
         14    1    1    2    0    0  0.77672539380E-02  0.33075150557E-01  0.93793149519E-02  0.35245813469E-01  0.00000000000E+00 0. -1.
     999901    1    3    3    0    0 -0.69908098650E-01 -0.12707243214E+00  0.12290449193E-01  0.89195605296E+00  0.88000000000E+00 0.  1.
        -11    1    4    4    0    0  0.28489401680E-01  0.60404530578E-01 -0.80933995588E-02  0.67276426480E-01  0.51100000000E-03 0. -1.
         11    1    4    4    0    0  0.33651443032E-01  0.33592751004E-01 -0.13576364586E-01  0.49451707094E-01  0.51100000000E-03 0.  1.
</event>
<event>
 8    1  0.1123361E+005  0.1043930E+01  0.7957747E-01            NaN
         13   -1    0    0    0    0  0.00000000000E+00  0.00000000000E+00  0.74505805969E-08  0.10566000000E+00  0.10566000000E+00 0.  1.
     999900   -1    0    0    0    0 -0.00000000000E+00 -0.00000000000E+00 -0.74505805969E-08  0.93827000000E+00  0.93827000000E+00 0.  1.
     999902    2    1    2    0    0 -0.98980445017E-02 -0.19895353800E-01 -0.78344913706E-02  0.10203678345E+01  0.10200957514E+01 0.  0.
     999903    2    3    3    0    0 -0.12466980871E+00  0.59295928715E-02  0.36450358313E-01  0.13143553470E+00  0.19208068242E-01 0.  0.
         14    1    1    2    0    0  0.98980445017E-02  0.19895353800E-01  0.78344913706E-02  0.23562165495E-01  0.00000000000E+00 0.  1.
     999901    1    3    3    0    0  0.11477176420E+00 -0.25824946671E-01 -0.44284849683E-01  0.88893229981E+00  0.88000000000E+00 0.  1.
        -11    1    4    4    0    0 -0.89847819614E-01 -0.43077250908E-02  0.24704928115E-01  0.93283341380E-01  0.51100000000E-03 0. -1.
         11    1    4    4    0    0 -0.34821989092E-01  0.10237317962E-01  0.11745430198E-01  0.38152193318E-01  0.51100000000E-03 0.  1.
</event>
<event>
 7    1  0.1123361E+005  0.1043930E+01  0.7957747E-01            NaN
         13   -1    0    0    0    0  0.00000000000E+00  0.00000000000E+00  0.74505805969E-08  0.10566000000E+00  0.10566000000E+00 0. -1.
     999900   -1    0    0    0    0 -0.00000000000E+00 -0.00000000000E+00 -0.74505805969E-08  0.93827000000E+00  0.93827000000E+00 0.  1.
     999903    2    1    2    0    0 -0.33111947717E-01 -0.43864350244E-01 -0.51390187551E-01  0.77772897736E-01  0.19677142624E-01 0.  0.
         14    1    1    2    0    0  0.33349939942E-02  0.13201433284E-01 -0.74888242607E-01  0.76116022665E-01  0.00000000000E+00 0.  1.
     999901    1    1    2    0    0  0.29776953722E-01  0.30662916961E-01  0.12627843016E+00  0.89004107960E+00  0.88000000000E+00 0. -1.
        -11    1    3    3    0    0 -0.28670796755E-01 -0.32750861749E-01 -0.49026702171E-01  0.65563039730E-01  0.51100000000E-03 0.  1.
         11    1    3    3    0    0 -0.44411509618E-02 -0.11113488495E-01 -0.23634853803E-02  0.12209858006E-01  0.51100000000E-03 0. -1.
</event>
<event>
 8    1  0.1123361E+005  0.1043930E+01  0.7957747E-01            NaN
         13   -1    0    0    0    0  0.00000000000E+00  0.00000000000E+00  0.74505805969E-08  0.10566000000E+00  0.10566000000E+00 0. -1.
     999900   -1    0    0    0    0 -0.00000000000E+00 -0.00000000000E+00 -0.74505805969E-08  0.93827000000E+00  0.93827000000E+00 0. -1.
     999902    2    1    2    0    0  0.22020521842E-01 -0.10835126781E-01 -0.11529212243E-01  0.10168149472E+01  0.10164533490E+01 0.  0.
     999903    2    3    3    0    0 -0.74721679539E-01 -0.69690726665E-01 -0.73567928411E-01  0.12739275414E+00  0.19404817454E-01 0.  0.
         14    1    1    2    0    0 -0.22020521842E-01  0.10835126781E-01  0.11529212243E-01  0.27115052821E-01  0.00000000000E+00 0.  1.
     999901    1    3    3    0    0  0.96742201381E-01  0.58855599884E-01  0.62038716168E-01  0.88942219304E+00  0.88000000000E+00 0.  1.
        -11    1    4    4    0    0 -0.98961061845E-02 -0.19034274046E-02 -0.90012497942E-02  0.13521818382E-01  0.51100000000E-03 0.  1.
         11    1    4    4    0    0 -0.64825573355E-01 -0.67787299261E-01 -0.64566678617E-01  0.11387093576E+00  0.51100000000E-03 0. -1.
</event>
<event>
 8    1  0.1123361E+005  0.1043930E+01  0.7957747E-01            NaN
         13   -1    0    0    0    0  0.00000000000E+00  0.00000000000E+00  0.74505805969E-08  0.10566000000E+00  0.10566000000E+00 0. -1.
     999900   -1    0    0    0    0 -0.00000000000E+00 -0.00000000000E+00 -0.74505805969E-08  0.93827000000E+00  0.93827000000E+00 0. -1.
     999902    2    1    2    0    0  0.18717729270E-01  0.82189267324E-02  0.11367210988E-01  0.10205394542E+01  0.10202713659E+01 0.  0.
     999903    2    3    3    0    0  0.10469744549E+00 -0.66487467884E-01  0.43544270610E-01  0.13261551596E+00  0.17567956406E-01 0.  0.
         14    1    1    2    0    0 -0.18717729270E-01 -0.82189267324E-02 -0.11367210988E-01  0.23390545768E-01  0.00000000000E+00 0.  1.
     999901    1    3    3    0    0 -0.85979716218E-01  0.74706394616E-01 -0.32177059621E-01  0.88792393828E+00  0.88000000000E+00 0. -1.
        -11    1    4    4    0    0  0.69830043060E-01 -0.53759412622E-01  0.29756385820E-01  0.93016197393E-01  0.51100000000E-03 0.  1.
         11    1    4    4    0    0  0.34867402427E-01 -0.12728055262E-01  0.13787884789E-01  0.39599318564E-01  0.51100000000E-03 0. -1.
</event>
<event>
 8    1  0.1123361E+005  0.1043930E+01  0.7957747E-01            NaN
         13   -1    0    0    0    0  0.00000000000E+00  0.00000000000E+00  0.74505805969E-08  0.10566000000E+00  0.10566000000E+00 0. -1.
     999900   -1    0    0    0    0 -0.00000000000E+00 -0.00000000000E+00 -0.74505805969E-08  0.93827000000E+00  0.93827000000E+00 0.  1.
     999902    2    1    2    0    0 -0.21379860137E-01 -0.18076058759E-02 -0.11362009433E-01  0.10196511797E+01  0.10193620883E+01 0.  0.
     999903    2    3    3    0    0 -0.90722250288E-01  0.90431060322E-01 -0.24921515707E-01  0.13201375435E+00  0.19956102416E-01 0.  0.
         14    1    1    2    0    0  0.21379860137E-01  0.18076058759E-02  0.11362009433E-01  0.24278820335E-01  0.00000000000E+00 0. -1.
     999901    1    3    3    0    0  0.69342390150E-01 -0.92238666198E-01  0.13559506274E-01  0.88763742532E+00  0.88000000000E+00 0. -1.
        -11    1    4    4    0    0 -0.33373591464E-01  0.47244973381E-01 -0.11453118450E-01  0.58968798192E-01  0.51100000000E-03 0.  1.
         11    1    4    4    0    0 -0.57348658823E-01  0.43186086941E-01 -0.13468397257E-01  0.73044956156E-01  0.51100000000E-03 0. -1.
</event>
<event>
 8    1  0.1123361E+005  0.1043930E+01  0.7957747E-01            NaN
         13   -1    0    0    0    0  0.00000000000E+00  0.00000000000E+00  0.74505805969E-08  0.10566000000E+00  0.10566000000E+00 0.  1.
     999900   -1    0    0    0    0 -0.00000000000E+00 -0.00000000000E+00 -0.74505805969E-08  0.93827000000E+00  0.93827000000E+00 0. -1.
     999902    2    1    2    0    0  0.53746105429E-02 -0.24807738755E-01  0.15457619571E-02  0.10184997086E+01  0.10181821825E+01 0.  0.
     999903    2    3    3    0    0  0.76790350536E-01 -0.98759409517E-01  0.36373647419E-01  0.13183063892E+00  0.20151829374E-01 0.  0.
         14    1    1    2    0    0 -0.53746105429E-02  0.24807738755E-01 -0.15457619571E-02  0.25430291399E-01  0.00000000000E+00 0.  1.
     999901    1    3    3    0    0 -0.71415739994E-01  0.73951670762E-01 -0.34827885462E-01  0.88666906968E+00  0.88000000000E+00 0.  1.
        -11    1    4    4    0    0  0.29529765221E-01 -0.24643049099E-01  0.66362590643E-02  0.39033164851E-01  0.51100000000E-03 0. -1.
         11    1    4    4    0    0  0.47260585315E-01 -0.74116360418E-01  0.29737388355E-01  0.92797474066E-01  0.51100000000E-03 0.  1.
</event>
<event>
 8    1  0.1433491E+005  0.1043930E+01  0.7957747E-01            NaN
         13   -1    0    0    0    0  0.00000000000E+00  0.00000000000E+00  0.74505805969E-08  0.10566000000E+00  0.10566000000E+00 0. -1.
     999900   -1    0    0    0    0 -0.00000000000E+00 -0.00000000000E+00 -0.74505805969E-08  0.93827000000E+00  0.93827000000E+00 0. -1.
     999902    2    1    2    0    0  0.23860845976E-01  0.37404445817E-02 -0.15254266467E-01  0.10153638742E+01  0.10149619567E+01 0.  0.
     999903    2    3    3    0    0  0.59867008929E-01 -0.10988071613E+00 -0.10515238680E-01  0.12731620078E+00  0.21000338125E-01 0.  0.
         14    1    1    2    0    0 -0.23860845976E-01 -0.37404445817E-02  0.15254266467E-01  0.28566125776E-01  0.00000000000E+00 0. -1.
     999901    1    3    3    0    0 -0.36006162952E-01  0.11362116071E+00 -0.47390277872E-02  0.88804767345E+00  0.88000000000E+00 0. -1.
        -11    1    4    4    0    0  0.43064930152E-01 -0.58303797903E-01 -0.90581644095E-02  0.73049521027E-01  0.51100000000E-03 0.  1.
         11    1    4    4    0    0  0.16802078777E-01 -0.51576918223E-01 -0.14570742704E-02  0.54266679750E-01  0.51100000000E-03 0. -1.
</event>
<event>
 8    1  0.1123361E+005  0.1043930E+01  0.7957747E-01            NaN
         13   -1    0    0    0    0  0.00000000000E+00  0.00000000000E+00  0.74505805969E-08  0.10566000000E+00  0.10566000000E+00 0. -1.
     999900   -1    0    0    0    0 -0.00000000000E+00 -0.00000000000E+00 -0.74505805969E-08  0.93827000000E+00  0.93827000000E+00 0. -1.
     999902    2    1    2    0    0  0.73492380354E-02  0.15864507093E-01 -0.15772232193E-01  0.10203830853E+01  0.10201113584E+01 0.  0.
     999903    2    3    3    0    0 -0.44348936554E-01 -0.10099972432E+00 -0.64960726207E-01  0.12979369740E+00  0.21418110322E-01 0.  0.
         14    1    1    2    0    0 -0.73492380354E-02 -0.15864507093E-01  0.15772232193E-01  0.23546914731E-01  0.00000000000E+00 0. -1.
     999901    1    3    3    0    0  0.51698174589E-01  0.11686423141E+00  0.49188494014E-01  0.89058938787E+00  0.88000000000E+00 0.  1.
        -11    1    4    4    0    0 -0.27454183201E-01 -0.57320618790E-01 -0.25252966572E-01  0.68391219871E-01  0.51100000000E-03 0. -1.
         11    1    4    4    0    0 -0.16894753352E-01 -0.43679105529E-01 -0.39707759635E-01  0.61402477530E-01  0.51100000000E-03 0.  1.
</event>
<event>
 7    1  0.1123361E+005  0.1043930E+01  0.7957747E-01            NaN
         13   -1    0    0    0    0  0.00000000000E+00  0.00000000000E+00  0.74505805969E-08  0.10566000000E+00  0.10566000000E+00 0.  1.
     999900   -1    0    0    0    0 -0.00000000000E+00 -0.00000000000E+00 -0.74505805969E-08  0.93827000000E+00  0.93827000000E+00 0. -1.
     999903    2    1    2    0    0  0.48460206842E-01  0.68460479453E-01  0.77078210120E-01  0.11567606055E+00  0.20116451348E-01 0.  0.
         14    1    1    2    0    0 -0.25991087592E-01 -0.10500854755E-02  0.29096040737E-01  0.39028437072E-01  0.00000000000E+00 0.  1.
     999901    1    1    2    0    0 -0.22469119249E-01 -0.67410393977E-01 -0.10617425086E+00  0.88922550238E+00  0.88000000000E+00 0. -1.
        -11    1    3    3    0    0  0.29336902501E-01  0.56126371382E-01  0.53524669370E-01  0.82921497605E-01  0.51100000000E-03 0. -1.
         11    1    3    3    0    0  0.19123304341E-01  0.12334108071E-01  0.23553540750E-01  0.32754562944E-01  0.51100000000E-03 0.  1.
</event>
<event>
 8    1  0.1123361E+005  0.1043930E+01  0.7957747E-01            NaN
         13   -1    0    0    0    0  0.00000000000E+00  0.00000000000E+00  0.74505805969E-08  0.10566000000E+00  0.10566000000E+00 0. -1.
     999900   -1    0    0    0    0 -0.00000000000E+00 -0.00000000000E+00 -0.74505805969E-08  0.93827000000E+00  0.93827000000E+00 0.  1.
     999902    2    1    2    0    0  0.95541611802E-02  0.16802076827E-01  0.14634372385E-01  0.10196863073E+01  0.10193980619E+01 0.  0.
     999903    2    3    3    0    0  0.12248198796E+00 -0.27723068507E-01  0.32342765915E-01  0.13117701086E+00  0.19772399169E-01 0.  0.
         14    1    1    2    0    0 -0.95541611802E-02 -0.16802076827E-01 -0.14634372385E-01  0.24243692719E-01  0.00000000000E+00 0. -1.
     999901    1    3    3    0    0 -0.11292782678E+00  0.44525145334E-01 -0.17708393530E-01  0.88850929642E+00  0.88000000000E+00 0.  1.
        -11    1    4    4    0    0  0.35346069170E-01 -0.12202238615E-01  0.18038310767E-01  0.41519646065E-01  0.51100000000E-03 0. -1.
         11    1    4    4    0    0  0.87135918789E-01 -0.15520829892E-01  0.14304455148E-01  0.89657364794E-01  0.51100000000E-03 0.  1.
</event>
<event>
 8    1  0.1123361E+005  0.1043930E+01  0.7957747E-01            NaN
         13   -1    0    0    0    0  0.00000000000E+00  0.00000000000E+00  0.74505805969E-08  0.10566000000E+00  0.10566000000E+00 0. -1.
     999900   -1    0    0    0    0 -0.00000000000E+00 -0.00000000000E+00 -0.74505805969E-08  0.93827000000E+00  0.93827000000E+00 0.  1.
     999902    2    1    2    0    0  0.17505856266E-01 -0.11040342003E-01  0.10623094842E-01  0.10206664169E+01  0.10204012643E+01 0.  0.
     999903    2    3    3    0    0 -0.11307291019E+00  0.38082418855E-01 -0.42692383346E-01  0.12808230315E+00  0.18619429097E-01 0.  0.
         14    1    1    2    0    0 -0.17505856266E-01  0.11040342003E-01 -0.10623094842E-01  0.23263583111E-01  0.00000000000E+00 0. -1.
     999901    1    3    3    0    0  0.13057876646E+00 -0.49122760858E-01  0.53315478188E-01  0.89258411374E+00  0.88000000000E+00 0. -1.
        -11    1    4    4    0    0 -0.24791418327E-01  0.11730016997E-01 -0.17608806079E-01  0.32596608626E-01  0.51100000000E-03 0. -1.
         11    1    4    4    0    0 -0.88281491863E-01  0.26352401858E-01 -0.25083577267E-01  0.95485694525E-01  0.51100000000E-03 0.  1.
</event>
<event>
 8    1  0.1123361E+005  0.1043930E+01  0.7957747E-01            NaN
         13   -1    0    0    0    0  0.00000000000E+00  0.00000000000E+00  0.74505805969E-08  0.10566000000E+00  0.10566000000E+00 0.  1.
     999900   -1    0    0    0    0 -0.00000000000E+00 -0.00000000000E+00 -0.74505805969E-08  0.93827000000E+00  0.93827000000E+00 0.  1.
     999902    2    1    2    0    0 -0.11942399441E-01 -0.10240624113E-01  0.17596959242E-01  0.10203260965E+01  0.10200530373E+01 0.  0.
     999903    2    3    3    0    0 -0.26391947626E-01  0.12363138370E+00  0.23311440653E-01  0.13006593270E+00  0.19810846748E-01 0.  0.
         14    1    1    2    0    0  0.11942399441E-01  0.10240624113E-01 -0.17596959242E-01  0.23603903516E-01  0.00000000000E+00 0. -1.
     999901    1    3    3    0    0  0.14449548185E-01 -0.13387200781E+00 -0.57144814107E-02  0.89026016378E+00  0.88000000000E+00 0.  1.
        -11    1    4    4    0    0 -0.11165667383E-01  0.34014215832E-01 -0.15089661609E-02  0.35835416931E-01  0.51100000000E-03 0. -1.
         11    1    4    4    0    0 -0.15226280244E-01  0.89617167870E-01  0.24820406813E-01  0.94230515771E-01  0.51100000000E-03 0.  1.
</event>
<event>
 8    1  0.1123361E+005  0.1043930E+01  0.7957747E-01            NaN
         13   -1    0    0    0    0  0.00000000000E+00  0.00000000000E+00  0.74505805969E-08  0.10566000000E+00  0.10566000000E+00 0.  1.
     999900   -1    0    0    0    0 -0.00000000000E+00 -0.00000000000E+00 -0.74505805969E-08  0.93827000000E+00  0.93827000000E+00 0. -1.
     999902    2    1    2    0    0  0.13582219143E-01 -0.36007808906E-02  0.19837292549E-01  0.10196203214E+01  0.10193304858E+01 0.  0.
     999903    2    3    3    0    0 -0.47726799884E-01  0.11734063232E+00 -0.10778967157E-01  0.12870900333E+00  0.20078595149E-01 0.  0.
         14    1    1    2    0    0 -0.13582219143E-01  0.36007808906E-02 -0.19837292549E-01  0.24309678640E-01  0.00000000000E+00 0.  1.
     999901    1    3    3    0    0  0.61309019027E-01 -0.12094141321E+00  0.30616259707E-01  0.89091131803E+00  0.88000000000E+00 0. -1.
        -11    1    4    4    0    0 -0.21713559748E-01  0.43430921622E-01  0.48813186631E-02  0.48803811560E-01  0.51100000000E-03 0. -1.
         11    1    4    4    0    0 -0.26013240136E-01  0.73909710700E-01 -0.15660285820E-01  0.79905191766E-01  0.51100000000E-03 0.  1.
</event>
<event>
 7    1  0.1724020E+005  0.1043930E+01  0.7957747E-01            NaN
         13   -1    0    0    0    0  0.00000000000E+00  0.00000000000E+00  0.74505805969E-08  0.10566000000E+00  0.10566000000E+00 0. -1.
     999900   -1    0    0    0    0 -0.00000000000E+00 -0.00000000000E+00 -0.74505805969E-08  0.93827000000E+00  0.93827000000E+00 0. -1.
     999903    2    1    2    0    0  0.35333765051E-01 -0.29418941146E-01  0.83698855276E-01  0.97767635885E-01  0.20953834998E-01 0.  0.
         14    1    1    2    0    0 -0.31798126760E-02 -0.56068587987E-01 -0.18113851887E-01  0.59007706257E-01  0.00000000000E+00 0. -1.
     999901    1    1    2    0    0 -0.32153952375E-01  0.85487529133E-01 -0.65585003388E-01  0.88715465786E+00  0.88000000000E+00 0.  1.
        -11    1    3    3    0    0  0.13640277951E-01 -0.22363471587E-01  0.56400291775E-01  0.62188713424E-01  0.51100000000E-03 0. -1.
         11    1    3    3    0    0  0.21693487100E-01 -0.70554695596E-02  0.27298563500E-01  0.35578922460E-01  0.51100000000E-03 0.  1.
</event>
<event>
 8    1  0.1123361E+005  0.1043930E+01  0.7957747E-01            NaN
         13   -1    0    0    0    0  0.00000000000E+00  0.00000000000E+00  0.74505805969E-08  0.10566000000E+00  0.10566000000E+00 0. -1.
     999900   -1    0    0    0    0 -0.00000000000E+00 -0.00000000000E+00 -0.74505805969E-08  0.93827000000E+00  0.93827000000E+00 0.  1.
     999902    2    1    2    0    0 -0.11149318977E-01 -0.11247585443E-01  0.16936865737E-01  0.10207422249E+01  0.10204788174E+01 0.  0.
     999903    2    3    3    0    0  0.94691131347E-01 -0.35410639453E-01  0.81987570706E-01  0.13168786870E+00  0.19985226301E-01 0.  0.
         14    1    1    2    0    0  0.11149318977E-01  0.11247585443E-01 -0.16936865737E-01  0.23187775076E-01  0.00000000000E+00 0.  1.
     999901    1    3    3    0    0 -0.10584045032E+00  0.24163054009E-01 -0.65050704969E-01  0.88905435622E+00  0.88000000000E+00 0.  1.
        -11    1    4    4    0    0  0.40328874661E-01 -0.19101050785E-01  0.24532241771E-01  0.50925045703E-01  0.51100000000E-03 0.  1.
         11    1    4    4    0    0  0.54362256686E-01 -0.16309588668E-01  0.57455328934E-01  0.80762822997E-01  0.51100000000E-03 0. -1.
</event>
<event>
 8    1  0.1123361E+005  0.1043930E+01  0.7957747E-01            NaN
         13   -1    0    0    0    0  0.00000000000E+00  0.00000000000E+00  0.74505805969E-08  0.10566000000E+00  0.10566000000E+00 0.  1.
     999900   -1    0    0    0    0 -0.00000000000E+00 -0.00000000000E+00 -0.74505805969E-08  0.93827000000E+00  0.93827000000E+00 0. -1.
     999902    2    1    2    0    0  0.20603803082E-01  0.62124445246E-02 -0.22253134590E-02  0.10222952320E+01  0.10220662787E+01 0.  0.
     999903    2    3    3    0    0  0.46126810574E-01  0.45775866995E-01 -0.11520962559E+00  0.13382342987E+00  0.20306154241E-01 0.  0.
         14    1    1    2    0    0 -0.20603803082E-01 -0.62124445246E-02  0.22253134590E-02  0.21634768046E-01  0.00000000000E+00 0. -1.
     999901    1    3    3    0    0 -0.25523007492E-01 -0.39563422470E-01  0.11298431213E+00  0.88847180208E+00  0.88000000000E+00 0.  1.
        -11    1    4    4    0    0  0.31846182141E-01  0.29721699900E-01 -0.94114356981E-01  0.10370791712E+00  0.51100000000E-03 0.  1.
         11    1    4    4    0    0  0.14280628433E-01  0.16054167095E-01 -0.21095268612E-01  0.30115512752E-01  0.51100000000E-03 0. -1.
</event>
<event>
 8    1  0.1123361E+005  0.1043930E+01  0.7957747E-01            NaN
         13   -1    0    0    0    0  0.00000000000E+00  0.00000000000E+00  0.74505805969E-08  0.10566000000E+00  0.10566000000E+00 0. -1.
     999900   -1    0    0    0    0 -0.00000000000E+00 -0.00000000000E+00 -0.74505805969E-08  0.93827000000E+00  0.93827000000E+00 0.  1.
     999902    2    1    2    0    0  0.17032450610E-01 -0.14026543233E-01 -0.83518515801E-02  0.10203375920E+01  0.10200648019E+01 0.  0.
     999903    2    3    3    0    0  0.10683692248E+00  0.52398560088E-02 -0.76333674304E-01  0.13294953401E+00  0.20178321615E-01 0.  0.
         14    1    1    2    0    0 -0.17032450610E-01  0.14026543233E-01  0.83518515801E-02  0.23592407967E-01  0.00000000000E+00 0. -1.
     999901    1    3    3    0    0 -0.89804471872E-01 -0.19266399242E-01  0.67981822724E-01  0.88738805803E+00  0.88000000000E+00 0.  1.
        -11    1    4    4    0    0  0.65330345806E-01 -0.47596005497E-02 -0.39027409678E-01  0.76250296443E-01  0.51100000000E-03 0. -1.
         11    1    4    4    0    0  0.41506576676E-01  0.99994565584E-02 -0.37306264626E-01  0.56699237563E-01  0.51100000000E-03 0.  1.
</event>
<event>
 8    1  0.1123361E+005  0.1043930E+01  0.7957747E-01            NaN
         13   -1    0    0    0    0  0.00000000000E+00  0.00000000000E+00  0.74505805969E-08  0.10566000000E+00  0.10566000000E+00 0. -1.
     999900   -1    0    0    0    0 -0.00000000000E+00 -0.00000000000E+00 -0.74505805969E-08  0.93827000000E+00  0.93827000000E+00 0. -1.
     999902    2    1    2    0    0  0.20979606068E-01 -0.60562580083E-02  0.94675662681E-02  0.10201296441E+01  0.10198519666E+01 0.  0.
     999903    2    3    3    0    0 -0.10848285303E+00  0.29646098573E-01 -0.56304200331E-01  0.12751488289E+00  0.21034776460E-01 0.  0.
         14    1    1    2    0    0 -0.20979606068E-01  0.60562580083E-02 -0.94675662681E-02  0.23800355940E-01  0.00000000000E+00 0. -1.
     999901    1    3    3    0    0  0.12946245910E+00 -0.35702356581E-01  0.65771766599E-01  0.89261476117E+00  0.88000000000E+00 0. -1.
        -11    1    4    4    0    0 -0.57779188812E-01  0.96046385727E-02 -0.38764846257E-01  0.70240004045E-01  0.51100000000E-03 0.  1.
         11    1    4    4    0    0 -0.50703664218E-01  0.20041460000E-01 -0.17539354073E-01  0.57274878843E-01  0.51100000000E-03 0. -1.
</event>
<event>
 8    1  0.1123361E+005  0.1043930E+01  0.7957747E-01            NaN
         13   -1    0    0    0    0  0.00000000000E+00  0.00000000000E+00  0.74505805969E-08  0.10566000000E+00  0.10566000000E+00 0.  1.
     999900   -1    0    0    0    0 -0.00000000000E+00 -0.00000000000E+00 -0.74505805969E-08  0.93827000000E+00  0.93827000000E+00 0. -1.
     999902    2    1    2    0    0 -0.10521072482E-01 -0.15473479310E-01 -0.12108666280E-01  0.10216423055E+01  0.10213991673E+01 0.  0.
     999903    2    3    3    0    0 -0.60581504412E-01  0.55653130175E-01  0.99143947158E-01  0.13038354091E+00  0.20073761644E-01 0.  0.
         14    1    1    2    0    0  0.10521072482E-01  0.15473479310E-01  0.12108666280E-01  0.22287694524E-01  0.00000000000E+00 0.  1.
     999901    1    3    3    0    0  0.50060431930E-01 -0.71126609485E-01 -0.11125261344E+00  0.89125876457E+00  0.88000000000E+00 0. -1.
        -11    1    4    4    0    0 -0.32863931740E-01  0.37948280063E-01  0.71790227450E-01  0.87602556170E-01  0.51100000000E-03 0.  1.
         11    1    4    4    0    0 -0.27717572672E-01  0.17704850111E-01  0.27353719709E-01  0.42780984739E-01  0.51100000000E-03 0. -1.
</event>
<event>
 8    1  0.1123361E+005  0.1043930E+01  0.7957747E-01            NaN
         13   -1    0    0    0    0  0.00000000000E+00  0.00000000000E+00  0.74505805969E-08  0.10566000000E+00  0.10566000000E+00 0.  1.
     999900   -1    0    0    0    0 -0.00000000000E+00 -0.00000000000E+00 -0.74505805969E-08  0.93827000000E+00  0.93827000000E+00 0. -1.
     999902    2    1    2    0    0  0.24929454539E-02 -0.31474396594E-02  0.23611458338E-01  0.10199795904E+01  0.10196983587E+01 0.  0.
     999903    2    3    3    0    0  0.40489977789E-01  0.10061456153E+00  0.72013444310E-01  0.13174928269E+00  0.20228915766E-01 0.  0.
         14    1    1    2    0    0 -0.24929454539E-02  0.31474396594E-02 -0.23611458338E-01  0.23950409564E-01  0.00000000000E+00 0. -1.
     999901    1    3    3    0    0 -0.37997032335E-01 -0.10376200119E+00 -0.48401985971E-01  0.88823030775E+00  0.88000000000E+00 0.  1.
        -11    1    4    4    0    0  0.25008972889E-01  0.54602811746E-01  0.28189034829E-01  0.66346051737E-01  0.51100000000E-03 0.  1.
         11    1    4    4    0    0  0.15481004900E-01  0.46011749788E-01  0.43824409481E-01  0.65403230949E-01  0.51100000000E-03 0. -1.
</event>
<event>
 8    1  0.1123361E+005  0.1043930E+01  0.7957747E-01            NaN
         13   -1    0    0    0    0  0.00000000000E+00  0.00000000000E+00  0.74505805969E-08  0.10566000000E+00  0.10566000000E+00 0.  1.
     999900   -1    0    0    0    0 -0.00000000000E+00 -0.00000000000E+00 -0.74505805969E-08  0.93827000000E+00  0.93827000000E+00 0. -1.
     999902    2    1    2    0    0 -0.30748747617E-03 -0.12894614042E-01  0.19607731169E-01  0.10204602590E+01  0.10201903310E+01 0.  0.
     999903    2    3    3    0    0  0.21260949210E-01 -0.55547184170E-01 -0.11305781982E+00  0.12923380766E+00  0.19539416293E-01 0.  0.
         14    1    1    2    0    0  0.30748747617E-03  0.12894614042E-01 -0.19607731169E-01  0.23469740976E-01  0.00000000000E+00 0. -1.
     999901    1    3    3    0    0 -0.21568436687E-01  0.42652570128E-01  0.13266555099E+00  0.89122645137E+00  0.88000000000E+00 0.  1.
        -11    1    4    4    0    0  0.80164919767E-02 -0.93792117409E-02 -0.39473025058E-01  0.41359576699E-01  0.51100000000E-03 0. -1.
         11    1    4    4    0    0  0.13244457234E-01 -0.46167972429E-01 -0.73584794759E-01  0.87874230957E-01  0.51100000000E-03 0.  1.
</event>
<event>
 8    1  0.1123361E+005  0.1043930E+01  0.7957747E-01            NaN
         13   -1    0    0    0    0  0.00000000000E+00  0.00000000000E+00  0.74505805969E-08  0.10566000000E+00  0.10566000000E+00 0. -1.
     999900   -1    0    0    0    0 -0.00000000000E+00 -0.00000000000E+00 -0.74505805969E-08  0.93827000000E+00  0.93827000000E+00 0.  1.
     999902    2    1    2    0    0  0.17808700046E-01  0.79611222748E-02  0.13177028297E-01  0.10203893258E+01  0.10201177446E+01 0.  0.
     999903    2    3    3    0    0  0.58566947068E-01 -0.11267832564E+00 -0.22596541994E-01  0.13050458082E+00  0.19858236215E-01 0.  0.
         14    1    1    2    0    0 -0.17808700046E-01 -0.79611222748E-02 -0.13177028297E-01  0.23540674161E-01  0.00000000000E+00 0. -1.
     999901    1    3    3    0    0 -0.40758247022E-01  0.12063944792E+00  0.35773570291E-01  0.88988474502E+00  0.88000000000E+00 0. -1.
        -11    1    4    4    0    0  0.36047547630E-01 -0.82171631706E-01 -0.88466237232E-02  0.90167214772E-01  0.51100000000E-03 0. -1.
         11    1    4    4    0    0  0.22519399438E-01 -0.30506693935E-01 -0.13749918271E-01  0.40337366044E-01  0.51100000000E-03 0.  1.
</event>
<event>
 8    1  0.1123361E+005  0.1043930E+01  0.7957747E-01            NaN
         13   -1    0    0    0    0  0.00000000000E+00  0.00000000000E+00  0.74505805969E-08  0.10566000000E+00  0.10566000000E+00 0. -1.
     999900   -1    0    0    0    0 -0.00000000000E+00 -0.00000000000E+00 -0.74505805969E-08  0.93827000000E+00  0.93827000000E+00 0.  1.
     999902    2    1    2    0    0 -0.19267261691E-01  0.10728151624E-01 -0.87742295034E-02  0.10201958956E+01  0.10199197800E+01 0.  0.
     999903    2    3    3    0    0 -0.58610840689E-04 -0.12683964859E+00 -0.15222427146E-01  0.12927757653E+00  0.19815893020E-01 0.  0.
         14    1    1    2    0    0  0.19267261691E-01 -0.10728151624E-01  0.87742295034E-02  0.23734104444E-01  0.00000000000E+00 0. -1.
     999901    1    3    3    0    0 -0.19208650851E-01  0.13756780021E+00  0.64481976422E-02  0.89091831903E+00  0.88000000000E+00 0.  1.
        -11    1    4    4    0    0  0.16271935829E-02 -0.78827220118E-01  0.10967199583E-03  0.78845745221E-01  0.51100000000E-03 0.  1.
         11    1    4    4    0    0 -0.16858044236E-02 -0.48012428470E-01 -0.15332099141E-01  0.50431831310E-01  0.51100000000E-03 0. -1.
</event>
<event>
 8    1  0.1123361E+005  0.1043930E+01  0.7957747E-01            NaN
         13   -1    0    0    0    0  0.00000000000E+00  0.00000000000E+00  0.74505805969E-08  0.10566000000E+00  0.10566000000E+00 0.  1.
     999900   -1    0    0    0    0 -0.00000000000E+00 -0.00000000000E+00 -0.74505805969E-08  0.93827000000E+00  0.93827000000E+00 0.  1.
     999902    2    1    2    0    0  0.12685524330E-02  0.20990900613E-01 -0.71327534280E-02  0.10217240705E+01  0.10214827326E+01 0.  0.
     999903    2    3    3    0    0 -0.85316945051E-01 -0.11179977797E-01 -0.98532675272E-01  0.13218151417E+00  0.18954988160E-01 0.  0.
         14    1    1    2    0    0 -0.12685524330E-02 -0.20990900613E-01  0.71327534280E-02  0.22205929507E-01  0.00000000000E+00 0.  1.
     999901    1    3    3    0    0  0.86585497484E-01  0.32170878410E-01  0.91399921844E-01  0.88954255632E+00  0.88000000000E+00 0.  1.
        -11    1    4    4    0    0 -0.58067019255E-01 -0.38381427707E-02 -0.53598888398E-01  0.79117709923E-01  0.51100000000E-03 0. -1.
         11    1    4    4    0    0 -0.27249925797E-01 -0.73418350268E-02 -0.44933786874E-01  0.53063804249E-01  0.51100000000E-03 0.  1.
</event>
<event>
 8    1  0.1123361E+005  0.1043930E+01  0.7957747E-01            NaN
         13   -1    0    0    0    0  0.00000000000E+00  0.00000000000E+00  0.74505805969E-08  0.10566000000E+00  0.10566000000E+00 0. -1.
     999900   -1    0    0    0    0 -0.00000000000E+00 -0.00000000000E+00 -0.74505805969E-08  0.93827000000E+00  0.93827000000E+00 0. -1.
     999902    2    1    2    0    0 -0.48427283429E-02 -0.17921812802E-01  0.14050729437E-01  0.10206476808E+01  0.10203820960E+01 0.  0.
     999903    2    3    3    0    0  0.95426063994E-01  0.76273427286E-01  0.38501213011E-01  0.12962332636E+00  0.19902108773E-01 0.  0.
         14    1    1    2    0    0  0.48427283429E-02  0.17921812802E-01 -0.14050729437E-01  0.23282319250E-01  0.00000000000E+00 0. -1.
     999901    1    3    3    0    0 -0.10026879234E+00 -0.94195240089E-01 -0.24450483574E-01  0.89102435439E+00  0.88000000000E+00 0.  1.
        -11    1    4    4    0    0  0.93283027903E-02  0.15981507691E-01  0.35100709548E-02  0.18841643774E-01  0.51100000000E-03 0. -1.
         11    1    4    4    0    0  0.86097761204E-01  0.60291919596E-01  0.34991142056E-01  0.11078168258E+00  0.51100000000E-03 0.  1.
</event>
<event>
 8    1  0.1123361E+005  0.1043930E+01  0.7957747E-01            NaN
         13   -1    0    0    0    0  0.00000000000E+00  0.00000000000E+00  0.74505805969E-08  0.10566000000E+00  0.10566000000E+00 0. -1.
     999900   -1    0    0    0    0 -0.00000000000E+00 -0.00000000000E+00 -0.74505805969E-08  0.93827000000E+00  0.93827000000E+00 0. -1.
     999902    2    1    2    0    0 -0.14102816287E-01  0.12095834040E-01  0.13919004307E-01  0.10207149766E+01  0.10204509426E+01 0.  0.
     999903    2    3    3    0    0 -0.66195823225E-01 -0.34703057511E-01 -0.10469781906E+00  0.12999966387E+00  0.18764063496E-01 0.  0.
         14    1    1    2    0    0  0.14102816287E-01 -0.12095834040E-01 -0.13919004307E-01  0.23215023353E-01  0.00000000000E+00 0. -1.
     999901    1    3    3    0    0  0.52093006938E-01  0.46798891552E-01  0.11861682337E+00  0.89071531277E+00  0.88000000000E+00 0.  1.
        -11    1    4    4    0    0 -0.33561537192E-01 -0.71345019120E-02 -0.48168862203E-01  0.59142018085E-01  0.51100000000E-03 0. -1.
         11    1    4    4    0    0 -0.32634286033E-01 -0.27568555599E-01 -0.56528956855E-01  0.70857645790E-01  0.51100000000E-03 0.  1.
</event>
<event>
 8    1  0.1123361E+005  0.1043930E+01  0.7957747E-01            NaN
         13   -1    0    0    0    0  0.00000000000E+00  0.00000000000E+00  0.74505805969E-08  0.10566000000E+00  0.10566000000E+00 0.  1.
     999900   -1    0    0    0    0 -0.00000000000E+00 -0.00000000000E+00 -0.74505805969E-08  0.93827000000E+00  0.93827000000E+00 0.  1.
     999902    2    1    2    0    0 -0.94684603314E-02 -0.59913415392E-02 -0.17841627767E-01  0.10228617396E+01  0.10226447412E+01 0.  0.
     999903    2    3    3    0    0 -0.89105841642E-01  0.85968607396E-01  0.43062346553E-01  0.13240790094E+00  0.18628850446E-01 0.  0.
         14    1    1    2    0    0  0.94684603314E-02  0.59913415392E-02  0.17841627767E-01  0.21068260390E-01  0.00000000000E+00 0.  1.
     999901    1    3    3    0    0  0.79637381311E-01 -0.91959948935E-01 -0.60903974320E-01  0.89045383867E+00  0.88000000000E+00 0.  1.
        -11    1    4    4    0    0 -0.32149650794E-01  0.43049814827E-01  0.21816753844E-01  0.57992400124E-01  0.51100000000E-03 0.  1.
         11    1    4    4    0    0 -0.56956190848E-01  0.42918792568E-01  0.21245592709E-01  0.74415500818E-01  0.51100000000E-03 0. -1.
</event>
<event>
 8    1  0.1123361E+005  0.1043930E+01  0.7957747E-01            NaN
         13   -1    0    0    0    0  0.00000000000E+00  0.00000000000E+00  0.74505805969E-08  0.10566000000E+00  0.10566000000E+00 0. -1.
     999900   -1    0    0    0    0 -0.00000000000E+00 -0.00000000000E+00 -0.74505805969E-08  0.93827000000E+00  0.93827000000E+00 0. -1.
     999902    2    1    2    0    0  0.14641101559E-01  0.63403345410E-02  0.14676165794E-01  0.10222516343E+01  0.10220217475E+01 0.  0.
     999903    2    3    3    0    0  0.44568171633E-01 -0.10554164893E+00 -0.60644791902E-01  0.13147306787E+00  0.21954844735E-01 0.  0.
         14    1    1    2    0    0 -0.14641101559E-01 -0.63403345410E-02 -0.14676165794E-01  0.21678365698E-01  0.00000000000E+00 0.  1.
     999901    1    3    3    0    0 -0.29927070074E-01  0.11188198348E+00  0.75320957695E-01  0.89077856643E+00  0.88000000000E+00 0.  1.
        -11    1    4    4    0    0  0.22594287536E-01 -0.78832511992E-01 -0.44439977127E-01  0.93275074185E-01  0.51100000000E-03 0.  1.
         11    1    4    4    0    0  0.21973884096E-01 -0.26709136943E-01 -0.16204814775E-01  0.38197993683E-01  0.51100000000E-03 0. -1.
</event>
<event>
 8    1  0.1460985E+005  0.1043930E+01  0.7957747E-01            NaN
         13   -1    0    0    0    0  0.00000000000E+00  0.00000000000E+00  0.74505805969E-08  0.10566000000E+00  0.10566000000E+00 0.  1.
     999900   -1    0    0    0    0 -0.00000000000E+00 -0.00000000000E+00 -0.74505805969E-08  0.93827000000E+00  0.93827000000E+00 0. -1.
     999902    2    1    2    0    0  0.87612176579E-02 -0.20634851016E-01 -0.72150123351E-02  0.10203797895E+01  0.10201079857E+01 0.  0.
     999903    2    3    3    0    0  0.11038545247E+00 -0.63666904881E-01  0.30905973143E-01  0.13266786985E+00  0.20178246234E-01 0.  0.
         14    1    1    2    0    0 -0.87612176579E-02  0.20634851016E-01  0.72150123351E-02  0.23550210494E-01  0.00000000000E+00 0. -1.
     999901    1    3    3    0    0 -0.10162423481E+00  0.43032053865E-01 -0.38120985478E-01  0.88771191965E+00  0.88000000000E+00 0. -1.
        -11    1    4    4    0    0  0.66373255385E-01 -0.34364966132E-01  0.27639570786E-01  0.79690444357E-01  0.51100000000E-03 0. -1.
         11    1    4    4    0    0  0.44012197086E-01 -0.29301938749E-01  0.32664023572E-02  0.52977425496E-01  0.51100000000E-03 0.  1.
</event>
<event>
 8    1  0.1123361E+005  0.1043930E+01  0.7957747E-01            NaN
         13   -1    0    0    0    0  0.00000000000E+00  0.00000000000E+00  0.74505805969E-08  0.10566000000E+00  0.10566000000E+00 0. -1.
     999900   -1    0    0    0    0 -0.00000000000E+00 -0.00000000000E+00 -0.74505805969E-08  0.93827000000E+00  0.93827000000E+00 0. -1.
     999902    2    1    2    0    0 -0.20465174496E-02 -0.22074549083E-01  0.73450386503E-02  0.10205756954E+01  0.10203084467E+01 0.  0.
     999903    2    3    3    0    0  0.84172589773E-02  0.82037922853E-01  0.98166084748E-01  0.12973487917E+00  0.19836522996E-01 0.  0.
         14    1    1    2    0    0  0.20465174496E-02  0.22074549083E-01 -0.73450386503E-02  0.23354304606E-01  0.00000000000E+00 0.  1.
     999901    1    3    3    0    0 -0.10463776427E-01 -0.10411247194E+00 -0.90821046098E-01  0.89084081622E+00  0.88000000000E+00 0. -1.
        -11    1    4    4    0    0  0.80072402657E-02  0.33545145565E-01  0.27927810979E-01  0.44380360912E-01  0.51100000000E-03 0.  1.
         11    1    4    4    0    0  0.41001871164E-03  0.48492777288E-01  0.70238273769E-01  0.85354518261E-01  0.51100000000E-03 0. -1.
</event>
<event>
 8    1  0.1123361E+005  0.1043930E+01  0.7957747E-01            NaN
         13   -1    0    0    0    0  0.00000000000E+00  0.00000000000E+00  0.74505805969E-08  0.10566000000E+00  0.10566000000E+00 0.  1.
     999900   -1    0    0    0    0 -0.00000000000E+00 -0.00000000000E+00 -0.74505805969E-08  0.93827000000E+00  0.93827000000E+00 0.  1.
     999902    2    1    2    0    0 -0.42869765552E-02 -0.66356982543E-02 -0.22245446877E-01  0.10203234211E+01  0.10200502993E+01 0.  0.
     999903    2    3    3    0    0  0.49820646267E-01  0.38508266713E-01  0.10937526967E+00  0.12774870412E+00  0.19793897789E-01 0.  0.
         14    1    1    2    0    0  0.42869765552E-02  0.66356982543E-02  0.22245446877E-01  0.23606578873E-01  0.00000000000E+00 0.  1.
     999901    1    3    3    0    0 -0.54107622822E-01 -0.45143964968E-01 -0.13162071654E+00  0.89257471701E+00  0.88000000000E+00 0.  1.
        -11    1    4    4    0    0  0.13845685305E-02  0.82909039307E-02  0.93984861109E-02  0.12619381133E-01  0.51100000000E-03 0. -1.
         11    1    4    4    0    0  0.48436077737E-01  0.30217362783E-01  0.99976783555E-01  0.11512932298E+00  0.51100000000E-03 0.  1.
</event>
<event>
 8    1  0.1123361E+005  0.1043930E+01  0.7957747E-01            NaN
         13   -1    0    0    0    0  0.00000000000E+00  0.00000000000E+00  0.74505805969E-08  0.10566000000E+00  0.10566000000E+00 0. -1.
     999900   -1    0    0    0    0 -0.00000000000E+00 -0.00000000000E+00 -0.74505805969E-08  0.93827000000E+00  0.93827000000E+00 0. -1.
     999902    2    1    2    0    0  0.61383264195E-02  0.21771232057E-01 -0.72880444856E-02  0.10201648745E+01  0.10198880282E+01 0.  0.
     999903    2    3    3    0    0 -0.12159353910E+00  0.10275876124E-01 -0.41058489294E-01  0.13022778932E+00  0.19567707776E-01 0.  0.
         14    1    1    2    0    0 -0.61383264195E-02 -0.21771232057E-01  0.72880444856E-02  0.23765125477E-01  0.00000000000E+00 0.  1.
     999901    1    3    3    0    0  0.12773186552E+00  0.11495355933E-01  0.33770444808E-01  0.88993708520E+00  0.88000000000E+00 0. -1.
        -11    1    4    4    0    0 -0.69819374271E-01  0.15468605955E-01 -0.25299771462E-01  0.75857513476E-01  0.51100000000E-03 0.  1.
         11    1    4    4    0    0 -0.51774164828E-01 -0.51927298305E-02 -0.15758717832E-01  0.54370275845E-01  0.51100000000E-03 0. -1.
</event>
<event>
 8    1  0.1123361E+005  0.1043930E+01  0.7957747E-01            NaN
         13   -1    0    0    0    0  0.00000000000E+00  0.00000000000E+00  0.74505805969E-08  0.10566000000E+00  0.10566000000E+00 0. -1.
     999900   -1    0    0    0    0 -0.00000000000E+00 -0.00000000000E+00 -0.74505805969E-08  0.93827000000E+00  0.93827000000E+00 0.  1.
     999902    2    1    2    0    0  0.87447177688E-02  0.18369244392E-01 -0.12652490455E-01  0.10199720213E+01  0.10196906097E+01 0.  0.
     999903    2    3    3    0    0  0.13185456414E-01  0.11009710844E+00 -0.70986267578E-01  0.13327221260E+00  0.20668887723E-01 0.  0.
         14    1    1    2    0    0 -0.87447177688E-02 -0.18369244392E-01  0.12652490455E-01  0.23957978694E-01  0.00000000000E+00 0. -1.
     999901    1    3    3    0    0 -0.44407386455E-02 -0.91727864047E-01  0.58333777123E-01  0.88669980870E+00  0.88000000000E+00 0. -1.
        -11    1    4    4    0    0  0.46162841500E-02  0.60264098771E-01 -0.50310888523E-01  0.78641708431E-01  0.51100000000E-03 0.  1.
         11    1    4    4    0    0  0.85691722643E-02  0.49833009668E-01 -0.20675379055E-01  0.54630504171E-01  0.51100000000E-03 0. -1.
</event>
<event>
 8    1  0.1123361E+005  0.1043930E+01  0.7957747E-01            NaN
         13   -1    0    0    0    0  0.00000000000E+00  0.00000000000E+00  0.74505805969E-08  0.10566000000E+00  0.10566000000E+00 0. -1.
     999900   -1    0    0    0    0 -0.00000000000E+00 -0.00000000000E+00 -0.74505805969E-08  0.93827000000E+00  0.93827000000E+00 0.  1.
     999902    2    1    2    0    0 -0.40354084810E-02 -0.26063438293E-01  0.87190393109E-03  0.10175416019E+01  0.10171993728E+01 0.  0.
     999903    2    3    3    0    0  0.96591658648E-01  0.76239965443E-01 -0.17353849265E-01  0.12573222142E+00  0.19103784109E-01 0.  0.
         14    1    1    2    0    0  0.40354084810E-02  0.26063438293E-01 -0.87190393109E-03  0.26388398089E-01  0.00000000000E+00 0.  1.
     999901    1    3    3    0    0 -0.10062706713E+00 -0.10230340374E+00  0.18225753196E-01  0.89180938049E+00  0.88000000000E+00 0. -1.
        -11    1    4    4    0    0  0.69300262992E-01  0.62388307810E-01 -0.18653913548E-01  0.95094989425E-01  0.51100000000E-03 0.  1.
         11    1    4    4    0    0  0.27291395656E-01  0.13851657633E-01  0.13000642833E-02  0.30637231993E-01  0.51100000000E-03 0. -1.
</event>
<event>
 8    1  0.1123361E+005  0.1043930E+01  0.7957747E-01            NaN
         13   -1    0    0    0    0  0.00000000000E+00  0.00000000000E+00  0.74505805969E-08  0.10566000000E+00  0.10566000000E+00 0.  1.
     999900   -1    0    0    0    0 -0.00000000000E+00 -0.00000000000E+00 -0.74505805969E-08  0.93827000000E+00  0.93827000000E+00 0. -1.
     999902    2    1    2    0    0  0.13401178840E-01  0.24989106155E-01 -0.36636627912E-03  0.10155719104E+01  0.10151759079E+01 0.  0.
     999903    2    3    3    0    0 -0.11765077131E-02 -0.11121506096E+00 -0.49624845015E-01  0.12361312111E+00  0.21151938750E-01 0.  0.
         14    1    1    2    0    0 -0.13401178840E-01 -0.24989106155E-01  0.36636627912E-03  0.28358089587E-01  0.00000000000E+00 0.  1.
     999901    1    3    3    0    0  0.14577686553E-01  0.13620416712E+00  0.49258478736E-01  0.89195878930E+00  0.88000000000E+00 0. -1.
        -11    1    4    4    0    0 -0.62610811886E-02 -0.23316302557E-01 -0.41013870136E-02  0.24493541986E-01  0.51100000000E-03 0.  1.
         11    1    4    4    0    0  0.50845734755E-02 -0.87898758405E-01 -0.45523458001E-01  0.99119579126E-01  0.51100000000E-03 0. -1.
</event>
<event>
 8    1  0.1123361E+005  0.1043930E+01  0.7957747E-01            NaN
         13   -1    0    0    0    0  0.00000000000E+00  0.00000000000E+00  0.74505805969E-08  0.10566000000E+00  0.10566000000E+00 0.  1.
     999900   -1    0    0    0    0 -0.00000000000E+00 -0.00000000000E+00 -0.74505805969E-08  0.93827000000E+00  0.93827000000E+00 0.  1.
     999902    2    1    2    0    0 -0.51835861112E-02  0.19766793090E-01  0.97489307723E-02  0.10212885044E+01  0.10210374977E+01 0.  0.
     999903    2    3    3    0    0  0.44826432616E-02  0.12695654726E+00 -0.35976505230E-01  0.13355324264E+00  0.20102256317E-01 0.  0.
         14    1    1    2    0    0  0.51835861112E-02 -0.19766793090E-01 -0.97489307723E-02  0.22641495649E-01  0.00000000000E+00 0. -1.
     999901    1    3    3    0    0 -0.96662293727E-02 -0.10718975417E+00  0.45725436002E-01  0.88773526171E+00  0.88000000000E+00 0. -1.
        -11    1    4    4    0    0  0.10479655602E-01  0.82157107169E-01 -0.17116469952E-01  0.84574512145E-01  0.51100000000E-03 0. -1.
         11    1    4    4    0    0 -0.59970123407E-02  0.44799440087E-01 -0.18860035278E-01  0.48978730494E-01  0.51100000000E-03 0.  1.
</event>
<event>
 8    1  0.1123361E+005  0.1043930E+01  0.7957747E-01            NaN
         13   -1    0    0    0    0  0.00000000000E+00  0.00000000000E+00  0.74505805969E-08  0.10566000000E+00  0.10566000000E+00 0. -1.
     999900   -1    0    0    0    0 -0.00000000000E+00 -0.00000000000E+00 -0.74505805969E-08  0.93827000000E+00  0.93827000000E+00 0.  1.
     999902    2    1    2    0    0 -0.13457784374E-01 -0.14007275957E-02 -0.22644984327E-01  0.10175506650E+01  0.10172086741E+01 0.  0.
     999903    2    3    3    0    0 -0.72812739494E-01 -0.55082849199E-01 -0.92141900481E-01  0.13119035329E+00  0.19620490930E-01 0.  0.
         14    1    1    2    0    0  0.13457784374E-01  0.14007275957E-02  0.22644984327E-01  0.26379334965E-01  0.00000000000E+00 0. -1.
     999901    1    3    3    0    0  0.59354955120E-01  0.53682121604E-01  0.69496916154E-01  0.88636031174E+00  0.88000000000E+00 0. -1.
        -11    1    4    4    0    0 -0.21071188803E-01 -0.19729909585E-01 -0.41826049517E-01  0.50822670818E-01  0.51100000000E-03 0.  1.
         11    1    4    4    0    0 -0.51741550690E-01 -0.35352939614E-01 -0.50315850963E-01  0.80367682475E-01  0.51100000000E-03 0. -1.
</event>
<event>
 8    1  0.1123361E+005  0.1043930E+01  0.7957747E-01            NaN
         13   -1    0    0    0    0  0.00000000000E+00  0.00000000000E+00  0.74505805969E-08  0.10566000000E+00  0.10566000000E+00 0. -1.
     999900   -1    0    0    0    0 -0.00000000000E+00 -0.00000000000E+00 -0.74505805969E-08  0.93827000000E+00  0.93827000000E+00 0. -1.
     999902    2    1    2    0    0  0.15932502620E-01 -0.81613854784E-02 -0.15317620159E-01  0.10203698145E+01  0.10200977777E+01 0.  0.
     999903    2    3    3    0    0 -0.17954000448E-01  0.12606196586E+00 -0.12925675667E-01  0.12954439698E+00  0.20017800263E-01 0.  0.
         14    1    1    2    0    0 -0.15932502620E-01  0.81613854784E-02  0.15317620159E-01  0.23560185483E-01  0.00000000000E+00 0. -1.
     999901    1    3    3    0    0  0.33886503068E-01 -0.13422335134E+00 -0.23919444926E-02  0.89082541754E+00  0.88000000000E+00 0.  1.
        -11    1    4    4    0    0 -0.71511030704E-02  0.11270709972E-01  0.10599114555E-02  0.13399690731E-01  0.51100000000E-03 0. -1.
         11    1    4    4    0    0 -0.10802897378E-01  0.11479125589E+00 -0.13985587122E-01  0.11614470625E+00  0.51100000000E-03 0.  1.
</event>
<event>
 8    1  0.1123361E+005  0.1043930E+01  0.7957747E-01            NaN
         13   -1    0    0    0    0  0.00000000000E+00  0.00000000000E+00  0.74505805969E-08  0.10566000000E+00  0.10566000000E+00 0.  1.
     999900   -1    0    0    0    0 -0.00000000000E+00 -0.00000000000E+00 -0.74505805969E-08  0.93827000000E+00  0.93827000000E+00 0.  1.
     999902    2    1    2    0    0  0.78476276672E-02 -0.83773224012E-02  0.20801649350E-01  0.10201713509E+01  0.10198946572E+01 0.  0.
     999903    2    3    3    0    0  0.10189934764E+00  0.73472242951E-02 -0.77277530062E-01  0.12960270514E+00  0.19687198242E-01 0.  0.
         14    1    1    2    0    0 -0.78476276672E-02  0.83773224012E-02 -0.20801649350E-01  0.23758649084E-01  0.00000000000E+00 0. -1.
     999901    1    3    3    0    0 -0.94051719970E-01 -0.15724546696E-01  0.98079179411E-01  0.89056864577E+00  0.88000000000E+00 0. -1.
        -11    1    4    4    0    0  0.57935892930E-01  0.32538870835E-02 -0.55779972639E-01  0.80491129569E-01  0.51100000000E-03 0.  1.
         11    1    4    4    0    0  0.43963454707E-01  0.40933372116E-02 -0.21497557422E-01  0.49111575575E-01  0.51100000000E-03 0. -1.
</event>
<event>
 8    1  0.1123361E+005  0.1043930E+01  0.7957747E-01            NaN
         13   -1    0    0    0    0  0.00000000000E+00  0.00000000000E+00  0.74505805969E-08  0.10566000000E+00  0.10566000000E+00 0.  1.
     999900   -1    0    0    0    0 -0.00000000000E+00 -0.00000000000E+00 -0.74505805969E-08  0.93827000000E+00  0.93827000000E+00 0.  1.
     999902    2    1    2    0    0  0.22901939465E-01  0.51258424297E-02  0.25505466008E-02  0.10203232556E+01  0.10200501299E+01 0.  0.
     999903    2    3    3    0    0  0.48682678019E-01 -0.10350506901E+00 -0.60730730903E-01  0.13101462445E+00  0.19831986657E-01 0.  0.
         14    1    1    2    0    0 -0.22901939465E-01 -0.51258424297E-02 -0.25505466008E-02  0.23606744372E-01  0.00000000000E+00 0. -1.
     999901    1    3    3    0    0 -0.25780738554E-01  0.10863091144E+00  0.63281277503E-01  0.88930863118E+00  0.88000000000E+00 0.  1.
        -11    1    4    4    0    0  0.13967298000E-01 -0.22897506153E-01 -0.23552481950E-01  0.35698203435E-01  0.51100000000E-03 0. -1.
         11    1    4    4    0    0  0.34715380019E-01 -0.80607562856E-01 -0.37178248952E-01  0.95316421018E-01  0.51100000000E-03 0.  1.
</event>
<event>
 8    1  0.1123361E+005  0.1043930E+01  0.7957747E-01            NaN
         13   -1    0    0    0    0  0.00000000000E+00  0.00000000000E+00  0.74505805969E-08  0.10566000000E+00  0.10566000000E+00 0. -1.
     999900   -1    0    0    0    0 -0.00000000000E+00 -0.00000000000E+00 -0.74505805969E-08  0.93827000000E+00  0.93827000000E+00 0.  1.
     999902    2    1    2    0    0  0.54780554578E-02 -0.23843584847E-01 -0.85607446890E-02  0.10180106640E+01  0.10176806474E+01 0.  0.
     999903    2    3    3    0    0  0.12545942826E-01 -0.11871673647E+00  0.50275073943E-01  0.13092976379E+00  0.19077625273E-01 0.  0.
         14    1    1    2    0    0 -0.54780554578E-02  0.23843584847E-01  0.85607446890E-02  0.25919336017E-01  0.00000000000E+00 0. -1.
     999901    1    3    3    0    0 -0.70678873681E-02  0.94873151626E-01 -0.58835818632E-01  0.88708090019E+00  0.88000000000E+00 0.  1.
        -11    1    4    4    0    0  0.97223584898E-02 -0.22110207548E-01  0.12035560391E-01  0.26990764482E-01  0.51100000000E-03 0. -1.
         11    1    4    4    0    0  0.28235843361E-02 -0.96606528926E-01  0.38239513552E-01  0.10393899931E+00  0.51100000000E-03 0.  1.
</event>
<event>
 8    1  0.1123361E+005  0.1043930E+01  0.7957747E-01            NaN
         13   -1    0    0    0    0  0.00000000000E+00  0.00000000000E+00  0.74505805969E-08  0.10566000000E+00  0.10566000000E+00 0. -1.
     999900   -1    0    0    0    0 -0.00000000000E+00 -0.00000000000E+00 -0.74505805969E-08  0.93827000000E+00  0.93827000000E+00 0. -1.
     999902    2    1    2    0    0 -0.21953972978E-01  0.67605426313E-02 -0.20944662519E-02  0.10208633866E+01  0.10206027559E+01 0.  0.
     999903    2    3    3    0    0 -0.11815786618E+00 -0.17867487197E-01  0.55145449490E-01  0.13342993167E+00  0.21954444356E-01 0.  0.
         14    1    1    2    0    0  0.21953972978E-01 -0.67605426313E-02  0.20944662519E-02  0.23066613429E-01  0.00000000000E+00 0. -1.
     999901    1    3    3    0    0  0.96203893203E-01  0.24628029828E-01 -0.57239915742E-01  0.88743345490E+00  0.88000000000E+00 0.  1.
        -11    1    4    4    0    0 -0.23363290235E-01  0.43902099816E-02  0.68956438578E-02  0.24757388786E-01  0.51100000000E-03 0.  1.
         11    1    4    4    0    0 -0.94794575947E-01 -0.22257697178E-01  0.48249805633E-01  0.10867254289E+00  0.51100000000E-03 0. -1.
</event>
<event>
 8    1  0.1123361E+005  0.1043930E+01  0.7957747E-01            NaN
         13   -1    0    0    0    0  0.00000000000E+00  0.00000000000E+00  0.74505805969E-08  0.10566000000E+00  0.10566000000E+00 0. -1.
     999900   -1    0    0    0    0 -0.00000000000E+00 -0.00000000000E+00 -0.74505805969E-08  0.93827000000E+00  0.93827000000E+00 0.  1.
     999902    2    1    2    0    0  0.15773014815E-01 -0.13645107045E-01 -0.27645824571E-02  0.10228914673E+01  0.10226750872E+01 0.  0.
     999903    2    3    3    0    0 -0.54813944473E-01  0.93984718671E-01  0.69929946931E-01  0.13056238404E+00  0.17850568496E-01 0.  0.
         14    1    1    2    0    0 -0.15773014815E-01  0.13645107045E-01  0.27645824571E-02  0.21038532715E-01  0.00000000000E+00 0.  1.
     999901    1    3    3    0    0  0.70586959287E-01 -0.10762982572E+00 -0.72694529388E-01  0.89232908325E+00  0.88000000000E+00 0.  1.
        -11    1    4    4    0    0 -0.42363386155E-01  0.82664396254E-01  0.54330882536E-01  0.10761117420E+00  0.51100000000E-03 0. -1.
         11    1    4    4    0    0 -0.12450558318E-01  0.11320322418E-01  0.15599064395E-01  0.22951209839E-01  0.51100000000E-03 0.  1.
</event>
<event>
 8    1  0.1123361E+005  0.1043930E+01  0.7957747E-01            NaN
         13   -1    0    0    0    0  0.00000000000E+00  0.00000000000E+00  0.74505805969E-08  0.10566000000E+00  0.10566000000E+00 0.  1.
     999900   -1    0    0    0    0 -0.00000000000E+00 -0.00000000000E+00 -0.74505805969E-08  0.93827000000E+00  0.93827000000E+00 0.  1.
     999902    2    1    2    0    0 -0.12472349593E-01 -0.12122440296E-01  0.14605358622E-01  0.10212181184E+01  0.10209655312E+01 0.  0.
     999903    2    3    3    0    0  0.54238519458E-01  0.72007855303E-01  0.93231974711E-01  0.13121228058E+00  0.19937734266E-01 0.  0.
         14    1    1    2    0    0  0.12472349593E-01  0.12122440296E-01 -0.14605358622E-01  0.22711881551E-01  0.00000000000E+00 0. -1.
     999901    1    3    3    0    0 -0.66710869050E-01 -0.84130295600E-01 -0.78626616089E-01  0.89000583787E+00  0.88000000000E+00 0.  1.
        -11    1    4    4    0    0  0.30234585992E-01  0.51148367292E-01  0.70045180475E-01  0.91852458299E-01  0.51100000000E-03 0. -1.
         11    1    4    4    0    0  0.24003933466E-01  0.20859488012E-01  0.23186794236E-01  0.39359822280E-01  0.51100000000E-03 0.  1.
</event>
<event>
 8    1  0.1123361E+005  0.1043930E+01  0.7957747E-01            NaN
         13   -1    0    0    0    0  0.00000000000E+00  0.00000000000E+00  0.74505805969E-08  0.10566000000E+00  0.10566000000E+00 0. -1.
     999900   -1    0    0    0    0 -0.00000000000E+00 -0.00000000000E+00 -0.74505805969E-08  0.93827000000E+00  0.93827000000E+00 0.  1.
     999902    2    1    2    0    0  0.12332734321E-02 -0.70714024339E-02 -0.15047416083E-01  0.10272581547E+01  0.10271228582E+01 0.  0.
     999903    2    3    3    0    0  0.77012262296E-01 -0.84707461991E-01 -0.75293113771E-01  0.13855159062E+00  0.20524317832E-01 0.  0.
         14    1    1    2    0    0 -0.12332734321E-02  0.70714024339E-02  0.15047416083E-01  0.16671845325E-01  0.00000000000E+00 0. -1.
     999901    1    3    3    0    0 -0.75778988864E-01  0.77636059557E-01  0.60245697687E-01  0.88870656405E+00  0.88000000000E+00 0. -1.
        -11    1    4    4    0    0  0.51436169658E-01 -0.61908501200E-01 -0.62757279855E-01  0.10206409440E+00  0.51100000000E-03 0.  1.
         11    1    4    4    0    0  0.25576092638E-01 -0.22798960791E-01 -0.12535833915E-01  0.36487496224E-01  0.51100000000E-03 0. -1.
</event>
<event>
 8    1  0.1123361E+005  0.1043930E+01  0.7957747E-01            NaN
         13   -1    0    0    0    0  0.00000000000E+00  0.00000000000E+00  0.74505805969E-08  0.10566000000E+00  0.10566000000E+00 0. -1.
     999900   -1    0    0    0    0 -0.00000000000E+00 -0.00000000000E+00 -0.74505805969E-08  0.93827000000E+00  0.93827000000E+00 0.  1.
     999902    2    1    2    0    0 -0.18051982723E-01  0.33633472566E-02  0.15046213726E-01  0.10201902710E+01  0.10199140230E+01 0.  0.
     999903    2    3    3    0    0 -0.60895670389E-01 -0.64624286974E-02  0.11641895992E+00  0.13328071468E+00  0.21455279510E-01 0.  0.
         14    1    1    2    0    0  0.18051982723E-01 -0.33633472566E-02 -0.15046213726E-01  0.23739728989E-01  0.00000000000E+00 0.  1.
     999901    1    3    3    0    0  0.42843687666E-01  0.98257759540E-02 -0.10137274619E+00  0.88690955633E+00  0.88000000000E+00 0.  1.
        -11    1    4    4    0    0 -0.29890841226E-01  0.71386503964E-02  0.49122295070E-01  0.57945523664E-01  0.51100000000E-03 0.  1.
         11    1    4    4    0    0 -0.31004829162E-01 -0.13601079094E-01  0.67296664850E-01  0.75335191013E-01  0.51100000000E-03 0. -1.
</event>
<event>
 8    1  0.1123361E+005  0.1043930E+01  0.7957747E-01            NaN
         13   -1    0    0    0    0  0.00000000000E+00  0.00000000000E+00  0.74505805969E-08  0.10566000000E+00  0.10566000000E+00 0.  1.
     999900   -1    0    0    0    0 -0.00000000000E+00 -0.00000000000E+00 -0.74505805969E-08  0.93827000000E+00  0.93827000000E+00 0. -1.
     999902    2    1    2    0    0  0.30045210067E-03 -0.18967797211E-01 -0.72354593489E-02  0.10236268112E+01  0.10234254390E+01 0.  0.
     999903    2    3    3    0    0 -0.49731852099E-01  0.61284635616E-02  0.12087475129E+00  0.13259074022E+00  0.21419236981E-01 0.  0.
         14    1    1    2    0    0 -0.30045210067E-03  0.18967797211E-01  0.72354593489E-02  0.20303188776E-01  0.00000000000E+00 0.  1.
     999901    1    3    3    0    0  0.50032304200E-01 -0.25096260772E-01 -0.12811021064E+00  0.89103607101E+00  0.88000000000E+00 0. -1.
        -11    1    4    4    0    0 -0.15388623383E-01 -0.54536294932E-02  0.55332528053E-01  0.57693167585E-01  0.51100000000E-03 0.  1.
         11    1    4    4    0    0 -0.34343228716E-01  0.11582093055E-01  0.65542223236E-01  0.74897572631E-01  0.51100000000E-03 0. -1.
</event>
<event>
 8    1  0.1123361E+005  0.1043930E+01  0.7957747E-01            NaN
         13   -1    0    0    0    0  0.00000000000E+00  0.00000000000E+00  0.74505805969E-08  0.10566000000E+00  0.10566000000E+00 0. -1.
     999900   -1    0    0    0    0 -0.00000000000E+00 -0.00000000000E+00 -0.74505805969E-08  0.93827000000E+00  0.93827000000E+00 0.  1.
     999902    2    1    2    0    0  0.15577009632E-01 -0.13196554595E-01  0.11685819883E-01  0.10204065932E+01  0.10201354149E+01 0.  0.
     999903    2    3    3    0    0  0.72745900496E-02  0.83302605638E-01 -0.95888028295E-01  0.12858085296E+00  0.18608546743E-01 0.  0.
         14    1    1    2    0    0 -0.15577009632E-01  0.13196554595E-01 -0.11685819883E-01  0.23523406824E-01  0.00000000000E+00 0.  1.
     999901    1    3    3    0    0  0.83024195826E-02 -0.96499160233E-01  0.10757384818E+00  0.89182574021E+00  0.88000000000E+00 0. -1.
        -11    1    4    4    0    0  0.65041850423E-02  0.13049077385E-01 -0.23813996857E-01  0.27927592287E-01  0.51100000000E-03 0. -1.
         11    1    4    4    0    0  0.77040500724E-03  0.70253528253E-01 -0.72074031438E-01  0.10065326068E+00  0.51100000000E-03 0.  1.
</event>
<event>
 8    1  0.1123361E+005  0.1043930E+01  0.7957747E-01            NaN
         13   -1    0    0    0    0  0.00000000000E+00  0.00000000000E+00  0.74505805969E-08  0.10566000000E+00  0.10566000000E+00 0.  1.
     999900   -1    0    0    0    0 -0.00000000000E+00 -0.00000000000E+00 -0.74505805969E-08  0.93827000000E+00  0.93827000000E+00 0. -1.
     999902    2    1    2    0    0 -0.14964301541E-01 -0.18130631862E-01 -0.15975268757E-02  0.10203672704E+01  0.10200951742E+01 0.  0.
     999903    2    3    3    0    0  0.33670905082E-01  0.11805390946E+00  0.19211468930E-01  0.12832207712E+00  0.32047145724E-01 0.  0.
         14    1    1    2    0    0  0.14964301541E-01  0.18130631862E-01  0.15975268757E-02  0.23562729563E-01  0.00000000000E+00 0.  1.
     999901    1    3    3    0    0 -0.48635206623E-01 -0.13618454132E+00 -0.20808995805E-01  0.89204519332E+00  0.88000000000E+00 0.  1.
        -11    1    4    4    0    0  0.32343630320E-01  0.66193735685E-01  0.20336983064E-01  0.76430197352E-01  0.51100000000E-03 0.  1.
         11    1    4    4    0    0  0.13272747622E-02  0.51860173777E-01 -0.11255141349E-02  0.51891879765E-01  0.51100000000E-03 0. -1.
</event>
<event>
 8    1  0.1123361E+005  0.1043930E+01  0.7957747E-01            NaN
         13   -1    0    0    0    0  0.00000000000E+00  0.00000000000E+00  0.74505805969E-08  0.10566000000E+00  0.10566000000E+00 0.  1.
     999900   -1    0    0    0    0 -0.00000000000E+00 -0.00000000000E+00 -0.74505805969E-08  0.93827000000E+00  0.93827000000E+00 0.  1.
     999902    2    1    2    0    0 -0.58854866170E-02  0.30532450220E-02  0.22980747660E-01  0.10200118893E+01  0.10197314246E+01 0.  0.
     999903    2    3    3    0    0 -0.50682715201E-01 -0.92627285257E-01  0.75816389185E-01  0.13211935040E+00  0.23639929929E-01 0.  0.
         14    1    1    2    0    0  0.58854866170E-02 -0.30532450220E-02 -0.22980747660E-01  0.23918110730E-01  0.00000000000E+00 0. -1.
     999901    1    3    3    0    0  0.44797228584E-01  0.95680530279E-01 -0.52835641524E-01  0.88789253887E+00  0.88000000000E+00 0.  1.
        -11    1    4    4    0    0 -0.44467992305E-01 -0.86401570313E-01  0.60558628144E-01  0.11449996618E+00  0.51100000000E-03 0. -1.
         11    1    4    4    0    0 -0.62147228966E-02 -0.62257149445E-02  0.15257761041E-01  0.17619384219E-01  0.51100000000E-03 0.  1.
</event>
<event>
 8    1  0.1123361E+005  0.1043930E+01  0.7957747E-01            NaN
         13   -1    0    0    0    0  0.00000000000E+00  0.00000000000E+00  0.74505805969E-08  0.10566000000E+00  0.10566000000E+00 0.  1.
     999900   -1    0    0    0    0 -0.00000000000E+00 -0.00000000000E+00 -0.74505805969E-08  0.93827000000E+00  0.93827000000E+00 0.  1.
     999902    2    1    2    0    0 -0.26338764056E-02  0.20432368328E-01  0.12456373518E-01  0.10198555276E+01  0.10195713398E+01 0.  0.
     999903    2    3    3    0    0  0.12437916059E+00  0.18297078007E-01 -0.25234754122E-01  0.12993559179E+00  0.21012057199E-01 0.  0.
         14    1    1    2    0    0  0.26338764056E-02 -0.20432368328E-01 -0.12456373518E-01  0.24074472406E-01  0.00000000000E+00 0.  1.
     999901    1    3    3    0    0 -0.12701303699E+00  0.21352903217E-02  0.37691127640E-01  0.88991993580E+00  0.88000000000E+00 0.  1.
        -11    1    4    4    0    0  0.11750716059E+00  0.21590169722E-01 -0.21353124845E-01  0.12136838666E+00  0.51100000000E-03 0. -1.
         11    1    4    4    0    0  0.68719999958E-02 -0.32930917150E-02 -0.38816292775E-02  0.85672051355E-02  0.51100000000E-03 0.  1.
</event>
<event>
 8    1  0.1123361E+005  0.1043930E+01  0.7957747E-01            NaN
         13   -1    0    0    0    0  0.00000000000E+00  0.00000000000E+00  0.74505805969E-08  0.10566000000E+00  0.10566000000E+00 0.  1.
     999900   -1    0    0    0    0 -0.00000000000E+00 -0.00000000000E+00 -0.74505805969E-08  0.93827000000E+00  0.93827000000E+00 0. -1.
     999902    2    1    2    0    0 -0.79985248079E-02  0.15213786257E-01 -0.17750722332E-01  0.10192212195E+01  0.10189216704E+01 0.  0.
     999903    2    3    3    0    0 -0.74318673668E-01  0.35762676384E-01 -0.10181661331E+00  0.13249257268E+00  0.19632238589E-01 0.  0.
         14    1    1    2    0    0  0.79985248079E-02 -0.15213786257E-01  0.17750722332E-01  0.24708780518E-01  0.00000000000E+00 0. -1.
     999901    1    3    3    0    0  0.66320148860E-01 -0.20548890126E-01  0.84065890978E-01  0.88672864680E+00  0.88000000000E+00 0.  1.
        -11    1    4    4    0    0 -0.25816650740E-01  0.17309392073E-01 -0.25524822717E-01  0.40223030780E-01  0.51100000000E-03 0. -1.
         11    1    4    4    0    0 -0.48502022928E-01  0.18453284311E-01 -0.76291790592E-01  0.92269541902E-01  0.51100000000E-03 0.  1.
</event>
<event>
 8    1  0.1123361E+005  0.1043930E+01  0.7957747E-01            NaN
         13   -1    0    0    0    0  0.00000000000E+00  0.00000000000E+00  0.74505805969E-08  0.10566000000E+00  0.10566000000E+00 0.  1.
     999900   -1    0    0    0    0 -0.00000000000E+00 -0.00000000000E+00 -0.74505805969E-08  0.93827000000E+00  0.93827000000E+00 0. -1.
     999902    2    1    2    0    0 -0.34795907192E-02  0.16607790267E-02 -0.23793768281E-01  0.10198258687E+01  0.10195409718E+01 0.  0.
     999903    2    3    3    0    0 -0.13575081043E-01  0.12854360679E+00 -0.56741291448E-02  0.13048370041E+00  0.16913268734E-01 0.  0.
         14    1    1    2    0    0  0.34795907192E-02 -0.16607790267E-02  0.23793768281E-01  0.24104131338E-01  0.00000000000E+00 0.  1.
     999901    1    3    3    0    0  0.10095490324E-01 -0.12688282776E+00 -0.18119639136E-01  0.88934216825E+00  0.88000000000E+00 0. -1.
        -11    1    4    4    0    0 -0.33870241343E-02  0.75888306487E-01 -0.10252690181E-01  0.76654326498E-01  0.51100000000E-03 0. -1.
         11    1    4    4    0    0 -0.10188056909E-01  0.52655300304E-01  0.45785610366E-02  0.53829373913E-01  0.51100000000E-03 0.  1.
</event>
<event>
 8    1  0.1123361E+005  0.1043930E+01  0.7957747E-01            NaN
         13   -1    0    0    0    0  0.00000000000E+00  0.00000000000E+00  0.74505805969E-08  0.10566000000E+00  0.10566000000E+00 0.  1.
     999900   -1    0    0    0    0 -0.00000000000E+00 -0.00000000000E+00 -0.74505805969E-08  0.93827000000E+00  0.93827000000E+00 0. -1.
     999902    2    1    2    0    0 -0.43118338557E-02 -0.14114816768E-01  0.18912049825E-01  0.10199407192E+01  0.10196585630E+01 0.  0.
     999903    2    3    3    0    0 -0.65372863173E-02  0.60715194424E-01 -0.11011233572E+00  0.12738720527E+00  0.19331390050E-01 0.  0.
         14    1    1    2    0    0  0.43118338557E-02  0.14114816768E-01 -0.18912049825E-01  0.23989280777E-01  0.00000000000E+00 0. -1.
     999901    1    3    3    0    0  0.22254524616E-02 -0.74830011192E-01  0.12902438555E+00  0.89255351396E+00  0.88000000000E+00 0. -1.
        -11    1    4    4    0    0  0.42496636914E-02  0.39076562390E-01 -0.59786091742E-01  0.71551906029E-01  0.51100000000E-03 0.  1.
         11    1    4    4    0    0 -0.10786950009E-01  0.21638632034E-01 -0.50326243978E-01  0.55835299236E-01  0.51100000000E-03 0. -1.
</event>
<event>
 8    1  0.1153989E+005  0.1043930E+01  0.7957747E-01            NaN
         13   -1    0    0    0    0  0.00000000000E+00  0.00000000000E+00  0.74505805969E-08  0.10566000000E+00  0.10566000000E+00 0. -1.
     999900   -1    0    0    0    0 -0.00000000000E+00 -0.00000000000E+00 -0.74505805969E-08  0.93827000000E+00  0.93827000000E+00 0. -1.
     999902    2    1    2    0    0 -0.22259399362E-01 -0.96555073226E-03 -0.44162741436E-02  0.10212162019E+01  0.10209635715E+01 0.  0.
     999903    2    3    3    0    0  0.56183286770E-01 -0.11281414893E+00  0.25851332569E-01  0.13016093313E+00  0.19747992505E-01 0.  0.
         14    1    1    2    0    0  0.22259399362E-01  0.96555073226E-03  0.44162741436E-02  0.22713798130E-01  0.00000000000E+00 0.  1.
     999901    1    3    3    0    0 -0.78442686133E-01  0.11184859820E+00 -0.30267606713E-01  0.89105526874E+00  0.88000000000E+00 0. -1.
        -11    1    4    4    0    0  0.31340896800E-01 -0.42086924417E-01  0.13496961268E-01  0.54184777416E-01  0.51100000000E-03 0.  1.
         11    1    4    4    0    0  0.24842389971E-01 -0.70727224510E-01  0.12354371301E-01  0.75976155718E-01  0.51100000000E-03 0. -1.
</event>
<event>
 8    1  0.1123361E+005  0.1043930E+01  0.7957747E-01            NaN
         13   -1    0    0    0    0  0.00000000000E+00  0.00000000000E+00  0.74505805969E-08  0.10566000000E+00  0.10566000000E+00 0. -1.
     999900   -1    0    0    0    0 -0.00000000000E+00 -0.00000000000E+00 -0.74505805969E-08  0.93827000000E+00  0.93827000000E+00 0. -1.
     999902    2    1    2    0    0  0.20770990843E-01  0.99311166378E-03  0.10658485751E-01  0.10205628511E+01  0.10202953049E+01 0.  0.
     999903    2    3    3    0    0  0.11268899228E+00  0.50769039290E-02  0.68110552203E-01  0.13390263638E+00  0.23796738696E-01 0.  0.
         14    1    1    2    0    0 -0.20770990843E-01 -0.99311166378E-03 -0.10658485751E-01  0.23367148947E-01  0.00000000000E+00 0.  1.
     999901    1    3    3    0    0 -0.91918001439E-01 -0.40837922652E-02 -0.57452066453E-01  0.88666021467E+00  0.88000000000E+00 0.  1.
        -11    1    4    4    0    0  0.58762973009E-01  0.21225801558E-02  0.21659521758E-01  0.62665687160E-01  0.51100000000E-03 0. -1.
         11    1    4    4    0    0  0.53926019273E-01  0.29543237732E-02  0.46451030445E-01  0.71236949219E-01  0.51100000000E-03 0.  1.
</event>
<event>
 8    1  0.1123361E+005  0.1043930E+01  0.7957747E-01            NaN
         13   -1    0    0    0    0  0.00000000000E+00  0.00000000000E+00  0.74505805969E-08  0.10566000000E+00  0.10566000000E+00 0.  1.
     999900   -1    0    0    0    0 -0.00000000000E+00 -0.00000000000E+00 -0.74505805969E-08  0.93827000000E+00  0.93827000000E+00 0.  1.
     999902    2    1    2    0    0  0.16549246683E-01  0.16024461924E-01  0.80179067502E-02  0.10195384487E+01  0.10192466339E+01 0.  0.
     999903    2    3    3    0    0  0.24101350112E-01 -0.11550601139E+00  0.47833455763E-01  0.12884064495E+00  0.19732170577E-01 0.  0.
         14    1    1    2    0    0 -0.16549246683E-01 -0.16024461924E-01 -0.80179067502E-02  0.24391551291E-01  0.00000000000E+00 0. -1.
     999901    1    3    3    0    0 -0.75521034288E-02  0.13153047332E+00 -0.39815549013E-01  0.89069780376E+00  0.88000000000E+00 0.  1.
        -11    1    4    4    0    0  0.14513531353E-01 -0.76889791139E-01  0.21587190587E-01  0.81172350540E-01  0.51100000000E-03 0. -1.
         11    1    4    4    0    0  0.95878187586E-02 -0.38616220255E-01  0.26246265176E-01  0.47668294411E-01  0.51100000000E-03 0.  1.
</event>
<event>
 8    1  0.1123361E+005  0.1043930E+01  0.7957747E-01            NaN
         13   -1    0    0    0    0  0.00000000000E+00  0.00000000000E+00  0.74505805969E-08  0.10566000000E+00  0.10566000000E+00 0.  1.
     999900   -1    0    0    0    0 -0.00000000000E+00 -0.00000000000E+00 -0.74505805969E-08  0.93827000000E+00  0.93827000000E+00 0. -1.
     999902    2    1    2    0    0  0.39897588371E-02  0.21660767615E-02  0.22510209917E-01  0.10209665592E+01  0.10207082812E+01 0.  0.
     999903    2    3    3    0    0  0.10607515026E+00  0.59064507536E-01  0.50000766035E-01  0.13281421343E+00  0.19974612208E-01 0.  0.
         14    1    1    2    0    0 -0.39897588371E-02 -0.21660767615E-02 -0.22510209917E-01  0.22963440827E-01  0.00000000000E+00 0. -1.
     999901    1    3    3    0    0 -0.10208539142E+00 -0.56898430775E-01 -0.27490556119E-01  0.88815234574E+00  0.88000000000E+00 0.  1.
        -11    1    4    4    0    0  0.54834779686E-01  0.41812159219E-01  0.29034577836E-01  0.74822306520E-01  0.51100000000E-03 0. -1.
         11    1    4    4    0    0  0.51240370573E-01  0.17252348317E-01  0.20966188199E-01  0.57991906914E-01  0.51100000000E-03 0.  1.
</event>
<event>
 8    1  0.1123361E+005  0.1043930E+01  0.7957747E-01            NaN
         13   -1    0    0    0    0  0.00000000000E+00  0.00000000000E+00  0.74505805969E-08  0.10566000000E+00  0.10566000000E+00 0. -1.
     999900   -1    0    0    0    0 -0.00000000000E+00 -0.00000000000E+00 -0.74505805969E-08  0.93827000000E+00  0.93827000000E+00 0.  1.
     999902    2    1    2    0    0  0.19555154950E-01 -0.82736315523E-02  0.91574156776E-02  0.10208060876E+01  0.10205441456E+01 0.  0.
     999903    2    3    3    0    0 -0.11308788554E+00  0.53101347625E-01 -0.13137351471E-01  0.12847312230E+00  0.26909666937E-01 0.  0.
         14    1    1    2    0    0 -0.19555154950E-01  0.82736315523E-02 -0.91574156776E-02  0.23123912430E-01  0.00000000000E+00 0. -1.
     999901    1    3    3    0    0  0.13264304049E+00 -0.61374979178E-01  0.22294767149E-01  0.89233296527E+00  0.88000000000E+00 0. -1.
        -11    1    4    4    0    0 -0.61248553368E-01  0.18310025428E-01  0.29595450951E-02  0.63997362047E-01  0.51100000000E-03 0. -1.
         11    1    4    4    0    0 -0.51839332174E-01  0.34791322198E-01 -0.16096896566E-01  0.64475760256E-01  0.51100000000E-03 0.  1.
</event>
<event>
 8    1  0.1123361E+005  0.1043930E+01  0.7957747E-01            NaN
         13   -1    0    0    0    0  0.00000000000E+00  0.00000000000E+00  0.74505805969E-08  0.10566000000E+00  0.10566000000E+00 0.  1.
     999900   -1    0    0    0    0 -0.00000000000E+00 -0.00000000000E+00 -0.74505805969E-08  0.93827000000E+00  0.93827000000E+00 0.  1.
     999902    2    1    2    0    0  0.77247912401E-02 -0.16450468028E-01  0.26407505933E-01  0.10118730715E+01  0.10113651497E+01 0.  0.
     999903    2    3    3    0    0 -0.21896430010E-01  0.90450275383E-01  0.78725671912E-01  0.12336737300E+00  0.19001877272E-01 0.  0.
         14    1    1    2    0    0 -0.77247912401E-02  0.16450468028E-01 -0.26407505933E-01  0.32056928544E-01  0.00000000000E+00 0. -1.
     999901    1    3    3    0    0  0.29621221250E-01 -0.10690074341E+00 -0.52318165979E-01  0.88850569845E+00  0.88000000000E+00 0.  1.
        -11    1    4    4    0    0 -0.91437352906E-02  0.10314006618E-01  0.10143201611E-01  0.17121106492E-01  0.51100000000E-03 0.  1.
         11    1    4    4    0    0 -0.12752694719E-01  0.80136268765E-01  0.68582470302E-01  0.10624626651E+00  0.51100000000E-03 0. -1.
</event>
<event>
 8    1  0.1123361E+005  0.1043930E+01  0.7957747E-01            NaN
         13   -1    0    0    0    0  0.00000000000E+00  0.00000000000E+00  0.74505805969E-08  0.10566000000E+00  0.10566000000E+00 0.  1.
     999900   -1    0    0    0    0 -0.00000000000E+00 -0.00000000000E+00 -0.74505805969E-08  0.93827000000E+00  0.93827000000E+00 0.  1.
     999902    2    1    2    0    0  0.93549206571E-02  0.18306538180E-01  0.12673826697E-01  0.10197790215E+01  0.10194930029E+01 0.  0.
     999903    2    3    3    0    0  0.90461766351E-01  0.76224313051E-01  0.57437753236E-01  0.13302279895E+00  0.20062215044E-01 0.  0.
         14    1    1    2    0    0 -0.93549206571E-02 -0.18306538180E-01 -0.12673826697E-01  0.24150978527E-01  0.00000000000E+00 0. -1.
     999901    1    3    3    0    0 -0.81106845694E-01 -0.57917774870E-01 -0.44763926538E-01  0.88675622252E+00  0.88000000000E+00 0.  1.
        -11    1    4    4    0    0  0.59020517217E-01  0.40926999551E-01  0.26653223716E-01  0.76610026761E-01  0.51100000000E-03 0. -1.
         11    1    4    4    0    0  0.31441249134E-01  0.35297313499E-01  0.30784529519E-01  0.56412772189E-01  0.51100000000E-03 0.  1.
</event>
<event>
 8    1  0.1123361E+005  0.1043930E+01  0.7957747E-01            NaN
         13   -1    0    0    0    0  0.00000000000E+00  0.00000000000E+00  0.74505805969E-08  0.10566000000E+00  0.10566000000E+00 0.  1.
     999900   -1    0    0    0    0 -0.00000000000E+00 -0.00000000000E+00 -0.74505805969E-08  0.93827000000E+00  0.93827000000E+00 0. -1.
     999902    2    1    2    0    0  0.12245636306E-01  0.17830987671E-01  0.13203306620E-01  0.10185878013E+01  0.10182724988E+01 0.  0.
     999903    2    3    3    0    0 -0.44479089986E-01  0.11141641329E+00  0.48540292897E-01  0.13110561608E+00  0.20988471526E-01 0.  0.
         14    1    1    2    0    0 -0.12245636306E-01 -0.17830987671E-01 -0.13203306620E-01  0.25342198712E-01  0.00000000000E+00 0. -1.
     999901    1    3    3    0    0  0.56724726292E-01 -0.93585425619E-01 -0.35336986277E-01  0.88748218521E+00  0.88000000000E+00 0.  1.
        -11    1    4    4    0    0 -0.19652409034E-01  0.60391199598E-01  0.35948624064E-01  0.72978619217E-01  0.51100000000E-03 0. -1.
         11    1    4    4    0    0 -0.24826680953E-01  0.51025213692E-01  0.12591668834E-01  0.58126996864E-01  0.51100000000E-03 0.  1.
</event>
<event>
 8    1  0.1123361E+005  0.1043930E+01  0.7957747E-01            NaN
         13   -1    0    0    0    0  0.00000000000E+00  0.00000000000E+00  0.74505805969E-08  0.10566000000E+00  0.10566000000E+00 0. -1.
     999900   -1    0    0    0    0 -0.00000000000E+00 -0.00000000000E+00 -0.74505805969E-08  0.93827000000E+00  0.93827000000E+00 0. -1.
     999902    2    1    2    0    0 -0.24216694348E-01  0.17452955711E-01 -0.32693619969E-03  0.10140776829E+01  0.10136381929E+01 0.  0.
     999903    2    3    3    0    0 -0.81980917903E-01  0.70392172502E-01  0.66251437912E-01  0.12809125745E+00  0.18498334003E-01 0.  0.
         14    1    1    2    0    0  0.24216694348E-01 -0.17452955711E-01  0.32693619969E-03  0.29852317087E-01  0.00000000000E+00 0. -1.
     999901    1    3    3    0    0  0.57764223555E-01 -0.52939216790E-01 -0.66578374112E-01  0.88598642546E+00  0.88000000000E+00 0.  1.
        -11    1    4    4    0    0 -0.30795544805E-01  0.31712537316E-01  0.36691078916E-01  0.57450387257E-01  0.51100000000E-03 0. -1.
         11    1    4    4    0    0 -0.51185373098E-01  0.38679635186E-01  0.29560358996E-01  0.70640870198E-01  0.51100000000E-03 0.  1.
</event>
<event>
 8    1  0.1123361E+005  0.1043930E+01  0.7957747E-01            NaN
         13   -1    0    0    0    0  0.00000000000E+00  0.00000000000E+00  0.74505805969E-08  0.10566000000E+00  0.10566000000E+00 0. -1.
     999900   -1    0    0    0    0 -0.00000000000E+00 -0.00000000000E+00 -0.74505805969E-08  0.93827000000E+00  0.93827000000E+00 0. -1.
     999902    2    1    2    0    0 -0.17600381416E-01 -0.46966872682E-02  0.15557560685E-01  0.10199744163E+01  0.10196930616E+01 0.  0.
     999903    2    3    3    0    0 -0.14838203677E-01 -0.76807927540E-01  0.10504586974E+00  0.13249719512E+00  0.20031024590E-01 0.  0.
         14    1    1    2    0    0  0.17600381416E-01  0.46966872682E-02 -0.15557560685E-01  0.23955583728E-01  0.00000000000E+00 0.  1.
     999901    1    3    3    0    0 -0.27621777384E-02  0.72111240271E-01 -0.89488309051E-01  0.88747722115E+00  0.88000000000E+00 0. -1.
        -11    1    4    4    0    0 -0.13744206261E-01 -0.47057496157E-01  0.78798262564E-01  0.92804840685E-01  0.51100000000E-03 0. -1.
         11    1    4    4    0    0 -0.10939974162E-02 -0.29750431383E-01  0.26247607171E-01  0.39692354440E-01  0.51100000000E-03 0.  1.
</event>
<event>
 8    1  0.1123361E+005  0.1043930E+01  0.7957747E-01            NaN
         13   -1    0    0    0    0  0.00000000000E+00  0.00000000000E+00  0.74505805969E-08  0.10566000000E+00  0.10566000000E+00 0. -1.
     999900   -1    0    0    0    0 -0.00000000000E+00 -0.00000000000E+00 -0.74505805969E-08  0.93827000000E+00  0.93827000000E+00 0.  1.
     999902    2    1    2    0    0  0.36103256613E-02  0.22742265894E-01 -0.74481349597E-04  0.10209028279E+01  0.10206430979E+01 0.  0.
     999903    2    3    3    0    0  0.13304815924E-01  0.71815201737E-01 -0.10861782614E+00  0.13282411858E+00  0.22582581679E-01 0.  0.
         14    1    1    2    0    0 -0.36103256613E-02 -0.22742265894E-01  0.74481349597E-04  0.23027172142E-01  0.00000000000E+00 0. -1.
     999901    1    3    3    0    0 -0.96944902626E-02 -0.49072935843E-01  0.10854334479E+00  0.88807870928E+00  0.88000000000E+00 0. -1.
        -11    1    4    4    0    0  0.11034922643E-01  0.60562344244E-01 -0.73506538360E-01  0.95880338760E-01  0.51100000000E-03 0. -1.
         11    1    4    4    0    0  0.22698932812E-02  0.11252857493E-01 -0.35111287775E-01  0.36943779821E-01  0.51100000000E-03 0.  1.
</event>
<event>
 8    1  0.1123361E+005  0.1043930E+01  0.7957747E-01            NaN
         13   -1    0    0    0    0  0.00000000000E+00  0.00000000000E+00  0.74505805969E-08  0.10566000000E+00  0.10566000000E+00 0. -1.
     999900   -1    0    0    0    0 -0.00000000000E+00 -0.00000000000E+00 -0.74505805969E-08  0.93827000000E+00  0.93827000000E+00 0.  1.
     999902    2    1    2    0    0  0.40258958184E-02  0.21972454551E-03  0.23280052556E-01  0.10203033844E+01  0.10200297934E+01 0.  0.
     999903    2    3    3    0    0 -0.64768128588E-01 -0.96663541422E-01  0.58228860351E-01  0.13162998876E+00  0.19927444436E-01 0.  0.
         14    1    1    2    0    0 -0.40258958184E-02 -0.21972454551E-03 -0.23280052556E-01  0.23626615564E-01  0.00000000000E+00 0.  1.
     999901    1    3    3    0    0  0.68794024407E-01  0.96883265967E-01 -0.34948807795E-01  0.88867339568E+00  0.88000000000E+00 0.  1.
        -11    1    4    4    0    0 -0.16792256357E-01 -0.41082420893E-01  0.17895918646E-01  0.47856767601E-01  0.51100000000E-03 0.  1.
         11    1    4    4    0    0 -0.47975872231E-01 -0.55581120528E-01  0.40332941705E-01  0.83773221158E-01  0.51100000000E-03 0. -1.
</event>
<event>
 8    1  0.1123361E+005  0.1043930E+01  0.7957747E-01            NaN
         13   -1    0    0    0    0  0.00000000000E+00  0.00000000000E+00  0.74505805969E-08  0.10566000000E+00  0.10566000000E+00 0. -1.
     999900   -1    0    0    0    0 -0.00000000000E+00 -0.00000000000E+00 -0.74505805969E-08  0.93827000000E+00  0.93827000000E+00 0. -1.
     999902    2    1    2    0    0  0.43915911425E-02 -0.15833286963E-02  0.24562003814E-01  0.10189282994E+01  0.10186215167E+01 0.  0.
     999903    2    3    3    0    0 -0.50949697447E-01  0.11166475107E+00 -0.31629303688E-01  0.12817286222E+00  0.19052072251E-01 0.  0.
         14    1    1    2    0    0 -0.43915911425E-02  0.15833286963E-02 -0.24562003814E-01  0.25001700620E-01  0.00000000000E+00 0.  1.
     999901    1    3    3    0    0  0.55341288589E-01 -0.11324807976E+00  0.56191307502E-01  0.89075543716E+00  0.88000000000E+00 0.  1.
        -11    1    4    4    0    0 -0.39599725541E-01  0.64441454419E-01 -0.19143553284E-01  0.78022920119E-01  0.51100000000E-03 0. -1.
         11    1    4    4    0    0 -0.11349971906E-01  0.47223296648E-01 -0.12485750403E-01  0.50149942100E-01  0.51100000000E-03 0.  1.
</event>
<event>
 8    1  0.1123361E+005  0.1043930E+01  0.7957747E-01            NaN
         13   -1    0    0    0    0  0.00000000000E+00  0.00000000000E+00  0.74505805969E-08  0.10566000000E+00  0.10566000000E+00 0.  1.
     999900   -1    0    0    0    0 -0.00000000000E+00 -0.00000000000E+00 -0.74505805969E-08  0.93827000000E+00  0.93827000000E+00 0. -1.
     999902    2    1    2    0    0  0.20762312092E-01  0.43856275439E-02  0.10624709247E-01  0.10201983380E+01  0.10199222800E+01 0.  0.
     999903    2    3    3    0    0  0.52838345050E-01 -0.10007440388E-01 -0.11717303075E+00  0.13027233290E+00  0.18690158195E-01 0.  0.
         14    1    1    2    0    0 -0.20762312092E-01 -0.43856275439E-02 -0.10624709247E-01  0.23731661951E-01  0.00000000000E+00 0. -1.
     999901    1    3    3    0    0 -0.32076032958E-01  0.14393067932E-01  0.12779774000E+00  0.88992600515E+00  0.88000000000E+00 0.  1.
        -11    1    4    4    0    0  0.27770248274E-01 -0.14013600659E-01 -0.72391982535E-01  0.78793578095E-01  0.51100000000E-03 0. -1.
         11    1    4    4    0    0  0.25068096775E-01  0.40061602703E-02 -0.44781048214E-01  0.51478754804E-01  0.51100000000E-03 0.  1.
</event>
<event>
 8    1  0.1123361E+005  0.1043930E+01  0.7957747E-01            NaN
         13   -1    0    0    0    0  0.00000000000E+00  0.00000000000E+00  0.74505805969E-08  0.10566000000E+00  0.10566000000E+00 0.  1.
     999900   -1    0    0    0    0 -0.00000000000E+00 -0.00000000000E+00 -0.74505805969E-08  0.93827000000E+00  0.93827000000E+00 0. -1.
     999902    2    1    2    0    0 -0.17246927720E-01  0.10769743659E-01  0.12348228830E-01  0.10201408712E+01  0.10198634587E+01 0.  0.
     999903    2    3    3    0    0  0.70773464583E-01  0.10764677759E+00 -0.12975884170E-01  0.13009926550E+00  0.12678063663E-01 0.  0.
         14    1    1    2    0    0  0.17246927720E-01 -0.10769743659E-01 -0.12348228830E-01  0.23789128810E-01  0.00000000000E+00 0. -1.
     999901    1    3    3    0    0 -0.88020392303E-01 -0.96877033932E-01  0.25324113000E-01  0.89004160569E+00  0.88000000000E+00 0.  1.
        -11    1    4    4    0    0  0.19856162333E-01  0.29689693583E-01 -0.93053861671E-02  0.36913363710E-01  0.51100000000E-03 0.  1.
         11    1    4    4    0    0  0.50917302250E-01  0.77957084008E-01 -0.36704980030E-02  0.93185901788E-01  0.51100000000E-03 0. -1.
</event>
<event>
 8    1  0.1123361E+005  0.1043930E+01  0.7957747E-01            NaN
         13   -1    0    0    0    0  0.00000000000E+00  0.00000000000E+00  0.74505805969E-08  0.10566000000E+00  0.10566000000E+00 0. -1.
     999900   -1    0    0    0    0 -0.00000000000E+00 -0.00000000000E+00 -0.74505805969E-08  0.93827000000E+00  0.93827000000E+00 0. -1.
     999902    2    1    2    0    0  0.16220186060E-01  0.28028112950E-02  0.16588736202E-01  0.10205604395E+01  0.10202928376E+01 0.  0.
     999903    2    3    3    0    0 -0.12134958603E-01 -0.99976043185E-01 -0.77917145007E-01  0.12910159656E+00  0.21299631854E-01 0.  0.
         14    1    1    2    0    0 -0.16220186060E-01 -0.28028112950E-02 -0.16588736202E-01  0.23369560453E-01  0.00000000000E+00 0.  1.
     999901    1    3    3    0    0  0.28355144662E-01  0.10277885448E+00  0.94505881210E-01  0.89145884299E+00  0.88000000000E+00 0.  1.
        -11    1    4    4    0    0  0.21820975582E-02 -0.39929478801E-01 -0.21168948366E-01  0.45249423455E-01  0.51100000000E-03 0.  1.
         11    1    4    4    0    0 -0.14317056161E-01 -0.60046564383E-01 -0.56748196642E-01  0.83852173105E-01  0.51100000000E-03 0. -1.
</event>
<event>
 8    1  0.1123361E+005  0.1043930E+01  0.7957747E-01            NaN
         13   -1    0    0    0    0  0.00000000000E+00  0.00000000000E+00  0.74505805969E-08  0.10566000000E+00  0.10566000000E+00 0. -1.
     999900   -1    0    0    0    0 -0.00000000000E+00 -0.00000000000E+00 -0.74505805969E-08  0.93827000000E+00  0.93827000000E+00 0. -1.
     999902    2    1    2    0    0  0.28726950869E-03  0.28103088703E-01 -0.22666519078E-02  0.10157341877E+01  0.10153427679E+01 0.  0.
     999903    2    3    3    0    0 -0.17910212644E-02  0.12182973670E+00  0.39005713999E-01  0.12979264789E+00  0.21885913714E-01 0.  0.
         14    1    1    2    0    0 -0.28726950869E-03 -0.28103088703E-01  0.22666519078E-02  0.28195812265E-01  0.00000000000E+00 0.  1.
     999901    1    3    3    0    0  0.20782907731E-02 -0.93726648000E-01 -0.41272365906E-01  0.88594153985E+00  0.88000000000E+00 0. -1.
        -11    1    4    4    0    0  0.12726898335E-02  0.99609835621E-01  0.39963430458E-01  0.10733627526E+00  0.51100000000E-03 0.  1.
         11    1    4    4    0    0 -0.30637110979E-02  0.22219901082E-01 -0.95771645970E-03  0.22456372628E-01  0.51100000000E-03 0. -1.
</event>
<event>
 8    1  0.1123361E+005  0.1043930E+01  0.7957747E-01            NaN
         13   -1    0    0    0    0  0.00000000000E+00  0.00000000000E+00  0.74505805969E-08  0.10566000000E+00  0.10566000000E+00 0.  1.
     999900   -1    0    0    0    0 -0.00000000000E+00 -0.00000000000E+00 -0.74505805969E-08  0.93827000000E+00  0.93827000000E+00 0. -1.
     999902    2    1    2    0    0  0.21468574637E-01  0.88482660210E-02  0.39537964856E-02  0.10203752974E+01  0.10201033886E+01 0.  0.
     999903    2    3    3    0    0  0.11593914275E+00 -0.26496641496E-01 -0.55146365775E-01  0.13264404306E+00  0.20232737576E-01 0.  0.
         14    1    1    2    0    0 -0.21468574637E-01 -0.88482660210E-02 -0.39537964856E-02  0.23554702613E-01  0.00000000000E+00 0. -1.
     999901    1    3    3    0    0 -0.94470568111E-01  0.35344907517E-01  0.59100162260E-01  0.88773125433E+00  0.88000000000E+00 0.  1.
        -11    1    4    4    0    0  0.92195012839E-01 -0.13075568906E-01 -0.39098045351E-01  0.10099410461E+00  0.51100000000E-03 0.  1.
         11    1    4    4    0    0  0.23744129910E-01 -0.13421072590E-01 -0.16048320424E-01  0.31649938453E-01  0.51100000000E-03 0. -1.
</event>
<event>
 8    1  0.1123361E+005  0.1043930E+01  0.7957747E-01            NaN
         13   -1    0    0    0    0  0.00000000000E+00  0.00000000000E+00  0.74505805969E-08  0.10566000000E+00  0.10566000000E+00 0.  1.
     999900   -1    0    0    0    0 -0.00000000000E+00 -0.00000000000E+00 -0.74505805969E-08  0.93827000000E+00  0.93827000000E+00 0.  1.
     999902    2    1    2    0    0  0.27488346401E-02 -0.85362304292E-02  0.21337953322E-01  0.10207841240E+01  0.10205216785E+01 0.  0.
     999903    2    3    3    0    0  0.10268792630E+00  0.77938440088E-01  0.52101534041E-02  0.13076963168E+00  0.21315257917E-01 0.  0.
         14    1    1    2    0    0 -0.27488346401E-02  0.85362304292E-02 -0.21337953322E-01  0.23145875956E-01  0.00000000000E+00 0. -1.
     999901    1    3    3    0    0 -0.99939091663E-01 -0.86474670517E-01  0.16127799917E-01  0.89001449236E+00  0.88000000000E+00 0. -1.
        -11    1    4    4    0    0  0.43598355384E-01  0.44777290657E-01 -0.26489612186E-02  0.62554779732E-01  0.51100000000E-03 0.  1.
         11    1    4    4    0    0  0.59089570919E-01  0.33161149431E-01  0.78591146228E-02  0.68214851951E-01  0.51100000000E-03 0. -1.
</event>
<event>
 8    1  0.1123361E+005  0.1043930E+01  0.7957747E-01            NaN
         13   -1    0    0    0    0  0.00000000000E+00  0.00000000000E+00  0.74505805969E-08  0.10566000000E+00  0.10566000000E+00 0. -1.
     999900   -1    0    0    0    0 -0.00000000000E+00 -0.00000000000E+00 -0.74505805969E-08  0.93827000000E+00  0.93827000000E+00 0.  1.
     999902    2    1    2    0    0 -0.17602011912E-01 -0.16021233290E-01  0.53723236657E-02  0.10195297418E+01  0.10192377160E+01 0.  0.
     999903    2    3    3    0    0  0.10971292549E+00 -0.47896644607E-01 -0.42293024112E-01  0.12852069553E+00  0.19946295513E-01 0.  0.
         14    1    1    2    0    0  0.17602011912E-01  0.16021233290E-01 -0.53723236657E-02  0.24400258217E-01  0.00000000000E+00 0. -1.
     999901    1    3    3    0    0 -0.12731493741E+00  0.31875411317E-01  0.47665347778E-01  0.89100904626E+00  0.88000000000E+00 0. -1.
        -11    1    4    4    0    0  0.73893599026E-01 -0.41820042807E-01 -0.26989931691E-01  0.89094879152E-01  0.51100000000E-03 0. -1.
         11    1    4    4    0    0  0.35819326469E-01 -0.60766017997E-02 -0.15303092421E-01  0.39425816374E-01  0.51100000000E-03 0.  1.
</event>
<event>
 8    1  0.1123361E+005  0.1043930E+01  0.7957747E-01            NaN
         13   -1    0    0    0    0  0.00000000000E+00  0.00000000000E+00  0.74505805969E-08  0.10566000000E+00  0.10566000000E+00 0. -1.
     999900   -1    0    0    0    0 -0.00000000000E+00 -0.00000000000E+00 -0.74505805969E-08  0.93827000000E+00  0.93827000000E+00 0.  1.
     999902    2    1    2    0    0 -0.10672711309E-01  0.19786281250E-01  0.13070085763E-01  0.10179255613E+01  0.10175933458E+01 0.  0.
     999903    2    3    3    0    0 -0.10545668137E+00  0.74565024018E-01  0.59430361848E-02  0.13111357077E+00  0.21780594780E-01 0.  0.
         14    1    1    2    0    0  0.10672711309E-01 -0.19786281250E-01 -0.13070085763E-01  0.26004438741E-01  0.00000000000E+00 0. -1.
     999901    1    3    3    0    0  0.94783970059E-01 -0.54778742768E-01  0.71270495779E-02  0.88681199049E+00  0.88000000000E+00 0. -1.
        -11    1    4    4    0    0 -0.42129183429E-01  0.33538906203E-01  0.12780388174E-01  0.55347319434E-01  0.51100000000E-03 0.  1.
         11    1    4    4    0    0 -0.63327497939E-01  0.41026117816E-01 -0.68373519897E-02  0.75766251336E-01  0.51100000000E-03 0. -1.
</event>
<event>
 8    1  0.1123361E+005  0.1043930E+01  0.7957747E-01            NaN
         13   -1    0    0    0    0  0.00000000000E+00  0.00000000000E+00  0.74505805969E-08  0.10566000000E+00  0.10566000000E+00 0.  1.
     999900   -1    0    0    0    0 -0.00000000000E+00 -0.00000000000E+00 -0.74505805969E-08  0.93827000000E+00  0.93827000000E+00 0.  1.
     999902    2    1    2    0    0 -0.18339317848E-01  0.59558116561E-02 -0.14706734504E-01  0.10196794266E+01  0.10193910156E+01 0.  0.
     999903    2    3    3    0    0 -0.16635802953E-02  0.43464773254E-01  0.11928709374E+00  0.12859057106E+00  0.20351172444E-01 0.  0.
         14    1    1    2    0    0  0.18339317848E-01 -0.59558116561E-02  0.14706734504E-01  0.24250573424E-01  0.00000000000E+00 0.  1.
     999901    1    3    3    0    0 -0.16675737553E-01 -0.37508961598E-01 -0.13399382824E+00  0.89108885552E+00  0.88000000000E+00 0.  1.
        -11    1    4    4    0    0 -0.10725101503E-01  0.25147634698E-01  0.61875572380E-01  0.67648199617E-01  0.51100000000E-03 0. -1.
         11    1    4    4    0    0  0.90615212075E-02  0.18317138556E-01  0.57411521355E-01  0.60942371440E-01  0.51100000000E-03 0.  1.
</event>
<event>
 8    1  0.1123361E+005  0.1043930E+01  0.7957747E-01            NaN
         13   -1    0    0    0    0  0.00000000000E+00  0.00000000000E+00  0.74505805969E-08  0.10566000000E+00  0.10566000000E+00 0.  1.
     999900   -1    0    0    0    0 -0.00000000000E+00 -0.00000000000E+00 -0.74505805969E-08  0.93827000000E+00  0.93827000000E+00 0.  1.
     999902    2    1    2    0    0 -0.88535412064E-02  0.19014818828E-02 -0.21940171344E-01  0.10201945425E+01  0.10199183950E+01 0.  0.
     999903    2    3    3    0    0 -0.12699323471E-01 -0.56387805906E-01  0.11224680582E+00  0.12810790097E+00  0.21712471128E-01 0.  0.
         14    1    1    2    0    0  0.88535412064E-02 -0.19014818828E-02  0.21940171344E-01  0.23735457523E-01  0.00000000000E+00 0.  1.
     999901    1    3    3    0    0  0.38457822642E-02  0.58289287789E-01 -0.13418697717E+00  0.89208664151E+00  0.88000000000E+00 0.  1.
        -11    1    4    4    0    0 -0.87183330750E-02 -0.31057555996E-01  0.83859269452E-01  0.89851095208E-01  0.51100000000E-03 0. -1.
         11    1    4    4    0    0 -0.39809903957E-02 -0.25330249910E-01  0.28387536369E-01  0.38256805762E-01  0.51100000000E-03 0.  1.
</event>
<event>
 8    1  0.1123361E+005  0.1043930E+01  0.7957747E-01            NaN
         13   -1    0    0    0    0  0.00000000000E+00  0.00000000000E+00  0.74505805969E-08  0.10566000000E+00  0.10566000000E+00 0. -1.
     999900   -1    0    0    0    0 -0.00000000000E+00 -0.00000000000E+00 -0.74505805969E-08  0.93827000000E+00  0.93827000000E+00 0.  1.
     999902    2    1    2    0    0  0.18065485575E-01 -0.13577513368E-04  0.13136220085E-01  0.10215934329E+01  0.10213492154E+01 0.  0.
     999903    2    3    3    0    0  0.32901316391E-02 -0.78350212694E-01 -0.10237326615E+00  0.13047201526E+00  0.19826254051E-01 0.  0.
         14    1    1    2    0    0 -0.18065485575E-01  0.13577513368E-04 -0.13136220085E-01  0.22336567139E-01  0.00000000000E+00 0. -1.
     999901    1    3    3    0    0  0.14775353936E-01  0.78336635181E-01  0.11550948623E+00  0.89112141760E+00  0.88000000000E+00 0. -1.
        -11    1    4    4    0    0 -0.78742330745E-02 -0.22710650067E-01 -0.27645768069E-01  0.36637778127E-01  0.51100000000E-03 0. -1.
         11    1    4    4    0    0  0.11164364714E-01 -0.55639562627E-01 -0.74727498077E-01  0.93834237135E-01  0.51100000000E-03 0.  1.
</event>
<event>
 8    1  0.1123361E+005  0.1043930E+01  0.7957747E-01            NaN
         13   -1    0    0    0    0  0.00000000000E+00  0.00000000000E+00  0.74505805969E-08  0.10566000000E+00  0.10566000000E+00 0.  1.
     999900   -1    0    0    0    0 -0.00000000000E+00 -0.00000000000E+00 -0.74505805969E-08  0.93827000000E+00  0.93827000000E+00 0.  1.
     999902    2    1    2    0    0 -0.25182258253E-02  0.14419737478E-01  0.18345538971E-01  0.10204602516E+01  0.10201903234E+01 0.  0.
     999903    2    3    3    0    0  0.78422533231E-01  0.99898351911E-01 -0.26239304826E-01  0.13150254264E+00  0.21786306961E-01 0.  0.
         14    1    1    2    0    0  0.25182258253E-02 -0.14419737478E-01 -0.18345538971E-01  0.23469748409E-01  0.00000000000E+00 0.  1.
     999901    1    3    3    0    0 -0.80940759057E-01 -0.85478614433E-01  0.44584843796E-01  0.88895770895E+00  0.88000000000E+00 0.  1.
        -11    1    4    4    0    0  0.43678887305E-01  0.53619451788E-01 -0.25240838147E-01  0.73622359631E-01  0.51100000000E-03 0.  1.
         11    1    4    4    0    0  0.34743645927E-01  0.46278900122E-01 -0.99846667836E-03  0.57880183012E-01  0.51100000000E-03 0. -1.
</event>
<event>
 8    1  0.1123361E+005  0.1043930E+01  0.7957747E-01            NaN
         13   -1    0    0    0    0  0.00000000000E+00  0.00000000000E+00  0.74505805969E-08  0.10566000000E+00  0.10566000000E+00 0. -1.
     999900   -1    0    0    0    0 -0.00000000000E+00 -0.00000000000E+00 -0.74505805969E-08  0.93827000000E+00  0.93827000000E+00 0. -1.
     999902    2    1    2    0    0 -0.22836717687E-01  0.51383688414E-02  0.15360382373E-03  0.10205218368E+01  0.10202533398E+01 0.  0.
     999903    2    3    3    0    0 -0.12606883152E+00 -0.16610449455E-01 -0.34706878016E-01  0.13353529036E+00  0.21397408166E-01 0.  0.
         14    1    1    2    0    0  0.22836717687E-01 -0.51383688414E-02 -0.15360382373E-03  0.23408163174E-01  0.00000000000E+00 0. -1.
     999901    1    3    3    0    0  0.10323211384E+00  0.21748818296E-01  0.34860481840E-01  0.88698654647E+00  0.88000000000E+00 0. -1.
        -11    1    4    4    0    0 -0.66875478463E-01 -0.86478598448E-02 -0.29421825831E-01  0.73573229206E-01  0.51100000000E-03 0. -1.
         11    1    4    4    0    0 -0.59193353060E-01 -0.79625896099E-02 -0.52850521850E-02  0.59962061150E-01  0.51100000000E-03 0.  1.
</event>
<event>
 8    1  0.1123361E+005  0.1043930E+01  0.7957747E-01            NaN
         13   -1    0    0    0    0  0.00000000000E+00  0.00000000000E+00  0.74505805969E-08  0.10566000000E+00  0.10566000000E+00 0. -1.
     999900   -1    0    0    0    0 -0.00000000000E+00 -0.00000000000E+00 -0.74505805969E-08  0.93827000000E+00  0.93827000000E+00 0. -1.
     999902    2    1    2    0    0  0.12838871941E-01  0.15372379027E-01 -0.12412398243E-01  0.10203670142E+01  0.10200949119E+01 0.  0.
     999903    2    3    3    0    0 -0.27611878162E-01  0.60364805089E-01  0.10981953650E+00  0.12986085057E+00  0.19929485801E-01 0.  0.
         14    1    1    2    0    0 -0.12838871941E-01 -0.15372379027E-01  0.12412398243E-01  0.23562985800E-01  0.00000000000E+00 0. -1.
     999901    1    3    3    0    0  0.40450750103E-01 -0.44992426062E-01 -0.12223193475E+00  0.89050616363E+00  0.88000000000E+00 0. -1.
        -11    1    4    4    0    0 -0.17424813058E-01  0.29068286879E-01  0.72923144383E-01  0.80415393551E-01  0.51100000000E-03 0. -1.
         11    1    4    4    0    0 -0.10187065104E-01  0.31296518211E-01  0.36896392121E-01  0.49445457022E-01  0.51100000000E-03 0.  1.
</event>
<event>
 8    1  0.1123361E+005  0.1043930E+01  0.7957747E-01            NaN
         13   -1    0    0    0    0  0.00000000000E+00  0.00000000000E+00  0.74505805969E-08  0.10566000000E+00  0.10566000000E+00 0.  1.
     999900   -1    0    0    0    0 -0.00000000000E+00 -0.00000000000E+00 -0.74505805969E-08  0.93827000000E+00  0.93827000000E+00 0.  1.
     999902    2    1    2    0    0  0.11739001732E-01  0.19941357357E-01 -0.17476661054E-02  0.10207240475E+01  0.10204602221E+01 0.  0.
     999903    2    3    3    0    0 -0.10343176776E+00 -0.66183422199E-01 -0.31794614798E-01  0.12854435543E+00  0.20841732843E-01 0.  0.
         14    1    1    2    0    0 -0.11739001732E-01 -0.19941357357E-01  0.17476661054E-02  0.23205952507E-01  0.00000000000E+00 0.  1.
     999901    1    3    3    0    0  0.11517076949E+00  0.86124779557E-01  0.30046948693E-01  0.89217969206E+00  0.88000000000E+00 0. -1.
        -11    1    4    4    0    0 -0.43763254011E-02 -0.83415971844E-02  0.27505127149E-03  0.94377561849E-02  0.51100000000E-03 0.  1.
         11    1    4    4    0    0 -0.99055442357E-01 -0.57841825015E-01 -0.32069666070E-01  0.11910659925E+00  0.51100000000E-03 0. -1.
</event>
<event>
 8    1  0.1123361E+005  0.1043930E+01  0.7957747E-01            NaN
         13   -1    0    0    0    0  0.00000000000E+00  0.00000000000E+00  0.74505805969E-08  0.10566000000E+00  0.10566000000E+00 0.  1.
     999900   -1    0    0    0    0 -0.00000000000E+00 -0.00000000000E+00 -0.74505805969E-08  0.93827000000E+00  0.93827000000E+00 0. -1.
     999902    2    1    2    0    0  0.91770705160E-02  0.20801053595E-01  0.34064054523E-02  0.10209407405E+01  0.10206818748E+01 0.  0.
     999903    2    3    3    0    0 -0.92939154836E-01  0.90305311542E-01  0.16463358539E-01  0.13221747122E+00  0.20437263186E-01 0.  0.
         14    1    1    2    0    0 -0.91770705160E-02 -0.20801053595E-01 -0.34064054523E-02  0.22989259493E-01  0.00000000000E+00 0. -1.
     999901    1    3    3    0    0  0.10211622535E+00 -0.69504257946E-01 -0.13056953087E-01  0.88872326929E+00  0.88000000000E+00 0.  1.
        -11    1    4    4    0    0 -0.42130730365E-01  0.30754628366E-01  0.13484902115E-01  0.53879024797E-01  0.51100000000E-03 0.  1.
         11    1    4    4    0    0 -0.50808424471E-01  0.59550683176E-01  0.29784564235E-02  0.78338446421E-01  0.51100000000E-03 0. -1.
</event>
<event>
 8    1  0.1123361E+005  0.1043930E+01  0.7957747E-01            NaN
         13   -1    0    0    0    0  0.00000000000E+00  0.00000000000E+00  0.74505805969E-08  0.10566000000E+00  0.10566000000E+00 0. -1.
     999900   -1    0    0    0    0 -0.00000000000E+00 -0.00000000000E+00 -0.74505805969E-08  0.93827000000E+00  0.93827000000E+00 0.  1.
     999902    2    1    2    0    0  0.22506887982E-01 -0.42520877323E-02  0.56361627616E-02  0.10203417278E+01  0.10200690343E+01 0.  0.
     999903    2    3    3    0    0 -0.13949319287E-02  0.12845243947E+00 -0.10296426074E-02  0.13004614679E+00  0.20222885293E-01 0.  0.
         14    1    1    2    0    0 -0.22506887982E-01  0.42520877323E-02 -0.56361627616E-02  0.23588272242E-01  0.00000000000E+00 0.  1.
     999901    1    3    3    0    0  0.23901819911E-01 -0.13270452720E+00  0.66658053689E-02  0.89029558097E+00  0.88000000000E+00 0.  1.
        -11    1    4    4    0    0 -0.38074109991E-02  0.68579068983E-01  0.90499209772E-02  0.69280208370E-01  0.51100000000E-03 0.  1.
         11    1    4    4    0    0  0.24124790704E-02  0.59873370486E-01 -0.10079563585E-01  0.60765938417E-01  0.51100000000E-03 0. -1.
</event>
<event>
 8    1  0.1123361E+005  0.1043930E+01  0.7957747E-01            NaN
         13   -1    0    0    0    0  0.00000000000E+00  0.00000000000E+00  0.74505805969E-08  0.10566000000E+00  0.10566000000E+00 0. -1.
     999900   -1    0    0    0    0 -0.00000000000E+00 -0.00000000000E+00 -0.74505805969E-08  0.93827000000E+00  0.93827000000E+00 0. -1.
     999902    2    1    2    0    0  0.81154924844E-02 -0.21724342093E-01 -0.28074529943E-02  0.10205699904E+01  0.10203026096E+01 0.  0.
     999903    2    3    3    0    0 -0.11937947439E+00 -0.38829974904E-01  0.30159990266E-01  0.13060683295E+00  0.19730533259E-01 0.  0.
         14    1    1    2    0    0 -0.81154924844E-02  0.21724342093E-01  0.28074529943E-02  0.23360009631E-01  0.00000000000E+00 0. -1.
     999901    1    3    3    0    0  0.12749496688E+00  0.17105632811E-01 -0.32967443260E-01  0.88996315742E+00  0.88000000000E+00 0. -1.
        -11    1    4    4    0    0 -0.85847821681E-02 -0.84725002657E-02  0.11904936370E-02  0.12130957989E-01  0.51100000000E-03 0.  1.
         11    1    4    4    0    0 -0.11079469222E+00 -0.30357474638E-01  0.28969496629E-01  0.11847587496E+00  0.51100000000E-03 0. -1.
</event>
<event>
 8    1  0.1123361E+005  0.1043930E+01  0.7957747E-01            NaN
         13   -1    0    0    0    0  0.00000000000E+00  0.00000000000E+00  0.74505805969E-08  0.10566000000E+00  0.10566000000E+00 0.  1.
     999900   -1    0    0    0    0 -0.00000000000E+00 -0.00000000000E+00 -0.74505805969E-08  0.93827000000E+00  0.93827000000E+00 0.  1.
     999902    2    1    2    0    0  0.15430522480E-01 -0.37776832287E-02  0.15118498148E-01  0.10219996352E+01  0.10217643140E+01 0.  0.
     999903    2    3    3    0    0 -0.11382312247E+00 -0.52731928308E-01 -0.27623623259E-01  0.13018692403E+00  0.21194602026E-01 0.  0.
         14    1    1    2    0    0 -0.15430522480E-01  0.37776832287E-02 -0.15118498148E-01  0.21930364813E-01  0.00000000000E+00 0.  1.
     999901    1    3    3    0    0  0.12925364494E+00  0.48954245080E-01  0.42742121407E-01  0.89181271116E+00  0.88000000000E+00 0.  1.
        -11    1    4    4    0    0 -0.36374232584E-01 -0.16469416913E-01 -0.19035891679E-01  0.44237459043E-01  0.51100000000E-03 0. -1.
         11    1    4    4    0    0 -0.77448889882E-01 -0.36262511395E-01 -0.85877315791E-02  0.85949464985E-01  0.51100000000E-03 0.  1.
</event>
<event>
 8    1  0.1123361E+005  0.1043930E+01  0.7957747E-01            NaN
         13   -1    0    0    0    0  0.00000000000E+00  0.00000000000E+00  0.74505805969E-08  0.10566000000E+00  0.10566000000E+00 0. -1.
     999900   -1    0    0    0    0 -0.00000000000E+00 -0.00000000000E+00 -0.74505805969E-08  0.93827000000E+00  0.93827000000E+00 0.  1.
     999902    2    1    2    0    0  0.25380704859E-01  0.21087963542E-02  0.94685239349E-02  0.10167586889E+01  0.10163955683E+01 0.  0.
     999903    2    3    3    0    0 -0.57566390787E-01 -0.19657949383E-01 -0.10725365215E+00  0.12491897332E+00  0.20026973668E-01 0.  0.
         14    1    1    2    0    0 -0.25380704859E-01 -0.21087963542E-02 -0.94685239349E-02  0.27171311097E-01  0.00000000000E+00 0.  1.
     999901    1    3    3    0    0  0.82947095646E-01  0.21766745737E-01  0.11672217609E+00  0.89183971558E+00  0.88000000000E+00 0. -1.
        -11    1    4    4    0    0 -0.17724314719E-01 -0.73212841816E-02 -0.17586896649E-01  0.26025229856E-01  0.51100000000E-03 0.  1.
         11    1    4    4    0    0 -0.39842076068E-01 -0.12336665201E-01 -0.89666755502E-01  0.98893743467E-01  0.51100000000E-03 0. -1.
</event>
<event>
 8    1  0.1123361E+005  0.1043930E+01  0.7957747E-01            NaN
         13   -1    0    0    0    0  0.00000000000E+00  0.00000000000E+00  0.74505805969E-08  0.10566000000E+00  0.10566000000E+00 0.  1.
     999900   -1    0    0    0    0 -0.00000000000E+00 -0.00000000000E+00 -0.74505805969E-08  0.93827000000E+00  0.93827000000E+00 0. -1.
     999902    2    1    2    0    0  0.68533953428E-02  0.14435292789E-01 -0.20802626288E-01  0.10176984166E+01  0.10173602957E+01 0.  0.
     999903    2    3    3    0    0 -0.53395011796E-01 -0.11248391074E+00  0.43748010320E-02  0.12619841235E+00  0.20080909737E-01 0.  0.
         14    1    1    2    0    0 -0.68533953428E-02 -0.14435292789E-01  0.20802626288E-01  0.26231583370E-01  0.00000000000E+00 0.  1.
     999901    1    3    3    0    0  0.60248407139E-01  0.12691920353E+00 -0.25177427320E-01  0.89150000428E+00  0.88000000000E+00 0. -1.
        -11    1    4    4    0    0 -0.26790860698E-01 -0.34886945926E-01 -0.86913837078E-03  0.43998474240E-01  0.51100000000E-03 0.  1.
         11    1    4    4    0    0 -0.26604151098E-01 -0.77596964812E-01  0.52439394028E-02  0.82199938109E-01  0.51100000000E-03 0. -1.
</event>
<event>
 8    1  0.1160408E+005  0.1043930E+01  0.7957747E-01            NaN
         13   -1    0    0    0    0  0.00000000000E+00  0.00000000000E+00  0.74505805969E-08  0.10566000000E+00  0.10566000000E+00 0.  1.
     999900   -1    0    0    0    0 -0.00000000000E+00 -0.00000000000E+00 -0.74505805969E-08  0.93827000000E+00  0.93827000000E+00 0. -1.
     999902    2    1    2    0    0 -0.22183505145E-01 -0.52979943557E-02  0.17747167805E-01  0.10150312352E+01  0.10146197661E+01 0.  0.
     999903    2    3    3    0    0 -0.24808470578E-01  0.42473752181E-01 -0.11279382572E+00  0.12411598598E+00  0.16212680839E-01 0.  0.
         14    1    1    2    0    0  0.22183505145E-01  0.52979943557E-02 -0.17747167805E-01  0.28898764849E-01  0.00000000000E+00 0. -1.
     999901    1    3    3    0    0  0.26249654330E-02 -0.47771746537E-01  0.13054099352E+00  0.89091524917E+00  0.88000000000E+00 0.  1.
        -11    1    4    4    0    0 -0.13863513154E-01  0.36380021296E-01 -0.79054180938E-01  0.88122230971E-01  0.51100000000E-03 0.  1.
         11    1    4    4    0    0 -0.10944957423E-01  0.60937308855E-02 -0.33739644778E-01  0.35993755012E-01  0.51100000000E-03 0. -1.
</event>
<event>
 8    1  0.1123361E+005  0.1043930E+01  0.7957747E-01            NaN
         13   -1    0    0    0    0  0.00000000000E+00  0.00000000000E+00  0.74505805969E-08  0.10566000000E+00  0.10566000000E+00 0. -1.
     999900   -1    0    0    0    0 -0.00000000000E+00 -0.00000000000E+00 -0.74505805969E-08  0.93827000000E+00  0.93827000000E+00 0.  1.
     999902    2    1    2    0    0  0.16168963564E-01  0.11520572109E-01  0.13013846160E-01  0.10201914416E+01  0.10199152211E+01 0.  0.
     999903    2    3    3    0    0 -0.12153999892E+00  0.13875526961E-01  0.36951150848E-01  0.12915704340E+00  0.18752405898E-01 0.  0.
         14    1    1    2    0    0 -0.16168963564E-01 -0.11520572109E-01 -0.13013846160E-01  0.23738558429E-01  0.00000000000E+00 0.  1.
     999901    1    3    3    0    0  0.13770896248E+00 -0.23549548525E-02 -0.23937304688E-01  0.89103439817E+00  0.88000000000E+00 0. -1.
        -11    1    4    4    0    0 -0.60865082184E-01  0.16349927673E-01  0.18180658081E-01  0.65594784956E-01  0.51100000000E-03 0.  1.
         11    1    4    4    0    0 -0.60674916732E-01 -0.24744007113E-02  0.18770492766E-01  0.63562258448E-01  0.51100000000E-03 0. -1.
</event>
<event>
 8    1  0.1123361E+005  0.1043930E+01  0.7957747E-01            NaN
         13   -1    0    0    0    0  0.00000000000E+00  0.00000000000E+00  0.74505805969E-08  0.10566000000E+00  0.10566000000E+00 0.  1.
     999900   -1    0    0    0    0 -0.00000000000E+00 -0.00000000000E+00 -0.74505805969E-08  0.93827000000E+00  0.93827000000E+00 0. -1.
     999902    2    1    2    0    0  0.17134623218E-01 -0.67525288201E-04 -0.33786223654E-03  0.10267919131E+01  0.10266488780E+01 0.  0.
     999903    2    3    3    0    0  0.22193033409E-01 -0.62247753779E-01 -0.11816623930E+00  0.13674950130E+00  0.19231547317E-01 0.  0.
         14    1    1    2    0    0 -0.17134623218E-01  0.67525288201E-04  0.33786223654E-03  0.17138086923E-01  0.00000000000E+00 0. -1.
     999901    1    3    3    0    0 -0.50584101908E-02  0.62180228491E-01  0.11782837706E+00  0.89004241178E+00  0.88000000000E+00 0.  1.
        -11    1    4    4    0    0  0.23805132798E-01 -0.52957692628E-01 -0.90588140096E-01  0.10759959946E+00  0.51100000000E-03 0. -1.
         11    1    4    4    0    0 -0.16120993893E-02 -0.92900611507E-02 -0.27578099202E-01  0.29149901839E-01  0.51100000000E-03 0.  1.
</event>
<event>
 8    1  0.1123361E+005  0.1043930E+01  0.7957747E-01            NaN
         13   -1    0    0    0    0  0.00000000000E+00  0.00000000000E+00  0.74505805969E-08  0.10566000000E+00  0.10566000000E+00 0.  1.
     999900   -1    0    0    0    0 -0.00000000000E+00 -0.00000000000E+00 -0.74505805969E-08  0.93827000000E+00  0.93827000000E+00 0. -1.
     999902    2    1    2    0    0  0.98714006088E-02  0.29562150780E-02 -0.21357637269E-01  0.10202164506E+01  0.10199408187E+01 0.  0.
     999903    2    3    3    0    0 -0.64476367839E-01  0.89345115382E-01  0.63618589306E-01  0.12880656063E+00  0.20101082166E-01 0.  0.
         14    1    1    2    0    0 -0.98714006088E-02 -0.29562150780E-02  0.21357637269E-01  0.23713549445E-01  0.00000000000E+00 0. -1.
     999901    1    3    3    0    0  0.74347768448E-01 -0.86388900304E-01 -0.84976226575E-01  0.89140988992E+00  0.88000000000E+00 0. -1.
        -11    1    4    4    0    0 -0.35121591362E-01  0.58450476495E-01  0.48098766358E-01  0.83449007355E-01  0.51100000000E-03 0. -1.
         11    1    4    4    0    0 -0.29354776477E-01  0.30894638887E-01  0.15519822947E-01  0.45357553277E-01  0.51100000000E-03 0.  1.
</event>
<event>
 8    1  0.1123361E+005  0.1043930E+01  0.7957747E-01            NaN
         13   -1    0    0    0    0  0.00000000000E+00  0.00000000000E+00  0.74505805969E-08  0.10566000000E+00  0.10566000000E+00 0.  1.
     999900   -1    0    0    0    0 -0.00000000000E+00 -0.00000000000E+00 -0.74505805969E-08  0.93827000000E+00  0.93827000000E+00 0. -1.
     999902    2    1    2    0    0 -0.23476959889E-01 -0.38692609908E-02 -0.84178652639E-03  0.10201214421E+01  0.10198435709E+01 0.  0.
     999903    2    3    3    0    0 -0.11722410150E+00 -0.49407290591E-01  0.34584205377E-01  0.13326337022E+00  0.19506107862E-01 0.  0.
         14    1    1    2    0    0  0.23476959889E-01  0.38692609908E-02  0.84178652639E-03  0.23808557932E-01  0.00000000000E+00 0.  1.
     999901    1    3    3    0    0  0.93747141614E-01  0.45538029600E-01 -0.35425991903E-01  0.88685807185E+00  0.88000000000E+00 0. -1.
        -11    1    4    4    0    0 -0.15843294765E-01 -0.95840333595E-02 -0.13324547436E-02  0.18571490007E-01  0.51100000000E-03 0.  1.
         11    1    4    4    0    0 -0.10138080674E+00 -0.39823257232E-01  0.35916660120E-01  0.11469188021E+00  0.51100000000E-03 0. -1.
</event>
<event>
 8    1  0.1123361E+005  0.1043930E+01  0.7957747E-01            NaN
         13   -1    0    0    0    0  0.00000000000E+00  0.00000000000E+00  0.74505805969E-08  0.10566000000E+00  0.10566000000E+00 0.  1.
     999900   -1    0    0    0    0 -0.00000000000E+00 -0.00000000000E+00 -0.74505805969E-08  0.93827000000E+00  0.93827000000E+00 0. -1.
     999902    2    1    2    0    0 -0.21749366635E-01 -0.38742730842E-02 -0.97062164545E-02  0.10198000274E+01  0.10195145120E+01 0.  0.
     999903    2    3    3    0    0  0.90493572189E-02 -0.12764687874E+00  0.14093209291E-01  0.13028632205E+00  0.20007264864E-01 0.  0.
         14    1    1    2    0    0  0.21749366635E-01  0.38742730842E-02  0.97062164545E-02  0.24129972624E-01  0.00000000000E+00 0.  1.
     999901    1    3    3    0    0 -0.30798723854E-01  0.12377260565E+00 -0.23799425745E-01  0.88951370533E+00  0.88000000000E+00 0. -1.
        -11    1    4    4    0    0  0.88775492368E-02 -0.34887948328E-01 -0.23488904981E-02  0.36079886731E-01  0.51100000000E-03 0. -1.
         11    1    4    4    0    0  0.17180798208E-03 -0.92758930409E-01  0.16442099789E-01  0.94206435316E-01  0.51100000000E-03 0.  1.
</event>
<event>
 8    1  0.1123361E+005  0.1043930E+01  0.7957747E-01            NaN
         13   -1    0    0    0    0  0.00000000000E+00  0.00000000000E+00  0.74505805969E-08  0.10566000000E+00  0.10566000000E+00 0.  1.
     999900   -1    0    0    0    0 -0.00000000000E+00 -0.00000000000E+00 -0.74505805969E-08  0.93827000000E+00  0.93827000000E+00 0. -1.
     999902    2    1    2    0    0 -0.57079381183E-02  0.12235235840E-01  0.10985375610E-01  0.10265242529E+01  0.10263766764E+01 0.  0.
     999903    2    3    3    0    0  0.10609194198E+00  0.83466988518E-01 -0.79444653161E-02  0.13639419802E+00  0.17833238631E-01 0.  0.
         14    1    1    2    0    0  0.57079381183E-02 -0.12235235840E-01 -0.10985375610E-01  0.17405747066E-01  0.00000000000E+00 0. -1.
     999901    1    3    3    0    0 -0.11179988010E+00 -0.71231752678E-01  0.18929840926E-01  0.89013005491E+00  0.88000000000E+00 0. -1.
        -11    1    4    4    0    0  0.44228636110E-01  0.25990404129E-01  0.21562085378E-02  0.51347674876E-01  0.51100000000E-03 0. -1.
         11    1    4    4    0    0  0.61863305868E-01  0.57476584389E-01 -0.10100673854E-01  0.85046523146E-01  0.51100000000E-03 0.  1.
</event>
<event>
 8    1  0.1123361E+005  0.1043930E+01  0.7957747E-01            NaN
         13   -1    0    0    0    0  0.00000000000E+00  0.00000000000E+00  0.74505805969E-08  0.10566000000E+00  0.10566000000E+00 0.  1.
     999900   -1    0    0    0    0 -0.00000000000E+00 -0.00000000000E+00 -0.74505805969E-08  0.93827000000E+00  0.93827000000E+00 0. -1.
     999902    2    1    2    0    0  0.20422537231E-01  0.79474827506E-02 -0.80606637117E-02  0.10205801219E+01  0.10203129757E+01 0.  0.
     999903    2    3    3    0    0 -0.54457460680E-01 -0.99435842820E-01 -0.59116862201E-01  0.12943202638E+00  0.20118255282E-01 0.  0.
         14    1    1    2    0    0 -0.20422537231E-01 -0.79474827506E-02  0.80606637117E-02  0.23349878126E-01  0.00000000000E+00 0.  1.
     999901    1    3    3    0    0  0.74879997910E-01  0.10738332557E+00  0.51056198490E-01  0.89114809549E+00  0.88000000000E+00 0.  1.
        -11    1    4    4    0    0 -0.48778889310E-01 -0.71574512033E-01 -0.46649398793E-01  0.98380477453E-01  0.51100000000E-03 0.  1.
         11    1    4    4    0    0 -0.56785713700E-02 -0.27861330786E-01 -0.12467463408E-01  0.31051548928E-01  0.51100000000E-03 0. -1.
</event>
<event>
 8    1  0.1123361E+005  0.1043930E+01  0.7957747E-01            NaN
         13   -1    0    0    0    0  0.00000000000E+00  0.00000000000E+00  0.74505805969E-08  0.10566000000E+00  0.10566000000E+00 0. -1.
     999900   -1    0    0    0    0 -0.00000000000E+00 -0.00000000000E+00 -0.74505805969E-08  0.93827000000E+00  0.93827000000E+00 0.  1.
     999902    2    1    2    0    0  0.10960839112E-01  0.22917373136E-01  0.16059490346E-02  0.10184756279E+01  0.10181574925E+01 0.  0.
     999903    2    3    3    0    0  0.56955731458E-01 -0.92536946860E-01  0.63612332298E-01  0.12758280514E+00  0.20586438887E-01 0.  0.
         14    1    1    2    0    0 -0.10960839112E-01 -0.22917373136E-01 -0.16059490346E-02  0.25454372076E-01  0.00000000000E+00 0. -1.
     999901    1    3    3    0    0 -0.45994892346E-01  0.11545432000E+00 -0.62006383264E-01  0.89089282279E+00  0.88000000000E+00 0. -1.
        -11    1    4    4    0    0  0.48959108061E-01 -0.63946694274E-01  0.50966435017E-01  0.95310086507E-01  0.51100000000E-03 0. -1.
         11    1    4    4    0    0  0.79966233973E-02 -0.28590252586E-01  0.12645897281E-01  0.32272718630E-01  0.51100000000E-03 0.  1.
</event>
<event>
 8    1  0.1123361E+005  0.1043930E+01  0.7957747E-01            NaN
         13   -1    0    0    0    0  0.00000000000E+00  0.00000000000E+00  0.74505805969E-08  0.10566000000E+00  0.10566000000E+00 0.  1.
     999900   -1    0    0    0    0 -0.00000000000E+00 -0.00000000000E+00 -0.74505805969E-08  0.93827000000E+00  0.93827000000E+00 0.  1.
     999902    2    1    2    0    0 -0.59194672900E-02 -0.16215517818E-01  0.16768917340E-01  0.10198638474E+01  0.10195798584E+01 0.  0.
     999903    2    3    3    0    0  0.34612548002E-01 -0.86159579755E-01  0.92813984767E-01  0.13289267070E+00  0.20603992186E-01 0.  0.
         14    1    1    2    0    0  0.59194672900E-02  0.16215517818E-01 -0.16768917340E-01  0.24066152576E-01  0.00000000000E+00 0. -1.
     999901    1    3    3    0    0 -0.40532015292E-01  0.69944061937E-01 -0.76045067427E-01  0.88697117673E+00  0.88000000000E+00 0.  1.
        -11    1    4    4    0    0  0.13315352192E-01 -0.58836417590E-01  0.62358041372E-01  0.86762947642E-01  0.51100000000E-03 0.  1.
         11    1    4    4    0    0  0.21297195810E-01 -0.27323162165E-01  0.30455943395E-01  0.46129723055E-01  0.51100000000E-03 0. -1.
</event>
<event>
 8    1  0.1123361E+005  0.1043930E+01  0.7957747E-01            NaN
         13   -1    0    0    0    0  0.00000000000E+00  0.00000000000E+00  0.74505805969E-08  0.10566000000E+00  0.10566000000E+00 0. -1.
     999900   -1    0    0    0    0 -0.00000000000E+00 -0.00000000000E+00 -0.74505805969E-08  0.93827000000E+00  0.93827000000E+00 0. -1.
     999902    2    1    2    0    0  0.17768120311E-01 -0.85911223278E-02 -0.12356307732E-01  0.10206449872E+01  0.10203793402E+01 0.  0.
     999903    2    3    3    0    0  0.59216241431E-01 -0.11090656277E+00 -0.39452615441E-01  0.13333410253E+00  0.20362836644E-01 0.  0.
         14    1    1    2    0    0 -0.17768120311E-01  0.85911223278E-02  0.12356307732E-01  0.23285012841E-01  0.00000000000E+00 0. -1.
     999901    1    3    3    0    0 -0.41448121119E-01  0.10231544044E+00  0.27096307708E-01  0.88731088463E+00  0.88000000000E+00 0.  1.
        -11    1    4    4    0    0  0.27999083889E-01 -0.63744547605E-01 -0.30733623472E-01  0.76106062706E-01  0.51100000000E-03 0.  1.
         11    1    4    4    0    0  0.31217157542E-01 -0.47162015167E-01 -0.87189919688E-02  0.57228039819E-01  0.51100000000E-03 0. -1.
</event>
<event>
 8    1  0.1123361E+005  0.1043930E+01  0.7957747E-01            NaN
         13   -1    0    0    0    0  0.00000000000E+00  0.00000000000E+00  0.74505805969E-08  0.10566000000E+00  0.10566000000E+00 0. -1.
     999900   -1    0    0    0    0 -0.00000000000E+00 -0.00000000000E+00 -0.74505805969E-08  0.93827000000E+00  0.93827000000E+00 0. -1.
     999902    2    1    2    0    0  0.23084949036E-02 -0.35255973357E-03  0.24308028492E-01  0.10195100554E+01  0.10192175525E+01 0.  0.
     999903    2    3    3    0    0  0.41084818080E-01 -0.83954838572E-01 -0.85368627107E-01  0.12792612042E+00  0.18463818512E-01 0.  0.
         14    1    1    2    0    0 -0.23084949036E-02  0.35255973357E-03 -0.24308028492E-01  0.24419944641E-01  0.00000000000E+00 0.  1.
     999901    1    3    3    0    0 -0.38776323177E-01  0.83602278838E-01  0.10967665560E+00  0.89158393494E+00  0.88000000000E+00 0.  1.
        -11    1    4    4    0    0  0.21214775938E-01 -0.29184876495E-01 -0.41491766934E-01  0.54987740256E-01  0.51100000000E-03 0.  1.
         11    1    4    4    0    0  0.19870042142E-01 -0.54769962077E-01 -0.43876860173E-01  0.72938380160E-01  0.51100000000E-03 0. -1.
</event>
<event>
 8    1  0.1123361E+005  0.1043930E+01  0.7957747E-01            NaN
         13   -1    0    0    0    0  0.00000000000E+00  0.00000000000E+00  0.74505805969E-08  0.10566000000E+00  0.10566000000E+00 0.  1.
     999900   -1    0    0    0    0 -0.00000000000E+00 -0.00000000000E+00 -0.74505805969E-08  0.93827000000E+00  0.93827000000E+00 0.  1.
     999902    2    1    2    0    0 -0.16171855975E-01  0.74736764622E-02 -0.16023616877E-01  0.10199687591E+01  0.10196872700E+01 0.  0.
     999903    2    3    3    0    0 -0.11665126688E+00  0.56628635652E-01 -0.20867848246E-01  0.13287474575E+00  0.20147221276E-01 0.  0.
         14    1    1    2    0    0  0.16171855975E-01 -0.74736764622E-02  0.16023616877E-01  0.23961240856E-01  0.00000000000E+00 0.  1.
     999901    1    3    3    0    0  0.10047941091E+00 -0.49154959190E-01  0.48442313690E-02  0.88709401340E+00  0.88000000000E+00 0. -1.
        -11    1    4    4    0    0 -0.11676118522E-01  0.26547344671E-02  0.32046027473E-02  0.12406045245E-01  0.51100000000E-03 0.  1.
         11    1    4    4    0    0 -0.10497514836E+00  0.53973901185E-01 -0.24072450993E-01  0.12046870050E+00  0.51100000000E-03 0. -1.
</event>
<event>
 8    1  0.1123361E+005  0.1043930E+01  0.7957747E-01            NaN
         13   -1    0    0    0    0  0.00000000000E+00  0.00000000000E+00  0.74505805969E-08  0.10566000000E+00  0.10566000000E+00 0. -1.
     999900   -1    0    0    0    0 -0.00000000000E+00 -0.00000000000E+00 -0.74505805969E-08  0.93827000000E+00  0.93827000000E+00 0.  1.
     999902    2    1    2    0    0 -0.21134660560E-01  0.15415421469E-01  0.85540071344E-02  0.10164076430E+01  0.10160349485E+01 0.  0.
     999903    2    3    3    0    0 -0.73319775989E-01  0.17413774586E-01  0.10370271607E+00  0.12973940940E+00  0.19975783707E-01 0.  0.
         14    1    1    2    0    0  0.21134660560E-01 -0.15415421469E-01 -0.85540071344E-02  0.27522356986E-01  0.00000000000E+00 0.  1.
     999901    1    3    3    0    0  0.52185115429E-01 -0.19983531169E-02 -0.95148708936E-01  0.88666823361E+00  0.88000000000E+00 0.  1.
        -11    1    4    4    0    0 -0.20604432714E-01  0.70240165352E-02  0.45998909001E-01  0.50892437612E-01  0.51100000000E-03 0. -1.
         11    1    4    4    0    0 -0.52715343274E-01  0.10389758050E-01  0.57703807069E-01  0.78846971788E-01  0.51100000000E-03 0.  1.
</event>
<event>
 8    1  0.1123361E+005  0.1043930E+01  0.7957747E-01            NaN
         13   -1    0    0    0    0  0.00000000000E+00  0.00000000000E+00  0.74505805969E-08  0.10566000000E+00  0.10566000000E+00 0. -1.
     999900   -1    0    0    0    0 -0.00000000000E+00 -0.00000000000E+00 -0.74505805969E-08  0.93827000000E+00  0.93827000000E+00 0. -1.
     999902    2    1    2    0    0  0.79107043660E-02 -0.25716044934E-01 -0.31253493715E-02  0.10168438039E+01  0.10164829853E+01 0.  0.
     999903    2    3    3    0    0 -0.10874656304E+00 -0.23676136333E-01  0.57983940931E-01  0.12704190200E+00  0.19777084018E-01 0.  0.
         14    1    1    2    0    0 -0.79107043660E-02  0.25716044934E-01  0.31253493715E-02  0.27086196103E-01  0.00000000000E+00 0. -1.
     999901    1    3    3    0    0  0.11665726741E+00 -0.20399086011E-02 -0.61109290303E-01  0.88980190190E+00  0.88000000000E+00 0. -1.
        -11    1    4    4    0    0 -0.54547450591E-01 -0.19191856686E-01  0.22218111010E-01  0.61948828132E-01  0.51100000000E-03 0. -1.
         11    1    4    4    0    0 -0.54199112449E-01 -0.44842796472E-02  0.35765829921E-01  0.65093073864E-01  0.51100000000E-03 0.  1.
</event>
<event>
 8    1  0.1123361E+005  0.1043930E+01  0.7957747E-01            NaN
         13   -1    0    0    0    0  0.00000000000E+00  0.00000000000E+00  0.74505805969E-08  0.10566000000E+00  0.10566000000E+00 0. -1.
     999900   -1    0    0    0    0 -0.00000000000E+00 -0.00000000000E+00 -0.74505805969E-08  0.93827000000E+00  0.93827000000E+00 0.  1.
     999902    2    1    2    0    0  0.14268545611E-01  0.12088484378E-01 -0.14309611326E-01  0.10203824348E+01  0.10201106928E+01 0.  0.
     999903    2    3    3    0    0 -0.12840591472E-01  0.79982853227E-01  0.10029107799E+00  0.12994553724E+00  0.16291246854E-01 0.  0.
         14    1    1    2    0    0 -0.14268545611E-01 -0.12088484378E-01  0.14309611326E-01  0.23547565155E-01  0.00000000000E+00 0. -1.
     999901    1    3    3    0    0  0.27109137083E-01 -0.67894368849E-01 -0.11460068931E+00  0.89043689761E+00  0.88000000000E+00 0.  1.
        -11    1    4    4    0    0 -0.21903029273E-02  0.33186613074E-01  0.29756725164E-01  0.44630399143E-01  0.51100000000E-03 0. -1.
         11    1    4    4    0    0 -0.10650288544E-01  0.46796240153E-01  0.70534352823E-01  0.85315138092E-01  0.51100000000E-03 0.  1.
</event>
<event>
 8    1  0.1123361E+005  0.1043930E+01  0.7957747E-01            NaN
         13   -1    0    0    0    0  0.00000000000E+00  0.00000000000E+00  0.74505805969E-08  0.10566000000E+00  0.10566000000E+00 0. -1.
     999900   -1    0    0    0    0 -0.00000000000E+00 -0.00000000000E+00 -0.74505805969E-08  0.93827000000E+00  0.93827000000E+00 0. -1.
     999902    2    1    2    0    0  0.19006417510E-01 -0.11455061001E-01  0.72059167520E-02  0.10205978855E+01  0.10203311504E+01 0.  0.
     999903    2    3    3    0    0 -0.59235610832E-01 -0.11348656661E+00  0.18897005588E-01  0.13117732995E+00  0.21502015745E-01 0.  0.
         14    1    1    2    0    0 -0.19006417510E-01  0.11455061001E-01 -0.72059167520E-02  0.23332114463E-01  0.00000000000E+00 0.  1.
     999901    1    3    3    0    0  0.78242028342E-01  0.10203150561E+00 -0.11691088836E-01  0.88942055558E+00  0.88000000000E+00 0. -1.
        -11    1    4    4    0    0 -0.21999226334E-01 -0.62200397648E-01  0.41785551201E-02  0.66110338607E-01  0.51100000000E-03 0.  1.
         11    1    4    4    0    0 -0.37236384498E-01 -0.51286168965E-01  0.14718450468E-01  0.65066991346E-01  0.51100000000E-03 0. -1.
</event>
<event>
 8    1  0.1425122E+005  0.1043930E+01  0.7957747E-01            NaN
         13   -1    0    0    0    0  0.00000000000E+00  0.00000000000E+00  0.74505805969E-08  0.10566000000E+00  0.10566000000E+00 0.  1.
     999900   -1    0    0    0    0 -0.00000000000E+00 -0.00000000000E+00 -0.74505805969E-08  0.93827000000E+00  0.93827000000E+00 0. -1.
     999902    2    1    2    0    0  0.13725418485E-01 -0.19166438514E-01 -0.61084254286E-02  0.10195773340E+01  0.10192864601E+01 0.  0.
     999903    2    3    3    0    0  0.54962311080E-01 -0.11862841409E+00 -0.12179235405E-01  0.13299399299E+00  0.21107158214E-01 0.  0.
         14    1    1    2    0    0 -0.13725418485E-01  0.19166438514E-01  0.61084254286E-02  0.24352665955E-01  0.00000000000E+00 0. -1.
     999901    1    3    3    0    0 -0.41236892596E-01  0.99461975579E-01  0.60708099759E-02  0.88658334105E+00  0.88000000000E+00 0.  1.
        -11    1    4    4    0    0  0.43334021026E-01 -0.70394436825E-01 -0.10689840248E-01  0.83353151828E-01  0.51100000000E-03 0.  1.
         11    1    4    4    0    0  0.11628290055E-01 -0.48233977268E-01 -0.14893951567E-02  0.49640841166E-01  0.51100000000E-03 0. -1.
</event>
<event>
 8    1  0.1123361E+005  0.1043930E+01  0.7957747E-01            NaN
         13   -1    0    0    0    0  0.00000000000E+00  0.00000000000E+00  0.74505805969E-08  0.10566000000E+00  0.10566000000E+00 0.  1.
     999900   -1    0    0    0    0 -0.00000000000E+00 -0.00000000000E+00 -0.74505805969E-08  0.93827000000E+00  0.93827000000E+00 0. -1.
     999902    2    1    2    0    0 -0.10627899805E-01  0.19563688503E-01 -0.66375905245E-02  0.10206975277E+01  0.10204330920E+01 0.  0.
     999903    2    3    3    0    0 -0.34711815755E-02 -0.12664301346E+00  0.69277669710E-02  0.12850268504E+00  0.20357901312E-01 0.  0.
         14    1    1    2    0    0  0.10627899805E-01 -0.19563688503E-01  0.66375905245E-02  0.23232472320E-01  0.00000000000E+00 0.  1.
     999901    1    3    3    0    0 -0.71567182290E-02  0.14620670197E+00 -0.13565357496E-01  0.89219484264E+00  0.88000000000E+00 0.  1.
        -11    1    4    4    0    0 -0.95836969399E-02 -0.33593235927E-01 -0.65242135193E-03  0.34943375935E-01  0.51100000000E-03 0. -1.
         11    1    4    4    0    0  0.61125153644E-02 -0.93049777536E-01  0.75801883230E-02  0.93559309102E-01  0.51100000000E-03 0.  1.
</event>
<event>
 8    1  0.1123361E+005  0.1043930E+01  0.7957747E-01            NaN
         13   -1    0    0    0    0  0.00000000000E+00  0.00000000000E+00  0.74505805969E-08  0.10566000000E+00  0.10566000000E+00 0.  1.
     999900   -1    0    0    0    0 -0.00000000000E+00 -0.00000000000E+00 -0.74505805969E-08  0.93827000000E+00  0.93827000000E+00 0.  1.
     999902    2    1    2    0    0  0.15067635088E-01 -0.17793734029E-01  0.27429848809E-02  0.10204528928E+01  0.10201827933E+01 0.  0.
     999903    2    3    3    0    0  0.72532862606E-01 -0.24889639325E-01 -0.10556325628E+00  0.13192442045E+00  0.19492083812E-01 0.  0.
         14    1    1    2    0    0 -0.15067635088E-01  0.17793734029E-01 -0.27429848809E-02  0.23477107230E-01  0.00000000000E+00 0.  1.
     999901    1    3    3    0    0 -0.57465227518E-01  0.70959052952E-02  0.10830624116E+00  0.88852847232E+00  0.88000000000E+00 0. -1.
        -11    1    4    4    0    0  0.57156275497E-01 -0.11601215075E-01 -0.71681953976E-01  0.92412075329E-01  0.51100000000E-03 0. -1.
         11    1    4    4    0    0  0.15376587109E-01 -0.13288424250E-01 -0.33881302305E-01  0.39512345122E-01  0.51100000000E-03 0.  1.
</event>
<event>
 8    1  0.1123361E+005  0.1043930E+01  0.7957747E-01            NaN
         13   -1    0    0    0    0  0.00000000000E+00  0.00000000000E+00  0.74505805969E-08  0.10566000000E+00  0.10566000000E+00 0.  1.
     999900   -1    0    0    0    0 -0.00000000000E+00 -0.00000000000E+00 -0.74505805969E-08  0.93827000000E+00  0.93827000000E+00 0. -1.
     999902    2    1    2    0    0 -0.16226212797E-01  0.16544017579E-01 -0.25063589191E-03  0.10207555029E+01  0.10204924004E+01 0.  0.
     999903    2    3    3    0    0  0.58069369127E-01  0.78250189916E-01  0.85696070554E-01  0.13130942718E+00  0.20079972714E-01 0.  0.
         14    1    1    2    0    0  0.16226212797E-01 -0.16544017579E-01  0.25063589191E-03  0.23174497141E-01  0.00000000000E+00 0.  1.
     999901    1    3    3    0    0 -0.74295581924E-01 -0.61706172337E-01 -0.85946706446E-01  0.88944607568E+00  0.88000000000E+00 0.  1.
        -11    1    4    4    0    0  0.14313701167E-01  0.18919459190E-01  0.33191369603E-01  0.40801422944E-01  0.51100000000E-03 0. -1.
         11    1    4    4    0    0  0.43755667960E-01  0.59330730726E-01  0.52504700951E-01  0.90508004232E-01  0.51100000000E-03 0.  1.
</event>
<event>
 8    1  0.1123361E+005  0.1043930E+01  0.7957747E-01            NaN
         13   -1    0    0    0    0  0.00000000000E+00  0.00000000000E+00  0.74505805969E-08  0.10566000000E+00  0.10566000000E+00 0. -1.
     999900   -1    0    0    0    0 -0.00000000000E+00 -0.00000000000E+00 -0.74505805969E-08  0.93827000000E+00  0.93827000000E+00 0. -1.
     999902    2    1    2    0    0 -0.12909477996E-01  0.17203982745E-01  0.87327727555E-02  0.10207159318E+01  0.10204519197E+01 0.  0.
     999903    2    3    3    0    0 -0.92280601274E-01  0.39620104684E-01 -0.83590009876E-01  0.13205077889E+00  0.19095978288E-01 0.  0.
         14    1    1    2    0    0  0.12909477996E-01 -0.17203982745E-01 -0.87327727555E-02  0.23214068243E-01  0.00000000000E+00 0.  1.
     999901    1    3    3    0    0  0.79371123278E-01 -0.22416121940E-01  0.92322782631E-01  0.88866515287E+00  0.88000000000E+00 0.  1.
        -11    1    4    4    0    0 -0.83922418156E-01  0.29487190132E-01 -0.74958835642E-01  0.11632521142E+00  0.51100000000E-03 0.  1.
         11    1    4    4    0    0 -0.83581831185E-02  0.10132914553E-01 -0.86311742335E-02  0.15725567463E-01  0.51100000000E-03 0. -1.
</event>
<event>
 8    1  0.1137499E+005  0.1043930E+01  0.7957747E-01            NaN
         13   -1    0    0    0    0  0.00000000000E+00  0.00000000000E+00  0.74505805969E-08  0.10566000000E+00  0.10566000000E+00 0. -1.
     999900   -1    0    0    0    0 -0.00000000000E+00 -0.00000000000E+00 -0.74505805969E-08  0.93827000000E+00  0.93827000000E+00 0.  1.
     999902    2    1    2    0    0 -0.52251371537E-02 -0.22099562219E-01  0.91150296601E-02  0.10194600904E+01  0.10191663748E+01 0.  0.
     999903    2    3    3    0    0 -0.95494794916E-01  0.72164472858E-01 -0.40821014740E-01  0.12843375639E+00  0.22403293014E-01 0.  0.
         14    1    1    2    0    0  0.52251371537E-02  0.22099562219E-01 -0.91150296601E-02  0.24469909568E-01  0.00000000000E+00 0. -1.
     999901    1    3    3    0    0  0.90269657763E-01 -0.94264035076E-01  0.49936044401E-01  0.89102633404E+00  0.88000000000E+00 0. -1.
        -11    1    4    4    0    0 -0.46154490832E-01  0.40194007009E-01 -0.98895114889E-02  0.61998861134E-01  0.51100000000E-03 0.  1.
         11    1    4    4    0    0 -0.49340304084E-01  0.31970465849E-01 -0.30931503252E-01  0.66434895259E-01  0.51100000000E-03 0. -1.
</event>
<event>
 8    1  0.1123361E+005  0.1043930E+01  0.7957747E-01            NaN
         13   -1    0    0    0    0  0.00000000000E+00  0.00000000000E+00  0.74505805969E-08  0.10566000000E+00  0.10566000000E+00 0. -1.
     999900   -1    0    0    0    0 -0.00000000000E+00 -0.00000000000E+00 -0.74505805969E-08  0.93827000000E+00  0.93827000000E+00 0.  1.
     999902    2    1    2    0    0  0.66613597049E-02  0.13200564680E-01  0.19158035910E-01  0.10197296082E+01  0.10194424040E+01 0.  0.
     999903    2    3    3    0    0 -0.62567171294E-01 -0.66540109154E-01  0.91126755880E-01  0.13049923246E+00  0.19588950609E-01 0.  0.
         14    1    1    2    0    0 -0.66613597049E-02 -0.13200564680E-01 -0.19158035910E-01  0.24200391752E-01  0.00000000000E+00 0.  1.
     999901    1    3    3    0    0  0.69228530999E-01  0.79740673835E-01 -0.71968719970E-01  0.88923037579E+00  0.88000000000E+00 0.  1.
        -11    1    4    4    0    0 -0.46981970424E-01 -0.37185988610E-01  0.53930684702E-01  0.80615650883E-01  0.51100000000E-03 0. -1.
         11    1    4    4    0    0 -0.15585200870E-01 -0.29354120544E-01  0.37196071177E-01  0.49883581578E-01  0.51100000000E-03 0.  1.
</event>
<event>
 8    1  0.1123361E+005  0.1043930E+01  0.7957747E-01            NaN
         13   -1    0    0    0    0  0.00000000000E+00  0.00000000000E+00  0.74505805969E-08  0.10566000000E+00  0.10566000000E+00 0. -1.
     999900   -1    0    0    0    0 -0.00000000000E+00 -0.00000000000E+00 -0.74505805969E-08  0.93827000000E+00  0.93827000000E+00 0. -1.
     999902    2    1    2    0    0 -0.22709278104E-01  0.36928426705E-02  0.66749771321E-02  0.10199737123E+01  0.10196923409E+01 0.  0.
     999903    2    3    3    0    0  0.38517174996E-01 -0.10747301462E+00  0.56699125929E-01  0.12946321725E+00  0.22625474545E-01 0.  0.
         14    1    1    2    0    0  0.22709278104E-01 -0.36928426705E-02 -0.66749771321E-02  0.23956287665E-01  0.00000000000E+00 0.  1.
     999901    1    3    3    0    0 -0.61226453099E-01  0.11116585729E+00 -0.50024148797E-01  0.89051049508E+00  0.88000000000E+00 0. -1.
        -11    1    4    4    0    0  0.29144378748E-01 -0.83874131509E-01  0.33007733434E-01  0.94731390450E-01  0.51100000000E-03 0.  1.
         11    1    4    4    0    0  0.93727962482E-02 -0.23598883115E-01  0.23691392495E-01  0.34731826804E-01  0.51100000000E-03 0. -1.
</event>
<event>
 8    1  0.1123361E+005  0.1043930E+01  0.7957747E-01            NaN
         13   -1    0    0    0    0  0.00000000000E+00  0.00000000000E+00  0.74505805969E-08  0.10566000000E+00  0.10566000000E+00 0. -1.
     999900   -1    0    0    0    0 -0.00000000000E+00 -0.00000000000E+00 -0.74505805969E-08  0.93827000000E+00  0.93827000000E+00 0. -1.
     999902    2    1    2    0    0 -0.11222976150E-01 -0.18473632596E-01  0.10361114891E-01  0.10199595391E+01  0.10196778307E+01 0.  0.
     999903    2    3    3    0    0 -0.54759868829E-01  0.67560424639E-01  0.95651325195E-01  0.13059361889E+00  0.18505757767E-01 0.  0.
         14    1    1    2    0    0  0.11222976150E-01  0.18473632596E-01 -0.10361114891E-01  0.23970460921E-01  0.00000000000E+00 0.  1.
     999901    1    3    3    0    0  0.43536892679E-01 -0.86034057235E-01 -0.85290210304E-01  0.88936592019E+00  0.88000000000E+00 0. -1.
        -11    1    4    4    0    0 -0.20893012606E-01  0.14151501503E-01  0.21685500134E-01  0.33276192805E-01  0.51100000000E-03 0. -1.
         11    1    4    4    0    0 -0.33866856223E-01  0.53408923136E-01  0.73965825061E-01  0.97317426080E-01  0.51100000000E-03 0.  1.
</event>
<event>
 8    1  0.1123361E+005  0.1043930E+01  0.7957747E-01            NaN
         13   -1    0    0    0    0  0.00000000000E+00  0.00000000000E+00  0.74505805969E-08  0.10566000000E+00  0.10566000000E+00 0. -1.
     999900   -1    0    0    0    0 -0.00000000000E+00 -0.00000000000E+00 -0.74505805969E-08  0.93827000000E+00  0.93827000000E+00 0. -1.
     999902    2    1    2    0    0  0.18946607936E-01  0.22959070656E-02 -0.16111142365E-01  0.10189537303E+01  0.10186475791E+01 0.  0.
     999903    2    3    3    0    0 -0.82268837270E-01 -0.91434311772E-01 -0.29924414085E-01  0.12809979906E+00  0.19639068345E-01 0.  0.
         14    1    1    2    0    0 -0.18946607936E-01 -0.22959070656E-02  0.16111142365E-01  0.24976269735E-01  0.00000000000E+00 0. -1.
     999901    1    3    3    0    0  0.10121544521E+00  0.93730218838E-01  0.13813271720E-01  0.89085393121E+00  0.88000000000E+00 0. -1.
        -11    1    4    4    0    0 -0.30146764212E-01 -0.48042659548E-01 -0.14566047874E-01  0.58560698430E-01  0.51100000000E-03 0.  1.
         11    1    4    4    0    0 -0.52122073058E-01 -0.43391652224E-01 -0.15358366211E-01  0.69539100629E-01  0.51100000000E-03 0. -1.
</event>
<event>
 8    1  0.1123361E+005  0.1043930E+01  0.7957747E-01            NaN
         13   -1    0    0    0    0  0.00000000000E+00  0.00000000000E+00  0.74505805969E-08  0.10566000000E+00  0.10566000000E+00 0. -1.
     999900   -1    0    0    0    0 -0.00000000000E+00 -0.00000000000E+00 -0.74505805969E-08  0.93827000000E+00  0.93827000000E+00 0. -1.
     999902    2    1    2    0    0 -0.80863624416E-03  0.36573929417E-02  0.22936980876E-01  0.10206891845E+01  0.10204245566E+01 0.  0.
     999903    2    3    3    0    0 -0.15084678898E-01 -0.41746277837E-01  0.12445320436E+00  0.13357541365E+00  0.19582946824E-01 0.  0.
         14    1    1    2    0    0  0.80863624416E-03 -0.36573929417E-02 -0.22936980876E-01  0.23240815550E-01  0.00000000000E+00 0.  1.
     999901    1    3    3    0    0  0.14276042654E-01  0.45403670778E-01 -0.10151622348E+00  0.88711377080E+00  0.88000000000E+00 0. -1.
        -11    1    4    4    0    0 -0.20007428465E-03 -0.78901672710E-02  0.74510317904E-02  0.10866175271E-01  0.51100000000E-03 0.  1.
         11    1    4    4    0    0 -0.14884604614E-01 -0.33856110565E-01  0.11700217257E+00  0.12270923838E+00  0.51100000000E-03 0. -1.
</event>
<event>
 8    1  0.1123361E+005  0.1043930E+01  0.7957747E-01            NaN
         13   -1    0    0    0    0  0.00000000000E+00  0.00000000000E+00  0.74505805969E-08  0.10566000000E+00  0.10566000000E+00 0. -1.
     999900   -1    0    0    0    0 -0.00000000000E+00 -0.00000000000E+00 -0.74505805969E-08  0.93827000000E+00  0.93827000000E+00 0. -1.
     999902    2    1    2    0    0 -0.17349388555E-01  0.13769925589E-01  0.84904750888E-02  0.10202086952E+01  0.10199328809E+01 0.  0.
     999903    2    3    3    0    0 -0.13402590002E-01 -0.27425836000E-01 -0.12398213369E+00  0.12933179009E+00  0.20575144102E-01 0.  0.
         14    1    1    2    0    0  0.17349388555E-01 -0.13769925589E-01 -0.84904750888E-02  0.23721304795E-01  0.00000000000E+00 0.  1.
     999901    1    3    3    0    0 -0.39467985521E-02  0.41195761588E-01  0.13247260878E+00  0.89087690512E+00  0.88000000000E+00 0.  1.
        -11    1    4    4    0    0  0.24314218849E-02 -0.11695639515E-01 -0.68337868677E-01  0.69375969992E-01  0.51100000000E-03 0. -1.
         11    1    4    4    0    0 -0.15834011887E-01 -0.15730196485E-01 -0.55644265012E-01  0.59955820098E-01  0.51100000000E-03 0.  1.
</event>
<event>
 8    1  0.1123361E+005  0.1043930E+01  0.7957747E-01            NaN
         13   -1    0    0    0    0  0.00000000000E+00  0.00000000000E+00  0.74505805969E-08  0.10566000000E+00  0.10566000000E+00 0. -1.
     999900   -1    0    0    0    0 -0.00000000000E+00 -0.00000000000E+00 -0.74505805969E-08  0.93827000000E+00  0.93827000000E+00 0.  1.
     999902    2    1    2    0    0  0.13924292047E-01 -0.22997188577E-04  0.18939417644E-01  0.10204228101E+01  0.10201520099E+01 0.  0.
     999903    2    3    3    0    0  0.91687137757E-01 -0.82277816506E-01 -0.39467405629E-01  0.13125225698E+00  0.22210550102E-01 0.  0.
         14    1    1    2    0    0 -0.13924292047E-01  0.22997188577E-04 -0.18939417644E-01  0.23507189933E-01  0.00000000000E+00 0.  1.
     999901    1    3    3    0    0 -0.77762845710E-01  0.82254819318E-01  0.58406823273E-01  0.88917055309E+00  0.88000000000E+00 0.  1.
        -11    1    4    4    0    0  0.33241390113E-01 -0.31034344888E-01 -0.35305456452E-02  0.45616295913E-01  0.51100000000E-03 0.  1.
         11    1    4    4    0    0  0.58445747644E-01 -0.51243471619E-01 -0.35936859984E-01  0.85635961066E-01  0.51100000000E-03 0. -1.
</event>
<event>
 8    1  0.1123361E+005  0.1043930E+01  0.7957747E-01            NaN
         13   -1    0    0    0    0  0.00000000000E+00  0.00000000000E+00  0.74505805969E-08  0.10566000000E+00  0.10566000000E+00 0. -1.
     999900   -1    0    0    0    0 -0.00000000000E+00 -0.00000000000E+00 -0.74505805969E-08  0.93827000000E+00  0.93827000000E+00 0. -1.
     999902    2    1    2    0    0  0.81554134983E-03 -0.14190219437E-01  0.19108248303E-01  0.10201150344E+01  0.10198370118E+01 0.  0.
     999903    2    3    3    0    0  0.27676459915E-01 -0.11346282239E+00 -0.55662360174E-01  0.13097657352E+00  0.20414846871E-01 0.  0.
         14    1    1    2    0    0 -0.81554134983E-03  0.14190219437E-01 -0.19108248303E-01  0.23814965643E-01  0.00000000000E+00 0.  1.
     999901    1    3    3    0    0 -0.26860918565E-01  0.99272602955E-01  0.74770608477E-01  0.88913846083E+00  0.88000000000E+00 0. -1.
        -11    1    4    4    0    0  0.14315216471E-01 -0.23267832376E-01 -0.14545396591E-01  0.30953951753E-01  0.51100000000E-03 0.  1.
         11    1    4    4    0    0  0.13361243444E-01 -0.90194990016E-01 -0.41116963583E-01  0.10002262177E+00  0.51100000000E-03 0. -1.
</event>
<event>
 8    1  0.1123361E+005  0.1043930E+01  0.7957747E-01            NaN
         13   -1    0    0    0    0  0.00000000000E+00  0.00000000000E+00  0.74505805969E-08  0.10566000000E+00  0.10566000000E+00 0.  1.
     999900   -1    0    0    0    0 -0.00000000000E+00 -0.00000000000E+00 -0.74505805969E-08  0.93827000000E+00  0.93827000000E+00 0. -1.
     999902    2    1    2    0    0  0.83907459380E-02  0.11166079177E-01 -0.20197946130E-01  0.10193730668E+01  0.10190772327E+01 0.  0.
     999903    2    3    3    0    0 -0.23037514005E-01  0.12592879208E+00  0.16253332280E-01  0.13061724457E+00  0.20196683990E-01 0.  0.
         14    1    1    2    0    0 -0.83907459380E-02 -0.11166079177E-01  0.20197946130E-01  0.24556933226E-01  0.00000000000E+00 0.  1.
     999901    1    3    3    0    0  0.31428259943E-01 -0.11476271290E+00 -0.36451278410E-01  0.88875582220E+00  0.88000000000E+00 0. -1.
        -11    1    4    4    0    0 -0.19193845617E-02  0.66466803960E-01  0.87666866521E-02  0.67071871762E-01  0.51100000000E-03 0. -1.
         11    1    4    4    0    0 -0.21118129443E-01  0.59461988119E-01  0.74866456275E-02  0.63545372813E-01  0.51100000000E-03 0.  1.
</event>
<event>
 8    1  0.1123361E+005  0.1043930E+01  0.7957747E-01            NaN
         13   -1    0    0    0    0  0.00000000000E+00  0.00000000000E+00  0.74505805969E-08  0.10566000000E+00  0.10566000000E+00 0. -1.
     999900   -1    0    0    0    0 -0.00000000000E+00 -0.00000000000E+00 -0.74505805969E-08  0.93827000000E+00  0.93827000000E+00 0. -1.
     999902    2    1    2    0    0  0.15037538738E-02 -0.21969392378E-01  0.89430114768E-02  0.10201625237E+01  0.10198856219E+01 0.  0.
     999903    2    3    3    0    0  0.65765676000E-01 -0.50867966902E-02  0.11210504747E+00  0.13164858323E+00  0.20317680909E-01 0.  0.
         14    1    1    2    0    0 -0.15037538738E-02  0.21969392378E-01 -0.89430114768E-02  0.23767476337E-01  0.00000000000E+00 0.  1.
     999901    1    3    3    0    0 -0.64261922126E-01 -0.16882595688E-01 -0.10316203600E+00  0.88851394043E+00  0.88000000000E+00 0. -1.
        -11    1    4    4    0    0  0.20246590298E-01  0.68109291520E-02  0.43426020513E-01  0.48398280478E-01  0.51100000000E-03 0.  1.
         11    1    4    4    0    0  0.45519085701E-01 -0.11897725842E-01  0.68679026959E-01  0.83250302752E-01  0.51100000000E-03 0. -1.
</event>
<event>
 8    1  0.1123361E+005  0.1043930E+01  0.7957747E-01            NaN
         13   -1    0    0    0    0  0.00000000000E+00  0.00000000000E+00  0.74505805969E-08  0.10566000000E+00  0.10566000000E+00 0.  1.
     999900   -1    0    0    0    0 -0.00000000000E+00 -0.00000000000E+00 -0.74505805969E-08  0.93827000000E+00  0.93827000000E+00 0.  1.
     999902    2    1    2    0    0 -0.11570398909E-02  0.49644271187E-02  0.23209541331E-01  0.10201672753E+01  0.10198904855E+01 0.  0.
     999903    2    3    3    0    0 -0.53429016847E-01  0.11566250161E+00 -0.20842999340E-01  0.13060162305E+00  0.19745358999E-01 0.  0.
         14    1    1    2    0    0  0.11570398909E-02 -0.49644271187E-02 -0.23209541331E-01  0.23762724732E-01  0.00000000000E+00 0. -1.
     999901    1    3    3    0    0  0.52271976957E-01 -0.11069807449E+00  0.44052540671E-01  0.88956565222E+00  0.88000000000E+00 0.  1.
        -11    1    4    4    0    0 -0.16601368627E-01  0.33283205119E-01 -0.15213783558E-01  0.40188275833E-01  0.51100000000E-03 0. -1.
         11    1    4    4    0    0 -0.36827648220E-01  0.82379296487E-01 -0.56292157824E-02  0.90413347214E-01  0.51100000000E-03 0.  1.
</event>
<event>
 8    1  0.1300078E+005  0.1043930E+01  0.7957747E-01            NaN
         13   -1    0    0    0    0  0.00000000000E+00  0.00000000000E+00  0.74505805969E-08  0.10566000000E+00  0.10566000000E+00 0.  1.
     999900   -1    0    0    0    0 -0.00000000000E+00 -0.00000000000E+00 -0.74505805969E-08  0.93827000000E+00  0.93827000000E+00 0. -1.
     999902    2    1    2    0    0  0.57688880995E-02 -0.21366352427E-01 -0.57393155237E-02  0.10210664738E+01  0.10208104639E+01 0.  0.
     999903    2    3    3    0    0  0.50729251098E-01 -0.11154321329E+00 -0.50790641233E-01  0.13417137157E+00  0.20172316762E-01 0.  0.
         14    1    1    2    0    0 -0.57688880995E-02  0.21366352427E-01  0.57393155237E-02  0.22863526163E-01  0.00000000000E+00 0. -1.
     999901    1    3    3    0    0 -0.44960362998E-01  0.90176860866E-01  0.45051325709E-01  0.88689510227E+00  0.88000000000E+00 0. -1.
        -11    1    4    4    0    0  0.30587900567E-01 -0.50027143194E-01 -0.16491871617E-01  0.60914511142E-01  0.51100000000E-03 0.  1.
         11    1    4    4    0    0  0.20141350531E-01 -0.61516070099E-01 -0.34298769616E-01  0.73256860429E-01  0.51100000000E-03 0. -1.
</event>
<event>
 8    1  0.1123361E+005  0.1043930E+01  0.7957747E-01            NaN
         13   -1    0    0    0    0  0.00000000000E+00  0.00000000000E+00  0.74505805969E-08  0.10566000000E+00  0.10566000000E+00 0. -1.
     999900   -1    0    0    0    0 -0.00000000000E+00 -0.00000000000E+00 -0.74505805969E-08  0.93827000000E+00  0.93827000000E+00 0.  1.
     999902    2    1    2    0    0  0.26584764392E-01 -0.10108475812E-01  0.62556662748E-02  0.10148084557E+01  0.10143905251E+01 0.  0.
     999903    2    3    3    0    0  0.10957007897E+00 -0.64671817211E-01  0.97637739234E-02  0.12921485395E+00  0.20324887535E-01 0.  0.
         14    1    1    2    0    0 -0.26584764392E-01  0.10108475812E-01 -0.62556662748E-02  0.29121544285E-01  0.00000000000E+00 0. -1.
     999901    1    3    3    0    0 -0.82985314582E-01  0.54563341399E-01 -0.35081076486E-02  0.88559360176E+00  0.88000000000E+00 0. -1.
        -11    1    4    4    0    0  0.18363204394E-01 -0.10619990581E-01  0.93618630867E-02  0.23192608241E-01  0.51100000000E-03 0.  1.
         11    1    4    4    0    0  0.91206874580E-01 -0.54051826629E-01  0.40191083673E-03  0.10602224571E+00  0.51100000000E-03 0. -1.
</event>
<event>
 8    1  0.1123361E+005  0.1043930E+01  0.7957747E-01            NaN
         13   -1    0    0    0    0  0.00000000000E+00  0.00000000000E+00  0.74505805969E-08  0.10566000000E+00  0.10566000000E+00 0. -1.
     999900   -1    0    0    0    0 -0.00000000000E+00 -0.00000000000E+00 -0.74505805969E-08  0.93827000000E+00  0.93827000000E+00 0.  1.
     999902    2    1    2    0    0 -0.99603917712E-02 -0.97560396842E-02 -0.19240431352E-01  0.10201690254E+01  0.10198922769E+01 0.  0.
     999903    2    3    3    0    0 -0.73276183662E-01  0.80802491307E-01 -0.71106127362E-01  0.13174357133E+00  0.20046085557E-01 0.  0.
         14    1    1    2    0    0  0.99603917712E-02  0.97560396842E-02  0.19240431352E-01  0.23760974583E-01  0.00000000000E+00 0. -1.
     999901    1    3    3    0    0  0.63315791890E-01 -0.90558530991E-01  0.51865696010E-01  0.88842545408E+00  0.88000000000E+00 0. -1.
        -11    1    4    4    0    0 -0.53258184129E-01  0.58060641843E-01 -0.40164897714E-01  0.88436148928E-01  0.51100000000E-03 0. -1.
         11    1    4    4    0    0 -0.20017999533E-01  0.22741849464E-01 -0.30941229648E-01  0.43307422406E-01  0.51100000000E-03 0.  1.
</event>
<event>
 8    1  0.1123361E+005  0.1043930E+01  0.7957747E-01            NaN
         13   -1    0    0    0    0  0.00000000000E+00  0.00000000000E+00  0.74505805969E-08  0.10566000000E+00  0.10566000000E+00 0.  1.
     999900   -1    0    0    0    0 -0.00000000000E+00 -0.00000000000E+00 -0.74505805969E-08  0.93827000000E+00  0.93827000000E+00 0.  1.
     999902    2    1    2    0    0  0.10124602913E-01 -0.20281994674E-01 -0.33128131039E-02  0.10210205779E+01  0.10207635274E+01 0.  0.
     999903    2    3    3    0    0  0.12253874642E+00 -0.46091841612E-01  0.15333158762E-01  0.13329834646E+00  0.19827787932E-01 0.  0.
         14    1    1    2    0    0 -0.10124602913E-01  0.20281994674E-01  0.33128131039E-02  0.22909422139E-01  0.00000000000E+00 0.  1.
     999901    1    3    3    0    0 -0.11241414350E+00  0.25809846938E-01 -0.18645971866E-01  0.88772223140E+00  0.88000000000E+00 0.  1.
        -11    1    4    4    0    0  0.76018752220E-01 -0.37299343967E-01  0.49223230176E-02  0.84820882655E-01  0.51100000000E-03 0. -1.
         11    1    4    4    0    0  0.46519994197E-01 -0.87924976451E-02  0.10410835745E-01  0.48477463804E-01  0.51100000000E-03 0.  1.
</event>
<event>
 8    1  0.1123361E+005  0.1043930E+01  0.7957747E-01            NaN
         13   -1    0    0    0    0  0.00000000000E+00  0.00000000000E+00  0.74505805969E-08  0.10566000000E+00  0.10566000000E+00 0. -1.
     999900   -1    0    0    0    0 -0.00000000000E+00 -0.00000000000E+00 -0.74505805969E-08  0.93827000000E+00  0.93827000000E+00 0. -1.
     999902    2    1    2    0    0  0.75828915993E-03 -0.10675056843E-01 -0.21227441665E-01  0.10201574082E+01  0.10198803858E+01 0.  0.
     999903    2    3    3    0    0  0.78964353690E-01  0.83876816055E-01 -0.59250175770E-01  0.13083071148E+00  0.18313992255E-01 0.  0.
         14    1    1    2    0    0 -0.75828915993E-03  0.10675056843E-01  0.21227441665E-01  0.23772591796E-01  0.00000000000E+00 0. -1.
     999901    1    3    3    0    0 -0.78206064530E-01 -0.94551872898E-01  0.38022734105E-01  0.88932669672E+00  0.88000000000E+00 0.  1.
        -11    1    4    4    0    0  0.35253726489E-01  0.48884073442E-01 -0.35970370805E-01  0.70189789603E-01  0.51100000000E-03 0.  1.
         11    1    4    4    0    0  0.43710627200E-01  0.34992742613E-01 -0.23279804965E-01  0.60640921877E-01  0.51100000000E-03 0. -1.
</event>
<event>
 8    1  0.1123361E+005  0.1043930E+01  0.7957747E-01            NaN
         13   -1    0    0    0    0  0.00000000000E+00  0.00000000000E+00  0.74505805969E-08  0.10566000000E+00  0.10566000000E+00 0.  1.
     999900   -1    0    0    0    0 -0.00000000000E+00 -0.00000000000E+00 -0.74505805969E-08  0.93827000000E+00  0.93827000000E+00 0.  1.
     999902    2    1    2    0    0 -0.18603840658E-01 -0.12148684102E-01 -0.74286911579E-02  0.10205018361E+01  0.10202328747E+01 0.  0.
     999903    2    3    3    0    0 -0.53186153746E-01 -0.11509506556E+00 -0.37371219246E-01  0.13332065457E+00  0.17382400260E-01 0.  0.
         14    1    1    2    0    0  0.18603840658E-01  0.12148684102E-01  0.74286911579E-02  0.23428163926E-01  0.00000000000E+00 0.  1.
     999901    1    3    3    0    0  0.34582313088E-01  0.10294638146E+00  0.29942528088E-01  0.88718118151E+00  0.88000000000E+00 0. -1.
        -11    1    4    4    0    0 -0.31976253159E-01 -0.49980223306E-01 -0.20629997186E-01  0.62820071575E-01  0.51100000000E-03 0. -1.
         11    1    4    4    0    0 -0.21209900588E-01 -0.65114842256E-01 -0.16741222060E-01  0.70500582991E-01  0.51100000000E-03 0.  1.
</event>
<event>
 8    1  0.1123361E+005  0.1043930E+01  0.7957747E-01            NaN
         13   -1    0    0    0    0  0.00000000000E+00  0.00000000000E+00  0.74505805969E-08  0.10566000000E+00  0.10566000000E+00 0. -1.
     999900   -1    0    0    0    0 -0.00000000000E+00 -0.00000000000E+00 -0.74505805969E-08  0.93827000000E+00  0.93827000000E+00 0.  1.
     999902    2    1    2    0    0  0.85514021209E-02 -0.20713692857E-01  0.10224752427E-01  0.10192981281E+01  0.10190004636E+01 0.  0.
     999903    2    3    3    0    0 -0.11703548496E+00 -0.51887421369E-01 -0.66457684149E-02  0.12967546540E+00  0.19543562946E-01 0.  0.
         14    1    1    2    0    0 -0.85514021209E-02  0.20713692857E-01 -0.10224752427E-01  0.24631871878E-01  0.00000000000E+00 0.  1.
     999901    1    3    3    0    0  0.12558688708E+00  0.31173728512E-01  0.16870520842E-01  0.88962266272E+00  0.88000000000E+00 0. -1.
        -11    1    4    4    0    0 -0.97291940285E-01 -0.38028735626E-01  0.66949423767E-03  0.10446346596E+00  0.51100000000E-03 0. -1.
         11    1    4    4    0    0 -0.19743544676E-01 -0.13858685743E-01 -0.73152626526E-02  0.25211999436E-01  0.51100000000E-03 0.  1.
</event>
<event>
 8    1  0.1123361E+005  0.1043930E+01  0.7957747E-01            NaN
         13   -1    0    0    0    0  0.00000000000E+00  0.00000000000E+00  0.74505805969E-08  0.10566000000E+00  0.10566000000E+00 0.  1.
     999900   -1    0    0    0    0 -0.00000000000E+00 -0.00000000000E+00 -0.74505805969E-08  0.93827000000E+00  0.93827000000E+00 0.  1.
     999902    2    1    2    0    0 -0.12494355226E-01 -0.64696577721E-02  0.19093866073E-01  0.10202120510E+01  0.10199363156E+01 0.  0.
     999903    2    3    3    0    0 -0.41251080849E-01  0.57006758853E-01 -0.10586769129E+00  0.12865633452E+00  0.19825794463E-01 0.  0.
         14    1    1    2    0    0  0.12494355226E-01  0.64696577721E-02 -0.19093866073E-01  0.23717949022E-01  0.00000000000E+00 0. -1.
     999901    1    3    3    0    0  0.28756725623E-01 -0.63476416625E-01  0.12496155736E+00  0.89155571646E+00  0.88000000000E+00 0. -1.
        -11    1    4    4    0    0 -0.34737966123E-01  0.48374192911E-01 -0.73939262525E-01  0.94942427260E-01  0.51100000000E-03 0. -1.
         11    1    4    4    0    0 -0.65131147261E-02  0.86325659426E-02 -0.31928428764E-01  0.33713907257E-01  0.51100000000E-03 0.  1.
</event>
<event>
 8    1  0.1123361E+005  0.1043930E+01  0.7957747E-01            NaN
         13   -1    0    0    0    0  0.00000000000E+00  0.00000000000E+00  0.74505805969E-08  0.10566000000E+00  0.10566000000E+00 0. -1.
     999900   -1    0    0    0    0 -0.00000000000E+00 -0.00000000000E+00 -0.74505805969E-08  0.93827000000E+00  0.93827000000E+00 0.  1.
     999902    2    1    2    0    0  0.18772476337E-01  0.15350939229E-02  0.13862607919E-01  0.10205433739E+01  0.10202753764E+01 0.  0.
     999903    2    3    3    0    0  0.10271589043E-01  0.59117859430E-01  0.11667477216E+00  0.13264789523E+00  0.19545710632E-01 0.  0.
         14    1    1    2    0    0 -0.18772476337E-01 -0.15350939229E-02 -0.13862607919E-01  0.23386626082E-01  0.00000000000E+00 0. -1.
     999901    1    3    3    0    0  0.85008872937E-02 -0.57582765507E-01 -0.10281216424E+00  0.88789547869E+00  0.88000000000E+00 0.  1.
        -11    1    4    4    0    0  0.69720852386E-02  0.39398832648E-01  0.56482667048E-01  0.69220161690E-01  0.51100000000E-03 0. -1.
         11    1    4    4    0    0  0.32995038042E-02  0.19719026782E-01  0.60192105112E-01  0.63427733535E-01  0.51100000000E-03 0.  1.
</event>
<event>
 8    1  0.1123361E+005  0.1043930E+01  0.7957747E-01            NaN
         13   -1    0    0    0    0  0.00000000000E+00  0.00000000000E+00  0.74505805969E-08  0.10566000000E+00  0.10566000000E+00 0.  1.
     999900   -1    0    0    0    0 -0.00000000000E+00 -0.00000000000E+00 -0.74505805969E-08  0.93827000000E+00  0.93827000000E+00 0.  1.
     999902    2    1    2    0    0  0.75091935252E-02 -0.33549247961E-02  0.21708286041E-01  0.10207159269E+01  0.10204519147E+01 0.  0.
     999903    2    3    3    0    0  0.12796064319E+00  0.17976545914E-01  0.20033598837E-01  0.13225299128E+00  0.19809750422E-01 0.  0.
         14    1    1    2    0    0 -0.75091935252E-02  0.33549247961E-02 -0.21708286041E-01  0.23214073115E-01  0.00000000000E+00 0. -1.
     999901    1    3    3    0    0 -0.12045144966E+00 -0.21331470710E-01  0.16746872032E-02  0.88846293561E+00  0.88000000000E+00 0. -1.
        -11    1    4    4    0    0  0.59151127666E-01  0.15731823509E-01  0.27630942018E-02  0.61271869448E-01  0.51100000000E-03 0. -1.
         11    1    4    4    0    0  0.68809515522E-01  0.22447224050E-02  0.17270504635E-01  0.70981121831E-01  0.51100000000E-03 0.  1.
</event>
<event>
 8    1  0.1568575E+005  0.1043930E+01  0.7957747E-01            NaN
         13   -1    0    0    0    0  0.00000000000E+00  0.00000000000E+00  0.74505805969E-08  0.10566000000E+00  0.10566000000E+00 0. -1.
     999900   -1    0    0    0    0 -0.00000000000E+00 -0.00000000000E+00 -0.74505805969E-08  0.93827000000E+00  0.93827000000E+00 0.  1.
     999902    2    1    2    0    0  0.22135611066E-01 -0.59187628764E-02  0.68864014361E-02  0.10200042909E+01  0.10197236458E+01 0.  0.
     999903    2    3    3    0    0 -0.51817770258E-02  0.12431993703E+00 -0.28882602416E-01  0.12928111264E+00  0.19927463623E-01 0.  0.
         14    1    1    2    0    0 -0.22135611066E-01  0.59187628764E-02 -0.68864014361E-02  0.23925709101E-01  0.00000000000E+00 0.  1.
     999901    1    3    3    0    0  0.27317388092E-01 -0.13023869991E+00  0.35769003852E-01  0.89072317826E+00  0.88000000000E+00 0.  1.
        -11    1    4    4    0    0  0.63783295262E-02  0.75905305643E-01 -0.19426768864E-01  0.78612715141E-01  0.51100000000E-03 0. -1.
         11    1    4    4    0    0 -0.11560106552E-01  0.48414631391E-01 -0.94558335521E-02  0.50668397502E-01  0.51100000000E-03 0.  1.
</event>
<event>
 8    1  0.1123361E+005  0.1043930E+01  0.7957747E-01            NaN
         13   -1    0    0    0    0  0.00000000000E+00  0.00000000000E+00  0.74505805969E-08  0.10566000000E+00  0.10566000000E+00 0. -1.
     999900   -1    0    0    0    0 -0.00000000000E+00 -0.00000000000E+00 -0.74505805969E-08  0.93827000000E+00  0.93827000000E+00 0.  1.
     999902    2    1    2    0    0  0.55639465901E-02  0.14938257293E-01  0.16588726392E-01  0.10209235905E+01  0.10206643341E+01 0.  0.
     999903    2    3    3    0    0 -0.17721915639E-01  0.30752319129E-01  0.12717215545E+00  0.13355612962E+00  0.20117435522E-01 0.  0.
         14    1    1    2    0    0 -0.55639465901E-02 -0.14938257293E-01 -0.16588726392E-01  0.23006409453E-01  0.00000000000E+00 0.  1.
     999901    1    3    3    0    0  0.23285862229E-01 -0.15814061836E-01 -0.11058342906E+00  0.88736746093E+00  0.88000000000E+00 0.  1.
        -11    1    4    4    0    0 -0.16811417132E-01  0.11393177912E-01  0.49622099772E-01  0.53619419576E-01  0.51100000000E-03 0. -1.
         11    1    4    4    0    0 -0.91049850646E-03  0.19359141217E-01  0.77550055676E-01  0.79936710043E-01  0.51100000000E-03 0.  1.
</event>
<event>
 8    1  0.1123361E+005  0.1043930E+01  0.7957747E-01            NaN
         13   -1    0    0    0    0  0.00000000000E+00  0.00000000000E+00  0.74505805969E-08  0.10566000000E+00  0.10566000000E+00 0.  1.
     999900   -1    0    0    0    0 -0.00000000000E+00 -0.00000000000E+00 -0.74505805969E-08  0.93827000000E+00  0.93827000000E+00 0. -1.
     999902    2    1    2    0    0  0.29776318719E-02  0.32558605461E-02 -0.23343601358E-01  0.10201730927E+01  0.10198964401E+01 0.  0.
     999903    2    3    3    0    0 -0.53098799226E-01 -0.97397134720E-01 -0.68140877689E-01  0.13153233991E+00  0.18758808556E-01 0.  0.
         14    1    1    2    0    0 -0.29776318719E-02 -0.32558605461E-02  0.23343601358E-01  0.23756907286E-01  0.00000000000E+00 0.  1.
     999901    1    3    3    0    0  0.56076431098E-01  0.10065299527E+00  0.44797276332E-01  0.88864075281E+00  0.88000000000E+00 0.  1.
        -11    1    4    4    0    0 -0.23807075713E-01 -0.48926248517E-01 -0.22861582119E-01  0.59020909057E-01  0.51100000000E-03 0.  1.
         11    1    4    4    0    0 -0.29291723513E-01 -0.48470886203E-01 -0.45279295570E-01  0.72511430851E-01  0.51100000000E-03 0. -1.
</event>
<event>
 7    1  0.1123361E+005  0.1043930E+01  0.7957747E-01            NaN
         13   -1    0    0    0    0  0.00000000000E+00  0.00000000000E+00  0.74505805969E-08  0.10566000000E+00  0.10566000000E+00 0. -1.
     999900   -1    0    0    0    0 -0.00000000000E+00 -0.00000000000E+00 -0.74505805969E-08  0.93827000000E+00  0.93827000000E+00 0. -1.
     999903    2    1    2    0    0 -0.67409064874E-01  0.67083067396E-01 -0.48876895497E-01  0.10944256749E+00  0.23336767260E-01 0.  0.
         14    1    1    2    0    0  0.37643485734E-01  0.25295810387E-01  0.17448301799E-01  0.48593757593E-01  0.00000000000E+00 0.  1.
     999901    1    1    2    0    0  0.29765579140E-01 -0.92378877784E-01  0.31428593697E-01  0.88589367492E+00  0.88000000000E+00 0.  1.
        -11    1    3    3    0    0 -0.44681482204E-01  0.31726065973E-01 -0.35645153019E-01  0.65374430542E-01  0.51100000000E-03 0. -1.
         11    1    3    3    0    0 -0.22727582670E-01  0.35357001424E-01 -0.13231742478E-01  0.44068136944E-01  0.51100000000E-03 0.  1.
</event>
<event>
 8    1  0.1123361E+005  0.1043930E+01  0.7957747E-01            NaN
         13   -1    0    0    0    0  0.00000000000E+00  0.00000000000E+00  0.74505805969E-08  0.10566000000E+00  0.10566000000E+00 0. -1.
     999900   -1    0    0    0    0 -0.00000000000E+00 -0.00000000000E+00 -0.74505805969E-08  0.93827000000E+00  0.93827000000E+00 0. -1.
     999902    2    1    2    0    0  0.12108633935E-01 -0.18237317524E-01 -0.15802157579E-01  0.10169313528E+01  0.10165728943E+01 0.  0.
     999903    2    3    3    0    0 -0.13444061752E-01  0.11086315474E+00 -0.55539384116E-01  0.12625805728E+00  0.19623760199E-01 0.  0.
         14    1    1    2    0    0 -0.12108633935E-01  0.18237317524E-01  0.15802157579E-01  0.26998647196E-01  0.00000000000E+00 0. -1.
     999901    1    3    3    0    0  0.25552695687E-01 -0.12910047226E+00  0.39737226538E-01  0.89067329553E+00  0.88000000000E+00 0.  1.
        -11    1    4    4    0    0  0.51256602632E-02  0.22007161694E-01 -0.11647135698E-01  0.25426451776E-01  0.51100000000E-03 0. -1.
         11    1    4    4    0    0 -0.18569722015E-01  0.88855993043E-01 -0.43892248418E-01  0.10083160550E+00  0.51100000000E-03 0.  1.
</event>
<event>
 8    1  0.1123361E+005  0.1043930E+01  0.7957747E-01            NaN
         13   -1    0    0    0    0  0.00000000000E+00  0.00000000000E+00  0.74505805969E-08  0.10566000000E+00  0.10566000000E+00 0. -1.
     999900   -1    0    0    0    0 -0.00000000000E+00 -0.00000000000E+00 -0.74505805969E-08  0.93827000000E+00  0.93827000000E+00 0.  1.
     999902    2    1    2    0    0  0.19594238697E-01 -0.86336869401E-02  0.98043546239E-02  0.10203800507E+01  0.10201082530E+01 0.  0.
     999903    2    3    3    0    0  0.34576380887E-01  0.23684280176E-01  0.12412353199E+00  0.13227094152E+00  0.18234021298E-01 0.  0.
         14    1    1    2    0    0 -0.19594238697E-01  0.86336869401E-02 -0.98043546239E-02  0.23549949254E-01  0.00000000000E+00 0.  1.
     999901    1    3    3    0    0 -0.14982142190E-01 -0.32317967116E-01 -0.11431917737E+00  0.88810910923E+00  0.88000000000E+00 0.  1.
        -11    1    4    4    0    0  0.17118187481E-01  0.19630227575E-01  0.90380959271E-01  0.94060390691E-01  0.51100000000E-03 0. -1.
         11    1    4    4    0    0  0.17458193406E-01  0.40540526009E-02  0.33742572721E-01  0.38210550825E-01  0.51100000000E-03 0.  1.
</event>
<event>
 8    1  0.1123361E+005  0.1043930E+01  0.7957747E-01            NaN
         13   -1    0    0    0    0  0.00000000000E+00  0.00000000000E+00  0.74505805969E-08  0.10566000000E+00  0.10566000000E+00 0. -1.
     999900   -1    0    0    0    0 -0.00000000000E+00 -0.00000000000E+00 -0.74505805969E-08  0.93827000000E+00  0.93827000000E+00 0. -1.
     999902    2    1    2    0    0  0.16235842441E-01 -0.74849266820E-03  0.10761595489E-01  0.10244370588E+01  0.10242515866E+01 0.  0.
     999903    2    3    3    0    0  0.69373418531E-01 -0.90496190716E-01 -0.68909381836E-01  0.13470355038E+00  0.19857286981E-01 0.  0.
         14    1    1    2    0    0 -0.16235842441E-01  0.74849266820E-03 -0.10761595489E-01  0.19492941248E-01  0.00000000000E+00 0.  1.
     999901    1    3    3    0    0 -0.53137576090E-01  0.89747698048E-01  0.79670977324E-01  0.88973350838E+00  0.88000000000E+00 0.  1.
        -11    1    4    4    0    0  0.58740407002E-01 -0.71698899147E-01 -0.46960606461E-01  0.10390730116E+00  0.51100000000E-03 0. -1.
         11    1    4    4    0    0  0.10633011529E-01 -0.18797291569E-01 -0.21948775374E-01  0.30796249219E-01  0.51100000000E-03 0.  1.
</event>
<event>
 8    1  0.1123361E+005  0.1043930E+01  0.7957747E-01            NaN
         13   -1    0    0    0    0  0.00000000000E+00  0.00000000000E+00  0.74505805969E-08  0.10566000000E+00  0.10566000000E+00 0.  1.
     999900   -1    0    0    0    0 -0.00000000000E+00 -0.00000000000E+00 -0.74505805969E-08  0.93827000000E+00  0.93827000000E+00 0. -1.
     999902    2    1    2    0    0 -0.12651750819E-01 -0.19786652966E-01  0.30055229306E-02  0.10202527619E+01  0.10199779834E+01 0.  0.
     999903    2    3    3    0    0  0.86329419219E-01  0.89281067471E-01 -0.22087455070E-01  0.12765951907E+00  0.19627009599E-01 0.  0.
         14    1    1    2    0    0  0.12651750819E-01  0.19786652966E-01 -0.30055229306E-02  0.23677238067E-01  0.00000000000E+00 0. -1.
     999901    1    3    3    0    0 -0.98981170038E-01 -0.10906772044E+00  0.25092978001E-01  0.89259324287E+00  0.88000000000E+00 0.  1.
        -11    1    4    4    0    0  0.43126063499E-01  0.33772653707E-01 -0.15933531924E-01  0.57048996940E-01  0.51100000000E-03 0. -1.
         11    1    4    4    0    0  0.43203355720E-01  0.55508413764E-01 -0.61539231459E-02  0.70610522127E-01  0.51100000000E-03 0.  1.
</event>
<event>
 8    1  0.1123361E+005  0.1043930E+01  0.7957747E-01            NaN
         13   -1    0    0    0    0  0.00000000000E+00  0.00000000000E+00  0.74505805969E-08  0.10566000000E+00  0.10566000000E+00 0.  1.
     999900   -1    0    0    0    0 -0.00000000000E+00 -0.00000000000E+00 -0.74505805969E-08  0.93827000000E+00  0.93827000000E+00 0.  1.
     999902    2    1    2    0    0  0.11812424552E-03 -0.79791008879E-02  0.22075411954E-01  0.10204565295E+01  0.10201865147E+01 0.  0.
     999903    2    3    3    0    0 -0.49639284849E-01 -0.10476837173E+00 -0.56088910589E-01  0.13031405550E+00  0.19882576637E-01 0.  0.
         14    1    1    2    0    0 -0.11812424552E-03  0.79791008879E-02 -0.22075411954E-01  0.23473470499E-01  0.00000000000E+00 0. -1.
     999901    1    3    3    0    0  0.49757409094E-01  0.96789270840E-01  0.78164322544E-01  0.89014247401E+00  0.88000000000E+00 0. -1.
        -11    1    4    4    0    0 -0.50713007800E-01 -0.94181119324E-01 -0.50706455447E-01  0.11837777723E+00  0.51100000000E-03 0. -1.
         11    1    4    4    0    0  0.10737229508E-02 -0.10587252404E-01 -0.53824551425E-02  0.11936278264E-01  0.51100000000E-03 0.  1.
</event>
<event>
 8    1  0.1123361E+005  0.1043930E+01  0.7957747E-01            NaN
         13   -1    0    0    0    0  0.00000000000E+00  0.00000000000E+00  0.74505805969E-08  0.10566000000E+00  0.10566000000E+00 0.  1.
     999900   -1    0    0    0    0 -0.00000000000E+00 -0.00000000000E+00 -0.74505805969E-08  0.93827000000E+00  0.93827000000E+00 0. -1.
     999902    2    1    2    0    0  0.36940348935E-02  0.23588681394E-01 -0.54947498642E-03  0.10200475021E+01  0.10197678818E+01 0.  0.
     999903    2    3    3    0    0 -0.25187863508E-01 -0.12261350243E+00  0.13123040622E-01  0.12741309748E+00  0.19833904526E-01 0.  0.
         14    1    1    2    0    0 -0.36940348935E-02 -0.23588681394E-01  0.54947498642E-03  0.23882497911E-01  0.00000000000E+00 0. -1.
     999901    1    3    3    0    0  0.28881898401E-01  0.14620218382E+00 -0.13672515609E-01  0.89263440461E+00  0.88000000000E+00 0. -1.
        -11    1    4    4    0    0 -0.89354721781E-02 -0.67309214512E-01  0.15763803011E-01  0.69707471821E-01  0.51100000000E-03 0. -1.
         11    1    4    4    0    0 -0.16252391330E-01 -0.55304287915E-01 -0.26407623891E-02  0.57705625659E-01  0.51100000000E-03 0.  1.
</event>
<event>
 8    1  0.1123361E+005  0.1043930E+01  0.7957747E-01            NaN
         13   -1    0    0    0    0  0.00000000000E+00  0.00000000000E+00  0.74505805969E-08  0.10566000000E+00  0.10566000000E+00 0.  1.
     999900   -1    0    0    0    0 -0.00000000000E+00 -0.00000000000E+00 -0.74505805969E-08  0.93827000000E+00  0.93827000000E+00 0. -1.
     999902    2    1    2    0    0  0.41165310624E-02  0.22466518136E-01  0.58698338920E-02  0.10203472687E+01  0.10200747049E+01 0.  0.
     999903    2    3    3    0    0 -0.11059449276E+00 -0.41858233521E-01  0.48758458366E-01  0.12954104580E+00  0.20499798596E-01 0.  0.
         14    1    1    2    0    0 -0.41165310624E-02 -0.22466518136E-01 -0.58698338920E-02  0.23582731289E-01  0.00000000000E+00 0.  1.
     999901    1    3    3    0    0  0.11471102382E+00  0.64324751657E-01 -0.42888624474E-01  0.89080622291E+00  0.88000000000E+00 0. -1.
        -11    1    4    4    0    0 -0.43771939577E-01 -0.11200639765E-01  0.94190232686E-02  0.46156431251E-01  0.51100000000E-03 0. -1.
         11    1    4    4    0    0 -0.66822553185E-01 -0.30657593756E-01  0.39339435098E-01  0.83384614551E-01  0.51100000000E-03 0.  1.
</event>
<event>
 8    1  0.1123361E+005  0.1043930E+01  0.7957747E-01            NaN
         13   -1    0    0    0    0  0.00000000000E+00  0.00000000000E+00  0.74505805969E-08  0.10566000000E+00  0.10566000000E+00 0.  1.
     999900   -1    0    0    0    0 -0.00000000000E+00 -0.00000000000E+00 -0.74505805969E-08  0.93827000000E+00  0.93827000000E+00 0.  1.
     999902    2    1    2    0    0  0.16681640285E-01  0.16741895899E-02 -0.17353998538E-01  0.10198003233E+01  0.10195148150E+01 0.  0.
     999903    2    3    3    0    0  0.94051578344E-01  0.89109612494E-01 -0.15866685167E-01  0.13208794160E+00  0.20229932994E-01 0.  0.
         14    1    1    2    0    0 -0.16681640285E-01 -0.16741895899E-02  0.17353998538E-01  0.24129676721E-01  0.00000000000E+00 0.  1.
     999901    1    3    3    0    0 -0.77369938059E-01 -0.87435422905E-01 -0.14873133709E-02  0.88771238168E+00  0.88000000000E+00 0.  1.
        -11    1    4    4    0    0  0.40396340906E-01  0.24988115804E-01 -0.46952036421E-02  0.47734435665E-01  0.51100000000E-03 0.  1.
         11    1    4    4    0    0  0.53655237438E-01  0.64121496690E-01 -0.11171481525E-01  0.84353505930E-01  0.51100000000E-03 0. -1.
</event>
<event>
 8    1  0.1123361E+005  0.1043930E+01  0.7957747E-01            NaN
         13   -1    0    0    0    0  0.00000000000E+00  0.00000000000E+00  0.74505805969E-08  0.10566000000E+00  0.10566000000E+00 0.  1.
     999900   -1    0    0    0    0 -0.00000000000E+00 -0.00000000000E+00 -0.74505805969E-08  0.93827000000E+00  0.93827000000E+00 0.  1.
     999902    2    1    2    0    0 -0.96871323187E-02 -0.20150593736E-01 -0.67685946204E-02  0.10205697596E+01  0.10203023735E+01 0.  0.
     999903    2    3    3    0    0 -0.55232483329E-01 -0.11882203640E+00 -0.18759291886E-01  0.13380360694E+00  0.19549696928E-01 0.  0.
         14    1    1    2    0    0  0.96871323187E-02  0.20150593736E-01  0.67685946204E-02  0.23360240445E-01  0.00000000000E+00 0. -1.
     999901    1    3    3    0    0  0.45545351010E-01  0.98671442665E-01  0.11990697265E-01  0.88676615261E+00  0.88000000000E+00 0.  1.
        -11    1    4    4    0    0 -0.38151993144E-01 -0.86859424634E-01 -0.48886214223E-02  0.94996283974E-01  0.51100000000E-03 0. -1.
         11    1    4    4    0    0 -0.17080490186E-01 -0.31962611767E-01 -0.13870670463E-01  0.38807322970E-01  0.51100000000E-03 0.  1.
</event>
<event>
 8    1  0.1123361E+005  0.1043930E+01  0.7957747E-01            NaN
         13   -1    0    0    0    0  0.00000000000E+00  0.00000000000E+00  0.74505805969E-08  0.10566000000E+00  0.10566000000E+00 0. -1.
     999900   -1    0    0    0    0 -0.00000000000E+00 -0.00000000000E+00 -0.74505805969E-08  0.93827000000E+00  0.93827000000E+00 0.  1.
     999902    2    1    2    0    0  0.93636285968E-02  0.10197251803E-02  0.21959739375E-01  0.10200354916E+01  0.10197555867E+01 0.  0.
     999903    2    3    3    0    0  0.64366759044E-01  0.11216825293E+00 -0.39091582796E-02  0.13096376249E+00  0.20283710985E-01 0.  0.
         14    1    1    2    0    0 -0.93636285968E-02 -0.10197251803E-02 -0.21959739375E-01  0.23894508435E-01  0.00000000000E+00 0.  1.
     999901    1    3    3    0    0 -0.55003130447E-01 -0.11114852775E+00  0.25868897654E-01  0.88907172908E+00  0.88000000000E+00 0. -1.
        -11    1    4    4    0    0  0.59612187212E-02  0.19520919858E-01 -0.64524685374E-02  0.21412564348E-01  0.51100000000E-03 0. -1.
         11    1    4    4    0    0  0.58405540323E-01  0.92647333071E-01  0.25433102579E-02  0.10955119814E+00  0.51100000000E-03 0.  1.
</event>
<event>
 8    1  0.1123361E+005  0.1043930E+01  0.7957747E-01            NaN
         13   -1    0    0    0    0  0.00000000000E+00  0.00000000000E+00  0.74505805969E-08  0.10566000000E+00  0.10566000000E+00 0.  1.
     999900   -1    0    0    0    0 -0.00000000000E+00 -0.00000000000E+00 -0.74505805969E-08  0.93827000000E+00  0.93827000000E+00 0.  1.
     999902    2    1    2    0    0 -0.13076072978E-01  0.10953779198E-01  0.17093172872E-01  0.10197815938E+01  0.10194956368E+01 0.  0.
     999903    2    3    3    0    0 -0.12292670971E+00  0.38999613813E-01 -0.17636408845E-01  0.13182896270E+00  0.20877898630E-01 0.  0.
         14    1    1    2    0    0  0.13076072978E-01 -0.10953779198E-01 -0.17093172872E-01  0.24148406202E-01  0.00000000000E+00 0. -1.
     999901    1    3    3    0    0  0.10985063673E+00 -0.28045834615E-01  0.34729581717E-01  0.88795263110E+00  0.88000000000E+00 0. -1.
        -11    1    4    4    0    0 -0.50432990760E-01  0.61426717034E-02 -0.29688051126E-02  0.50894929978E-01  0.51100000000E-03 0. -1.
         11    1    4    4    0    0 -0.72493718952E-01  0.32856942109E-01 -0.14667603732E-01  0.80934032721E-01  0.51100000000E-03 0.  1.
</event>
<event>
 8    1  0.1123361E+005  0.1043930E+01  0.7957747E-01            NaN
         13   -1    0    0    0    0  0.00000000000E+00  0.00000000000E+00  0.74505805969E-08  0.10566000000E+00  0.10566000000E+00 0. -1.
     999900   -1    0    0    0    0 -0.00000000000E+00 -0.00000000000E+00 -0.74505805969E-08  0.93827000000E+00  0.93827000000E+00 0. -1.
     999902    2    1    2    0    0  0.23533019321E-01  0.16365822212E-02 -0.81183154248E-02  0.10189822858E+01  0.10186768429E+01 0.  0.
     999903    2    3    3    0    0  0.50252951285E-01 -0.55061313319E-01 -0.10610749098E+00  0.13132780083E+00  0.20762569479E-01 0.  0.
         14    1    1    2    0    0 -0.23533019321E-01 -0.16365822212E-02  0.81183154248E-02  0.24947714225E-01  0.00000000000E+00 0. -1.
     999901    1    3    3    0    0 -0.26719931964E-01  0.56697895540E-01  0.97989175552E-01  0.88765448495E+00  0.88000000000E+00 0.  1.
        -11    1    4    4    0    0  0.12281119048E-01 -0.28479565864E-01 -0.43592102771E-01  0.53501814005E-01  0.51100000000E-03 0. -1.
         11    1    4    4    0    0  0.37971832237E-01 -0.26581747455E-01 -0.62515388206E-01  0.77825986822E-01  0.51100000000E-03 0.  1.
</event>
<event>
 8    1  0.1123361E+005  0.1043930E+01  0.7957747E-01            NaN
         13   -1    0    0    0    0  0.00000000000E+00  0.00000000000E+00  0.74505805969E-08  0.10566000000E+00  0.10566000000E+00 0. -1.
     999900   -1    0    0    0    0 -0.00000000000E+00 -0.00000000000E+00 -0.74505805969E-08  0.93827000000E+00  0.93827000000E+00 0.  1.
     999902    2    1    2    0    0 -0.53131470768E-02  0.64338580111E-02  0.22615423172E-01  0.10198243694E+01  0.10195394367E+01 0.  0.
     999903    2    3    3    0    0  0.29419854010E-01  0.18683267471E-01 -0.12128922938E+00  0.12737550341E+00  0.17287261560E-01 0.  0.
         14    1    1    2    0    0  0.53131470768E-02 -0.64338580111E-02 -0.22615423172E-01  0.24105630587E-01  0.00000000000E+00 0.  1.
     999901    1    3    3    0    0 -0.34733001087E-01 -0.12249409460E-01  0.14390465255E+00  0.89244886600E+00  0.88000000000E+00 0. -1.
        -11    1    4    4    0    0  0.20046636443E-01  0.18657818391E-01 -0.10558139219E+00  0.10907645630E+00  0.51100000000E-03 0. -1.
         11    1    4    4    0    0  0.93732175674E-02  0.25449080488E-04 -0.15707837190E-01  0.18299047118E-01  0.51100000000E-03 0.  1.
</event>
<event>
 8    1  0.1123361E+005  0.1043930E+01  0.7957747E-01            NaN
         13   -1    0    0    0    0  0.00000000000E+00  0.00000000000E+00  0.74505805969E-08  0.10566000000E+00  0.10566000000E+00 0.  1.
     999900   -1    0    0    0    0 -0.00000000000E+00 -0.00000000000E+00 -0.74505805969E-08  0.93827000000E+00  0.93827000000E+00 0.  1.
     999902    2    1    2    0    0 -0.46084487022E-02 -0.20215553189E-01  0.12067196363E-01  0.10199399267E+01  0.10196577516E+01 0.  0.
     999903    2    3    3    0    0 -0.91382307452E-01  0.86711090680E-01  0.20640791147E-01  0.12918939130E+00  0.19857421897E-01 0.  0.
         14    1    1    2    0    0  0.46084487022E-02  0.20215553189E-01 -0.12067196363E-01  0.23990073327E-01  0.00000000000E+00 0. -1.
     999901    1    3    3    0    0  0.86773858750E-01 -0.10692664387E+00 -0.85735947839E-02  0.89075053537E+00  0.88000000000E+00 0.  1.
        -11    1    4    4    0    0 -0.38126810784E-01  0.25803614817E-01  0.15872986885E-02  0.46068002738E-01  0.51100000000E-03 0. -1.
         11    1    4    4    0    0 -0.53255496668E-01  0.60907475863E-01  0.19053492459E-01  0.83121388566E-01  0.51100000000E-03 0.  1.
</event>
<event>
 8    1  0.1123361E+005  0.1043930E+01  0.7957747E-01            NaN
         13   -1    0    0    0    0  0.00000000000E+00  0.00000000000E+00  0.74505805969E-08  0.10566000000E+00  0.10566000000E+00 0.  1.
     999900   -1    0    0    0    0 -0.00000000000E+00 -0.00000000000E+00 -0.74505805969E-08  0.93827000000E+00  0.93827000000E+00 0. -1.
     999902    2    1    2    0    0  0.92356287058E-02 -0.10155682145E-01 -0.19734736950E-01  0.10198905624E+01  0.10196072110E+01 0.  0.
     999903    2    3    3    0    0 -0.80373895949E-01  0.70359800006E-01  0.66457604702E-01  0.12751075003E+00  0.20782529764E-01 0.  0.
         14    1    1    2    0    0 -0.92356287058E-02  0.10155682145E-01  0.19734736950E-01  0.24039437595E-01  0.00000000000E+00 0.  1.
     999901    1    3    3    0    0  0.89609524655E-01 -0.80515482151E-01 -0.86192341652E-01  0.89237981237E+00  0.88000000000E+00 0. -1.
        -11    1    4    4    0    0 -0.29105186475E-01  0.16379028974E-01  0.12931392686E-01  0.35817125900E-01  0.51100000000E-03 0.  1.
         11    1    4    4    0    0 -0.51268709474E-01  0.53980771032E-01  0.53526212016E-01  0.91693624130E-01  0.51100000000E-03 0. -1.
</event>
<event>
 8    1  0.1123361E+005  0.1043930E+01  0.7957747E-01            NaN
         13   -1    0    0    0    0  0.00000000000E+00  0.00000000000E+00  0.74505805969E-08  0.10566000000E+00  0.10566000000E+00 0.  1.
     999900   -1    0    0    0    0 -0.00000000000E+00 -0.00000000000E+00 -0.74505805969E-08  0.93827000000E+00  0.93827000000E+00 0. -1.
     999902    2    1    2    0    0  0.17391264454E-01  0.16198451868E-01 -0.33328664878E-03  0.10201611758E+01  0.10198842423E+01 0.  0.
     999903    2    3    3    0    0 -0.93026351745E-02 -0.12569185195E+00  0.13762928172E-01  0.12828443218E+00  0.19557522320E-01 0.  0.
         14    1    1    2    0    0 -0.17391264454E-01 -0.16198451868E-01  0.33328664878E-03  0.23768824166E-01  0.00000000000E+00 0.  1.
     999901    1    3    3    0    0  0.26693899629E-01  0.14189030382E+00 -0.14096214821E-01  0.89187674365E+00  0.88000000000E+00 0. -1.
        -11    1    4    4    0    0 -0.96906134626E-02 -0.51674156831E-01 -0.19540237090E-02  0.52613741581E-01  0.51100000000E-03 0. -1.
         11    1    4    4    0    0  0.38797828809E-03 -0.74017695124E-01  0.15716951881E-01  0.75670690601E-01  0.51100000000E-03 0.  1.
</event>
<event>
 8    1  0.1123361E+005  0.1043930E+01  0.7957747E-01            NaN
         13   -1    0    0    0    0  0.00000000000E+00  0.00000000000E+00  0.74505805969E-08  0.10566000000E+00  0.10566000000E+00 0. -1.
     999900   -1    0    0    0    0 -0.00000000000E+00 -0.00000000000E+00 -0.74505805969E-08  0.93827000000E+00  0.93827000000E+00 0.  1.
     999902    2    1    2    0    0  0.85259688472E-02  0.21955786026E-01 -0.23464959445E-02  0.10202602994E+01  0.10199856978E+01 0.  0.
     999903    2    3    3    0    0  0.96583833680E-01  0.43888533503E-01  0.76399172024E-01  0.13209583645E+00  0.18916559396E-01 0.  0.
         14    1    1    2    0    0 -0.85259688472E-02 -0.21955786026E-01  0.23464959445E-02  0.23669700633E-01  0.00000000000E+00 0. -1.
     999901    1    3    3    0    0 -0.88057864832E-01 -0.21932747477E-01 -0.78745667969E-01  0.88816446292E+00  0.88000000000E+00 0.  1.
        -11    1    4    4    0    0  0.45952150682E-01  0.15304186482E-01  0.44500934267E-01  0.65775470715E-01  0.51100000000E-03 0.  1.
         11    1    4    4    0    0  0.50631682998E-01  0.28584347021E-01  0.31898237757E-01  0.66320365732E-01  0.51100000000E-03 0. -1.
</event>
<event>
 8    1  0.1123361E+005  0.1043930E+01  0.7957747E-01            NaN
         13   -1    0    0    0    0  0.00000000000E+00  0.00000000000E+00  0.74505805969E-08  0.10566000000E+00  0.10566000000E+00 0.  1.
     999900   -1    0    0    0    0 -0.00000000000E+00 -0.00000000000E+00 -0.74505805969E-08  0.93827000000E+00  0.93827000000E+00 0.  1.
     999902    2    1    2    0    0 -0.19551380436E-02 -0.11560260769E-01 -0.20054934260E-01  0.10206993611E+01  0.10204349677E+01 0.  0.
     999903    2    3    3    0    0  0.10432514764E+00 -0.77248394763E-01 -0.12870348909E-01  0.13184501517E+00  0.19141870866E-01 0.  0.
         14    1    1    2    0    0  0.19551380436E-02  0.11560260769E-01  0.20054934260E-01  0.23230638863E-01  0.00000000000E+00 0.  1.
     999901    1    3    3    0    0 -0.10628028569E+00  0.65688133994E-01 -0.71845853512E-02  0.88885434596E+00  0.88000000000E+00 0.  1.
        -11    1    4    4    0    0  0.91240825751E-01 -0.64599694958E-01 -0.47121731197E-02  0.11189492647E+00  0.51100000000E-03 0.  1.
         11    1    4    4    0    0  0.13084321893E-01 -0.12648699804E-01 -0.81581757892E-02  0.19950088706E-01  0.51100000000E-03 0. -1.
</event>
<event>
 8    1  0.1123361E+005  0.1043930E+01  0.7957747E-01            NaN
         13   -1    0    0    0    0  0.00000000000E+00  0.00000000000E+00  0.74505805969E-08  0.10566000000E+00  0.10566000000E+00 0. -1.
     999900   -1    0    0    0    0 -0.00000000000E+00 -0.00000000000E+00 -0.74505805969E-08  0.93827000000E+00  0.93827000000E+00 0.  1.
     999902    2    1    2    0    0 -0.30742232426E-02 -0.22369042176E-01  0.56627797675E-02  0.10206514268E+01  0.10203859285E+01 0.  0.
     999903    2    3    3    0    0  0.64965940827E-01  0.97875748776E-01 -0.47657037706E-01  0.12827747119E+00  0.19587769312E-01 0.  0.
         14    1    1    2    0    0  0.30742232426E-02  0.22369042176E-01 -0.56627797675E-02  0.23278573219E-01  0.00000000000E+00 0.  1.
     999901    1    3    3    0    0 -0.68040164070E-01 -0.12024479095E+00  0.53319817474E-01  0.89237395559E+00  0.88000000000E+00 0.  1.
        -11    1    4    4    0    0  0.64310436892E-02  0.44497278592E-02 -0.77650683047E-02  0.11032488737E-01  0.51100000000E-03 0.  1.
         11    1    4    4    0    0  0.58534897138E-01  0.93426020916E-01 -0.39891969401E-01  0.11724498246E+00  0.51100000000E-03 0. -1.
</event>
<event>
 8    1  0.1123361E+005  0.1043930E+01  0.7957747E-01            NaN
         13   -1    0    0    0    0  0.00000000000E+00  0.00000000000E+00  0.74505805969E-08  0.10566000000E+00  0.10566000000E+00 0. -1.
     999900   -1    0    0    0    0 -0.00000000000E+00 -0.00000000000E+00 -0.74505805969E-08  0.93827000000E+00  0.93827000000E+00 0. -1.
     999902    2    1    2    0    0 -0.21592354979E-01  0.73596538185E-02 -0.74925767625E-02  0.10199188983E+01  0.10196362224E+01 0.  0.
     999903    2    3    3    0    0 -0.11466842010E+00 -0.13944775189E-01  0.60842513950E-01  0.13212009384E+00  0.20263375062E-01 0.  0.
         14    1    1    2    0    0  0.21592354979E-01 -0.73596538185E-02  0.74925767625E-02  0.24011101691E-01  0.00000000000E+00 0.  1.
     999901    1    3    3    0    0  0.93076065123E-01  0.21304429007E-01 -0.68335090712E-01  0.88779880447E+00  0.88000000000E+00 0.  1.
        -11    1    4    4    0    0 -0.12729027096E-01  0.48173099557E-02  0.74389778679E-02  0.15518831101E-01  0.51100000000E-03 0.  1.
         11    1    4    4    0    0 -0.10193939301E+00 -0.18762085144E-01  0.53403536082E-01  0.11660126274E+00  0.51100000000E-03 0. -1.
</event>
<event>
 8    1  0.1123361E+005  0.1043930E+01  0.7957747E-01            NaN
         13   -1    0    0    0    0  0.00000000000E+00  0.00000000000E+00  0.74505805969E-08  0.10566000000E+00  0.10566000000E+00 0.  1.
     999900   -1    0    0    0    0 -0.00000000000E+00 -0.00000000000E+00 -0.74505805969E-08  0.93827000000E+00  0.93827000000E+00 0.  1.
     999902    2    1    2    0    0  0.93393787591E-02 -0.15073669399E-01 -0.14195915203E-01  0.10212151698E+01  0.10209625162E+01 0.  0.
     999903    2    3    3    0    0  0.76655521089E-01 -0.62389949736E-01 -0.88631368392E-01  0.13424790424E+00  0.19960099889E-01 0.  0.
         14    1    1    2    0    0 -0.93393787591E-02  0.15073669399E-01  0.14195915203E-01  0.22714830248E-01  0.00000000000E+00 0.  1.
     999901    1    3    3    0    0 -0.67316142330E-01  0.47316280337E-01  0.74435453189E-01  0.88696726551E+00  0.88000000000E+00 0. -1.
        -11    1    4    4    0    0  0.14514798114E-01 -0.19840634993E-01 -0.14369844797E-01  0.28479531627E-01  0.51100000000E-03 0.  1.
         11    1    4    4    0    0  0.62140722975E-01 -0.42549314743E-01 -0.74261523594E-01  0.10576837261E+00  0.51100000000E-03 0. -1.
</event>
<event>
 8    1  0.1123361E+005  0.1043930E+01  0.7957747E-01            NaN
         13   -1    0    0    0    0  0.00000000000E+00  0.00000000000E+00  0.74505805969E-08  0.10566000000E+00  0.10566000000E+00 0.  1.
     999900   -1    0    0    0    0 -0.00000000000E+00 -0.00000000000E+00 -0.74505805969E-08  0.93827000000E+00  0.93827000000E+00 0.  1.
     999902    2    1    2    0    0  0.20263957578E-01 -0.32556033877E-02 -0.12196391547E-01  0.10200557692E+01  0.10197763448E+01 0.  0.
     999903    2    3    3    0    0 -0.10191440187E+00 -0.67297619661E-01 -0.36903239062E-01  0.12896690735E+00  0.18844076482E-01 0.  0.
         14    1    1    2    0    0 -0.20263957578E-01  0.32556033877E-02  0.12196391547E-01  0.23874230813E-01  0.00000000000E+00 0.  1.
     999901    1    3    3    0    0  0.12217835945E+00  0.64042016274E-01  0.24706847515E-01  0.89108886183E+00  0.88000000000E+00 0.  1.
        -11    1    4    4    0    0 -0.58111963476E-01 -0.40492864468E-01 -0.11808600977E-01  0.71807914257E-01  0.51100000000E-03 0.  1.
         11    1    4    4    0    0 -0.43802438396E-01 -0.26804755194E-01 -0.25094638085E-01  0.57158993098E-01  0.51100000000E-03 0. -1.
</event>
<event>
 8    1  0.1123361E+005  0.1043930E+01  0.7957747E-01            NaN
         13   -1    0    0    0    0  0.00000000000E+00  0.00000000000E+00  0.74505805969E-08  0.10566000000E+00  0.10566000000E+00 0. -1.
     999900   -1    0    0    0    0 -0.00000000000E+00 -0.00000000000E+00 -0.74505805969E-08  0.93827000000E+00  0.93827000000E+00 0.  1.
     999902    2    1    2    0    0 -0.23415915952E-01 -0.14207422268E-02 -0.45112356010E-03  0.10204666852E+01  0.10201969067E+01 0.  0.
     999903    2    3    3    0    0 -0.92640038329E-01 -0.89257641078E-01  0.28896312914E-01  0.13290340750E+00  0.16709746627E-01 0.  0.
         14    1    1    2    0    0  0.23415915952E-01  0.14207422268E-02  0.45112356010E-03  0.23463314787E-01  0.00000000000E+00 0. -1.
     999901    1    3    3    0    0  0.69224122377E-01  0.87836898851E-01 -0.29347436474E-01  0.88756327771E+00  0.88000000000E+00 0.  1.
        -11    1    4    4    0    0 -0.55057114036E-01 -0.61445573656E-01  0.23798844163E-01  0.85869030694E-01  0.51100000000E-03 0. -1.
         11    1    4    4    0    0 -0.37582924293E-01 -0.27812067422E-01  0.50974687503E-02  0.47034376804E-01  0.51100000000E-03 0.  1.
</event>
<event>
 8    1  0.1123361E+005  0.1043930E+01  0.7957747E-01            NaN
         13   -1    0    0    0    0  0.00000000000E+00  0.00000000000E+00  0.74505805969E-08  0.10566000000E+00  0.10566000000E+00 0.  1.
     999900   -1    0    0    0    0 -0.00000000000E+00 -0.00000000000E+00 -0.74505805969E-08  0.93827000000E+00  0.93827000000E+00 0. -1.
     999902    2    1    2    0    0  0.23148572068E-02 -0.20362042466E-01 -0.50874282593E-02  0.10228147623E+01  0.10225967850E+01 0.  0.
     999903    2    3    3    0    0 -0.22864824816E-02 -0.11552959292E+00 -0.67833092180E-01  0.13545065814E+00  0.19830218199E-01 0.  0.
         14    1    1    2    0    0 -0.23148572068E-02  0.20362042466E-01  0.50874282593E-02  0.21115237711E-01  0.00000000000E+00 0.  1.
     999901    1    3    3    0    0  0.46013396885E-02  0.95167550455E-01  0.62745663921E-01  0.88736410415E+00  0.88000000000E+00 0. -1.
        -11    1    4    4    0    0  0.42599788241E-02 -0.46461771156E-01 -0.36903864630E-01  0.59489494401E-01  0.51100000000E-03 0.  1.
         11    1    4    4    0    0 -0.65464613058E-02 -0.69067821766E-01 -0.30929227551E-01  0.75961163742E-01  0.51100000000E-03 0. -1.
</event>
<event>
 8    1  0.1123361E+005  0.1043930E+01  0.7957747E-01            NaN
         13   -1    0    0    0    0  0.00000000000E+00  0.00000000000E+00  0.74505805969E-08  0.10566000000E+00  0.10566000000E+00 0. -1.
     999900   -1    0    0    0    0 -0.00000000000E+00 -0.00000000000E+00 -0.74505805969E-08  0.93827000000E+00  0.93827000000E+00 0.  1.
     999902    2    1    2    0    0  0.20842408315E-01 -0.13033418982E-01  0.68929809940E-02  0.10183998378E+01  0.10180797810E+01 0.  0.
     999903    2    3    3    0    0 -0.10586484418E+00  0.50782367919E-01 -0.40580853953E-01  0.12577396573E+00  0.19648679927E-01 0.  0.
         14    1    1    2    0    0 -0.20842408315E-01  0.13033418982E-01 -0.68929809940E-02  0.25530162195E-01  0.00000000000E+00 0. -1.
     999901    1    3    3    0    0  0.12670725250E+00 -0.63815786901E-01  0.47473834947E-01  0.89262587207E+00  0.88000000000E+00 0.  1.
        -11    1    4    4    0    0 -0.83892135166E-01  0.39482004894E-01 -0.23253796958E-01  0.95591418271E-01  0.51100000000E-03 0.  1.
         11    1    4    4    0    0 -0.21972709015E-01  0.11300363025E-01 -0.17327056996E-01  0.30182547459E-01  0.51100000000E-03 0. -1.
</event>
<event>
 8    1  0.1123361E+005  0.1043930E+01  0.7957747E-01            NaN
         13   -1    0    0    0    0  0.00000000000E+00  0.00000000000E+00  0.74505805969E-08  0.10566000000E+00  0.10566000000E+00 0. -1.
     999900   -1    0    0    0    0 -0.00000000000E+00 -0.00000000000E+00 -0.74505805969E-08  0.93827000000E+00  0.93827000000E+00 0.  1.
     999902    2    1    2    0    0  0.12591099723E-01 -0.20030555776E-01 -0.31732855086E-03  0.10202686464E+01  0.10199942408E+01 0.  0.
     999903    2    3    3    0    0  0.10110673223E+00  0.11662024282E-01  0.80972658128E-01  0.13153499745E+00  0.19654772389E-01 0.  0.
         14    1    1    2    0    0 -0.12591099723E-01  0.20030555776E-01  0.31732855086E-03  0.23661353603E-01  0.00000000000E+00 0.  1.
     999901    1    3    3    0    0 -0.88515632511E-01 -0.31692580058E-01 -0.81289986678E-01  0.88873364894E+00  0.88000000000E+00 0.  1.
        -11    1    4    4    0    0  0.33932090598E-01 -0.18176930478E-03  0.16743449971E-01  0.37842093631E-01  0.51100000000E-03 0. -1.
         11    1    4    4    0    0  0.67174641636E-01  0.11843793587E-01  0.64229208157E-01  0.93692903823E-01  0.51100000000E-03 0.  1.
</event>
<event>
 7    1  0.1123361E+005  0.1043930E+01  0.7957747E-01            NaN
         13   -1    0    0    0    0  0.00000000000E+00  0.00000000000E+00  0.74505805969E-08  0.10566000000E+00  0.10566000000E+00 0. -1.
     999900   -1    0    0    0    0 -0.00000000000E+00 -0.00000000000E+00 -0.74505805969E-08  0.93827000000E+00  0.93827000000E+00 0. -1.
     999903    2    1    2    0    0  0.10388993501E-01 -0.10222676162E+00  0.35773380309E-01  0.11039810507E+00  0.18702002250E-01 0.  0.
         14    1    1    2    0    0 -0.14272272852E-01 -0.21886866658E-01  0.33075597688E-01  0.42151249885E-01  0.00000000000E+00 0. -1.
     999901    1    1    2    0    0  0.38832793504E-02  0.12411362828E+00 -0.68848977997E-01  0.89138064504E+00  0.88000000000E+00 0. -1.
        -11    1    3    3    0    0  0.27422291680E-02 -0.83207689605E-01  0.33596985628E-01  0.89777825739E-01  0.51100000000E-03 0. -1.
         11    1    3    3    0    0  0.76467643333E-02 -0.19019072014E-01  0.21763946818E-02  0.20620279335E-01  0.51100000000E-03 0.  1.
</event>
<event>
 8    1  0.1123361E+005  0.1043930E+01  0.7957747E-01            NaN
         13   -1    0    0    0    0  0.00000000000E+00  0.00000000000E+00  0.74505805969E-08  0.10566000000E+00  0.10566000000E+00 0.  1.
     999900   -1    0    0    0    0 -0.00000000000E+00 -0.00000000000E+00 -0.74505805969E-08  0.93827000000E+00  0.93827000000E+00 0.  1.
     999902    2    1    2    0    0 -0.19466767040E-02  0.83700191544E-02  0.21589867519E-01  0.10206927637E+01  0.10204282183E+01 0.  0.
     999903    2    3    3    0    0  0.57454154534E-03  0.41531097502E-01  0.12623555390E+00  0.13386880523E+00  0.16133188970E-01 0.  0.
         14    1    1    2    0    0  0.19466767040E-02 -0.83700191544E-02 -0.21589867519E-01  0.23237236288E-01  0.00000000000E+00 0. -1.
     999901    1    3    3    0    0 -0.25212182493E-02 -0.33161078347E-01 -0.10464568639E+00  0.88682395848E+00  0.88000000000E+00 0.  1.
        -11    1    4    4    0    0 -0.63465339449E-02  0.19894223557E-01  0.46856877381E-01  0.51301917147E-01  0.51100000000E-03 0.  1.
         11    1    4    4    0    0  0.69210754903E-02  0.21636873944E-01  0.79378676523E-01  0.82566888082E-01  0.51100000000E-03 0. -1.
</event>
<event>
 7    1  0.1684371E+005  0.1043930E+01  0.7957747E-01            NaN
         13   -1    0    0    0    0  0.00000000000E+00  0.00000000000E+00  0.74505805969E-08  0.10566000000E+00  0.10566000000E+00 0. -1.
     999900   -1    0    0    0    0 -0.00000000000E+00 -0.00000000000E+00 -0.74505805969E-08  0.93827000000E+00  0.93827000000E+00 0.  1.
     999903    2    1    2    0    0 -0.47497906426E-01  0.68621259865E-01  0.33174495635E-01  0.92180234467E-01  0.20777873942E-01 0.  0.
         14    1    1    2    0    0  0.21732048309E-01  0.39789208995E-01 -0.46059552291E-01  0.64629292379E-01  0.00000000000E+00 0.  1.
     999901    1    1    2    0    0  0.25765858116E-01 -0.10841046886E+00  0.12885056656E-01  0.88712047315E+00  0.88000000000E+00 0. -1.
        -11    1    3    3    0    0 -0.28787552544E-01  0.56210132140E-01  0.20536224261E-01  0.66410087822E-01  0.51100000000E-03 0.  1.
         11    1    3    3    0    0 -0.18710353882E-01  0.12411127725E-01  0.12638271374E-01  0.25770146645E-01  0.51100000000E-03 0. -1.
</event>
<event>
 8    1  0.1123361E+005  0.1043930E+01  0.7957747E-01            NaN
         13   -1    0    0    0    0  0.00000000000E+00  0.00000000000E+00  0.74505805969E-08  0.10566000000E+00  0.10566000000E+00 0. -1.
     999900   -1    0    0    0    0 -0.00000000000E+00 -0.00000000000E+00 -0.74505805969E-08  0.93827000000E+00  0.93827000000E+00 0. -1.
     999902    2    1    2    0    0 -0.13030093584E-01  0.20792276766E-01 -0.23388452531E-02  0.10192810181E+01  0.10189829349E+01 0.  0.
     999903    2    3    3    0    0  0.14345761978E-01  0.10110841663E+00  0.80135378050E-01  0.13136091060E+00  0.20131994848E-01 0.  0.
         14    1    1    2    0    0  0.13030093584E-01 -0.20792276766E-01  0.23388452531E-02  0.24648981906E-01  0.00000000000E+00 0.  1.
     999901    1    3    3    0    0 -0.27375855562E-01 -0.80316139866E-01 -0.82474223303E-01  0.88792010750E+00  0.88000000000E+00 0.  1.
        -11    1    4    4    0    0 -0.58196102630E-03  0.64635722822E-01  0.51393835101E-01  0.82581491574E-01  0.51100000000E-03 0.  1.
         11    1    4    4    0    0  0.14927723004E-01  0.36472693810E-01  0.28741542950E-01  0.48779419021E-01  0.51100000000E-03 0. -1.
</event>
<event>
 8    1  0.1123361E+005  0.1043930E+01  0.7957747E-01            NaN
         13   -1    0    0    0    0  0.00000000000E+00  0.00000000000E+00  0.74505805969E-08  0.10566000000E+00  0.10566000000E+00 0.  1.
     999900   -1    0    0    0    0 -0.00000000000E+00 -0.00000000000E+00 -0.74505805969E-08  0.93827000000E+00  0.93827000000E+00 0.  1.
     999902    2    1    2    0    0  0.20380461381E-01  0.14031809347E-01 -0.59279790950E-03  0.10191791154E+01  0.10188785320E+01 0.  0.
     999903    2    3    3    0    0  0.30328772062E-02  0.48684906199E-02  0.12795218494E+00  0.12962376708E+00  0.19941384553E-01 0.  0.
         14    1    1    2    0    0 -0.20380461381E-01 -0.14031809347E-01  0.59279790950E-03  0.24750884611E-01  0.00000000000E+00 0. -1.
     999901    1    3    3    0    0  0.17347584175E-01  0.91633187269E-02 -0.12854498284E+00  0.88955534831E+00  0.88000000000E+00 0.  1.
        -11    1    4    4    0    0 -0.98803421248E-04 -0.34937118321E-02  0.10393915931E+00  0.10399916223E+00  0.51100000000E-03 0.  1.
         11    1    4    4    0    0  0.31316806275E-02  0.83622024520E-02  0.24013025622E-01  0.25624604854E-01  0.51100000000E-03 0. -1.
</event>
<event>
 8    1  0.1123361E+005  0.1043930E+01  0.7957747E-01            NaN
         13   -1    0    0    0    0  0.00000000000E+00  0.00000000000E+00  0.74505805969E-08  0.10566000000E+00  0.10566000000E+00 0.  1.
     999900   -1    0    0    0    0 -0.00000000000E+00 -0.00000000000E+00 -0.74505805969E-08  0.93827000000E+00  0.93827000000E+00 0.  1.
     999902    2    1    2    0    0  0.49889499495E-02  0.15978877180E-01  0.17329102590E-01  0.10198361847E+01  0.10195515346E+01 0.  0.
     999903    2    3    3    0    0 -0.12452817265E+00 -0.29943886924E-01  0.49143785872E-02  0.12908497891E+00  0.15325746755E-01 0.  0.
         14    1    1    2    0    0 -0.49889499495E-02 -0.15978877180E-01 -0.17329102590E-01  0.24093815267E-01  0.00000000000E+00 0. -1.
     999901    1    3    3    0    0  0.12951712260E+00  0.45922764104E-01  0.12414724003E-01  0.89075120583E+00  0.88000000000E+00 0. -1.
        -11    1    4    4    0    0 -0.10097194851E+00 -0.27103770169E-01  0.92642587393E-02  0.10495730729E+00  0.51100000000E-03 0. -1.
         11    1    4    4    0    0 -0.23556224145E-01 -0.28401167543E-02 -0.43498801522E-02  0.24127671613E-01  0.51100000000E-03 0.  1.
</event>
<event>
 8    1  0.1508920E+005  0.1043930E+01  0.7957747E-01            NaN
         13   -1    0    0    0    0  0.00000000000E+00  0.00000000000E+00  0.74505805969E-08  0.10566000000E+00  0.10566000000E+00 0. -1.
     999900   -1    0    0    0    0 -0.00000000000E+00 -0.00000000000E+00 -0.74505805969E-08  0.93827000000E+00  0.93827000000E+00 0.  1.
     999902    2    1    2    0    0  0.10925690099E-01 -0.19362757118E-01 -0.69612165939E-02  0.10206330988E+01  0.10203671775E+01 0.  0.
     999903    2    3    3    0    0  0.28139415663E-01 -0.11208695364E+00 -0.64410164871E-01  0.13373148613E+00  0.19496901114E-01 0.  0.
         14    1    1    2    0    0 -0.10925690099E-01  0.19362757118E-01  0.69612165939E-02  0.23296901163E-01  0.00000000000E+00 0.  1.
     999901    1    3    3    0    0 -0.17213725564E-01  0.92724196521E-01  0.57448948278E-01  0.88690161271E+00  0.88000000000E+00 0. -1.
        -11    1    4    4    0    0  0.13445227113E-01 -0.49986952936E-01 -0.17934559267E-01  0.54784844009E-01  0.51100000000E-03 0.  1.
         11    1    4    4    0    0  0.14694188550E-01 -0.62100000703E-01 -0.46475605605E-01  0.78946642118E-01  0.51100000000E-03 0. -1.
</event>
<event>
 8    1  0.1123361E+005  0.1043930E+01  0.7957747E-01            NaN
         13   -1    0    0    0    0  0.00000000000E+00  0.00000000000E+00  0.74505805969E-08  0.10566000000E+00  0.10566000000E+00 0.  1.
     999900   -1    0    0    0    0 -0.00000000000E+00 -0.00000000000E+00 -0.74505805969E-08  0.93827000000E+00  0.93827000000E+00 0. -1.
     999902    2    1    2    0    0 -0.16247140267E-01  0.16458287257E-01 -0.70164249837E-02  0.10197623562E+01  0.10194759380E+01 0.  0.
     999903    2    3    3    0    0  0.11315356652E+00  0.58485666664E-01  0.12186892513E-01  0.12909989999E+00  0.17145291134E-01 0.  0.
         14    1    1    2    0    0  0.16247140267E-01 -0.16458287257E-01  0.70164249837E-02  0.24167643779E-01  0.00000000000E+00 0.  1.
     999901    1    3    3    0    0 -0.12940070678E+00 -0.42027379407E-01 -0.19203317497E-01  0.89066245623E+00  0.88000000000E+00 0. -1.
        -11    1    4    4    0    0  0.48177281335E-01  0.23524641876E-01  0.13544970289E-01  0.55300872989E-01  0.51100000000E-03 0. -1.
         11    1    4    4    0    0  0.64976285181E-01  0.34961024788E-01 -0.13580777755E-02  0.73799027002E-01  0.51100000000E-03 0.  1.
</event>
<event>
 8    1  0.1123361E+005  0.1043930E+01  0.7957747E-01            NaN
         13   -1    0    0    0    0  0.00000000000E+00  0.00000000000E+00  0.74505805969E-08  0.10566000000E+00  0.10566000000E+00 0.  1.
     999900   -1    0    0    0    0 -0.00000000000E+00 -0.00000000000E+00 -0.74505805969E-08  0.93827000000E+00  0.93827000000E+00 0.  1.
     999902    2    1    2    0    0  0.44862825655E-03 -0.64609097963E-02  0.22644732853E-01  0.10203773240E+01  0.10201054625E+01 0.  0.
     999903    2    3    3    0    0  0.94121497938E-01 -0.10041826818E-01  0.91212862984E-01  0.13274619677E+00  0.18495181097E-01 0.  0.
         14    1    1    2    0    0 -0.44862825655E-03  0.64609097963E-02 -0.22644732853E-01  0.23552676041E-01  0.00000000000E+00 0. -1.
     999901    1    3    3    0    0 -0.93672869682E-01  0.35809170213E-02 -0.68568130131E-01  0.88763112719E+00  0.88000000000E+00 0.  1.
        -11    1    4    4    0    0  0.57504471739E-01 -0.82393878789E-02  0.67612479212E-01  0.89142359453E-01  0.51100000000E-03 0. -1.
         11    1    4    4    0    0  0.36617026200E-01 -0.18024389387E-02  0.23600383772E-01  0.43603837320E-01  0.51100000000E-03 0.  1.
</event>
<event>
 8    1  0.1123361E+005  0.1043930E+01  0.7957747E-01            NaN
         13   -1    0    0    0    0  0.00000000000E+00  0.00000000000E+00  0.74505805969E-08  0.10566000000E+00  0.10566000000E+00 0. -1.
     999900   -1    0    0    0    0 -0.00000000000E+00 -0.00000000000E+00 -0.74505805969E-08  0.93827000000E+00  0.93827000000E+00 0. -1.
     999902    2    1    2    0    0  0.72828701966E-02  0.44662246802E-02 -0.22842381862E-01  0.10195422619E+01  0.10192505394E+01 0.  0.
     999903    2    3    3    0    0  0.12492330390E+00 -0.14297672539E-01  0.25588829523E-01  0.13019590769E+00  0.22043840106E-01 0.  0.
         14    1    1    2    0    0 -0.72828701966E-02 -0.44662246802E-02  0.22842381862E-01  0.24387738114E-01  0.00000000000E+00 0. -1.
     999901    1    3    3    0    0 -0.11764043370E+00  0.18763897219E-01 -0.48431211385E-01  0.88934635419E+00  0.88000000000E+00 0. -1.
        -11    1    4    4    0    0  0.83357109078E-01 -0.18100798531E-01  0.23125183413E-01  0.88380324565E-01  0.51100000000E-03 0.  1.
         11    1    4    4    0    0  0.41566194820E-01  0.38031259921E-02  0.24636461099E-02  0.41815583128E-01  0.51100000000E-03 0. -1.
</event>
<event>
 8    1  0.1123361E+005  0.1043930E+01  0.7957747E-01            NaN
         13   -1    0    0    0    0  0.00000000000E+00  0.00000000000E+00  0.74505805969E-08  0.10566000000E+00  0.10566000000E+00 0.  1.
     999900   -1    0    0    0    0 -0.00000000000E+00 -0.00000000000E+00 -0.74505805969E-08  0.93827000000E+00  0.93827000000E+00 0.  1.
     999902    2    1    2    0    0 -0.21736634160E-01  0.93192219993E-02 -0.57151672869E-02  0.10195991081E+01  0.10193087604E+01 0.  0.
     999903    2    3    3    0    0 -0.10585108106E+00 -0.72982069817E-01  0.18357766585E-01  0.13143907244E+00  0.20208619254E-01 0.  0.
         14    1    1    2    0    0  0.21736634160E-01 -0.93192219993E-02  0.57151672869E-02  0.24330891895E-01  0.00000000000E+00 0.  1.
     999901    1    3    3    0    0  0.84114446903E-01  0.82301291816E-01 -0.24072933872E-01  0.88816003567E+00  0.88000000000E+00 0.  1.
        -11    1    4    4    0    0 -0.55887805925E-01 -0.36400888641E-01 -0.51728811648E-03  0.66700826479E-01  0.51100000000E-03 0. -1.
         11    1    4    4    0    0 -0.49963275137E-01 -0.36581181176E-01  0.18875054702E-01  0.64738245958E-01  0.51100000000E-03 0.  1.
</event>
<event>
 8    1  0.1123361E+005  0.1043930E+01  0.7957747E-01            NaN
         13   -1    0    0    0    0  0.00000000000E+00  0.00000000000E+00  0.74505805969E-08  0.10566000000E+00  0.10566000000E+00 0.  1.
     999900   -1    0    0    0    0 -0.00000000000E+00 -0.00000000000E+00 -0.74505805969E-08  0.93827000000E+00  0.93827000000E+00 0.  1.
     999902    2    1    2    0    0 -0.10322064835E-01  0.65422801025E-02  0.17158147607E-01  0.10228646616E+01  0.10226477241E+01 0.  0.
     999903    2    3    3    0    0 -0.91772445864E-01 -0.81212113208E-01  0.50545027164E-01  0.13412978449E+00  0.20455076751E-01 0.  0.
         14    1    1    2    0    0  0.10322064835E-01 -0.65422801025E-02 -0.17158147607E-01  0.21065338371E-01  0.00000000000E+00 0. -1.
     999901    1    3    3    0    0  0.81450381029E-01  0.87754393310E-01 -0.33386879557E-01  0.88873487714E+00  0.88000000000E+00 0. -1.
        -11    1    4    4    0    0 -0.92338060311E-02 -0.12584988622E-01  0.13285421010E-01  0.20503869021E-01  0.51100000000E-03 0.  1.
         11    1    4    4    0    0 -0.82538639833E-01 -0.68627124586E-01  0.37259606154E-01  0.11362591547E+00  0.51100000000E-03 0. -1.
</event>
<event>
 8    1  0.1123361E+005  0.1043930E+01  0.7957747E-01            NaN
         13   -1    0    0    0    0  0.00000000000E+00  0.00000000000E+00  0.74505805969E-08  0.10566000000E+00  0.10566000000E+00 0.  1.
     999900   -1    0    0    0    0 -0.00000000000E+00 -0.00000000000E+00 -0.74505805969E-08  0.93827000000E+00  0.93827000000E+00 0.  1.
     999902    2    1    2    0    0  0.24348953400E-01  0.47636768147E-02 -0.30526860382E-03  0.10191175568E+01  0.10188154579E+01 0.  0.
     999903    2    3    3    0    0  0.26913615944E-01  0.70550642968E-01 -0.10454427251E+00  0.13052300790E+00  0.20124977767E-01 0.  0.
         14    1    1    2    0    0 -0.24348953400E-01 -0.47636768147E-02  0.30526860382E-03  0.24812443197E-01  0.00000000000E+00 0.  1.
     999901    1    3    3    0    0 -0.25646625445E-02 -0.65786966153E-01  0.10423900390E+00  0.88859454891E+00  0.88000000000E+00 0. -1.
        -11    1    4    4    0    0  0.16895575540E-01  0.28357008389E-01 -0.59164531110E-01  0.67751629206E-01  0.51100000000E-03 0.  1.
         11    1    4    4    0    0  0.10018040404E-01  0.42193634579E-01 -0.45379741398E-01  0.62771378692E-01  0.51100000000E-03 0. -1.
</event>
<event>
 8    1  0.1123361E+005  0.1043930E+01  0.7957747E-01            NaN
         13   -1    0    0    0    0  0.00000000000E+00  0.00000000000E+00  0.74505805969E-08  0.10566000000E+00  0.10566000000E+00 0.  1.
     999900   -1    0    0    0    0 -0.00000000000E+00 -0.00000000000E+00 -0.74505805969E-08  0.93827000000E+00  0.93827000000E+00 0.  1.
     999902    2    1    2    0    0 -0.61612764631E-02  0.23572433631E-01 -0.65347031559E-02  0.10187045505E+01  0.10183921828E+01 0.  0.
     999903    2    3    3    0    0 -0.46150517608E-01  0.62403904513E-01 -0.10444399989E+00  0.13152178869E+00  0.19113194754E-01 0.  0.
         14    1    1    2    0    0  0.61612764631E-02 -0.23572433631E-01  0.65347031559E-02  0.25225449457E-01  0.00000000000E+00 0. -1.
     999901    1    3    3    0    0  0.39989241145E-01 -0.38831470882E-01  0.97909296735E-01  0.88718276185E+00  0.88000000000E+00 0. -1.
        -11    1    4    4    0    0  0.10846222628E-02  0.21579311006E-02 -0.65838441337E-03  0.25549291817E-02  0.51100000000E-03 0.  1.
         11    1    4    4    0    0 -0.47235139871E-01  0.60245973413E-01 -0.10378561548E+00  0.12896685951E+00  0.51100000000E-03 0. -1.
</event>
<event>
 8    1  0.1123361E+005  0.1043930E+01  0.7957747E-01            NaN
         13   -1    0    0    0    0  0.00000000000E+00  0.00000000000E+00  0.74505805969E-08  0.10566000000E+00  0.10566000000E+00 0. -1.
     999900   -1    0    0    0    0 -0.00000000000E+00 -0.00000000000E+00 -0.74505805969E-08  0.93827000000E+00  0.93827000000E+00 0. -1.
     999902    2    1    2    0    0  0.84723490483E-02  0.11076455929E-01 -0.18037266275E-01  0.10211306239E+01  0.10208760648E+01 0.  0.
     999903    2    3    3    0    0  0.12781157433E+00 -0.20812598174E-01 -0.39611632763E-02  0.13239168637E+00  0.27256284260E-01 0.  0.
         14    1    1    2    0    0 -0.84723490483E-02 -0.11076455929E-01  0.18037266275E-01  0.22799376066E-01  0.00000000000E+00 0. -1.
     999901    1    3    3    0    0 -0.11933922528E+00  0.31889054103E-01 -0.14076102998E-01  0.88873893756E+00  0.88000000000E+00 0. -1.
        -11    1    4    4    0    0  0.10401170894E+00 -0.85158893263E-02  0.40080657407E-02  0.10443793219E+00  0.51100000000E-03 0.  1.
         11    1    4    4    0    0  0.23799865382E-01 -0.12296708848E-01 -0.79692290170E-02  0.27953754181E-01  0.51100000000E-03 0. -1.
</event>
<event>
 8    1  0.1123361E+005  0.1043930E+01  0.7957747E-01            NaN
         13   -1    0    0    0    0  0.00000000000E+00  0.00000000000E+00  0.74505805969E-08  0.10566000000E+00  0.10566000000E+00 0.  1.
     999900   -1    0    0    0    0 -0.00000000000E+00 -0.00000000000E+00 -0.74505805969E-08  0.93827000000E+00  0.93827000000E+00 0.  1.
     999902    2    1    2    0    0 -0.23404062940E-01  0.66687146736E-03 -0.19667589218E-02  0.10204339786E+01  0.10201634387E+01 0.  0.
     999903    2    3    3    0    0 -0.94733734355E-01  0.54325505786E-01  0.72847848733E-01  0.13276039190E+00  0.19818465829E-01 0.  0.
         14    1    1    2    0    0  0.23404062940E-01 -0.66687146736E-03  0.19667589218E-02  0.23496021372E-01  0.00000000000E+00 0. -1.
     999901    1    3    3    0    0  0.71329671415E-01 -0.53658634319E-01 -0.74814607655E-01  0.88767358673E+00  0.88000000000E+00 0. -1.
        -11    1    4    4    0    0 -0.78770525526E-01  0.44598889305E-01  0.68614175463E-01  0.11358707151E+00  0.51100000000E-03 0.  1.
         11    1    4    4    0    0 -0.15963208829E-01  0.97266164812E-02  0.42336732709E-02  0.19173320387E-01  0.51100000000E-03 0. -1.
</event>
<event>
 8    1  0.1123361E+005  0.1043930E+01  0.7957747E-01            NaN
         13   -1    0    0    0    0  0.00000000000E+00  0.00000000000E+00  0.74505805969E-08  0.10566000000E+00  0.10566000000E+00 0.  1.
     999900   -1    0    0    0    0 -0.00000000000E+00 -0.00000000000E+00 -0.74505805969E-08  0.93827000000E+00  0.93827000000E+00 0. -1.
     999902    2    1    2    0    0  0.18871713576E-01  0.58835391479E-03 -0.15147709473E-01  0.10197237852E+01  0.10194364410E+01 0.  0.
     999903    2    3    3    0    0  0.30905689575E-01  0.66724514593E-01 -0.10811696406E+00  0.13227683430E+00  0.20014007083E-01 0.  0.
         14    1    1    2    0    0 -0.18871713576E-01 -0.58835391479E-03  0.15147709473E-01  0.24206214820E-01  0.00000000000E+00 0.  1.
     999901    1    3    3    0    0 -0.12033975999E-01 -0.66136160678E-01  0.92969254586E-01  0.88744695088E+00  0.88000000000E+00 0. -1.
        -11    1    4    4    0    0  0.15297523356E-01  0.13158796640E-01 -0.33402495754E-01  0.39027631153E-01  0.51100000000E-03 0. -1.
         11    1    4    4    0    0  0.15608166219E-01  0.53565717953E-01 -0.74714468305E-01  0.93249203147E-01  0.51100000000E-03 0.  1.
</event>
<event>
 8    1  0.1123361E+005  0.1043930E+01  0.7957747E-01            NaN
         13   -1    0    0    0    0  0.00000000000E+00  0.00000000000E+00  0.74505805969E-08  0.10566000000E+00  0.10566000000E+00 0.  1.
     999900   -1    0    0    0    0 -0.00000000000E+00 -0.00000000000E+00 -0.74505805969E-08  0.93827000000E+00  0.93827000000E+00 0.  1.
     999902    2    1    2    0    0  0.23328294195E-01 -0.12595309041E-03 -0.42741164498E-02  0.10202130599E+01  0.10199373483E+01 0.  0.
     999903    2    3    3    0    0 -0.14150502617E-01 -0.11691336301E+00  0.51124977649E-01  0.12998105706E+00  0.20306173484E-01 0.  0.
         14    1    1    2    0    0 -0.23328294195E-01  0.12595309041E-03  0.42741164498E-02  0.23716940057E-01  0.00000000000E+00 0.  1.
     999901    1    3    3    0    0  0.37478796812E-01  0.11678740992E+00 -0.55399094098E-01  0.89023200288E+00  0.88000000000E+00 0.  1.
        -11    1    4    4    0    0 -0.93490139281E-02 -0.25264603428E-01  0.55389984028E-02  0.27507196733E-01  0.51100000000E-03 0. -1.
         11    1    4    4    0    0 -0.48014886892E-02 -0.91648759579E-01  0.45585979246E-01  0.10247386033E+00  0.51100000000E-03 0.  1.
</event>
<event>
 8    1  0.1123361E+005  0.1043930E+01  0.7957747E-01            NaN
         13   -1    0    0    0    0  0.00000000000E+00  0.00000000000E+00  0.74505805969E-08  0.10566000000E+00  0.10566000000E+00 0.  1.
     999900   -1    0    0    0    0 -0.00000000000E+00 -0.00000000000E+00 -0.74505805969E-08  0.93827000000E+00  0.93827000000E+00 0.  1.
     999902    2    1    2    0    0 -0.18535562921E-01  0.92655852643E-03 -0.13780023339E-01  0.10208147529E+01  0.10205530095E+01 0.  0.
     999903    2    3    3    0    0  0.73325780967E-01  0.64277477035E-01 -0.84939882572E-01  0.13091837080E+00  0.20410094395E-01 0.  0.
         14    1    1    2    0    0  0.18535562921E-01 -0.92655852643E-03  0.13780023339E-01  0.23115247062E-01  0.00000000000E+00 0.  1.
     999901    1    3    3    0    0 -0.91861343888E-01 -0.63350918508E-01  0.71159859233E-01  0.88989638214E+00  0.88000000000E+00 0. -1.
        -11    1    4    4    0    0  0.72544513208E-02  0.14612383665E-01 -0.88308890426E-02  0.18557870099E-01  0.51100000000E-03 0. -1.
         11    1    4    4    0    0  0.66071329646E-01  0.49665093370E-01 -0.76108993529E-01  0.11236050070E+00  0.51100000000E-03 0.  1.
</event>
<event>
 8    1  0.1123361E+005  0.1043930E+01  0.7957747E-01            NaN
         13   -1    0    0    0    0  0.00000000000E+00  0.00000000000E+00  0.74505805969E-08  0.10566000000E+00  0.10566000000E+00 0.  1.
     999900   -1    0    0    0    0 -0.00000000000E+00 -0.00000000000E+00 -0.74505805969E-08  0.93827000000E+00  0.93827000000E+00 0.  1.
     999902    2    1    2    0    0 -0.20396767257E-01  0.66346357620E-02 -0.11706801362E-01  0.10194944582E+01  0.10192015770E+01 0.  0.
     999903    2    3    3    0    0  0.21237397430E-02 -0.11807192990E+00  0.46176870212E-01  0.12853462732E+00  0.21056024717E-01 0.  0.
         14    1    1    2    0    0  0.20396767257E-01 -0.66346357620E-02  0.11706801362E-01  0.24435541827E-01  0.00000000000E+00 0.  1.
     999901    1    3    3    0    0 -0.22520507000E-01  0.12470656566E+00 -0.57883671573E-01  0.89095983085E+00  0.88000000000E+00 0.  1.
        -11    1    4    4    0    0 -0.44149278413E-02 -0.49468446546E-01  0.98675290013E-02  0.50638404804E-01  0.51100000000E-03 0.  1.
         11    1    4    4    0    0  0.65386675842E-02 -0.68603483357E-01  0.36309341210E-01  0.77896222518E-01  0.51100000000E-03 0. -1.
</event>
<event>
 8    1  0.1123361E+005  0.1043930E+01  0.7957747E-01            NaN
         13   -1    0    0    0    0  0.00000000000E+00  0.00000000000E+00  0.74505805969E-08  0.10566000000E+00  0.10566000000E+00 0. -1.
     999900   -1    0    0    0    0 -0.00000000000E+00 -0.00000000000E+00 -0.74505805969E-08  0.93827000000E+00  0.93827000000E+00 0.  1.
     999902    2    1    2    0    0  0.20144556999E-01 -0.11586256874E-01 -0.41545478105E-02  0.10203226962E+01  0.10200495574E+01 0.  0.
     999903    2    3    3    0    0 -0.10955208135E+00 -0.47065129644E-02  0.64525961892E-01  0.12814246705E+00  0.15267033523E-01 0.  0.
         14    1    1    2    0    0 -0.20144556999E-01  0.11586256874E-01  0.41545478105E-02  0.23607303797E-01  0.00000000000E+00 0.  1.
     999901    1    3    3    0    0  0.12969663835E+00 -0.68797439099E-02 -0.68680509702E-01  0.89218022915E+00  0.88000000000E+00 0.  1.
        -11    1    4    4    0    0 -0.81478550845E-01 -0.83946695792E-02  0.53028036307E-01  0.97577961040E-01  0.51100000000E-03 0.  1.
         11    1    4    4    0    0 -0.28073530502E-01  0.36881566148E-02  0.11497925585E-01  0.30564506013E-01  0.51100000000E-03 0. -1.
</event>
<event>
 8    1  0.1123361E+005  0.1043930E+01  0.7957747E-01            NaN
         13   -1    0    0    0    0  0.00000000000E+00  0.00000000000E+00  0.74505805969E-08  0.10566000000E+00  0.10566000000E+00 0.  1.
     999900   -1    0    0    0    0 -0.00000000000E+00 -0.00000000000E+00 -0.74505805969E-08  0.93827000000E+00  0.93827000000E+00 0. -1.
     999902    2    1    2    0    0  0.20832429817E-01 -0.62236570750E-02  0.11201623214E-01  0.10194718643E+01  0.10191784347E+01 0.  0.
     999903    2    3    3    0    0 -0.11007893317E+00  0.59700652244E-01  0.12833160096E-01  0.12734717490E+00  0.19263269467E-01 0.  0.
         14    1    1    2    0    0 -0.20832429817E-01  0.62236570750E-02 -0.11201623214E-01  0.24458135703E-01  0.00000000000E+00 0.  1.
     999901    1    3    3    0    0  0.13091136299E+00 -0.65924309319E-01 -0.16315368821E-02  0.89212468940E+00  0.88000000000E+00 0. -1.
        -11    1    4    4    0    0 -0.25678092167E-01  0.88163939942E-02 -0.37346200256E-02  0.27409883767E-01  0.51100000000E-03 0.  1.
         11    1    4    4    0    0 -0.84400841004E-01  0.50884258250E-01  0.16567780122E-01  0.99937291133E-01  0.51100000000E-03 0. -1.
</event>
<event>
 8    1  0.1123361E+005  0.1043930E+01  0.7957747E-01            NaN
         13   -1    0    0    0    0  0.00000000000E+00  0.00000000000E+00  0.74505805969E-08  0.10566000000E+00  0.10566000000E+00 0. -1.
     999900   -1    0    0    0    0 -0.00000000000E+00 -0.00000000000E+00 -0.74505805969E-08  0.93827000000E+00  0.93827000000E+00 0.  1.
     999902    2    1    2    0    0 -0.21004717132E-01 -0.12342220490E-01 -0.35253268642E-02  0.10193138167E+01  0.10190165359E+01 0.  0.
     999903    2    3    3    0    0  0.11640471389E+00 -0.15930035577E-01 -0.45505140194E-01  0.12765439248E+00  0.20520786710E-01 0.  0.
         14    1    1    2    0    0  0.21004717132E-01  0.12342220490E-01  0.35253268642E-02  0.24616183253E-01  0.00000000000E+00 0. -1.
     999901    1    3    3    0    0 -0.13740943102E+00  0.35878150873E-02  0.41979813330E-01  0.89165942426E+00  0.88000000000E+00 0.  1.
        -11    1    4    4    0    0  0.49650259752E-01 -0.16029043527E-01 -0.24729005304E-01  0.57739616852E-01  0.51100000000E-03 0. -1.
         11    1    4    4    0    0  0.66754454137E-01  0.99007949848E-04 -0.20776134889E-01  0.69914775632E-01  0.51100000000E-03 0.  1.
</event>
<event>
 8    1  0.1123361E+005  0.1043930E+01  0.7957747E-01            NaN
         13   -1    0    0    0    0  0.00000000000E+00  0.00000000000E+00  0.74505805969E-08  0.10566000000E+00  0.10566000000E+00 0. -1.
     999900   -1    0    0    0    0 -0.00000000000E+00 -0.00000000000E+00 -0.74505805969E-08  0.93827000000E+00  0.93827000000E+00 0.  1.
     999902    2    1    2    0    0 -0.12817271038E-01  0.68670204337E-03 -0.19952931138E-01  0.10202050457E+01  0.10199291455E+01 0.  0.
     999903    2    3    3    0    0  0.70296942234E-01  0.58671547398E-01 -0.92374100145E-01  0.13143339871E+00  0.18914369061E-01 0.  0.
         14    1    1    2    0    0  0.12817271038E-01 -0.68670204337E-03  0.19952931138E-01  0.23724954321E-01  0.00000000000E+00 0. -1.
     999901    1    3    3    0    0 -0.83114213272E-01 -0.57984845354E-01  0.72421169007E-01  0.88877164697E+00  0.88000000000E+00 0. -1.
        -11    1    4    4    0    0  0.28970223227E-01  0.20474331818E-01 -0.48410395845E-01  0.60019160641E-01  0.51100000000E-03 0.  1.
         11    1    4    4    0    0  0.41326719007E-01  0.38197215580E-01 -0.43963704300E-01  0.71414238067E-01  0.51100000000E-03 0. -1.
</event>
<event>
 8    1  0.1123361E+005  0.1043930E+01  0.7957747E-01            NaN
         13   -1    0    0    0    0  0.00000000000E+00  0.00000000000E+00  0.74505805969E-08  0.10566000000E+00  0.10566000000E+00 0. -1.
     999900   -1    0    0    0    0 -0.00000000000E+00 -0.00000000000E+00 -0.74505805969E-08  0.93827000000E+00  0.93827000000E+00 0. -1.
     999902    2    1    2    0    0 -0.10223301158E-01  0.86121431820E-02  0.20127277007E-01  0.10197682083E+01  0.10194819305E+01 0.  0.
     999903    2    3    3    0    0  0.12675408299E-01 -0.42513303237E-01 -0.11764697944E+00  0.12728856828E+00  0.19837361638E-01 0.  0.
         14    1    1    2    0    0  0.10223301158E-01 -0.86121431820E-02 -0.20127277007E-01  0.24161791665E-01  0.00000000000E+00 0.  1.
     999901    1    3    3    0    0 -0.22898709457E-01  0.51125446419E-01  0.13777425645E+00  0.89247964005E+00  0.88000000000E+00 0.  1.
        -11    1    4    4    0    0  0.97916243679E-02 -0.42520040607E-01 -0.96092853415E-01  0.10553637932E+00  0.51100000000E-03 0.  1.
         11    1    4    4    0    0  0.28837839311E-02  0.67373693374E-05 -0.21554126024E-01  0.21752188966E-01  0.51100000000E-03 0. -1.
</event>
<event>
 8    1  0.1123361E+005  0.1043930E+01  0.7957747E-01            NaN
         13   -1    0    0    0    0  0.00000000000E+00  0.00000000000E+00  0.74505805969E-08  0.10566000000E+00  0.10566000000E+00 0. -1.
     999900   -1    0    0    0    0 -0.00000000000E+00 -0.00000000000E+00 -0.74505805969E-08  0.93827000000E+00  0.93827000000E+00 0.  1.
     999902    2    1    2    0    0  0.11604603865E-01 -0.40087468561E-02 -0.21145052624E-01  0.10194790259E+01  0.10191857702E+01 0.  0.
     999903    2    3    3    0    0 -0.90161536019E-01  0.95788439668E-02 -0.92159964370E-01  0.13066853571E+00  0.18972357842E-01 0.  0.
         14    1    1    2    0    0 -0.11604603865E-01  0.40087468561E-02  0.21145052624E-01  0.24450974064E-01  0.00000000000E+00 0. -1.
     999901    1    3    3    0    0  0.10176613988E+00 -0.13587590823E-01  0.71014911747E-01  0.88881049023E+00  0.88000000000E+00 0. -1.
        -11    1    4    4    0    0 -0.53516730051E-01  0.15008880077E-01 -0.55135773593E-01  0.78291260861E-01  0.51100000000E-03 0.  1.
         11    1    4    4    0    0 -0.36644805968E-01 -0.54300361102E-02 -0.37024190777E-01  0.52377274846E-01  0.51100000000E-03 0. -1.
</event>
<event>
 8    1  0.1123361E+005  0.1043930E+01  0.7957747E-01            NaN
         13   -1    0    0    0    0  0.00000000000E+00  0.00000000000E+00  0.74505805969E-08  0.10566000000E+00  0.10566000000E+00 0. -1.
     999900   -1    0    0    0    0 -0.00000000000E+00 -0.00000000000E+00 -0.74505805969E-08  0.93827000000E+00  0.93827000000E+00 0. -1.
     999902    2    1    2    0    0 -0.20619255689E-01 -0.14537507191E-01  0.12269589776E-02  0.10186713728E+01  0.10183581725E+01 0.  0.
     999903    2    3    3    0    0 -0.12650918062E+00  0.26737940435E-01 -0.76812752415E-02  0.13131817624E+00  0.21586365683E-01 0.  0.
         14    1    1    2    0    0  0.20619255689E-01  0.14537507191E-01 -0.12269589776E-02  0.25258627216E-01  0.00000000000E+00 0.  1.
     999901    1    3    3    0    0  0.10588992493E+00 -0.41275447625E-01  0.89082342191E-02  0.88735319654E+00  0.88000000000E+00 0.  1.
        -11    1    4    4    0    0 -0.98375841210E-01  0.29441995940E-01 -0.35448264097E-02  0.10274952153E+00  0.51100000000E-03 0.  1.
         11    1    4    4    0    0 -0.28133339405E-01 -0.27040555051E-02 -0.41364488318E-02  0.28568654715E-01  0.51100000000E-03 0. -1.
</event>
<event>
 8    1  0.1123361E+005  0.1043930E+01  0.7957747E-01            NaN
         13   -1    0    0    0    0  0.00000000000E+00  0.00000000000E+00  0.74505805969E-08  0.10566000000E+00  0.10566000000E+00 0. -1.
     999900   -1    0    0    0    0 -0.00000000000E+00 -0.00000000000E+00 -0.74505805969E-08  0.93827000000E+00  0.93827000000E+00 0. -1.
     999902    2    1    2    0    0  0.69733785073E-02 -0.19145029138E-02  0.23300313864E-01  0.10195333208E+01  0.10192413818E+01 0.  0.
     999903    2    3    3    0    0 -0.10651488010E+00  0.69965318252E-01  0.56223832882E-02  0.12916328383E+00  0.20272573973E-01 0.  0.
         14    1    1    2    0    0 -0.69733785073E-02  0.19145029138E-02 -0.23300313864E-01  0.24396679187E-01  0.00000000000E+00 0.  1.
     999901    1    3    3    0    0  0.11348825860E+00 -0.71879821166E-01  0.17677930576E-01  0.89037003699E+00  0.88000000000E+00 0.  1.
        -11    1    4    4    0    0 -0.51825110498E-01  0.43096107290E-01 -0.37595806529E-02  0.67509348310E-01  0.51100000000E-03 0.  1.
         11    1    4    4    0    0 -0.54689769597E-01  0.26869210962E-01  0.93819639410E-02  0.61653935517E-01  0.51100000000E-03 0. -1.
</event>
<event>
 8    1  0.1123361E+005  0.1043930E+01  0.7957747E-01            NaN
         13   -1    0    0    0    0  0.00000000000E+00  0.00000000000E+00  0.74505805969E-08  0.10566000000E+00  0.10566000000E+00 0.  1.
     999900   -1    0    0    0    0 -0.00000000000E+00 -0.00000000000E+00 -0.74505805969E-08  0.93827000000E+00  0.93827000000E+00 0.  1.
     999902    2    1    2    0    0 -0.15921395369E-01  0.32439798338E-02  0.17886571373E-01  0.10197650735E+01  0.10194787205E+01 0.  0.
     999903    2    3    3    0    0 -0.12219626010E+00 -0.11753199245E-01 -0.41904775724E-01  0.13123017414E+00  0.19881768073E-01 0.  0.
         14    1    1    2    0    0  0.15921395369E-01 -0.32439798338E-02 -0.17886571373E-01  0.24164926467E-01  0.00000000000E+00 0. -1.
     999901    1    3    3    0    0  0.10627486473E+00  0.14997179079E-01  0.59791347097E-01  0.88853489939E+00  0.88000000000E+00 0.  1.
        -11    1    4    4    0    0 -0.80922528604E-01  0.14858246930E-02 -0.25125634059E-01  0.84747990646E-01  0.51100000000E-03 0.  1.
         11    1    4    4    0    0 -0.41273731493E-01 -0.13239023938E-01 -0.16779141666E-01  0.46482183493E-01  0.51100000000E-03 0. -1.
</event>
<event>
 8    1  0.1123361E+005  0.1043930E+01  0.7957747E-01            NaN
         13   -1    0    0    0    0  0.00000000000E+00  0.00000000000E+00  0.74505805969E-08  0.10566000000E+00  0.10566000000E+00 0.  1.
     999900   -1    0    0    0    0 -0.00000000000E+00 -0.00000000000E+00 -0.74505805969E-08  0.93827000000E+00  0.93827000000E+00 0. -1.
     999902    2    1    2    0    0  0.20784652383E-01  0.91795188231E-02 -0.15002916186E-01  0.10167022047E+01  0.10163375523E+01 0.  0.
     999903    2    3    3    0    0  0.11270661123E+00  0.59293114836E-01 -0.20584164659E-01  0.13047866107E+00  0.19558105194E-01 0.  0.
         14    1    1    2    0    0 -0.20784652383E-01 -0.91795188231E-02  0.15002916186E-01  0.27227795258E-01  0.00000000000E+00 0. -1.
     999901    1    3    3    0    0 -0.91921958844E-01 -0.50113596013E-01  0.55812484729E-02  0.88622354367E+00  0.88000000000E+00 0.  1.
        -11    1    4    4    0    0  0.69730103288E-01  0.42939412062E-01 -0.54777025979E-02  0.82075250591E-01  0.51100000000E-03 0.  1.
         11    1    4    4    0    0  0.42976507940E-01  0.16353702774E-01 -0.15106462061E-01  0.48403410480E-01  0.51100000000E-03 0. -1.
</event>
<event>
 8    1  0.1123361E+005  0.1043930E+01  0.7957747E-01            NaN
         13   -1    0    0    0    0  0.00000000000E+00  0.00000000000E+00  0.74505805969E-08  0.10566000000E+00  0.10566000000E+00 0. -1.
     999900   -1    0    0    0    0 -0.00000000000E+00 -0.00000000000E+00 -0.74505805969E-08  0.93827000000E+00  0.93827000000E+00 0.  1.
     999902    2    1    2    0    0 -0.83884967153E-02 -0.87723480641E-02  0.20335588162E-01  0.10202475780E+01  0.10199726777E+01 0.  0.
     999903    2    3    3    0    0  0.54755412486E-02  0.12734646076E+00 -0.62553141563E-02  0.12927753483E+00  0.20650652231E-01 0.  0.
         14    1    1    2    0    0  0.83884967153E-02  0.87723480641E-02 -0.20335588162E-01  0.23682422038E-01  0.00000000000E+00 0.  1.
     999901    1    3    3    0    0 -0.13864037964E-01 -0.13611880882E+00  0.26590902318E-01  0.89097004313E+00  0.88000000000E+00 0. -1.
        -11    1    4    4    0    0  0.22621781592E-02  0.43071113188E-01 -0.11917347218E-01  0.44749553372E-01  0.51100000000E-03 0.  1.
         11    1    4    4    0    0  0.32133630894E-02  0.84275347572E-01  0.56620330613E-02  0.84527981462E-01  0.51100000000E-03 0. -1.
</event>
<event>
 8    1  0.1123361E+005  0.1043930E+01  0.7957747E-01            NaN
         13   -1    0    0    0    0  0.00000000000E+00  0.00000000000E+00  0.74505805969E-08  0.10566000000E+00  0.10566000000E+00 0.  1.
     999900   -1    0    0    0    0 -0.00000000000E+00 -0.00000000000E+00 -0.74505805969E-08  0.93827000000E+00  0.93827000000E+00 0.  1.
     999902    2    1    2    0    0  0.18810722409E-01  0.82254061348E-02 -0.12456552111E-01  0.10199161233E+01  0.10196333813E+01 0.  0.
     999903    2    3    3    0    0  0.11064563378E+00  0.57710681183E-01  0.39056577815E-01  0.13225850578E+00  0.19847344457E-01 0.  0.
         14    1    1    2    0    0 -0.18810722409E-01 -0.82254061348E-02  0.12456552111E-01  0.24013876699E-01  0.00000000000E+00 0. -1.
     999901    1    3    3    0    0 -0.91834911374E-01 -0.49485275048E-01 -0.51513129926E-01  0.88765761752E+00  0.88000000000E+00 0.  1.
        -11    1    4    4    0    0  0.68254858713E-01  0.29615533769E-01  0.31678375558E-01  0.80867707877E-01  0.51100000000E-03 0.  1.
         11    1    4    4    0    0  0.42390775070E-01  0.28095147414E-01  0.73782022567E-02  0.51390797900E-01  0.51100000000E-03 0. -1.
</event>
<event>
 8    1  0.1123361E+005  0.1043930E+01  0.7957747E-01            NaN
         13   -1    0    0    0    0  0.00000000000E+00  0.00000000000E+00  0.74505805969E-08  0.10566000000E+00  0.10566000000E+00 0. -1.
     999900   -1    0    0    0    0 -0.00000000000E+00 -0.00000000000E+00 -0.74505805969E-08  0.93827000000E+00  0.93827000000E+00 0. -1.
     999902    2    1    2    0    0  0.12856132857E-02 -0.32784294375E-02  0.24193201121E-01  0.10194818532E+01  0.10191886661E+01 0.  0.
     999903    2    3    3    0    0 -0.92559581764E-02  0.12668326655E+00 -0.11649338257E-01  0.12915278214E+00  0.20258609697E-01 0.  0.
         14    1    1    2    0    0 -0.12856132857E-02  0.32784294375E-02 -0.24193201121E-01  0.24448146792E-01  0.00000000000E+00 0.  1.
     999901    1    3    3    0    0  0.10541571462E-01 -0.12996169599E+00  0.35842539378E-01  0.89032907106E+00  0.88000000000E+00 0. -1.
        -11    1    4    4    0    0 -0.35816873688E-02  0.11210036374E-01 -0.64328259082E-02  0.13421466764E-01  0.51100000000E-03 0.  1.
         11    1    4    4    0    0 -0.56742708076E-02  0.11547323018E+00 -0.52165123487E-02  0.11573131538E+00  0.51100000000E-03 0. -1.
</event>
<event>
 8    1  0.1123361E+005  0.1043930E+01  0.7957747E-01            NaN
         13   -1    0    0    0    0  0.00000000000E+00  0.00000000000E+00  0.74505805969E-08  0.10566000000E+00  0.10566000000E+00 0. -1.
     999900   -1    0    0    0    0 -0.00000000000E+00 -0.00000000000E+00 -0.74505805969E-08  0.93827000000E+00  0.93827000000E+00 0. -1.
     999902    2    1    2    0    0  0.17971203321E-02 -0.21791018196E-01  0.94393614333E-02  0.10201144660E+01  0.10198364301E+01 0.  0.
     999903    2    3    3    0    0  0.10568963349E+00 -0.74777879162E-01  0.20854089674E-01  0.13234672737E+00  0.17853104816E-01 0.  0.
         14    1    1    2    0    0 -0.17971203321E-02  0.21791018196E-01 -0.94393614333E-02  0.23815534001E-01  0.00000000000E+00 0.  1.
     999901    1    3    3    0    0 -0.10389251315E+00  0.52986860966E-01 -0.11414728241E-01  0.88776773863E+00  0.88000000000E+00 0.  1.
        -11    1    4    4    0    0  0.41765488067E-02 -0.77316570489E-02 -0.55767627932E-03  0.88201022947E-02  0.51100000000E-03 0. -1.
         11    1    4    4    0    0  0.10151308468E+00 -0.67046222113E-01  0.21411765954E-01  0.12352662508E+00  0.51100000000E-03 0.  1.
</event>
<event>
 8    1  0.1123361E+005  0.1043930E+01  0.7957747E-01            NaN
         13   -1    0    0    0    0  0.00000000000E+00  0.00000000000E+00  0.74505805969E-08  0.10566000000E+00  0.10566000000E+00 0.  1.
     999900   -1    0    0    0    0 -0.00000000000E+00 -0.00000000000E+00 -0.74505805969E-08  0.93827000000E+00  0.93827000000E+00 0.  1.
     999902    2    1    2    0    0  0.31211360554E-02 -0.23491063425E-01 -0.41138788190E-02  0.10198780656E+01  0.10195944160E+01 0.  0.
     999903    2    3    3    0    0 -0.36098491723E-01 -0.10338674266E+00  0.71342512379E-01  0.13217588255E+00  0.19717763384E-01 0.  0.
         14    1    1    2    0    0 -0.31211360554E-02  0.23491063425E-01  0.41138788190E-02  0.24051934434E-01  0.00000000000E+00 0. -1.
     999901    1    3    3    0    0  0.39219627779E-01  0.79895679232E-01 -0.75456391198E-01  0.88770218302E+00  0.88000000000E+00 0.  1.
        -11    1    4    4    0    0 -0.21969599797E-01 -0.54311149850E-01  0.49217326768E-01  0.76517780211E-01  0.51100000000E-03 0. -1.
         11    1    4    4    0    0 -0.14128891926E-01 -0.49075592806E-01  0.22125185611E-01  0.55658102336E-01  0.51100000000E-03 0.  1.
</event>
<event>
 8    1  0.1123361E+005  0.1043930E+01  0.7957747E-01            NaN
         13   -1    0    0    0    0  0.00000000000E+00  0.00000000000E+00  0.74505805969E-08  0.10566000000E+00  0.10566000000E+00 0. -1.
     999900   -1    0    0    0    0 -0.00000000000E+00 -0.00000000000E+00 -0.74505805969E-08  0.93827000000E+00  0.93827000000E+00 0.  1.
     999902    2    1    2    0    0  0.19931015181E-01 -0.10548485128E-01 -0.12056479447E-01  0.10183590282E+01  0.10180379343E+01 0.  0.
     999903    2    3    3    0    0  0.57216203983E-01  0.92529689166E-01 -0.68012675688E-01  0.12979479794E+00  0.19634870552E-01 0.  0.
         14    1    1    2    0    0 -0.19931015181E-01  0.10548485128E-01  0.12056479447E-01  0.25570971849E-01  0.00000000000E+00 0.  1.
     999901    1    3    3    0    0 -0.37285188802E-01 -0.10307817429E+00  0.55956196241E-01  0.88856423021E+00  0.88000000000E+00 0.  1.
        -11    1    4    4    0    0  0.48675759645E-01  0.61915349142E-01 -0.48168711033E-01  0.92321860250E-01  0.51100000000E-03 0.  1.
         11    1    4    4    0    0  0.85404443378E-02  0.30614340023E-01 -0.19843964655E-01  0.37472937686E-01  0.51100000000E-03 0. -1.
</event>
<event>
 8    1  0.1123361E+005  0.1043930E+01  0.7957747E-01            NaN
         13   -1    0    0    0    0  0.00000000000E+00  0.00000000000E+00  0.74505805969E-08  0.10566000000E+00  0.10566000000E+00 0.  1.
     999900   -1    0    0    0    0 -0.00000000000E+00 -0.00000000000E+00 -0.74505805969E-08  0.93827000000E+00  0.93827000000E+00 0. -1.
     999902    2    1    2    0    0 -0.10042024808E-01 -0.20936551604E-01 -0.36964954692E-02  0.10204173325E+01  0.10201464046E+01 0.  0.
     999903    2    3    3    0    0 -0.10659047320E+00  0.28720090998E-01  0.67437582499E-01  0.13089642654E+00  0.19991856943E-01 0.  0.
         14    1    1    2    0    0  0.10042024808E-01  0.20936551604E-01  0.36964954692E-02  0.23512667524E-01  0.00000000000E+00 0.  1.
     999901    1    3    3    0    0  0.96548448396E-01 -0.49656642602E-01 -0.71134077968E-01  0.88952090593E+00  0.88000000000E+00 0. -1.
        -11    1    4    4    0    0 -0.94645475815E-02 -0.13113087042E-02  0.11140276203E-01  0.14685505314E-01  0.51100000000E-03 0.  1.
         11    1    4    4    0    0 -0.97125925622E-01  0.30031399702E-01  0.56297306296E-01  0.11621092123E+00  0.51100000000E-03 0. -1.
</event>
<event>
 8    1  0.1123361E+005  0.1043930E+01  0.7957747E-01            NaN
         13   -1    0    0    0    0  0.00000000000E+00  0.00000000000E+00  0.74505805969E-08  0.10566000000E+00  0.10566000000E+00 0.  1.
     999900   -1    0    0    0    0 -0.00000000000E+00 -0.00000000000E+00 -0.74505805969E-08  0.93827000000E+00  0.93827000000E+00 0.  1.
     999902    2    1    2    0    0  0.21025231549E-02 -0.14663568777E-01 -0.15309088166E-01  0.10226272060E+01  0.10224052980E+01 0.  0.
     999903    2    3    3    0    0  0.76844031131E-02  0.11338115433E+00  0.61608810092E-01  0.13002260618E+00  0.13996300524E-01 0.  0.
         14    1    1    2    0    0 -0.21025231549E-02  0.14663568777E-01  0.15309088166E-01  0.21302794028E-01  0.00000000000E+00 0.  1.
     999901    1    3    3    0    0 -0.55818799581E-02 -0.12804472311E+00 -0.76917898258E-01  0.89260459979E+00  0.88000000000E+00 0.  1.
        -11    1    4    4    0    0  0.77362658179E-02  0.82206176249E-01  0.37902685719E-01  0.90854718799E-01  0.51100000000E-03 0. -1.
         11    1    4    4    0    0 -0.51862704857E-04  0.31174978081E-01  0.23706124373E-01  0.39167887380E-01  0.51100000000E-03 0.  1.
</event>
<event>
 8    1  0.1123361E+005  0.1043930E+01  0.7957747E-01            NaN
         13   -1    0    0    0    0  0.00000000000E+00  0.00000000000E+00  0.74505805969E-08  0.10566000000E+00  0.10566000000E+00 0.  1.
     999900   -1    0    0    0    0 -0.00000000000E+00 -0.00000000000E+00 -0.74505805969E-08  0.93827000000E+00  0.93827000000E+00 0.  1.
     999902    2    1    2    0    0 -0.18950261311E-01  0.57504443912E-02  0.11522299471E-01  0.10210183567E+01  0.10207612558E+01 0.  0.
     999903    2    3    3    0    0  0.20443377580E-01 -0.75711486214E-01 -0.10045070848E+00  0.12932005600E+00  0.21981155981E-01 0.  0.
         14    1    1    2    0    0  0.18950261311E-01 -0.57504443912E-02 -0.11522299471E-01  0.22911643319E-01  0.00000000000E+00 0.  1.
     999901    1    3    3    0    0 -0.39393638891E-01  0.81461930605E-01  0.11197300795E+00  0.89169830068E+00  0.88000000000E+00 0.  1.
        -11    1    4    4    0    0  0.71676061510E-02 -0.19469636600E-01 -0.12963787442E-01  0.24469618573E-01  0.51100000000E-03 0.  1.
         11    1    4    4    0    0  0.13275771429E-01 -0.56241849614E-01 -0.87486921040E-01  0.10485043743E+00  0.51100000000E-03 0. -1.
</event>
<event>
 8    1  0.1123361E+005  0.1043930E+01  0.7957747E-01            NaN
         13   -1    0    0    0    0  0.00000000000E+00  0.00000000000E+00  0.74505805969E-08  0.10566000000E+00  0.10566000000E+00 0. -1.
     999900   -1    0    0    0    0 -0.00000000000E+00 -0.00000000000E+00 -0.74505805969E-08  0.93827000000E+00  0.93827000000E+00 0.  1.
     999902    2    1    2    0    0 -0.16392808934E-01  0.16741964069E-01  0.12780715834E-02  0.10204640457E+01  0.10201942058E+01 0.  0.
     999903    2    3    3    0    0 -0.39265521050E-01  0.12586475497E+00  0.21904078524E-02  0.13342865922E+00  0.20363976235E-01 0.  0.
         14    1    1    2    0    0  0.16392808934E-01 -0.16741964069E-01 -0.12780715834E-02  0.23465954330E-01  0.00000000000E+00 0. -1.
     999901    1    3    3    0    0  0.22872712116E-01 -0.10912279090E+00 -0.91233626896E-03  0.88703538645E+00  0.88000000000E+00 0.  1.
        -11    1    4    4    0    0 -0.25241057640E-01  0.79598019810E-01 -0.84218187540E-02  0.83929398309E-01  0.51100000000E-03 0.  1.
         11    1    4    4    0    0 -0.14024463410E-01  0.46266735161E-01  0.10612226606E-01  0.49499260913E-01  0.51100000000E-03 0. -1.
</event>
<event>
 8    1  0.1123361E+005  0.1043930E+01  0.7957747E-01            NaN
         13   -1    0    0    0    0  0.00000000000E+00  0.00000000000E+00  0.74505805969E-08  0.10566000000E+00  0.10566000000E+00 0.  1.
     999900   -1    0    0    0    0 -0.00000000000E+00 -0.00000000000E+00 -0.74505805969E-08  0.93827000000E+00  0.93827000000E+00 0. -1.
     999902    2    1    2    0    0 -0.15563038873E-01 -0.66689379724E-02  0.17150919880E-01  0.10198294406E+01  0.10195446292E+01 0.  0.
     999903    2    3    3    0    0  0.63374594126E-01  0.10664899739E+00  0.28088872565E-01  0.12899177679E+00  0.21437021547E-01 0.  0.
         14    1    1    2    0    0  0.15563038873E-01  0.66689379724E-02 -0.17150919880E-01  0.24100559441E-01  0.00000000000E+00 0. -1.
     999901    1    3    3    0    0 -0.78937632999E-01 -0.11331793536E+00 -0.10937952685E-01  0.89083766377E+00  0.88000000000E+00 0. -1.
        -11    1    4    4    0    0  0.62944842468E-02  0.23492175872E-01  0.10972079410E-01  0.26686148218E-01  0.51100000000E-03 0.  1.
         11    1    4    4    0    0  0.57080109880E-01  0.83156821518E-01  0.17116793155E-01  0.10230562857E+00  0.51100000000E-03 0. -1.
</event>
<event>
 8    1  0.1123361E+005  0.1043930E+01  0.7957747E-01            NaN
         13   -1    0    0    0    0  0.00000000000E+00  0.00000000000E+00  0.74505805969E-08  0.10566000000E+00  0.10566000000E+00 0. -1.
     999900   -1    0    0    0    0 -0.00000000000E+00 -0.00000000000E+00 -0.74505805969E-08  0.93827000000E+00  0.93827000000E+00 0.  1.
     999902    2    1    2    0    0 -0.10196878845E-01 -0.20718684846E-01  0.52495772913E-02  0.10202488197E+01  0.10199739486E+01 0.  0.
     999903    2    3    3    0    0  0.91496060588E-02 -0.73785820279E-01  0.10786120436E+00  0.13248784207E+00  0.19771856893E-01 0.  0.
         14    1    1    2    0    0  0.10196878845E-01  0.20718684846E-01 -0.52495772913E-02  0.23681180327E-01  0.00000000000E+00 0.  1.
     999901    1    3    3    0    0 -0.19346484904E-01  0.53067135433E-01 -0.10261162707E+00  0.88776097760E+00  0.88000000000E+00 0.  1.
        -11    1    4    4    0    0  0.93644845247E-02 -0.36787380306E-01  0.39699792507E-01  0.54930315549E-01  0.51100000000E-03 0. -1.
         11    1    4    4    0    0 -0.21487846589E-03 -0.36998439973E-01  0.68161411856E-01  0.77557526523E-01  0.51100000000E-03 0.  1.
</event>
<event>
 8    1  0.1123361E+005  0.1043930E+01  0.7957747E-01            NaN
         13   -1    0    0    0    0  0.00000000000E+00  0.00000000000E+00  0.74505805969E-08  0.10566000000E+00  0.10566000000E+00 0. -1.
     999900   -1    0    0    0    0 -0.00000000000E+00 -0.00000000000E+00 -0.74505805969E-08  0.93827000000E+00  0.93827000000E+00 0. -1.
     999902    2    1    2    0    0 -0.29835343528E-02  0.11827472937E-01 -0.20749016820E-01  0.10198610928E+01  0.10195770380E+01 0.  0.
     999903    2    3    3    0    0  0.19456654007E-01  0.36848325893E-01  0.11926287409E+00  0.12815882484E+00  0.21556686713E-01 0.  0.
         14    1    1    2    0    0  0.29835343528E-02 -0.11827472937E-01  0.20749016820E-01  0.24068907169E-01  0.00000000000E+00 0. -1.
     999901    1    3    3    0    0 -0.22440188360E-01 -0.25020852956E-01 -0.14001189091E+00  0.89170226799E+00  0.88000000000E+00 0. -1.
        -11    1    4    4    0    0  0.10863810008E-02  0.80872370657E-02  0.52953395133E-01  0.53580843630E-01  0.51100000000E-03 0. -1.
         11    1    4    4    0    0  0.18370273007E-01  0.28761088827E-01  0.66309478961E-01  0.74577981214E-01  0.51100000000E-03 0.  1.
</event>
<event>
 8    1  0.1123361E+005  0.1043930E+01  0.7957747E-01            NaN
         13   -1    0    0    0    0  0.00000000000E+00  0.00000000000E+00  0.74505805969E-08  0.10566000000E+00  0.10566000000E+00 0.  1.
     999900   -1    0    0    0    0 -0.00000000000E+00 -0.00000000000E+00 -0.74505805969E-08  0.93827000000E+00  0.93827000000E+00 0.  1.
     999902    2    1    2    0    0  0.62511826807E-02 -0.88735439622E-03 -0.22934681580E-01  0.10201420976E+01  0.10198647140E+01 0.  0.
     999903    2    3    3    0    0  0.74092034950E-01 -0.96009610764E-01 -0.48350941349E-01  0.13205617203E+00  0.19837944420E-01 0.  0.
         14    1    1    2    0    0 -0.62511826807E-02  0.88735439622E-03  0.22934681580E-01  0.23787902428E-01  0.00000000000E+00 0.  1.
     999901    1    3    3    0    0 -0.67840852269E-01  0.95122256368E-01  0.25416259769E-01  0.88808592555E+00  0.88000000000E+00 0. -1.
        -11    1    4    4    0    0  0.38016875004E-01 -0.53862389753E-01 -0.36373725155E-01  0.75297734478E-01  0.51100000000E-03 0. -1.
         11    1    4    4    0    0  0.36075159946E-01 -0.42147221011E-01 -0.11977216193E-01  0.56758437548E-01  0.51100000000E-03 0.  1.
</event>
<event>
 8    1  0.1123361E+005  0.1043930E+01  0.7957747E-01            NaN
         13   -1    0    0    0    0  0.00000000000E+00  0.00000000000E+00  0.74505805969E-08  0.10566000000E+00  0.10566000000E+00 0.  1.
     999900   -1    0    0    0    0 -0.00000000000E+00 -0.00000000000E+00 -0.74505805969E-08  0.93827000000E+00  0.93827000000E+00 0.  1.
     999902    2    1    2    0    0 -0.96285326372E-02 -0.81925680435E-02 -0.19833510447E-01  0.10204099033E+01  0.10201388022E+01 0.  0.
     999903    2    3    3    0    0  0.46332862943E-01  0.11720403584E+00 -0.22920454838E-01  0.12975536013E+00  0.20678153352E-01 0.  0.
         14    1    1    2    0    0  0.96285326372E-02  0.81925680435E-02  0.19833510447E-01  0.23520096695E-01  0.00000000000E+00 0. -1.
     999901    1    3    3    0    0 -0.55961395580E-01 -0.12539660388E+00  0.30869443903E-02  0.89065454318E+00  0.88000000000E+00 0.  1.
        -11    1    4    4    0    0  0.31542267122E-01  0.64738761817E-01 -0.21755733995E-01  0.75230279672E-01  0.51100000000E-03 0.  1.
         11    1    4    4    0    0  0.14790595821E-01  0.52465274021E-01 -0.11647208428E-02  0.54525080453E-01  0.51100000000E-03 0. -1.
</event>
<event>
 8    1  0.1123361E+005  0.1043930E+01  0.7957747E-01            NaN
         13   -1    0    0    0    0  0.00000000000E+00  0.00000000000E+00  0.74505805969E-08  0.10566000000E+00  0.10566000000E+00 0.  1.
     999900   -1    0    0    0    0 -0.00000000000E+00 -0.00000000000E+00 -0.74505805969E-08  0.93827000000E+00  0.93827000000E+00 0.  1.
     999902    2    1    2    0    0 -0.45442019645E-02  0.87335493937E-02  0.25570611257E-01  0.10165296201E+01  0.10161602668E+01 0.  0.
     999903    2    3    3    0    0  0.80017501666E-01  0.92271073211E-01  0.34551899597E-01  0.12849253581E+00  0.19993660695E-01 0.  0.
         14    1    1    2    0    0  0.45442019645E-02 -0.87335493937E-02 -0.25570611257E-01  0.27400379862E-01  0.00000000000E+00 0. -1.
     999901    1    3    3    0    0 -0.84561703631E-01 -0.83537523818E-01 -0.89812883400E-02  0.88803708433E+00  0.88000000000E+00 0.  1.
        -11    1    4    4    0    0  0.14311407057E-01  0.10782963568E-01 -0.96324540511E-03  0.17952092858E-01  0.51100000000E-03 0. -1.
         11    1    4    4    0    0  0.65706094609E-01  0.81488109643E-01  0.35515145002E-01  0.11054044295E+00  0.51100000000E-03 0.  1.
</event>
<event>
 8    1  0.1123361E+005  0.1043930E+01  0.7957747E-01            NaN
         13   -1    0    0    0    0  0.00000000000E+00  0.00000000000E+00  0.74505805969E-08  0.10566000000E+00  0.10566000000E+00 0.  1.
     999900   -1    0    0    0    0 -0.00000000000E+00 -0.00000000000E+00 -0.74505805969E-08  0.93827000000E+00  0.93827000000E+00 0.  1.
     999902    2    1    2    0    0  0.91847464352E-02  0.26131391198E-01  0.97418997737E-02  0.10145682258E+01  0.10141432695E+01 0.  0.
     999903    2    3    3    0    0 -0.20077610687E-01 -0.76558750707E-01 -0.89993080921E-01  0.12252079591E+00  0.25460519578E-01 0.  0.
         14    1    1    2    0    0 -0.91847464352E-02 -0.26131391198E-01 -0.97418997737E-02  0.29361774201E-01  0.00000000000E+00 0.  1.
     999901    1    3    3    0    0  0.29262357122E-01  0.10269014190E+00  0.99734980695E-01  0.89204742988E+00  0.88000000000E+00 0. -1.
        -11    1    4    4    0    0 -0.31532400336E-02 -0.14582579756E-01 -0.34628892983E-01  0.37709626162E-01  0.51100000000E-03 0. -1.
         11    1    4    4    0    0 -0.16924370653E-01 -0.61976170951E-01 -0.55364187938E-01  0.84811169752E-01  0.51100000000E-03 0.  1.
</event>
<event>
 8    1  0.1123361E+005  0.1043930E+01  0.7957747E-01            NaN
         13   -1    0    0    0    0  0.00000000000E+00  0.00000000000E+00  0.74505805969E-08  0.10566000000E+00  0.10566000000E+00 0.  1.
     999900   -1    0    0    0    0 -0.00000000000E+00 -0.00000000000E+00 -0.74505805969E-08  0.93827000000E+00  0.93827000000E+00 0. -1.
     999902    2    1    2    0    0  0.26216851541E-02  0.86344607280E-02  0.21201516177E-01  0.10208880506E+01  0.10206279833E+01 0.  0.
     999903    2    3    3    0    0 -0.29690554382E-01  0.20911161557E-01  0.12725219502E+00  0.13384715823E+00  0.20078220356E-01 0.  0.
         14    1    1    2    0    0 -0.26216851541E-02 -0.86344607280E-02 -0.21201516177E-01  0.23041949425E-01  0.00000000000E+00 0. -1.
     999901    1    3    3    0    0  0.32312239536E-01 -0.12276700830E-01 -0.10605067884E+00  0.88704089234E+00  0.88000000000E+00 0. -1.
        -11    1    4    4    0    0 -0.92962659627E-02 -0.10246736847E-02  0.15151012313E-01  0.17812490340E-01  0.51100000000E-03 0. -1.
         11    1    4    4    0    0 -0.20394288419E-01  0.21935835242E-01  0.11210118270E+00  0.11603466789E+00  0.51100000000E-03 0.  1.
</event>
<event>
 8    1  0.1123361E+005  0.1043930E+01  0.7957747E-01            NaN
         13   -1    0    0    0    0  0.00000000000E+00  0.00000000000E+00  0.74505805969E-08  0.10566000000E+00  0.10566000000E+00 0. -1.
     999900   -1    0    0    0    0 -0.00000000000E+00 -0.00000000000E+00 -0.74505805969E-08  0.93827000000E+00  0.93827000000E+00 0. -1.
     999902    2    1    2    0    0 -0.24310349068E-01 -0.22293920172E-02 -0.12565235804E-01  0.10164737000E+01  0.10161028168E+01 0.  0.
     999903    2    3    3    0    0 -0.60961769346E-01  0.85653886287E-01  0.70622213104E-01  0.12743660914E+00  0.14130350580E-01 0.  0.
         14    1    1    2    0    0  0.24310349068E-01  0.22293920172E-02  0.12565235804E-01  0.27456300031E-01  0.00000000000E+00 0.  1.
     999901    1    3    3    0    0  0.36651420278E-01 -0.87883278305E-01 -0.83187448907E-01  0.88903709083E+00  0.88000000000E+00 0. -1.
        -11    1    4    4    0    0 -0.19196820647E-02  0.47483256054E-02  0.73248699536E-02  0.89524642486E-02  0.51100000000E-03 0. -1.
         11    1    4    4    0    0 -0.59042087282E-01  0.80905560682E-01  0.63297343150E-01  0.11848414489E+00  0.51100000000E-03 0.  1.
</event>
<event>
 8    1  0.1123361E+005  0.1043930E+01  0.7957747E-01            NaN
         13   -1    0    0    0    0  0.00000000000E+00  0.00000000000E+00  0.74505805969E-08  0.10566000000E+00  0.10566000000E+00 0.  1.
     999900   -1    0    0    0    0 -0.00000000000E+00 -0.00000000000E+00 -0.74505805969E-08  0.93827000000E+00  0.93827000000E+00 0. -1.
     999902    2    1    2    0    0 -0.14893206574E-01  0.17516978962E-01 -0.77263883196E-02  0.10196740888E+01  0.10193855493E+01 0.  0.
     999903    2    3    3    0    0  0.57790463362E-01  0.11437949356E+00  0.18347813980E-01  0.13099803606E+00  0.20035892058E-01 0.  0.
         14    1    1    2    0    0  0.14893206574E-01 -0.17516978962E-01  0.77263883196E-02  0.24255911248E-01  0.00000000000E+00 0.  1.
     999901    1    3    3    0    0 -0.72683669935E-01 -0.96862514597E-01 -0.26074202300E-01  0.88867605270E+00  0.88000000000E+00 0. -1.
        -11    1    4    4    0    0  0.23292227324E-02  0.20594887621E-01  0.21652421255E-02  0.20845240923E-01  0.51100000000E-03 0.  1.
         11    1    4    4    0    0  0.55461240629E-01  0.93784605937E-01  0.16182571855E-01  0.11015279513E+00  0.51100000000E-03 0. -1.
</event>
<event>
 8    1  0.1123361E+005  0.1043930E+01  0.7957747E-01            NaN
         13   -1    0    0    0    0  0.00000000000E+00  0.00000000000E+00  0.74505805969E-08  0.10566000000E+00  0.10566000000E+00 0.  1.
     999900   -1    0    0    0    0 -0.00000000000E+00 -0.00000000000E+00 -0.74505805969E-08  0.93827000000E+00  0.93827000000E+00 0. -1.
     999902    2    1    2    0    0  0.17038067407E-02 -0.19657424224E-02 -0.23570871693E-01  0.10202160148E+01  0.10199403727E+01 0.  0.
     999903    2    3    3    0    0 -0.11961037713E+00  0.47146764207E-01  0.55354756254E-03  0.13020974680E+00  0.20610969256E-01 0.  0.
         14    1    1    2    0    0 -0.17038067407E-02  0.19657424224E-02  0.23570871693E-01  0.23713985178E-01  0.00000000000E+00 0.  1.
     999901    1    3    3    0    0  0.12131418387E+00 -0.49112506629E-01 -0.24124419255E-01  0.89000626802E+00  0.88000000000E+00 0. -1.
        -11    1    4    4    0    0 -0.65803795568E-01  0.15033196457E-01  0.19814423499E-02  0.67530169122E-01  0.51100000000E-03 0.  1.
         11    1    4    4    0    0 -0.53806581564E-01  0.32113567750E-01 -0.14278947874E-02  0.62679577677E-01  0.51100000000E-03 0. -1.
</event>
<event>
 7    1  0.1123361E+005  0.1043930E+01  0.7957747E-01            NaN
         13   -1    0    0    0    0  0.00000000000E+00  0.00000000000E+00  0.74505805969E-08  0.10566000000E+00  0.10566000000E+00 0.  1.
     999900   -1    0    0    0    0 -0.00000000000E+00 -0.00000000000E+00 -0.74505805969E-08  0.93827000000E+00  0.93827000000E+00 0.  1.
     999903    2    1    2    0    0  0.44231309822E-01 -0.44224828774E-01  0.91665379629E-01  0.11251713652E+00  0.18582786130E-01 0.  0.
         14    1    1    2    0    0  0.46891662836E-02  0.40532421059E-01  0.15304860886E-01  0.43578712740E-01  0.00000000000E+00 0.  1.
     999901    1    1    2    0    0 -0.48920476105E-01  0.36924077152E-02 -0.10697024051E+00  0.88783415074E+00  0.88000000000E+00 0.  1.
        -11    1    3    3    0    0  0.29128476484E-01 -0.36151548263E-01  0.77238843384E-01  0.90119379893E-01  0.51100000000E-03 0. -1.
         11    1    3    3    0    0  0.15102833338E-01 -0.80732805113E-02  0.14426536245E-01  0.22397756631E-01  0.51100000000E-03 0.  1.
</event>
<event>
 8    1  0.1123361E+005  0.1043930E+01  0.7957747E-01            NaN
         13   -1    0    0    0    0  0.00000000000E+00  0.00000000000E+00  0.74505805969E-08  0.10566000000E+00  0.10566000000E+00 0. -1.
     999900   -1    0    0    0    0 -0.00000000000E+00 -0.00000000000E+00 -0.74505805969E-08  0.93827000000E+00  0.93827000000E+00 0. -1.
     999902    2    1    2    0    0 -0.14549460091E-01 -0.10001959310E-01  0.16527655139E-01  0.10197455140E+01  0.10194586916E+01 0.  0.
     999903    2    3    3    0    0 -0.56654265886E-01  0.11466371952E+00 -0.70697534670E-02  0.12964934849E+00  0.20037408366E-01 0.  0.
         14    1    1    2    0    0  0.14549460091E-01  0.10001959310E-01 -0.16527655139E-01  0.24184486006E-01  0.00000000000E+00 0.  1.
     999901    1    3    3    0    0  0.42104805795E-01 -0.12466567883E+00  0.23597408606E-01  0.89009616550E+00  0.88000000000E+00 0. -1.
        -11    1    4    4    0    0 -0.12995568599E-01  0.21119152511E-01 -0.90387412001E-02  0.26398169813E-01  0.51100000000E-03 0. -1.
         11    1    4    4    0    0 -0.43658697287E-01  0.93544567005E-01  0.19689877331E-02  0.10325117868E+00  0.51100000000E-03 0.  1.
</event>
<event>
 8    1  0.1123361E+005  0.1043930E+01  0.7957747E-01            NaN
         13   -1    0    0    0    0  0.00000000000E+00  0.00000000000E+00  0.74505805969E-08  0.10566000000E+00  0.10566000000E+00 0.  1.
     999900   -1    0    0    0    0 -0.00000000000E+00 -0.00000000000E+00 -0.74505805969E-08  0.93827000000E+00  0.93827000000E+00 0. -1.
     999902    2    1    2    0    0  0.10682500692E-01 -0.99116917399E-02 -0.14312053115E-01  0.10235047137E+01  0.10233008877E+01 0.  0.
     999903    2    3    3    0    0 -0.53073259582E-01  0.11904087891E+00 -0.54226880612E-02  0.13178021411E+00  0.18684687610E-01 0.  0.
         14    1    1    2    0    0 -0.10682500692E-01  0.99116917399E-02  0.14312053115E-01  0.20425286254E-01  0.00000000000E+00 0.  1.
     999901    1    3    3    0    0  0.63755760274E-01 -0.12895257065E+00 -0.88893650538E-02  0.89172449964E+00  0.88000000000E+00 0. -1.
        -11    1    4    4    0    0 -0.30432274147E-02  0.50852714015E-02 -0.42651833788E-02  0.73194349904E-02  0.51100000000E-03 0.  1.
         11    1    4    4    0    0 -0.50030032168E-01  0.11395560750E+00 -0.11575046824E-02  0.12446077912E+00  0.51100000000E-03 0. -1.
</event>
<event>
 8    1  0.1123361E+005  0.1043930E+01  0.7957747E-01            NaN
         13   -1    0    0    0    0  0.00000000000E+00  0.00000000000E+00  0.74505805969E-08  0.10566000000E+00  0.10566000000E+00 0. -1.
     999900   -1    0    0    0    0 -0.00000000000E+00 -0.00000000000E+00 -0.74505805969E-08  0.93827000000E+00  0.93827000000E+00 0. -1.
     999902    2    1    2    0    0 -0.12724030498E-01 -0.20509648829E-01 -0.18733997407E-02  0.10197214008E+01  0.10194339994E+01 0.  0.
     999903    2    3    3    0    0  0.96053327789E-01  0.49377866514E-01  0.65047022613E-01  0.12776001074E+00  0.20666148978E-01 0.  0.
         14    1    1    2    0    0  0.12724030498E-01  0.20509648829E-01  0.18733997407E-02  0.24208599170E-01  0.00000000000E+00 0. -1.
     999901    1    3    3    0    0 -0.10877735829E+00 -0.69887515342E-01 -0.66920422353E-01  0.89196139009E+00  0.88000000000E+00 0. -1.
        -11    1    4    4    0    0  0.72506528646E-01  0.45962424410E-01  0.46841359379E-01  0.97796294528E-01  0.51100000000E-03 0.  1.
         11    1    4    4    0    0  0.23546799143E-01  0.34154421032E-02  0.18205663234E-01  0.29963716215E-01  0.51100000000E-03 0. -1.
</event>
<event>
 8    1  0.1123361E+005  0.1043930E+01  0.7957747E-01            NaN
         13   -1    0    0    0    0  0.00000000000E+00  0.00000000000E+00  0.74505805969E-08  0.10566000000E+00  0.10566000000E+00 0. -1.
     999900   -1    0    0    0    0 -0.00000000000E+00 -0.00000000000E+00 -0.74505805969E-08  0.93827000000E+00  0.93827000000E+00 0.  1.
     999902    2    1    2    0    0 -0.21470514861E-01  0.25178815805E-02  0.57792947188E-02  0.10215531597E+01  0.10213080510E+01 0.  0.
     999903    2    3    3    0    0  0.11808677072E-01 -0.34835303519E-01 -0.12323900374E+00  0.13073977495E+00  0.23496669654E-01 0.  0.
         14    1    1    2    0    0  0.21470514861E-01 -0.25178815805E-02 -0.57792947188E-02  0.22376840338E-01  0.00000000000E+00 0.  1.
     999901    1    3    3    0    0 -0.33279191933E-01  0.37353185100E-01  0.12901829846E+00  0.89081338472E+00  0.88000000000E+00 0. -1.
        -11    1    4    4    0    0 -0.50726529855E-02 -0.16270421355E-01 -0.67339469627E-01  0.69464550024E-01  0.51100000000E-03 0. -1.
         11    1    4    4    0    0  0.16881330058E-01 -0.18564882164E-01 -0.55899534112E-01  0.61275224922E-01  0.51100000000E-03 0.  1.
</event>
<event>
 7    1  0.1123361E+005  0.1043930E+01  0.7957747E-01            NaN
         13   -1    0    0    0    0  0.00000000000E+00  0.00000000000E+00  0.74505805969E-08  0.10566000000E+00  0.10566000000E+00 0. -1.
     999900   -1    0    0    0    0 -0.00000000000E+00 -0.00000000000E+00 -0.74505805969E-08  0.93827000000E+00  0.93827000000E+00 0. -1.
     999903    2    1    2    0    0 -0.65097792677E-01  0.62380346793E-01  0.57603543211E-01  0.10908512839E+00  0.21268915539E-01 0.  0.
         14    1    1    2    0    0  0.40897146129E-01 -0.18351427904E-01  0.21794034943E-01  0.49843067990E-01  0.00000000000E+00 0. -1.
     999901    1    1    2    0    0  0.24200646548E-01 -0.44028918889E-01 -0.79397578154E-01  0.88500180362E+00  0.88000000000E+00 0.  1.
        -11    1    3    3    0    0 -0.25237966319E-01  0.20820007410E-01  0.32966838058E-01  0.46448909406E-01  0.51100000000E-03 0.  1.
         11    1    3    3    0    0 -0.39859826358E-01  0.41560339384E-01  0.24636705153E-01  0.62636218985E-01  0.51100000000E-03 0. -1.
</event>
<event>
 8    1  0.1123361E+005  0.1043930E+01  0.7957747E-01            NaN
         13   -1    0    0    0    0  0.00000000000E+00  0.00000000000E+00  0.74505805969E-08  0.10566000000E+00  0.10566000000E+00 0.  1.
     999900   -1    0    0    0    0 -0.00000000000E+00 -0.00000000000E+00 -0.74505805969E-08  0.93827000000E+00  0.93827000000E+00 0.  1.
     999902    2    1    2    0    0 -0.71368006076E-02 -0.75802385130E-02 -0.20142536353E-01  0.10212558802E+01  0.10210041416E+01 0.  0.
     999903    2    3    3    0    0  0.56535366901E-01 -0.88652481700E-01  0.74104608781E-01  0.13023995558E+00  0.20382413105E-01 0.  0.
         14    1    1    2    0    0  0.71368006076E-02  0.75802385130E-02  0.20142536353E-01  0.22674119819E-01  0.00000000000E+00 0.  1.
     999901    1    3    3    0    0 -0.63672167509E-01  0.81072243187E-01 -0.94247145135E-01  0.89101592460E+00  0.88000000000E+00 0.  1.
        -11    1    4    4    0    0  0.41451427355E-01 -0.48522373459E-01  0.49845466688E-01  0.80978226865E-01  0.51100000000E-03 0.  1.
         11    1    4    4    0    0  0.15083939547E-01 -0.40130108240E-01  0.24259142093E-01  0.49261728712E-01  0.51100000000E-03 0. -1.
</event>
<event>
 8    1  0.1123361E+005  0.1043930E+01  0.7957747E-01            NaN
         13   -1    0    0    0    0  0.00000000000E+00  0.00000000000E+00  0.74505805969E-08  0.10566000000E+00  0.10566000000E+00 0. -1.
     999900   -1    0    0    0    0 -0.00000000000E+00 -0.00000000000E+00 -0.74505805969E-08  0.93827000000E+00  0.93827000000E+00 0.  1.
     999902    2    1    2    0    0  0.16105879511E-01  0.15551489692E-01 -0.66174661401E-02  0.10205839287E+01  0.10203168706E+01 0.  0.
     999903    2    3    3    0    0 -0.10920295844E+00  0.63341543771E-01  0.26721223901E-01  0.12979907119E+00  0.14012058206E-01 0.  0.
         14    1    1    2    0    0 -0.16105879511E-01 -0.15551489692E-01  0.66174661401E-02  0.23346071288E-01  0.00000000000E+00 0. -1.
     999901    1    3    3    0    0  0.12530883795E+00 -0.47790054080E-01 -0.33338690041E-01  0.89078485752E+00  0.88000000000E+00 0.  1.
        -11    1    4    4    0    0 -0.87548285768E-01  0.44064274574E-01  0.21263837884E-01  0.10029344224E+00  0.51100000000E-03 0. -1.
         11    1    4    4    0    0 -0.21654672673E-01  0.19277269198E-01  0.54573860170E-02  0.29505628945E-01  0.51100000000E-03 0.  1.
</event>
<event>
 8    1  0.1123361E+005  0.1043930E+01  0.7957747E-01            NaN
         13   -1    0    0    0    0  0.00000000000E+00  0.00000000000E+00  0.74505805969E-08  0.10566000000E+00  0.10566000000E+00 0.  1.
     999900   -1    0    0    0    0 -0.00000000000E+00 -0.00000000000E+00 -0.74505805969E-08  0.93827000000E+00  0.93827000000E+00 0. -1.
     999902    2    1    2    0    0 -0.20030474705E-01  0.45328242079E-02 -0.86194570802E-02  0.10216575629E+01  0.10214147612E+01 0.  0.
     999903    2    3    3    0    0 -0.50991316483E-01  0.65519707479E-01  0.10090176028E+00  0.13223478905E+00  0.20296004150E-01 0.  0.
         14    1    1    2    0    0  0.20030474705E-01 -0.45328242079E-02  0.86194570802E-02  0.22272437060E-01  0.00000000000E+00 0. -1.
     999901    1    3    3    0    0  0.30960841778E-01 -0.60986883271E-01 -0.10952121736E+00  0.88942277389E+00  0.88000000000E+00 0. -1.
        -11    1    4    4    0    0 -0.41264127747E-01  0.37797624971E-01  0.62734711356E-01  0.84067198253E-01  0.51100000000E-03 0. -1.
         11    1    4    4    0    0 -0.97271887361E-02  0.27722082508E-01  0.38167048922E-01  0.48167590802E-01  0.51100000000E-03 0.  1.
</event>
<event>
 8    1  0.1123361E+005  0.1043930E+01  0.7957747E-01            NaN
         13   -1    0    0    0    0  0.00000000000E+00  0.00000000000E+00  0.74505805969E-08  0.10566000000E+00  0.10566000000E+00 0.  1.
     999900   -1    0    0    0    0 -0.00000000000E+00 -0.00000000000E+00 -0.74505805969E-08  0.93827000000E+00  0.93827000000E+00 0.  1.
     999902    2    1    2    0    0  0.16588253187E-01  0.12610300689E-01 -0.11026816240E-01  0.10203550026E+01  0.10200826196E+01 0.  0.
     999903    2    3    3    0    0 -0.68975577517E-02 -0.11891345770E+00 -0.46865310870E-01  0.12954947945E+00  0.19968062889E-01 0.  0.
         14    1    1    2    0    0 -0.16588253187E-01 -0.12610300689E-01  0.11026816240E-01  0.23574997427E-01  0.00000000000E+00 0.  1.
     999901    1    3    3    0    0  0.23485810939E-01  0.13152375839E+00  0.35838494630E-01  0.89080552313E+00  0.88000000000E+00 0. -1.
        -11    1    4    4    0    0 -0.12145352044E-01 -0.80276390861E-01 -0.37564941442E-01  0.89460574850E-01  0.51100000000E-03 0.  1.
         11    1    4    4    0    0  0.52477942920E-02 -0.38637066844E-01 -0.93003694283E-02  0.40088904596E-01  0.51100000000E-03 0. -1.
</event>
<event>
 8    1  0.1123361E+005  0.1043930E+01  0.7957747E-01            NaN
         13   -1    0    0    0    0  0.00000000000E+00  0.00000000000E+00  0.74505805969E-08  0.10566000000E+00  0.10566000000E+00 0.  1.
     999900   -1    0    0    0    0 -0.00000000000E+00 -0.00000000000E+00 -0.74505805969E-08  0.93827000000E+00  0.93827000000E+00 0.  1.
     999902    2    1    2    0    0  0.21629461405E-01 -0.12635939238E-01 -0.70949884642E-02  0.10178946505E+01  0.10175616346E+01 0.  0.
     999903    2    3    3    0    0 -0.72374330702E-01 -0.27211780747E-01 -0.10005240817E+00  0.12790012809E+00  0.19220656293E-01 0.  0.
         14    1    1    2    0    0 -0.21629461405E-01  0.12635939238E-01  0.70949884642E-02  0.26035349477E-01  0.00000000000E+00 0.  1.
     999901    1    3    3    0    0  0.94003792107E-01  0.14575841509E-01  0.92957419706E-01  0.88999452244E+00  0.88000000000E+00 0. -1.
        -11    1    4    4    0    0 -0.63505281571E-01 -0.29062416858E-01 -0.93510528445E-01  0.11671343073E+00  0.51100000000E-03 0. -1.
         11    1    4    4    0    0 -0.88690491310E-02  0.18506361113E-02 -0.65418797246E-02  0.11186697361E-01  0.51100000000E-03 0.  1.
</event>
<event>
 8    1  0.1123361E+005  0.1043930E+01  0.7957747E-01            NaN
         13   -1    0    0    0    0  0.00000000000E+00  0.00000000000E+00  0.74505805969E-08  0.10566000000E+00  0.10566000000E+00 0. -1.
     999900   -1    0    0    0    0 -0.00000000000E+00 -0.00000000000E+00 -0.74505805969E-08  0.93827000000E+00  0.93827000000E+00 0. -1.
     999902    2    1    2    0    0 -0.20947426810E-01 -0.73863085858E-02  0.85605809042E-02  0.10201258871E+01  0.10198481209E+01 0.  0.
     999903    2    3    3    0    0  0.99324611915E-02  0.12000395251E+00  0.43941506904E-01  0.12971381621E+00  0.19880032295E-01 0.  0.
         14    1    1    2    0    0  0.20947426810E-01  0.73863085858E-02 -0.85605809042E-02  0.23804112878E-01  0.00000000000E+00 0.  1.
     999901    1    3    3    0    0 -0.30879888001E-01 -0.12739026109E+00 -0.35380926000E-01  0.89041207091E+00  0.88000000000E+00 0.  1.
        -11    1    4    4    0    0  0.28850047061E-02  0.92824171951E-01  0.26197842460E-01  0.96494757480E-01  0.51100000000E-03 0. -1.
         11    1    4    4    0    0  0.70474564853E-02  0.27179780554E-01  0.17743664444E-01  0.33219058728E-01  0.51100000000E-03 0.  1.
</event>
<event>
 8    1  0.1123361E+005  0.1043930E+01  0.7957747E-01            NaN
         13   -1    0    0    0    0  0.00000000000E+00  0.00000000000E+00  0.74505805969E-08  0.10566000000E+00  0.10566000000E+00 0.  1.
     999900   -1    0    0    0    0 -0.00000000000E+00 -0.00000000000E+00 -0.74505805969E-08  0.93827000000E+00  0.93827000000E+00 0.  1.
     999902    2    1    2    0    0  0.20369510231E-01  0.49412222409E-02  0.12362382358E-01  0.10195956391E+01  0.10193052075E+01 0.  0.
     999903    2    3    3    0    0  0.69732615464E-01 -0.81345461728E-01  0.74268129689E-01  0.13183754728E+00  0.19638278486E-01 0.  0.
         14    1    1    2    0    0 -0.20369510231E-01 -0.49412222409E-02 -0.12362382358E-01  0.24334360929E-01  0.00000000000E+00 0.  1.
     999901    1    3    3    0    0 -0.49363105233E-01  0.86286683969E-01 -0.61905747331E-01  0.88775809179E+00  0.88000000000E+00 0. -1.
        -11    1    4    4    0    0  0.60221690386E-01 -0.58375248311E-01  0.60479550295E-01  0.10340386227E+00  0.51100000000E-03 0. -1.
         11    1    4    4    0    0  0.95109250777E-02 -0.22970213417E-01  0.13788579394E-01  0.28433685005E-01  0.51100000000E-03 0.  1.
</event>
<event>
 8    1  0.1123361E+005  0.1043930E+01  0.7957747E-01            NaN
         13   -1    0    0    0    0  0.00000000000E+00  0.00000000000E+00  0.74505805969E-08  0.10566000000E+00  0.10566000000E+00 0. -1.
     999900   -1    0    0    0    0 -0.00000000000E+00 -0.00000000000E+00 -0.74505805969E-08  0.93827000000E+00  0.93827000000E+00 0.  1.
     999902    2    1    2    0    0 -0.18190869956E-01  0.82468136380E-02 -0.12975552054E-01  0.10201123041E+01  0.10198342171E+01 0.  0.
     999903    2    3    3    0    0 -0.93179222829E-01  0.87871805564E-01 -0.30255037973E-01  0.13317263706E+00  0.20390246659E-01 0.  0.
         14    1    1    2    0    0  0.18190869956E-01 -0.82468136380E-02  0.12975552054E-01  0.23817695859E-01  0.00000000000E+00 0. -1.
     999901    1    3    3    0    0  0.74988352873E-01 -0.79624991926E-01  0.17279485919E-01  0.88693966708E+00  0.88000000000E+00 0. -1.
        -11    1    4    4    0    0 -0.40864185902E-01  0.30356160013E-01 -0.20221219925E-01  0.54777157616E-01  0.51100000000E-03 0. -1.
         11    1    4    4    0    0 -0.52315036927E-01  0.57515645551E-01 -0.10033818048E-01  0.78395479445E-01  0.51100000000E-03 0.  1.
</event>
<event>
 8    1  0.1123361E+005  0.1043930E+01  0.7957747E-01            NaN
         13   -1    0    0    0    0  0.00000000000E+00  0.00000000000E+00  0.74505805969E-08  0.10566000000E+00  0.10566000000E+00 0.  1.
     999900   -1    0    0    0    0 -0.00000000000E+00 -0.00000000000E+00 -0.74505805969E-08  0.93827000000E+00  0.93827000000E+00 0.  1.
     999902    2    1    2    0    0 -0.18953113314E-01 -0.17711423582E-01 -0.72041000812E-02  0.10170076285E+01  0.10166512196E+01 0.  0.
     999903    2    3    3    0    0 -0.12022369406E+00 -0.47529228025E-01 -0.36838276778E-03  0.13067159796E+00  0.19030677275E-01 0.  0.
         14    1    1    2    0    0  0.18953113314E-01  0.17711423582E-01  0.72041000812E-02  0.26922371507E-01  0.00000000000E+00 0.  1.
     999901    1    3    3    0    0  0.10127058075E+00  0.29817804443E-01 -0.68357173134E-02  0.88633603053E+00  0.88000000000E+00 0. -1.
        -11    1    4    4    0    0 -0.28377731128E-01 -0.16101387872E-01 -0.69857349038E-02  0.33370824510E-01  0.51100000000E-03 0. -1.
         11    1    4    4    0    0 -0.91845962934E-01 -0.31427840153E-01  0.66173521360E-02  0.97300773451E-01  0.51100000000E-03 0.  1.
</event>
<event>
 8    1  0.1123361E+005  0.1043930E+01  0.7957747E-01            NaN
         13   -1    0    0    0    0  0.00000000000E+00  0.00000000000E+00  0.74505805969E-08  0.10566000000E+00  0.10566000000E+00 0. -1.
     999900   -1    0    0    0    0 -0.00000000000E+00 -0.00000000000E+00 -0.74505805969E-08  0.93827000000E+00  0.93827000000E+00 0. -1.
     999902    2    1    2    0    0 -0.13868663963E-01 -0.32002194434E-02  0.18599086466E-01  0.10205097681E+01  0.10202409909E+01 0.  0.
     999903    2    3    3    0    0  0.25337019858E-01 -0.12342057120E+00 -0.24981555059E-01  0.13040343124E+00  0.22502773475E-01 0.  0.
         14    1    1    2    0    0  0.13868663963E-01  0.32002194434E-02 -0.18599086466E-01  0.23420231894E-01  0.00000000000E+00 0.  1.
     999901    1    3    3    0    0 -0.39205683821E-01  0.12022035176E+00  0.43580641525E-01  0.89010633687E+00  0.88000000000E+00 0.  1.
        -11    1    4    4    0    0 -0.94527074907E-03 -0.30547058012E-01 -0.12714693388E-01  0.33104997189E-01  0.51100000000E-03 0.  1.
         11    1    4    4    0    0  0.26282290607E-01 -0.92873513189E-01 -0.12266861671E-01  0.97298434047E-01  0.51100000000E-03 0. -1.
</event>
<event>
 8    1  0.1123361E+005  0.1043930E+01  0.7957747E-01            NaN
         13   -1    0    0    0    0  0.00000000000E+00  0.00000000000E+00  0.74505805969E-08  0.10566000000E+00  0.10566000000E+00 0.  1.
     999900   -1    0    0    0    0 -0.00000000000E+00 -0.00000000000E+00 -0.74505805969E-08  0.93827000000E+00  0.93827000000E+00 0. -1.
     999902    2    1    2    0    0  0.83051573729E-02  0.20261067693E-01 -0.94944140171E-02  0.10200630689E+01  0.10197838173E+01 0.  0.
     999903    2    3    3    0    0 -0.54022194877E-01 -0.10605296050E+00  0.41389527600E-01  0.12741022031E+00  0.18831974792E-01 0.  0.
         14    1    1    2    0    0 -0.83051573729E-02 -0.20261067693E-01  0.94944140171E-02  0.23866931110E-01  0.00000000000E+00 0. -1.
     999901    1    3    3    0    0  0.62327352250E-01  0.12631402820E+00 -0.50883941617E-01  0.89265284858E+00  0.88000000000E+00 0. -1.
        -11    1    4    4    0    0 -0.34566652018E-01 -0.79559041889E-01  0.36755711335E-01  0.94211135301E-01  0.51100000000E-03 0.  1.
         11    1    4    4    0    0 -0.19455542859E-01 -0.26493918614E-01  0.46338162652E-02  0.33199085012E-01  0.51100000000E-03 0. -1.
</event>
<event>
 8    1  0.1123361E+005  0.1043930E+01  0.7957747E-01            NaN
         13   -1    0    0    0    0  0.00000000000E+00  0.00000000000E+00  0.74505805969E-08  0.10566000000E+00  0.10566000000E+00 0. -1.
     999900   -1    0    0    0    0 -0.00000000000E+00 -0.00000000000E+00 -0.74505805969E-08  0.93827000000E+00  0.93827000000E+00 0.  1.
     999902    2    1    2    0    0  0.12243734832E-01 -0.18032981204E-01  0.78402321825E-02  0.10207660907E+01  0.10205032314E+01 0.  0.
     999903    2    3    3    0    0 -0.12134259995E+00 -0.31870650909E-01  0.29009859726E-01  0.13032522063E+00  0.20082983300E-01 0.  0.
         14    1    1    2    0    0 -0.12243734832E-01  0.18032981204E-01 -0.78402321825E-02  0.23163909308E-01  0.00000000000E+00 0.  1.
     999901    1    3    3    0    0  0.13358633479E+00  0.13837669705E-01 -0.21169627544E-01  0.89044087006E+00  0.88000000000E+00 0. -1.
        -11    1    4    4    0    0 -0.83414412313E-01 -0.29515927173E-01  0.14599767823E-01  0.89680368420E-01  0.51100000000E-03 0. -1.
         11    1    4    4    0    0 -0.37928187642E-01 -0.23547237357E-02  0.14410091904E-01  0.40644852212E-01  0.51100000000E-03 0.  1.
</event>
<event>
 8    1  0.1123361E+005  0.1043930E+01  0.7957747E-01            NaN
         13   -1    0    0    0    0  0.00000000000E+00  0.00000000000E+00  0.74505805969E-08  0.10566000000E+00  0.10566000000E+00 0. -1.
     999900   -1    0    0    0    0 -0.00000000000E+00 -0.00000000000E+00 -0.74505805969E-08  0.93827000000E+00  0.93827000000E+00 0.  1.
     999902    2    1    2    0    0 -0.91924889210E-02  0.19749093999E-01 -0.90290745058E-02  0.10203492292E+01  0.10200767112E+01 0.  0.
     999903    2    3    3    0    0 -0.92547148335E-02 -0.83589712963E-01 -0.96901097656E-01  0.12995582997E+00  0.20635046785E-01 0.  0.
         14    1    1    2    0    0  0.91924889210E-02 -0.19749093999E-01  0.90290745058E-02  0.23580770826E-01  0.00000000000E+00 0. -1.
     999901    1    3    3    0    0  0.62225912445E-04  0.10333880696E+00  0.87872023150E-01  0.89039339921E+00  0.88000000000E+00 0. -1.
        -11    1    4    4    0    0 -0.84808071332E-02 -0.42250354238E-01 -0.35019963634E-01  0.55530851757E-01  0.51100000000E-03 0. -1.
         11    1    4    4    0    0 -0.77390770023E-03 -0.41339358725E-01 -0.61881134022E-01  0.74424978211E-01  0.51100000000E-03 0.  1.
</event>
<event>
 8    1  0.1123361E+005  0.1043930E+01  0.7957747E-01            NaN
         13   -1    0    0    0    0  0.00000000000E+00  0.00000000000E+00  0.74505805969E-08  0.10566000000E+00  0.10566000000E+00 0.  1.
     999900   -1    0    0    0    0 -0.00000000000E+00 -0.00000000000E+00 -0.74505805969E-08  0.93827000000E+00  0.93827000000E+00 0. -1.
     999902    2    1    2    0    0 -0.34042336862E-03  0.17315670809E-01  0.16401718755E-01  0.10200770186E+01  0.10197980972E+01 0.  0.
     999903    2    3    3    0    0 -0.75831812875E-01 -0.84766328722E-01 -0.55618913583E-01  0.12805310860E+00  0.19192205348E-01 0.  0.
         14    1    1    2    0    0  0.34042336862E-03 -0.17315670809E-01 -0.16401718755E-01  0.23852981402E-01  0.00000000000E+00 0. -1.
     999901    1    3    3    0    0  0.75491389507E-01  0.10208199953E+00  0.72020632339E-01  0.89202390999E+00  0.88000000000E+00 0.  1.
        -11    1    4    4    0    0 -0.31912282591E-01 -0.46653947069E-01 -0.34280788726E-01  0.66109138203E-01  0.51100000000E-03 0. -1.
         11    1    4    4    0    0 -0.43919530285E-01 -0.38112381653E-01 -0.21338124858E-01  0.61943970402E-01  0.51100000000E-03 0.  1.
</event>
<event>
 8    1  0.1123361E+005  0.1043930E+01  0.7957747E-01            NaN
         13   -1    0    0    0    0  0.00000000000E+00  0.00000000000E+00  0.74505805969E-08  0.10566000000E+00  0.10566000000E+00 0.  1.
     999900   -1    0    0    0    0 -0.00000000000E+00 -0.00000000000E+00 -0.74505805969E-08  0.93827000000E+00  0.93827000000E+00 0. -1.
     999902    2    1    2    0    0  0.18896990669E-01 -0.73700326081E-02 -0.12687783337E-01  0.10200052538E+01  0.10197246316E+01 0.  0.
     999903    2    3    3    0    0 -0.10993242799E+00 -0.63112538915E-01 -0.95915296502E-02  0.12887460513E+00  0.21173925357E-01 0.  0.
         14    1    1    2    0    0 -0.18896990669E-01  0.73700326081E-02  0.12687783337E-01  0.23924746247E-01  0.00000000000E+00 0.  1.
     999901    1    3    3    0    0  0.12882941866E+00  0.55742506307E-01 -0.30962536864E-02  0.89113064862E+00  0.88000000000E+00 0.  1.
        -11    1    4    4    0    0 -0.78043156896E-01 -0.51802914061E-01  0.10843941147E-03  0.93672563345E-01  0.51100000000E-03 0.  1.
         11    1    4    4    0    0 -0.31889271095E-01 -0.11309624855E-01 -0.96999690617E-02  0.35202041789E-01  0.51100000000E-03 0. -1.
</event>
<event>
 8    1  0.1123361E+005  0.1043930E+01  0.7957747E-01            NaN
         13   -1    0    0    0    0  0.00000000000E+00  0.00000000000E+00  0.74505805969E-08  0.10566000000E+00  0.10566000000E+00 0.  1.
     999900   -1    0    0    0    0 -0.00000000000E+00 -0.00000000000E+00 -0.74505805969E-08  0.93827000000E+00  0.93827000000E+00 0.  1.
     999902    2    1    2    0    0 -0.17756872429E-01 -0.12233869493E-01  0.92480289596E-02  0.10204672610E+01  0.10201974959E+01 0.  0.
     999903    2    3    3    0    0  0.30371649416E-01  0.11737612148E+00 -0.37295408859E-01  0.12845750995E+00  0.20268037865E-01 0.  0.
         14    1    1    2    0    0  0.17756872429E-01  0.12233869493E-01 -0.92480289596E-02  0.23462738989E-01  0.00000000000E+00 0.  1.
     999901    1    3    3    0    0 -0.48128521845E-01 -0.12960999098E+00  0.46543437819E-01  0.89200975106E+00  0.88000000000E+00 0. -1.
        -11    1    4    4    0    0  0.17618587914E-01  0.36595341052E-01 -0.18004053120E-01  0.44430177543E-01  0.51100000000E-03 0.  1.
         11    1    4    4    0    0  0.12753061502E-01  0.80780780432E-01 -0.19291355739E-01  0.84027332411E-01  0.51100000000E-03 0. -1.
</event>
<event>
 8    1  0.1123361E+005  0.1043930E+01  0.7957747E-01            NaN
         13   -1    0    0    0    0  0.00000000000E+00  0.00000000000E+00  0.74505805969E-08  0.10566000000E+00  0.10566000000E+00 0. -1.
     999900   -1    0    0    0    0 -0.00000000000E+00 -0.00000000000E+00 -0.74505805969E-08  0.93827000000E+00  0.93827000000E+00 0. -1.
     999902    2    1    2    0    0  0.15462199283E-01  0.13961078115E-01  0.12503786911E-01  0.10196331690E+01  0.10193436434E+01 0.  0.
     999903    2    3    3    0    0  0.29104013957E-01  0.12223690054E+00  0.33275213582E-01  0.13264883714E+00  0.26449398372E-01 0.  0.
         14    1    1    2    0    0 -0.15462199283E-01 -0.13961078115E-01 -0.12503786911E-01  0.24296830985E-01  0.00000000000E+00 0.  1.
     999901    1    3    3    0    0 -0.13641814674E-01 -0.10827582242E+00 -0.20771426671E-01  0.88698433188E+00  0.88000000000E+00 0. -1.
        -11    1    4    4    0    0  0.63856325643E-02  0.15479010733E-01  0.13953577919E-01  0.21802282777E-01  0.51100000000E-03 0.  1.
         11    1    4    4    0    0  0.22718381393E-01  0.10675788980E+00  0.19321635663E-01  0.11084655436E+00  0.51100000000E-03 0. -1.
</event>
<event>
 8    1  0.1123361E+005  0.1043930E+01  0.7957747E-01            NaN
         13   -1    0    0    0    0  0.00000000000E+00  0.00000000000E+00  0.74505805969E-08  0.10566000000E+00  0.10566000000E+00 0.  1.
     999900   -1    0    0    0    0 -0.00000000000E+00 -0.00000000000E+00 -0.74505805969E-08  0.93827000000E+00  0.93827000000E+00 0.  1.
     999902    2    1    2    0    0 -0.12401884507E-01 -0.20754286886E-01  0.20404727712E-01  0.10122929951E+01  0.10117985016E+01 0.  0.
     999903    2    3    3    0    0  0.17439838873E-01  0.67090268844E-01  0.10047675271E+00  0.12380060710E+00  0.20633960580E-01 0.  0.
         14    1    1    2    0    0  0.12401884507E-01  0.20754286886E-01 -0.20404727712E-01  0.31637004860E-01  0.00000000000E+00 0. -1.
     999901    1    3    3    0    0 -0.29841723380E-01 -0.87844555730E-01 -0.80072024995E-01  0.88849238804E+00  0.88000000000E+00 0.  1.
        -11    1    4    4    0    0  0.14872355480E-01  0.19479433969E-01  0.30661909001E-01  0.39256198108E-01  0.51100000000E-03 0. -1.
         11    1    4    4    0    0  0.25674833932E-02  0.47610834875E-01  0.69814843706E-01  0.84544408988E-01  0.51100000000E-03 0.  1.
</event>
<event>
 8    1  0.1123361E+005  0.1043930E+01  0.7957747E-01            NaN
         13   -1    0    0    0    0  0.00000000000E+00  0.00000000000E+00  0.74505805969E-08  0.10566000000E+00  0.10566000000E+00 0. -1.
     999900   -1    0    0    0    0 -0.00000000000E+00 -0.00000000000E+00 -0.74505805969E-08  0.93827000000E+00  0.93827000000E+00 0. -1.
     999902    2    1    2    0    0  0.15294929614E-01 -0.10201296448E-02  0.18384816858E-01  0.10199930614E+01  0.10197121498E+01 0.  0.
     999903    2    3    3    0    0  0.81895799829E-02  0.12696897551E+00 -0.17280391835E-01  0.12999098047E+00  0.20269511560E-01 0.  0.
         14    1    1    2    0    0 -0.15294929614E-01  0.10201296448E-02 -0.18384816858E-01  0.23936938553E-01  0.00000000000E+00 0.  1.
     999901    1    3    3    0    0  0.71053496311E-02 -0.12798910516E+00  0.35665208693E-01  0.89000208098E+00  0.88000000000E+00 0. -1.
        -11    1    4    4    0    0  0.10208258171E-01  0.11664396519E+00 -0.20721288855E-01  0.11891028586E+00  0.51100000000E-03 0.  1.
         11    1    4    4    0    0 -0.20186781880E-02  0.10325010319E-01  0.34408970205E-02  0.11080694609E-01  0.51100000000E-03 0. -1.
</event>
<event>
 8    1  0.1123361E+005  0.1043930E+01  0.7957747E-01            NaN
         13   -1    0    0    0    0  0.00000000000E+00  0.00000000000E+00  0.74505805969E-08  0.10566000000E+00  0.10566000000E+00 0. -1.
     999900   -1    0    0    0    0 -0.00000000000E+00 -0.00000000000E+00 -0.74505805969E-08  0.93827000000E+00  0.93827000000E+00 0. -1.
     999902    2    1    2    0    0 -0.67132206850E-02 -0.21663667984E-01 -0.10566775293E-04  0.10212500098E+01  0.10209981394E+01 0.  0.
     999903    2    3    3    0    0 -0.33263821854E-01  0.23535473740E-01  0.12302636522E+00  0.13114553087E+00  0.20081418235E-01 0.  0.
         14    1    1    2    0    0  0.67132206850E-02  0.21663667984E-01  0.10566775293E-04  0.22679990171E-01  0.00000000000E+00 0.  1.
     999901    1    3    3    0    0  0.26550601169E-01 -0.45199141723E-01 -0.12303693200E+00  0.89010447896E+00  0.88000000000E+00 0. -1.
        -11    1    4    4    0    0 -0.10657969288E-01  0.17433414729E-01  0.74655576761E-01  0.77403052401E-01  0.51100000000E-03 0. -1.
         11    1    4    4    0    0 -0.22605852566E-01  0.61020590105E-02  0.48370788460E-01  0.53742478466E-01  0.51100000000E-03 0.  1.
</event>
<event>
 8    1  0.1123361E+005  0.1043930E+01  0.7957747E-01            NaN
         13   -1    0    0    0    0  0.00000000000E+00  0.00000000000E+00  0.74505805969E-08  0.10566000000E+00  0.10566000000E+00 0.  1.
     999900   -1    0    0    0    0 -0.00000000000E+00 -0.00000000000E+00 -0.74505805969E-08  0.93827000000E+00  0.93827000000E+00 0. -1.
     999902    2    1    2    0    0 -0.10012575698E-01  0.41545902475E-02 -0.21179501355E-01  0.10201374892E+01  0.10198599969E+01 0.  0.
     999903    2    3    3    0    0  0.54509541318E-02  0.12613366399E+00  0.26032762809E-01  0.13033581857E+00  0.19243356465E-01 0.  0.
         14    1    1    2    0    0  0.10012575698E-01 -0.41545902475E-02  0.21179501355E-01  0.23792510794E-01  0.00000000000E+00 0.  1.
     999901    1    3    3    0    0 -0.15463529830E-01 -0.12197907375E+00 -0.47212264164E-01  0.88980167064E+00  0.88000000000E+00 0. -1.
        -11    1    4    4    0    0  0.11010041702E-01  0.69601749078E-01  0.19738831205E-01  0.73181330074E-01  0.51100000000E-03 0.  1.
         11    1    4    4    0    0 -0.55590875703E-02  0.56531914916E-01  0.62939316045E-02  0.57154488492E-01  0.51100000000E-03 0. -1.
</event>
<event>
 8    1  0.1123361E+005  0.1043930E+01  0.7957747E-01            NaN
         13   -1    0    0    0    0  0.00000000000E+00  0.00000000000E+00  0.74505805969E-08  0.10566000000E+00  0.10566000000E+00 0.  1.
     999900   -1    0    0    0    0 -0.00000000000E+00 -0.00000000000E+00 -0.74505805969E-08  0.93827000000E+00  0.93827000000E+00 0. -1.
     999902    2    1    2    0    0 -0.15311293593E-01 -0.16829301576E-01  0.76107241752E-02  0.10199386635E+01  0.10196564584E+01 0.  0.
     999903    2    3    3    0    0 -0.40099006718E-01 -0.43148178856E-01 -0.11495652312E+00  0.13070874718E+00  0.20001967505E-01 0.  0.
         14    1    1    2    0    0  0.15311293593E-01  0.16829301576E-01 -0.76107241752E-02  0.23991336468E-01  0.00000000000E+00 0. -1.
     999901    1    3    3    0    0  0.24787713125E-01  0.26318877279E-01  0.12256724729E+00  0.88922991635E+00  0.88000000000E+00 0.  1.
        -11    1    4    4    0    0 -0.41709241331E-01 -0.38849547984E-01 -0.10059128181E+00  0.11561926868E+00  0.51100000000E-03 0.  1.
         11    1    4    4    0    0  0.16102346129E-02 -0.42986308712E-02 -0.14365241304E-01  0.15089478506E-01  0.51100000000E-03 0. -1.
</event>
<event>
 8    1  0.1123361E+005  0.1043930E+01  0.7957747E-01            NaN
         13   -1    0    0    0    0  0.00000000000E+00  0.00000000000E+00  0.74505805969E-08  0.10566000000E+00  0.10566000000E+00 0.  1.
     999900   -1    0    0    0    0 -0.00000000000E+00 -0.00000000000E+00 -0.74505805969E-08  0.93827000000E+00  0.93827000000E+00 0.  1.
     999902    2    1    2    0    0  0.80722760275E-02 -0.15911493701E-01 -0.16601678264E-01  0.10195588492E+01  0.10192675281E+01 0.  0.
     999903    2    3    3    0    0 -0.46771495464E-01  0.80726583981E-01  0.83474887175E-01  0.12694354777E+00  0.21029821250E-01 0.  0.
         14    1    1    2    0    0 -0.80722760275E-02  0.15911493701E-01  0.16601678264E-01  0.24371150840E-01  0.00000000000E+00 0.  1.
     999901    1    3    3    0    0  0.54843771492E-01 -0.96638077683E-01 -0.10007656544E+00  0.89261530139E+00  0.88000000000E+00 0. -1.
        -11    1    4    4    0    0 -0.35256299934E-01  0.54167348514E-01  0.69109843395E-01  0.94623146772E-01  0.51100000000E-03 0. -1.
         11    1    4    4    0    0 -0.11515195531E-01  0.26559235467E-01  0.14365043780E-01  0.32320400996E-01  0.51100000000E-03 0.  1.
</event>
<event>
 8    1  0.1123361E+005  0.1043930E+01  0.7957747E-01            NaN
         13   -1    0    0    0    0  0.00000000000E+00  0.00000000000E+00  0.74505805969E-08  0.10566000000E+00  0.10566000000E+00 0.  1.
     999900   -1    0    0    0    0 -0.00000000000E+00 -0.00000000000E+00 -0.74505805969E-08  0.93827000000E+00  0.93827000000E+00 0. -1.
     999902    2    1    2    0    0 -0.53874276004E-02  0.13375718723E-01  0.17001353861E-01  0.10216369459E+01  0.10213936895E+01 0.  0.
     999903    2    3    3    0    0 -0.69558275068E-01  0.50971832661E-01 -0.96830939595E-01  0.13119370994E+00  0.19976919444E-01 0.  0.
         14    1    1    2    0    0  0.53874276004E-02 -0.13375718723E-01 -0.17001353861E-01  0.22293054089E-01  0.00000000000E+00 0. -1.
     999901    1    3    3    0    0  0.64170847468E-01 -0.37596113938E-01  0.11383229346E+00  0.89044323597E+00  0.88000000000E+00 0.  1.
        -11    1    4    4    0    0 -0.34151545521E-01  0.27253139206E-01 -0.34447476112E-01  0.55641274154E-01  0.51100000000E-03 0.  1.
         11    1    4    4    0    0 -0.35406729547E-01  0.23718693455E-01 -0.62383463483E-01  0.75552435789E-01  0.51100000000E-03 0. -1.
</event>
<event>
 8    1  0.1123361E+005  0.1043930E+01  0.7957747E-01            NaN
         13   -1    0    0    0    0  0.00000000000E+00  0.00000000000E+00  0.74505805969E-08  0.10566000000E+00  0.10566000000E+00 0.  1.
     999900   -1    0    0    0    0 -0.00000000000E+00 -0.00000000000E+00 -0.74505805969E-08  0.93827000000E+00  0.93827000000E+00 0.  1.
     999902    2    1    2    0    0  0.15485173829E-01  0.17664015704E-01 -0.12840682677E-02  0.10204043355E+01  0.10201331045E+01 0.  0.
     999903    2    3    3    0    0 -0.10665322207E+00 -0.50665433308E-02 -0.69561488684E-01  0.12905913176E+00  0.20417618491E-01 0.  0.
         14    1    1    2    0    0 -0.15485173829E-01 -0.17664015704E-01  0.12840682677E-02  0.23525664510E-01  0.00000000000E+00 0.  1.
     999901    1    3    3    0    0  0.12213839590E+00  0.22730559035E-01  0.68277420416E-01  0.89134520373E+00  0.88000000000E+00 0. -1.
        -11    1    4    4    0    0 -0.48302114339E-01 -0.38424956360E-02 -0.43579063856E-01  0.65170967078E-01  0.51100000000E-03 0.  1.
         11    1    4    4    0    0 -0.58351107729E-01 -0.12240476949E-02 -0.25982424828E-01  0.63888164685E-01  0.51100000000E-03 0. -1.
</event>
<event>
 8    1  0.1123361E+005  0.1043930E+01  0.7957747E-01            NaN
         13   -1    0    0    0    0  0.00000000000E+00  0.00000000000E+00  0.74505805969E-08  0.10566000000E+00  0.10566000000E+00 0. -1.
     999900   -1    0    0    0    0 -0.00000000000E+00 -0.00000000000E+00 -0.74505805969E-08  0.93827000000E+00  0.93827000000E+00 0.  1.
     999902    2    1    2    0    0  0.13264604805E-01 -0.18270773404E-01  0.72826412517E-02  0.10202064302E+01  0.10199305625E+01 0.  0.
     999903    2    3    3    0    0 -0.11719032240E+00  0.14968304381E-01  0.50473774962E-01  0.12892151594E+00  0.10748651647E-01 0.  0.
         14    1    1    2    0    0 -0.13264604805E-01  0.18270773404E-01 -0.72826412517E-02  0.23723569820E-01  0.00000000000E+00 0.  1.
     999901    1    3    3    0    0  0.13045492721E+00 -0.33239077785E-01 -0.43191133710E-01  0.89128491424E+00  0.88000000000E+00 0.  1.
        -11    1    4    4    0    0 -0.33282591170E-01  0.59484167278E-02  0.19439640679E-01  0.39003529164E-01  0.51100000000E-03 0.  1.
         11    1    4    4    0    0 -0.83907731231E-01  0.90198876532E-02  0.31034134283E-01  0.89917986773E-01  0.51100000000E-03 0. -1.
</event>
<event>
 8    1  0.1123361E+005  0.1043930E+01  0.7957747E-01            NaN
         13   -1    0    0    0    0  0.00000000000E+00  0.00000000000E+00  0.74505805969E-08  0.10566000000E+00  0.10566000000E+00 0.  1.
     999900   -1    0    0    0    0 -0.00000000000E+00 -0.00000000000E+00 -0.74505805969E-08  0.93827000000E+00  0.93827000000E+00 0.  1.
     999902    2    1    2    0    0  0.22756892988E-01 -0.14093223699E-02 -0.66403943213E-02  0.10201822168E+01  0.10199057792E+01 0.  0.
     999903    2    3    3    0    0 -0.35548464524E-01  0.99573226397E-01 -0.73058572069E-01  0.13000899538E+00  0.19653579399E-01 0.  0.
         14    1    1    2    0    0 -0.22756892988E-01  0.14093223699E-02  0.66403943213E-02  0.23747783155E-01  0.00000000000E+00 0.  1.
     999901    1    3    3    0    0  0.58305357512E-01 -0.10098254877E+00  0.66418177748E-01  0.89017322146E+00  0.88000000000E+00 0. -1.
        -11    1    4    4    0    0 -0.97020750714E-02  0.10139286376E-01 -0.13582749725E-01  0.19536826764E-01  0.51100000000E-03 0.  1.
         11    1    4    4    0    0 -0.25846389452E-01  0.89433940021E-01 -0.59475822344E-01  0.11047216862E+00  0.51100000000E-03 0. -1.
</event>
<event>
 8    1  0.1123361E+005  0.1043930E+01  0.7957747E-01            NaN
         13   -1    0    0    0    0  0.00000000000E+00  0.00000000000E+00  0.74505805969E-08  0.10566000000E+00  0.10566000000E+00 0.  1.
     999900   -1    0    0    0    0 -0.00000000000E+00 -0.00000000000E+00 -0.74505805969E-08  0.93827000000E+00  0.93827000000E+00 0.  1.
     999902    2    1    2    0    0  0.19358164744E-01  0.37988612731E-02  0.15885778377E-01  0.10186016001E+01  0.10182866452E+01 0.  0.
     999903    2    3    3    0    0 -0.72777068734E-02 -0.10649744870E+00 -0.66613455682E-01  0.12748944703E+00  0.20531318204E-01 0.  0.
         14    1    1    2    0    0 -0.19358164744E-01 -0.37988612731E-02 -0.15885778377E-01  0.25328399947E-01  0.00000000000E+00 0.  1.
     999901    1    3    3    0    0  0.26635871617E-01  0.11029630998E+00  0.82499234059E-01  0.89111215303E+00  0.88000000000E+00 0. -1.
        -11    1    4    4    0    0 -0.13752608834E-01 -0.51943397839E-01 -0.31505028206E-01  0.62290278151E-01  0.51100000000E-03 0.  1.
         11    1    4    4    0    0  0.64749019602E-02 -0.54554050865E-01 -0.35108427476E-01  0.65199168876E-01  0.51100000000E-03 0. -1.
</event>
<event>
 8    1  0.1123361E+005  0.1043930E+01  0.7957747E-01            NaN
         13   -1    0    0    0    0  0.00000000000E+00  0.00000000000E+00  0.74505805969E-08  0.10566000000E+00  0.10566000000E+00 0. -1.
     999900   -1    0    0    0    0 -0.00000000000E+00 -0.00000000000E+00 -0.74505805969E-08  0.93827000000E+00  0.93827000000E+00 0.  1.
     999902    2    1    2    0    0  0.16379635843E-01  0.10913972617E-02  0.16164732823E-01  0.10208912890E+01  0.10206312957E+01 0.  0.
     999903    2    3    3    0    0  0.84237702980E-02 -0.57667455456E-01 -0.11381686031E+00  0.12936949277E+00  0.19639059136E-01 0.  0.
         14    1    1    2    0    0 -0.16379635843E-01 -0.10913972617E-02 -0.16164732823E-01  0.23038711023E-01  0.00000000000E+00 0.  1.
     999901    1    3    3    0    0  0.79558655454E-02  0.58758852718E-01  0.12998159313E+00  0.89152179621E+00  0.88000000000E+00 0. -1.
        -11    1    4    4    0    0  0.24044805539E-02 -0.54724546299E-01 -0.10145983813E+00  0.11530358784E+00  0.51100000000E-03 0. -1.
         11    1    4    4    0    0  0.60192897442E-02 -0.29429091577E-02 -0.12357022179E-01  0.14065904929E-01  0.51100000000E-03 0.  1.
</event>
<event>
 8    1  0.1123361E+005  0.1043930E+01  0.7957747E-01            NaN
         13   -1    0    0    0    0  0.00000000000E+00  0.00000000000E+00  0.74505805969E-08  0.10566000000E+00  0.10566000000E+00 0.  1.
     999900   -1    0    0    0    0 -0.00000000000E+00 -0.00000000000E+00 -0.74505805969E-08  0.93827000000E+00  0.93827000000E+00 0. -1.
     999902    2    1    2    0    0 -0.12420533168E-01  0.23983663295E-02  0.18344562837E-01  0.10216467150E+01  0.10214036741E+01 0.  0.
     999903    2    3    3    0    0 -0.67016448392E-01 -0.47934425079E-01 -0.99338499892E-01  0.13071270671E+00  0.20706536952E-01 0.  0.
         14    1    1    2    0    0  0.12420533168E-01 -0.23983663295E-02 -0.18344562837E-01  0.22283285012E-01  0.00000000000E+00 0. -1.
     999901    1    3    3    0    0  0.54595915224E-01  0.50332791409E-01  0.11768306273E+00  0.89093400828E+00  0.88000000000E+00 0.  1.
        -11    1    4    4    0    0 -0.26529359312E-01 -0.27797769595E-01 -0.34376722143E-01  0.51561061338E-01  0.51100000000E-03 0. -1.
         11    1    4    4    0    0 -0.40487089080E-01 -0.20136655485E-01 -0.64961777748E-01  0.79151645374E-01  0.51100000000E-03 0.  1.
</event>
<event>
 8    1  0.1123361E+005  0.1043930E+01  0.7957747E-01            NaN
         13   -1    0    0    0    0  0.00000000000E+00  0.00000000000E+00  0.74505805969E-08  0.10566000000E+00  0.10566000000E+00 0. -1.
     999900   -1    0    0    0    0 -0.00000000000E+00 -0.00000000000E+00 -0.74505805969E-08  0.93827000000E+00  0.93827000000E+00 0.  1.
     999902    2    1    2    0    0  0.12617219669E-01  0.94283555785E-03  0.19020200460E-01  0.10210859374E+01  0.10208303681E+01 0.  0.
     999903    2    3    3    0    0 -0.22481367433E-02 -0.11629380556E+00  0.59703973294E-01  0.13225491958E+00  0.19937301649E-01 0.  0.
         14    1    1    2    0    0 -0.12617219669E-01 -0.94283555785E-03 -0.19020200460E-01  0.22844062612E-01  0.00000000000E+00 0. -1.
     999901    1    3    3    0    0  0.14865356412E-01  0.11723664111E+00 -0.40683772834E-01  0.88883101781E+00  0.88000000000E+00 0. -1.
        -11    1    4    4    0    0  0.26873919342E-02 -0.66509268600E-01  0.44093727855E-01  0.79844992594E-01  0.51100000000E-03 0. -1.
         11    1    4    4    0    0 -0.49355286775E-02 -0.49784536957E-01  0.15610245439E-01  0.52409926989E-01  0.51100000000E-03 0.  1.
</event>
<event>
 8    1  0.1123361E+005  0.1043930E+01  0.7957747E-01            NaN
         13   -1    0    0    0    0  0.00000000000E+00  0.00000000000E+00  0.74505805969E-08  0.10566000000E+00  0.10566000000E+00 0.  1.
     999900   -1    0    0    0    0 -0.00000000000E+00 -0.00000000000E+00 -0.74505805969E-08  0.93827000000E+00  0.93827000000E+00 0. -1.
     999902    2    1    2    0    0 -0.32667023206E-02  0.18910903371E-01  0.13482511789E-01  0.10204763919E+01  0.10202068391E+01 0.  0.
     999903    2    3    3    0    0 -0.91557061687E-02 -0.11435833877E+00  0.56125907247E-01  0.12940185489E+00  0.20810237445E-01 0.  0.
         14    1    1    2    0    0  0.32667023206E-02 -0.18910903371E-01 -0.13482511789E-01  0.23453608134E-01  0.00000000000E+00 0. -1.
     999901    1    3    3    0    0  0.58890038481E-02  0.13326924214E+00 -0.42643395458E-01  0.89107453697E+00  0.88000000000E+00 0.  1.
        -11    1    4    4    0    0 -0.39784103508E-02 -0.60424366963E-01  0.18095086153E-01  0.63203046886E-01  0.51100000000E-03 0.  1.
         11    1    4    4    0    0 -0.51772958179E-02 -0.53933971811E-01  0.38030821094E-01  0.66198808005E-01  0.51100000000E-03 0. -1.
</event>
<event>
 8    1  0.1123361E+005  0.1043930E+01  0.7957747E-01            NaN
         13   -1    0    0    0    0  0.00000000000E+00  0.00000000000E+00  0.74505805969E-08  0.10566000000E+00  0.10566000000E+00 0.  1.
     999900   -1    0    0    0    0 -0.00000000000E+00 -0.00000000000E+00 -0.74505805969E-08  0.93827000000E+00  0.93827000000E+00 0. -1.
     999902    2    1    2    0    0  0.20177315295E-01 -0.74955790405E-02  0.92965680604E-02  0.10204835944E+01  0.10202142091E+01 0.  0.
     999903    2    3    3    0    0 -0.44459750825E-01 -0.12083693020E+00 -0.92885468510E-02  0.13066922124E+00  0.20246854859E-01 0.  0.
         14    1    1    2    0    0 -0.20177315295E-01  0.74955790405E-02 -0.92965680604E-02  0.23446405596E-01  0.00000000000E+00 0. -1.
     999901    1    3    3    0    0  0.64637066120E-01  0.11334135116E+00  0.18585114911E-01  0.88981437317E+00  0.88000000000E+00 0.  1.
        -11    1    4    4    0    0 -0.18562809691E-01 -0.78831716306E-01 -0.57344930292E-02  0.81192135892E-01  0.51100000000E-03 0.  1.
         11    1    4    4    0    0 -0.25896941134E-01 -0.42005213897E-01 -0.35540538218E-02  0.49477085345E-01  0.51100000000E-03 0. -1.
</event>
<event>
 8    1  0.1123361E+005  0.1043930E+01  0.7957747E-01            NaN
         13   -1    0    0    0    0  0.00000000000E+00  0.00000000000E+00  0.74505805969E-08  0.10566000000E+00  0.10566000000E+00 0.  1.
     999900   -1    0    0    0    0 -0.00000000000E+00 -0.00000000000E+00 -0.74505805969E-08  0.93827000000E+00  0.93827000000E+00 0.  1.
     999902    2    1    2    0    0 -0.34882387143E-02 -0.10402787092E-01 -0.19769267341E-01  0.10213200526E+01  0.10210697529E+01 0.  0.
     999903    2    3    3    0    0 -0.29519991364E-01 -0.12727323536E+00  0.11849797756E-01  0.13264906791E+00  0.19632910669E-01 0.  0.
         14    1    1    2    0    0  0.34882387143E-02  0.10402787092E-01  0.19769267341E-01  0.22609947364E-01  0.00000000000E+00 0. -1.
     999901    1    3    3    0    0  0.26031752649E-01  0.11687044826E+00 -0.31619065097E-01  0.88867098473E+00  0.88000000000E+00 0.  1.
        -11    1    4    4    0    0 -0.23541730746E-01 -0.10516869605E+00  0.22003748882E-02  0.10779503925E+00  0.51100000000E-03 0.  1.
         11    1    4    4    0    0 -0.59782606175E-02 -0.22104539305E-01  0.96494228681E-02  0.24854028659E-01  0.51100000000E-03 0. -1.
</event>
<event>
 8    1  0.1123361E+005  0.1043930E+01  0.7957747E-01            NaN
         13   -1    0    0    0    0  0.00000000000E+00  0.00000000000E+00  0.74505805969E-08  0.10566000000E+00  0.10566000000E+00 0. -1.
     999900   -1    0    0    0    0 -0.00000000000E+00 -0.00000000000E+00 -0.74505805969E-08  0.93827000000E+00  0.93827000000E+00 0.  1.
     999902    2    1    2    0    0 -0.11780168371E-01  0.18152294474E-01 -0.32642805582E-02  0.10220454463E+01  0.10218111179E+01 0.  0.
     999903    2    3    3    0    0  0.52128422800E-01 -0.11921725967E-01 -0.11871594371E+00  0.13169841217E+00  0.19786269567E-01 0.  0.
         14    1    1    2    0    0  0.11780168371E-01 -0.18152294474E-01  0.32642805582E-02  0.21884553664E-01  0.00000000000E+00 0.  1.
     999901    1    3    3    0    0 -0.63908591170E-01  0.30074020441E-01  0.11545166315E+00  0.89034703417E+00  0.88000000000E+00 0. -1.
        -11    1    4    4    0    0  0.28712435216E-01 -0.93108315867E-03 -0.43278002047E-01  0.51947256271E-01  0.51100000000E-03 0.  1.
         11    1    4    4    0    0  0.23415987584E-01 -0.10990642808E-01 -0.75437941659E-01  0.79751155895E-01  0.51100000000E-03 0. -1.
</event>
<event>
 8    1  0.1123361E+005  0.1043930E+01  0.7957747E-01            NaN
         13   -1    0    0    0    0  0.00000000000E+00  0.00000000000E+00  0.74505805969E-08  0.10566000000E+00  0.10566000000E+00 0. -1.
     999900   -1    0    0    0    0 -0.00000000000E+00 -0.00000000000E+00 -0.74505805969E-08  0.93827000000E+00  0.93827000000E+00 0. -1.
     999902    2    1    2    0    0  0.15022220486E-02  0.24585900048E-01 -0.70978890627E-02  0.10182959761E+01  0.10179732765E+01 0.  0.
     999903    2    3    3    0    0  0.65396988586E-01 -0.65764691907E-01 -0.85723936430E-01  0.12788717898E+00  0.20119056964E-01 0.  0.
         14    1    1    2    0    0 -0.15022220486E-02 -0.24585900048E-01  0.70978890627E-02  0.25634023902E-01  0.00000000000E+00 0.  1.
     999901    1    3    3    0    0 -0.63894766538E-01  0.90350591955E-01  0.78626047368E-01  0.89040879712E+00  0.88000000000E+00 0.  1.
        -11    1    4    4    0    0  0.33865795360E-01 -0.35399123572E-01 -0.58621361889E-01  0.76398398123E-01  0.51100000000E-03 0. -1.
         11    1    4    4    0    0  0.31531193226E-01 -0.30365568335E-01 -0.27102574541E-01  0.51488780859E-01  0.51100000000E-03 0.  1.
</event>
<event>
 8    1  0.1123361E+005  0.1043930E+01  0.7957747E-01            NaN
         13   -1    0    0    0    0  0.00000000000E+00  0.00000000000E+00  0.74505805969E-08  0.10566000000E+00  0.10566000000E+00 0.  1.
     999900   -1    0    0    0    0 -0.00000000000E+00 -0.00000000000E+00 -0.74505805969E-08  0.93827000000E+00  0.93827000000E+00 0. -1.
     999902    2    1    2    0    0 -0.19902297561E-01 -0.11575829016E-01  0.50750052369E-02  0.10203533814E+01  0.10200809605E+01 0.  0.
     999903    2    3    3    0    0 -0.76727742608E-01  0.71544722185E-01  0.77075127979E-01  0.13169024225E+00  0.19898512341E-01 0.  0.
         14    1    1    2    0    0  0.19902297561E-01  0.11575829016E-01 -0.50750052369E-02  0.23576618582E-01  0.00000000000E+00 0. -1.
     999901    1    3    3    0    0  0.56825445047E-01 -0.83120551200E-01 -0.72000122742E-01  0.88866313917E+00  0.88000000000E+00 0. -1.
        -11    1    4    4    0    0 -0.42291231610E-01  0.52347434972E-01  0.50561552649E-01  0.84175613728E-01  0.51100000000E-03 0.  1.
         11    1    4    4    0    0 -0.34436510998E-01  0.19197287213E-01  0.26513575330E-01  0.47514628525E-01  0.51100000000E-03 0. -1.
</event>
<event>
 8    1  0.1123361E+005  0.1043930E+01  0.7957747E-01            NaN
         13   -1    0    0    0    0  0.00000000000E+00  0.00000000000E+00  0.74505805969E-08  0.10566000000E+00  0.10566000000E+00 0.  1.
     999900   -1    0    0    0    0 -0.00000000000E+00 -0.00000000000E+00 -0.74505805969E-08  0.93827000000E+00  0.93827000000E+00 0. -1.
     999902    2    1    2    0    0 -0.38348715809E-02  0.12720061574E-01 -0.18971948341E-01  0.10207688033E+01  0.10205060063E+01 0.  0.
     999903    2    3    3    0    0  0.25432134994E-01 -0.50000053371E-01  0.11352556884E+00  0.12816252813E+00  0.19768156469E-01 0.  0.
         14    1    1    2    0    0  0.38348715809E-02 -0.12720061574E-01  0.18971948341E-01  0.23161196651E-01  0.00000000000E+00 0.  1.
     999901    1    3    3    0    0 -0.29267006575E-01  0.62720114945E-01 -0.13249751718E+00  0.89260627521E+00  0.88000000000E+00 0. -1.
        -11    1    4    4    0    0  0.19469746638E-01 -0.22416633779E-01  0.72690152801E-01  0.78521945590E-01  0.51100000000E-03 0.  1.
         11    1    4    4    0    0  0.59623883557E-02 -0.27583419592E-01  0.40835416039E-01  0.49640582544E-01  0.51100000000E-03 0. -1.
</event>
<event>
 8    1  0.1123361E+005  0.1043930E+01  0.7957747E-01            NaN
         13   -1    0    0    0    0  0.00000000000E+00  0.00000000000E+00  0.74505805969E-08  0.10566000000E+00  0.10566000000E+00 0.  1.
     999900   -1    0    0    0    0 -0.00000000000E+00 -0.00000000000E+00 -0.74505805969E-08  0.93827000000E+00  0.93827000000E+00 0. -1.
     999902    2    1    2    0    0 -0.18981412721E-01 -0.12711732064E-01  0.85158402545E-02  0.10195496453E+01  0.10192581015E+01 0.  0.
     999903    2    3    3    0    0  0.10733566634E+00  0.63874732192E-03 -0.65293621152E-01  0.12737136918E+00  0.20948877179E-01 0.  0.
         14    1    1    2    0    0  0.18981412721E-01  0.12711732064E-01 -0.85158402545E-02  0.24380354718E-01  0.00000000000E+00 0. -1.
     999901    1    3    3    0    0 -0.12631707906E+00 -0.13350479386E-01  0.73809461406E-01  0.89217827611E+00  0.88000000000E+00 0. -1.
        -11    1    4    4    0    0  0.11273150223E-01  0.76415981891E-03 -0.15446114273E-01  0.19144488066E-01  0.51100000000E-03 0. -1.
         11    1    4    4    0    0  0.96062516120E-01 -0.12541249699E-03 -0.49847506878E-01  0.10822688111E+00  0.51100000000E-03 0.  1.
</event>
<event>
 8    1  0.1123361E+005  0.1043930E+01  0.7957747E-01            NaN
         13   -1    0    0    0    0  0.00000000000E+00  0.00000000000E+00  0.74505805969E-08  0.10566000000E+00  0.10566000000E+00 0.  1.
     999900   -1    0    0    0    0 -0.00000000000E+00 -0.00000000000E+00 -0.74505805969E-08  0.93827000000E+00  0.93827000000E+00 0.  1.
     999902    2    1    2    0    0 -0.18266316568E-01  0.69645017204E-02 -0.42720216034E-02  0.10239196833E+01  0.10237241353E+01 0.  0.
     999903    2    3    3    0    0  0.65562403779E-01  0.53532312261E-01  0.99576243109E-01  0.13263954923E+00  0.22664610808E-01 0.  0.
         14    1    1    2    0    0  0.18266316568E-01 -0.69645017204E-02  0.42720216034E-02  0.20010316683E-01  0.00000000000E+00 0.  1.
     999901    1    3    3    0    0 -0.83828720346E-01 -0.46567810541E-01 -0.10384826471E+00  0.89128013409E+00  0.88000000000E+00 0.  1.
        -11    1    4    4    0    0  0.28507362133E-01  0.10232607287E-01  0.29135212347E-01  0.42029723615E-01  0.51100000000E-03 0.  1.
         11    1    4    4    0    0  0.37055041646E-01  0.43299704975E-01  0.70441030762E-01  0.90609825615E-01  0.51100000000E-03 0. -1.
</event>
<event>
 8    1  0.1123361E+005  0.1043930E+01  0.7957747E-01            NaN
         13   -1    0    0    0    0  0.00000000000E+00  0.00000000000E+00  0.74505805969E-08  0.10566000000E+00  0.10566000000E+00 0.  1.
     999900   -1    0    0    0    0 -0.00000000000E+00 -0.00000000000E+00 -0.74505805969E-08  0.93827000000E+00  0.93827000000E+00 0.  1.
     999902    2    1    2    0    0 -0.67377414532E-03  0.23937130636E-01  0.49976230890E-02  0.10194674484E+01  0.10191739115E+01 0.  0.
     999903    2    3    3    0    0  0.71717845588E-01  0.93690167759E-01  0.56285104569E-01  0.13226034824E+00  0.20087055799E-01 0.  0.
         14    1    1    2    0    0  0.67377414532E-03 -0.23937130636E-01 -0.49976230890E-02  0.24462551609E-01  0.00000000000E+00 0. -1.
     999901    1    3    3    0    0 -0.72391619733E-01 -0.69753037124E-01 -0.51287481480E-01  0.88720710015E+00  0.88000000000E+00 0.  1.
        -11    1    4    4    0    0  0.40735668142E-01  0.65063597569E-01  0.43229317833E-01  0.88100518891E-01  0.51100000000E-03 0.  1.
         11    1    4    4    0    0  0.30982177446E-01  0.28626570191E-01  0.13055786736E-01  0.44159829353E-01  0.51100000000E-03 0. -1.
</event>
<event>
 8    1  0.1123361E+005  0.1043930E+01  0.7957747E-01            NaN
         13   -1    0    0    0    0  0.00000000000E+00  0.00000000000E+00  0.74505805969E-08  0.10566000000E+00  0.10566000000E+00 0.  1.
     999900   -1    0    0    0    0 -0.00000000000E+00 -0.00000000000E+00 -0.74505805969E-08  0.93827000000E+00  0.93827000000E+00 0.  1.
     999902    2    1    2    0    0 -0.69880010101E-02 -0.23307418222E-01  0.10187478221E-02  0.10195762375E+01  0.10192853370E+01 0.  0.
     999903    2    3    3    0    0 -0.78427500756E-01 -0.93459462687E-01 -0.46965817562E-01  0.13259967071E+00  0.22166204283E-01 0.  0.
         14    1    1    2    0    0  0.69880010101E-02  0.23307418222E-01 -0.10187478221E-02  0.24353762531E-01  0.00000000000E+00 0.  1.
     999901    1    3    3    0    0  0.71439499746E-01  0.70152044465E-01  0.47984565384E-01  0.88697656676E+00  0.88000000000E+00 0. -1.
        -11    1    4    4    0    0 -0.40403766562E-01 -0.36541040157E-01 -0.12216980468E-01  0.55832138602E-01  0.51100000000E-03 0.  1.
         11    1    4    4    0    0 -0.38023734194E-01 -0.56918422530E-01 -0.34748837094E-01  0.76767532106E-01  0.51100000000E-03 0. -1.
</event>
<event>
 8    1  0.1123361E+005  0.1043930E+01  0.7957747E-01            NaN
         13   -1    0    0    0    0  0.00000000000E+00  0.00000000000E+00  0.74505805969E-08  0.10566000000E+00  0.10566000000E+00 0.  1.
     999900   -1    0    0    0    0 -0.00000000000E+00 -0.00000000000E+00 -0.74505805969E-08  0.93827000000E+00  0.93827000000E+00 0.  1.
     999902    2    1    2    0    0  0.21637177630E-02  0.80365554233E-02 -0.22082763726E-01  0.10203309248E+01  0.10200579786E+01 0.  0.
     999903    2    3    3    0    0 -0.51214303911E-01 -0.42296656241E-01  0.10679105001E+00  0.12792344763E+00  0.23412988636E-01 0.  0.
         14    1    1    2    0    0 -0.21637177630E-02 -0.80365554233E-02  0.22082763726E-01  0.23599075223E-01  0.00000000000E+00 0.  1.
     999901    1    3    3    0    0  0.53378021674E-01  0.50333211664E-01 -0.12887381374E+00  0.89240747714E+00  0.88000000000E+00 0.  1.
        -11    1    4    4    0    0 -0.14368903933E-01 -0.66249377555E-02  0.11033620603E-01  0.19296556820E-01  0.51100000000E-03 0.  1.
         11    1    4    4    0    0 -0.36845399979E-01 -0.35671718486E-01  0.95757429411E-01  0.10862689081E+00  0.51100000000E-03 0. -1.
</event>
<event>
 8    1  0.1123361E+005  0.1043930E+01  0.7957747E-01            NaN
         13   -1    0    0    0    0  0.00000000000E+00  0.00000000000E+00  0.74505805969E-08  0.10566000000E+00  0.10566000000E+00 0. -1.
     999900   -1    0    0    0    0 -0.00000000000E+00 -0.00000000000E+00 -0.74505805969E-08  0.93827000000E+00  0.93827000000E+00 0.  1.
     999902    2    1    2    0    0  0.23914232329E-01 -0.68184920703E-03 -0.16430362055E-02  0.10199496957E+01  0.10196677531E+01 0.  0.
     999903    2    3    3    0    0  0.88273571248E-01 -0.81247950906E-01  0.52240888098E-01  0.13229182324E+00  0.19456700631E-01 0.  0.
         14    1    1    2    0    0 -0.23914232329E-01  0.68184920703E-03  0.16430362055E-02  0.23980304297E-01  0.00000000000E+00 0.  1.
     999901    1    3    3    0    0 -0.64359338919E-01  0.80566101699E-01 -0.53883924303E-01  0.88765787246E+00  0.88000000000E+00 0.  1.
        -11    1    4    4    0    0  0.41499193479E-01 -0.29511352336E-01  0.14311972850E-01  0.52897983553E-01  0.51100000000E-03 0. -1.
         11    1    4    4    0    0  0.46774377768E-01 -0.51736598570E-01  0.37928915247E-01  0.79393839686E-01  0.51100000000E-03 0.  1.
</event>
<event>
 8    1  0.1123361E+005  0.1043930E+01  0.7957747E-01            NaN
         13   -1    0    0    0    0  0.00000000000E+00  0.00000000000E+00  0.74505805969E-08  0.10566000000E+00  0.10566000000E+00 0.  1.
     999900   -1    0    0    0    0 -0.00000000000E+00 -0.00000000000E+00 -0.74505805969E-08  0.93827000000E+00  0.93827000000E+00 0.  1.
     999902    2    1    2    0    0  0.23176236945E-01 -0.25103666225E-02  0.60918611182E-02  0.10198353809E+01  0.10195507115E+01 0.  0.
     999903    2    3    3    0    0 -0.10040207192E+00 -0.75226366646E-01  0.11789496889E-01  0.12821232254E+00  0.23660624025E-01 0.  0.
         14    1    1    2    0    0 -0.23176236945E-01  0.25103666225E-02 -0.60918611182E-02  0.24094619137E-01  0.00000000000E+00 0.  1.
     999901    1    3    3    0    0  0.12357830886E+00  0.72716000024E-01 -0.56976357709E-02  0.89162305832E+00  0.88000000000E+00 0.  1.
        -11    1    4    4    0    0 -0.10467160269E-01 -0.17147292768E-01 -0.23100500940E-02  0.20228409374E-01  0.51100000000E-03 0. -1.
         11    1    4    4    0    0 -0.89934911651E-01 -0.58079073878E-01  0.14099546983E-01  0.10798391316E+00  0.51100000000E-03 0.  1.
</event>
<event>
 8    1  0.1123361E+005  0.1043930E+01  0.7957747E-01            NaN
         13   -1    0    0    0    0  0.00000000000E+00  0.00000000000E+00  0.74505805969E-08  0.10566000000E+00  0.10566000000E+00 0. -1.
     999900   -1    0    0    0    0 -0.00000000000E+00 -0.00000000000E+00 -0.74505805969E-08  0.93827000000E+00  0.93827000000E+00 0.  1.
     999902    2    1    2    0    0  0.29243810128E-02  0.21336267223E-01 -0.68964629031E-02  0.10213169616E+01  0.10210665927E+01 0.  0.
     999903    2    3    3    0    0  0.11414915036E+00  0.10414561112E-01  0.62116266712E-01  0.13156812639E+00  0.17698860994E-01 0.  0.
         14    1    1    2    0    0 -0.29243810128E-02 -0.21336267223E-01  0.68964629031E-02  0.22613038360E-01  0.00000000000E+00 0. -1.
     999901    1    3    3    0    0 -0.11122476935E+00  0.10921706110E-01 -0.69012729616E-01  0.88974883525E+00  0.88000000000E+00 0.  1.
        -11    1    4    4    0    0  0.88870798416E-01  0.67983094258E-02  0.39652825476E-01  0.97554310573E-01  0.51100000000E-03 0. -1.
         11    1    4    4    0    0  0.25278351943E-01  0.36162516865E-02  0.22463441236E-01  0.34013815817E-01  0.51100000000E-03 0.  1.
</event>
<event>
 8    1  0.1123361E+005  0.1043930E+01  0.7957747E-01            NaN
         13   -1    0    0    0    0  0.00000000000E+00  0.00000000000E+00  0.74505805969E-08  0.10566000000E+00  0.10566000000E+00 0. -1.
     999900   -1    0    0    0    0 -0.00000000000E+00 -0.00000000000E+00 -0.74505805969E-08  0.93827000000E+00  0.93827000000E+00 0. -1.
     999902    2    1    2    0    0 -0.92029938530E-02  0.12396889699E-01 -0.18720013851E-01  0.10196644506E+01  0.10193756790E+01 0.  0.
     999903    2    3    3    0    0  0.64364276993E-01 -0.52675026521E-01 -0.98633992620E-01  0.13060160599E+00  0.20265646211E-01 0.  0.
         14    1    1    2    0    0  0.92029938530E-02 -0.12396889699E-01  0.18720013851E-01  0.24265549420E-01  0.00000000000E+00 0. -1.
     999901    1    3    3    0    0 -0.73567270846E-01  0.65071916219E-01  0.79913978769E-01  0.88906284459E+00  0.88000000000E+00 0.  1.
        -11    1    4    4    0    0  0.40904128614E-01 -0.22395558015E-01 -0.46023112883E-01  0.65521727670E-01  0.51100000000E-03 0.  1.
         11    1    4    4    0    0  0.23460148379E-01 -0.30279468506E-01 -0.52610879737E-01  0.65079878324E-01  0.51100000000E-03 0. -1.
</event>
<event>
 8    1  0.1123361E+005  0.1043930E+01  0.7957747E-01            NaN
         13   -1    0    0    0    0  0.00000000000E+00  0.00000000000E+00  0.74505805969E-08  0.10566000000E+00  0.10566000000E+00 0. -1.
     999900   -1    0    0    0    0 -0.00000000000E+00 -0.00000000000E+00 -0.74505805969E-08  0.93827000000E+00  0.93827000000E+00 0. -1.
     999902    2    1    2    0    0 -0.20855912741E-01  0.10685620570E-01 -0.91564248423E-02  0.10187706737E+01  0.10184599619E+01 0.  0.
     999903    2    3    3    0    0  0.48148169468E-01 -0.11202011350E+00 -0.30910683141E-01  0.12731595905E+00  0.19675646002E-01 0.  0.
         14    1    1    2    0    0  0.20855912741E-01 -0.10685620570E-01  0.91564248423E-02  0.25159326285E-01  0.00000000000E+00 0. -1.
     999901    1    3    3    0    0 -0.69004082209E-01  0.12270573407E+00  0.21754258299E-01  0.89145471466E+00  0.88000000000E+00 0.  1.
        -11    1    4    4    0    0  0.12046261478E-01 -0.50173155141E-01 -0.86513881945E-02  0.52321750268E-01  0.51100000000E-03 0.  1.
         11    1    4    4    0    0  0.36101907990E-01 -0.61846958362E-01 -0.22259294947E-01  0.74994208787E-01  0.51100000000E-03 0. -1.
</event>
<event>
 8    1  0.1123361E+005  0.1043930E+01  0.7957747E-01            NaN
         13   -1    0    0    0    0  0.00000000000E+00  0.00000000000E+00  0.74505805969E-08  0.10566000000E+00  0.10566000000E+00 0.  1.
     999900   -1    0    0    0    0 -0.00000000000E+00 -0.00000000000E+00 -0.74505805969E-08  0.93827000000E+00  0.93827000000E+00 0. -1.
     999902    2    1    2    0    0 -0.74156411652E-02 -0.18326518244E-01  0.14549723423E-01  0.10193831579E+01  0.10190875699E+01 0.  0.
     999903    2    3    3    0    0 -0.36289217379E-02  0.63241582506E-01  0.11204201424E+00  0.13024175123E+00  0.19920692225E-01 0.  0.
         14    1    1    2    0    0  0.74156411652E-02  0.18326518244E-01 -0.14549723423E-01  0.24546842089E-01  0.00000000000E+00 0. -1.
     999901    1    3    3    0    0 -0.37867194273E-02 -0.81568100750E-01 -0.97492290814E-01  0.88914140668E+00  0.88000000000E+00 0. -1.
        -11    1    4    4    0    0 -0.11688537262E-01  0.30159717666E-01  0.54980569342E-01  0.63791493157E-01  0.51100000000E-03 0. -1.
         11    1    4    4    0    0  0.80596155237E-02  0.33081864839E-01  0.57061444895E-01  0.66450258075E-01  0.51100000000E-03 0.  1.
</event>
<event>
 8    1  0.1123361E+005  0.1043930E+01  0.7957747E-01            NaN
         13   -1    0    0    0    0  0.00000000000E+00  0.00000000000E+00  0.74505805969E-08  0.10566000000E+00  0.10566000000E+00 0. -1.
     999900   -1    0    0    0    0 -0.00000000000E+00 -0.00000000000E+00 -0.74505805969E-08  0.93827000000E+00  0.93827000000E+00 0. -1.
     999902    2    1    2    0    0  0.10243819148E-02  0.37635180789E-02 -0.24386528765E-01  0.10192335182E+01  0.10189342709E+01 0.  0.
     999903    2    3    3    0    0 -0.51202489876E-01 -0.11484277268E+00 -0.25037129059E-01  0.12974179729E+00  0.19887652610E-01 0.  0.
         14    1    1    2    0    0 -0.10243819148E-02 -0.37635180789E-02  0.24386528765E-01  0.24696481771E-01  0.00000000000E+00 0. -1.
     999901    1    3    3    0    0  0.52226871791E-01  0.11860629075E+00  0.65060029384E-03  0.88949172094E+00  0.88000000000E+00 0.  1.
        -11    1    4    4    0    0 -0.40220906571E-01 -0.10538196855E+00 -0.21991260840E-01  0.11492152668E+00  0.51100000000E-03 0.  1.
         11    1    4    4    0    0 -0.10981583305E-01 -0.94608041306E-02 -0.30458682192E-02  0.14820270608E-01  0.51100000000E-03 0. -1.
</event>
<event>
 8    1  0.1123361E+005  0.1043930E+01  0.7957747E-01            NaN
         13   -1    0    0    0    0  0.00000000000E+00  0.00000000000E+00  0.74505805969E-08  0.10566000000E+00  0.10566000000E+00 0.  1.
     999900   -1    0    0    0    0 -0.00000000000E+00 -0.00000000000E+00 -0.74505805969E-08  0.93827000000E+00  0.93827000000E+00 0.  1.
     999902    2    1    2    0    0 -0.27487293925E-02  0.91604706948E-02  0.22352834743E-01  0.10196170619E+01  0.10193271477E+01 0.  0.
     999903    2    3    3    0    0  0.24784766494E-01  0.39572287491E-01 -0.11427255184E+00  0.12812983922E+00  0.34333496860E-01 0.  0.
         14    1    1    2    0    0  0.27487293925E-02 -0.91604706948E-02 -0.22352834743E-01  0.24312938072E-01  0.00000000000E+00 0.  1.
     999901    1    3    3    0    0 -0.27533495886E-01 -0.30411816796E-01  0.13662538658E+00  0.89148722271E+00  0.88000000000E+00 0. -1.
        -11    1    4    4    0    0 -0.51584262325E-02  0.33873441593E-02 -0.38392418843E-01  0.38888589680E-01  0.51100000000E-03 0. -1.
         11    1    4    4    0    0  0.29943192726E-01  0.36184943332E-01 -0.75880132997E-01  0.89241249539E-01  0.51100000000E-03 0.  1.
</event>
<event>
 8    1  0.1123361E+005  0.1043930E+01  0.7957747E-01            NaN
         13   -1    0    0    0    0  0.00000000000E+00  0.00000000000E+00  0.74505805969E-08  0.10566000000E+00  0.10566000000E+00 0.  1.
     999900   -1    0    0    0    0 -0.00000000000E+00 -0.00000000000E+00 -0.74505805969E-08  0.93827000000E+00  0.93827000000E+00 0. -1.
     999902    2    1    2    0    0  0.32177632973E-02  0.69658035162E-02  0.20568041929E-01  0.10219773061E+01  0.10217415003E+01 0.  0.
     999903    2    3    3    0    0 -0.91097341075E-01 -0.70801257888E-01 -0.56811678415E-01  0.13016416658E+00  0.20089793146E-01 0.  0.
         14    1    1    2    0    0 -0.32177632973E-02 -0.69658035162E-02 -0.20568041929E-01  0.21952693868E-01  0.00000000000E+00 0. -1.
     999901    1    3    3    0    0  0.94315104372E-01  0.77767061404E-01  0.77379720343E-01  0.89181313955E+00  0.88000000000E+00 0.  1.
        -11    1    4    4    0    0 -0.41968800419E-01 -0.22471111992E-01 -0.16874391231E-01  0.50510764033E-01  0.51100000000E-03 0.  1.
         11    1    4    4    0    0 -0.49128540656E-01 -0.48330145896E-01 -0.39937287183E-01  0.79653402550E-01  0.51100000000E-03 0. -1.
</event>
<event>
 8    1  0.1123361E+005  0.1043930E+01  0.7957747E-01            NaN
         13   -1    0    0    0    0  0.00000000000E+00  0.00000000000E+00  0.74505805969E-08  0.10566000000E+00  0.10566000000E+00 0.  1.
     999900   -1    0    0    0    0 -0.00000000000E+00 -0.00000000000E+00 -0.74505805969E-08  0.93827000000E+00  0.93827000000E+00 0.  1.
     999902    2    1    2    0    0 -0.13611251774E-01 -0.17377522839E-01 -0.45250928998E-02  0.10213973361E+01  0.10211487636E+01 0.  0.
     999903    2    3    3    0    0 -0.10305191934E+00  0.69831067004E-01  0.37706106973E-01  0.13157238403E+00  0.19835970775E-01 0.  0.
         14    1    1    2    0    0  0.13611251774E-01  0.17377522839E-01  0.45250928998E-02  0.22532663860E-01  0.00000000000E+00 0.  1.
     999901    1    3    3    0    0  0.89440667570E-01 -0.87208589843E-01 -0.42231199872E-01  0.88982495211E+00  0.88000000000E+00 0. -1.
        -11    1    4    4    0    0 -0.88192591612E-01  0.51158308752E-01  0.33608973403E-01  0.10735422667E+00  0.51100000000E-03 0. -1.
         11    1    4    4    0    0 -0.14859327731E-01  0.18672758252E-01  0.40971335699E-02  0.24218157359E-01  0.51100000000E-03 0.  1.
</event>
<event>
 8    1  0.1123361E+005  0.1043930E+01  0.7957747E-01            NaN
         13   -1    0    0    0    0  0.00000000000E+00  0.00000000000E+00  0.74505805969E-08  0.10566000000E+00  0.10566000000E+00 0.  1.
     999900   -1    0    0    0    0 -0.00000000000E+00 -0.00000000000E+00 -0.74505805969E-08  0.93827000000E+00  0.93827000000E+00 0. -1.
     999902    2    1    2    0    0 -0.11983303271E-01 -0.20280226975E-01 -0.34461273220E-02  0.10201232162E+01  0.10198453869E+01 0.  0.
     999903    2    3    3    0    0 -0.11065483803E+00 -0.60482740314E-01  0.36339739254E-01  0.13280409147E+00  0.20339493799E-01 0.  0.
         14    1    1    2    0    0  0.11983303271E-01  0.20280226975E-01  0.34461273220E-02  0.23806783843E-01  0.00000000000E+00 0.  1.
     999901    1    3    3    0    0  0.98671534758E-01  0.40202513339E-01 -0.39785866576E-01  0.88731912468E+00  0.88000000000E+00 0. -1.
        -11    1    4    4    0    0 -0.31063853054E-01 -0.15804312146E-01  0.19655184973E-01  0.40016579892E-01  0.51100000000E-03 0. -1.
         11    1    4    4    0    0 -0.79590984975E-01 -0.44678428168E-01  0.16684554280E-01  0.92787511581E-01  0.51100000000E-03 0.  1.
</event>
<event>
 8    1  0.1123361E+005  0.1043930E+01  0.7957747E-01            NaN
         13   -1    0    0    0    0  0.00000000000E+00  0.00000000000E+00  0.74505805969E-08  0.10566000000E+00  0.10566000000E+00 0. -1.
     999900   -1    0    0    0    0 -0.00000000000E+00 -0.00000000000E+00 -0.74505805969E-08  0.93827000000E+00  0.93827000000E+00 0. -1.
     999902    2    1    2    0    0 -0.23353811822E-01  0.51876394935E-03  0.39777255414E-02  0.10202341788E+01  0.10199589637E+01 0.  0.
     999903    2    3    3    0    0 -0.43956704372E-01 -0.11920228406E+00 -0.27414521717E-01  0.13133425095E+00  0.18861417971E-01 0.  0.
         14    1    1    2    0    0  0.23353811822E-01 -0.51876394935E-03 -0.39777255414E-02  0.23695821217E-01  0.00000000000E+00 0.  1.
     999901    1    3    3    0    0  0.20602892550E-01  0.11972104801E+00  0.31392247258E-01  0.88889992783E+00  0.88000000000E+00 0.  1.
        -11    1    4    4    0    0 -0.38084093513E-01 -0.79435930203E-01 -0.21709932929E-01  0.90730631513E-01  0.51100000000E-03 0.  1.
         11    1    4    4    0    0 -0.58726108588E-02 -0.39766353852E-01 -0.57045887875E-02  0.40603619435E-01  0.51100000000E-03 0. -1.
</event>
<event>
 8    1  0.1123361E+005  0.1043930E+01  0.7957747E-01            NaN
         13   -1    0    0    0    0  0.00000000000E+00  0.00000000000E+00  0.74505805969E-08  0.10566000000E+00  0.10566000000E+00 0. -1.
     999900   -1    0    0    0    0 -0.00000000000E+00 -0.00000000000E+00 -0.74505805969E-08  0.93827000000E+00  0.93827000000E+00 0.  1.
     999902    2    1    2    0    0  0.69897543362E-02 -0.83637542397E-02 -0.14369582767E-01  0.10258940925E+01  0.10257355386E+01 0.  0.
     999903    2    3    3    0    0 -0.28447366669E-02  0.12542539889E+00  0.42567526364E-01  0.13390861666E+00  0.19491026196E-01 0.  0.
         14    1    1    2    0    0 -0.69897543362E-02  0.83637542397E-02  0.14369582767E-01  0.18035907506E-01  0.00000000000E+00 0. -1.
     999901    1    3    3    0    0  0.98344910030E-02 -0.13378915313E+00 -0.56937109130E-01  0.89198547584E+00  0.88000000000E+00 0.  1.
        -11    1    4    4    0    0 -0.21201521870E-02  0.38104900133E-01  0.37704676744E-02  0.38353044298E-01  0.51100000000E-03 0.  1.
         11    1    4    4    0    0 -0.72458447982E-03  0.87320498753E-01  0.38797058689E-01  0.95555572360E-01  0.51100000000E-03 0. -1.
</event>
<event>
 8    1  0.1123361E+005  0.1043930E+01  0.7957747E-01            NaN
         13   -1    0    0    0    0  0.00000000000E+00  0.00000000000E+00  0.74505805969E-08  0.10566000000E+00  0.10566000000E+00 0.  1.
     999900   -1    0    0    0    0 -0.00000000000E+00 -0.00000000000E+00 -0.74505805969E-08  0.93827000000E+00  0.93827000000E+00 0.  1.
     999902    2    1    2    0    0  0.71110250451E-02  0.22357081586E-01 -0.48381023349E-02  0.10199756057E+01  0.10196942792E+01 0.  0.
     999903    2    3    3    0    0 -0.12611329900E+00  0.14236810027E-01  0.14751223710E-01  0.12969564911E+00  0.22273568508E-01 0.  0.
         14    1    1    2    0    0 -0.71110250451E-02 -0.22357081586E-01  0.48381023349E-02  0.23954394345E-01  0.00000000000E+00 0.  1.
     999901    1    3    3    0    0  0.13322432404E+00  0.81202715589E-02 -0.19589326045E-01  0.89027995654E+00  0.88000000000E+00 0. -1.
        -11    1    4    4    0    0 -0.44427040117E-01  0.11098427937E-01  0.14198163206E-01  0.47945656275E-01  0.51100000000E-03 0.  1.
         11    1    4    4    0    0 -0.81686258880E-01  0.31383820900E-02  0.55306050331E-03  0.81749992837E-01  0.51100000000E-03 0. -1.
</event>
<event>
 8    1  0.1123361E+005  0.1043930E+01  0.7957747E-01            NaN
         13   -1    0    0    0    0  0.00000000000E+00  0.00000000000E+00  0.74505805969E-08  0.10566000000E+00  0.10566000000E+00 0. -1.
     999900   -1    0    0    0    0 -0.00000000000E+00 -0.00000000000E+00 -0.74505805969E-08  0.93827000000E+00  0.93827000000E+00 0. -1.
     999902    2    1    2    0    0 -0.14798364540E-01  0.54649129530E-02 -0.17570665912E-01  0.10203167586E+01  0.10200434808E+01 0.  0.
     999903    2    3    3    0    0 -0.44136515594E-01  0.12036796582E+00 -0.25489353222E-01  0.13232681260E+00  0.20596091913E-01 0.  0.
         14    1    1    2    0    0  0.14798364540E-01 -0.54649129530E-02  0.17570665912E-01  0.23613241354E-01  0.00000000000E+00 0. -1.
     999901    1    3    3    0    0  0.29338151054E-01 -0.11490305286E+00  0.79186873100E-02  0.88798994604E+00  0.88000000000E+00 0. -1.
        -11    1    4    4    0    0 -0.38842499848E-01  0.84905220890E-01 -0.24150612274E-01  0.96442467425E-01  0.51100000000E-03 0. -1.
         11    1    4    4    0    0 -0.52940157461E-02  0.35462744927E-01 -0.13387409481E-02  0.35884345177E-01  0.51100000000E-03 0.  1.
</event>
<event>
 8    1  0.1123361E+005  0.1043930E+01  0.7957747E-01            NaN
         13   -1    0    0    0    0  0.00000000000E+00  0.00000000000E+00  0.74505805969E-08  0.10566000000E+00  0.10566000000E+00 0.  1.
     999900   -1    0    0    0    0 -0.00000000000E+00 -0.00000000000E+00 -0.74505805969E-08  0.93827000000E+00  0.93827000000E+00 0. -1.
     999902    2    1    2    0    0 -0.34049474848E-02  0.78186227786E-02 -0.23587401678E-01  0.10188483324E+01  0.10185395596E+01 0.  0.
     999903    2    3    3    0    0  0.41493056741E-01  0.16945287746E-01 -0.12266977003E+00  0.13210347482E+00  0.19865524090E-01 0.  0.
         14    1    1    2    0    0  0.34049474848E-02 -0.78186227786E-02  0.23587401678E-01  0.25081667557E-01  0.00000000000E+00 0.  1.
     999901    1    3    3    0    0 -0.44898004226E-01 -0.91266649675E-02  0.99082368350E-01  0.88674485762E+00  0.88000000000E+00 0. -1.
        -11    1    4    4    0    0  0.29581641917E-01  0.61022666155E-02 -0.57288087177E-01  0.64764938430E-01  0.51100000000E-03 0.  1.
         11    1    4    4    0    0  0.11911414824E-01  0.10843021131E-01 -0.65381682851E-01  0.67338536394E-01  0.51100000000E-03 0. -1.
</event>
<event>
 7    1  0.1123361E+005  0.1043930E+01  0.7957747E-01            NaN
         13   -1    0    0    0    0  0.00000000000E+00  0.00000000000E+00  0.74505805969E-08  0.10566000000E+00  0.10566000000E+00 0.  1.
     999900   -1    0    0    0    0 -0.00000000000E+00 -0.00000000000E+00 -0.74505805969E-08  0.93827000000E+00  0.93827000000E+00 0. -1.
     999902    2    1    2    0    0 -0.15624445703E-01  0.14121306589E-01  0.93863630961E-02  0.10208727145E+01  0.10206122970E+01 0.  0.
         14    1    1    2    0    0  0.15624445703E-01 -0.14121306589E-01 -0.93863630961E-02  0.23057285518E-01  0.00000000000E+00 0. -1.
     999901    1    3    3    0    0  0.25295011817E-01  0.66459258489E-01 -0.99533487737E-01  0.88846135867E+00  0.88000000000E+00 0. -1.
        -11    1    3    3    0    0 -0.46308958121E-01 -0.41669164870E-01  0.82243150474E-01  0.10317478289E+00  0.51100000000E-03 0.  1.
         11    1    3    3    0    0  0.53895006015E-02 -0.10668787031E-01  0.26676700359E-01  0.29236572927E-01  0.51100000000E-03 0. -1.
</event>
<event>
 8    1  0.1123361E+005  0.1043930E+01  0.7957747E-01            NaN
         13   -1    0    0    0    0  0.00000000000E+00  0.00000000000E+00  0.74505805969E-08  0.10566000000E+00  0.10566000000E+00 0. -1.
     999900   -1    0    0    0    0 -0.00000000000E+00 -0.00000000000E+00 -0.74505805969E-08  0.93827000000E+00  0.93827000000E+00 0. -1.
     999902    2    1    2    0    0 -0.16478941058E-02  0.12414766377E-01  0.19132753437E-01  0.10210629006E+01  0.10208068097E+01 0.  0.
     999903    2    3    3    0    0 -0.79930620276E-01 -0.34783488579E-01  0.98220670778E-01  0.13280012468E+00  0.19742791359E-01 0.  0.
         14    1    1    2    0    0  0.16478941058E-02 -0.12414766377E-01 -0.19132753437E-01  0.22867099363E-01  0.00000000000E+00 0.  1.
     999901    1    3    3    0    0  0.78282726170E-01  0.47198254955E-01 -0.79087917341E-01  0.88826277596E+00  0.88000000000E+00 0. -1.
        -11    1    4    4    0    0 -0.46184636072E-01 -0.25981697217E-01  0.47008468569E-01  0.70838735432E-01  0.51100000000E-03 0.  1.
         11    1    4    4    0    0 -0.33745984204E-01 -0.88017913620E-02  0.51212202209E-01  0.61961389245E-01  0.51100000000E-03 0. -1.
</event>
<event>
 8    1  0.1123361E+005  0.1043930E+01  0.7957747E-01            NaN
         13   -1    0    0    0    0  0.00000000000E+00  0.00000000000E+00  0.74505805969E-08  0.10566000000E+00  0.10566000000E+00 0. -1.
     999900   -1    0    0    0    0 -0.00000000000E+00 -0.00000000000E+00 -0.74505805969E-08  0.93827000000E+00  0.93827000000E+00 0. -1.
     999902    2    1    2    0    0  0.15155945106E-02 -0.20739077076E-01  0.35097987040E-02  0.10228414953E+01  0.10226240753E+01 0.  0.
     999903    2    3    3    0    0 -0.66437974495E-02 -0.13342106340E+00 -0.11809828552E-01  0.13548672028E+00  0.19283649024E-01 0.  0.
         14    1    1    2    0    0 -0.15155945106E-02  0.20739077076E-01 -0.35097987040E-02  0.21088504727E-01  0.00000000000E+00 0. -1.
     999901    1    3    3    0    0  0.81593919601E-02  0.11268198632E+00  0.15319627256E-01  0.88735477499E+00  0.88000000000E+00 0.  1.
        -11    1    4    4    0    0 -0.10911597888E-01 -0.42814109572E-01 -0.60118347603E-02  0.44592759783E-01  0.51100000000E-03 0. -1.
         11    1    4    4    0    0  0.42678004384E-02 -0.90606953826E-01 -0.57979937922E-02  0.90893960499E-01  0.51100000000E-03 0.  1.
</event>
<event>
 8    1  0.1123361E+005  0.1043930E+01  0.7957747E-01            NaN
         13   -1    0    0    0    0  0.00000000000E+00  0.00000000000E+00  0.74505805969E-08  0.10566000000E+00  0.10566000000E+00 0. -1.
     999900   -1    0    0    0    0 -0.00000000000E+00 -0.00000000000E+00 -0.74505805969E-08  0.93827000000E+00  0.93827000000E+00 0.  1.
     999902    2    1    2    0    0 -0.90797458679E-02  0.13427448151E-01  0.17906977046E-01  0.10197763672E+01  0.10194902850E+01 0.  0.
     999903    2    3    3    0    0  0.13431034561E-01  0.73374703944E-01  0.10816975576E+00  0.13284470249E+00  0.19564739951E-01 0.  0.
         14    1    1    2    0    0  0.90797458679E-02 -0.13427448151E-01 -0.17906977046E-01  0.24153632766E-01  0.00000000000E+00 0.  1.
     999901    1    3    3    0    0 -0.22510780429E-01 -0.59947255794E-01 -0.90262778712E-01  0.88693166475E+00  0.88000000000E+00 0.  1.
        -11    1    4    4    0    0 -0.19822225100E-03  0.49933067629E-01  0.67566700786E-01  0.84017085828E-01  0.51100000000E-03 0. -1.
         11    1    4    4    0    0  0.13629256812E-01  0.23441636315E-01  0.40603054972E-01  0.48827616657E-01  0.51100000000E-03 0.  1.
</event>
<event>
 8    1  0.1123361E+005  0.1043930E+01  0.7957747E-01            NaN
         13   -1    0    0    0    0  0.00000000000E+00  0.00000000000E+00  0.74505805969E-08  0.10566000000E+00  0.10566000000E+00 0.  1.
     999900   -1    0    0    0    0 -0.00000000000E+00 -0.00000000000E+00 -0.74505805969E-08  0.93827000000E+00  0.93827000000E+00 0. -1.
     999902    2    1    2    0    0 -0.20516108179E-01 -0.11328281757E-01  0.25401035731E-02  0.10203568630E+01  0.10200845235E+01 0.  0.
     999903    2    3    3    0    0  0.10621981106E+00  0.32231576464E-01 -0.60425644439E-01  0.12798690613E+00  0.20195713713E-01 0.  0.
         14    1    1    2    0    0  0.20516108179E-01  0.11328281757E-01 -0.25401035731E-02  0.23573137010E-01  0.00000000000E+00 0.  1.
     999901    1    3    3    0    0 -0.12673591924E+00 -0.43559858220E-01  0.62965748012E-01  0.89236995685E+00  0.88000000000E+00 0. -1.
        -11    1    4    4    0    0  0.45033707437E-01  0.22709728116E-01 -0.32902028487E-01  0.60221019222E-01  0.51100000000E-03 0.  1.
         11    1    4    4    0    0  0.61186103626E-01  0.95218483473E-02 -0.27523615952E-01  0.67765886912E-01  0.51100000000E-03 0. -1.
</event>
<event>
 8    1  0.1123361E+005  0.1043930E+01  0.7957747E-01            NaN
         13   -1    0    0    0    0  0.00000000000E+00  0.00000000000E+00  0.74505805969E-08  0.10566000000E+00  0.10566000000E+00 0.  1.
     999900   -1    0    0    0    0 -0.00000000000E+00 -0.00000000000E+00 -0.74505805969E-08  0.93827000000E+00  0.93827000000E+00 0.  1.
     999902    2    1    2    0    0  0.18299975403E-01  0.19961651281E-01  0.43704277809E-02  0.10164990456E+01  0.10161288562E+01 0.  0.
     999903    2    3    3    0    0  0.12755121653E+00  0.34108027541E-02 -0.92863771397E-02  0.12948367221E+00  0.19970932746E-01 0.  0.
         14    1    1    2    0    0 -0.18299975403E-01 -0.19961651281E-01 -0.43704277809E-02  0.27430954424E-01  0.00000000000E+00 0. -1.
     999901    1    3    3    0    0 -0.10925124112E+00  0.16550848527E-01  0.13656804921E-01  0.88701537337E+00  0.88000000000E+00 0.  1.
        -11    1    4    4    0    0  0.74876674605E-01 -0.77355724814E-02 -0.40393602698E-02  0.75385230874E-01  0.51100000000E-03 0. -1.
         11    1    4    4    0    0  0.52674541921E-01  0.11146375235E-01 -0.52470168700E-02  0.54098441332E-01  0.51100000000E-03 0.  1.
</event>
<event>
 8    1  0.1123361E+005  0.1043930E+01  0.7957747E-01            NaN
         13   -1    0    0    0    0  0.00000000000E+00  0.00000000000E+00  0.74505805969E-08  0.10566000000E+00  0.10566000000E+00 0. -1.
     999900   -1    0    0    0    0 -0.00000000000E+00 -0.00000000000E+00 -0.74505805969E-08  0.93827000000E+00  0.93827000000E+00 0. -1.
     999902    2    1    2    0    0  0.44436740353E-02  0.11710856200E-01  0.20534874487E-01  0.10198764875E+01  0.10195928003E+01 0.  0.
     999903    2    3    3    0    0 -0.42028076486E-01  0.11523374492E+00  0.45661644172E-01  0.13223468667E+00  0.18864024717E-01 0.  0.
         14    1    1    2    0    0 -0.44436740353E-02 -0.11710856200E-01 -0.20534874487E-01  0.24053512468E-01  0.00000000000E+00 0.  1.
     999901    1    3    3    0    0  0.46471750521E-01 -0.10352288872E+00 -0.25126769685E-01  0.88764180086E+00  0.88000000000E+00 0.  1.
        -11    1    4    4    0    0 -0.29251637649E-01  0.69985332665E-01  0.19065093003E-01  0.78213451436E-01  0.51100000000E-03 0. -1.
         11    1    4    4    0    0 -0.12776438837E-01  0.45248412255E-01  0.26596551169E-01  0.54021235232E-01  0.51100000000E-03 0.  1.
</event>
<event>
 8    1  0.1123361E+005  0.1043930E+01  0.7957747E-01            NaN
         13   -1    0    0    0    0  0.00000000000E+00  0.00000000000E+00  0.74505805969E-08  0.10566000000E+00  0.10566000000E+00 0.  1.
     999900   -1    0    0    0    0 -0.00000000000E+00 -0.00000000000E+00 -0.74505805969E-08  0.93827000000E+00  0.93827000000E+00 0.  1.
     999902    2    1    2    0    0  0.16691334222E-01  0.17167731572E-01 -0.29395131872E-02  0.10198058962E+01  0.10195205214E+01 0.  0.
     999903    2    3    3    0    0 -0.51198766545E-01 -0.11456638012E+00  0.60841862400E-02  0.12736857679E+00  0.20951560315E-01 0.  0.
         14    1    1    2    0    0 -0.16691334222E-01 -0.17167731572E-01  0.29395131872E-02  0.24124103781E-01  0.00000000000E+00 0.  1.
     999901    1    3    3    0    0  0.67890100767E-01  0.13173411170E+00 -0.90236994272E-02  0.89243731943E+00  0.88000000000E+00 0. -1.
        -11    1    4    4    0    0 -0.38655596747E-01 -0.99086762552E-01 -0.55202604674E-03  0.10636262279E+00  0.51100000000E-03 0.  1.
         11    1    4    4    0    0 -0.12543169798E-01 -0.15479617573E-01  0.66362122867E-02  0.21005953996E-01  0.51100000000E-03 0. -1.
</event>
<event>
 8    1  0.1123361E+005  0.1043930E+01  0.7957747E-01            NaN
         13   -1    0    0    0    0  0.00000000000E+00  0.00000000000E+00  0.74505805969E-08  0.10566000000E+00  0.10566000000E+00 0.  1.
     999900   -1    0    0    0    0 -0.00000000000E+00 -0.00000000000E+00 -0.74505805969E-08  0.93827000000E+00  0.93827000000E+00 0. -1.
     999902    2    1    2    0    0 -0.62636068660E-02  0.17319852616E-01 -0.13215696663E-01  0.10212614159E+01  0.10210098016E+01 0.  0.
     999903    2    3    3    0    0  0.92093324934E-01  0.19038774492E-01 -0.91194885749E-01  0.13235321220E+00  0.18900004252E-01 0.  0.
         14    1    1    2    0    0  0.62636068660E-02 -0.17319852616E-01  0.13215696663E-01  0.22668584074E-01  0.00000000000E+00 0.  1.
     999901    1    3    3    0    0 -0.98356931800E-01 -0.17189218757E-02  0.77979189086E-01  0.88890820373E+00  0.88000000000E+00 0. -1.
        -11    1    4    4    0    0  0.38904110414E-01  0.11980178193E-01 -0.27790629238E-01  0.49291324502E-01  0.51100000000E-03 0. -1.
         11    1    4    4    0    0  0.53189214520E-01  0.70585962987E-02 -0.63404256511E-01  0.83061887696E-01  0.51100000000E-03 0.  1.
</event>
<event>
 8    1  0.1123361E+005  0.1043930E+01  0.7957747E-01            NaN
         13   -1    0    0    0    0  0.00000000000E+00  0.00000000000E+00  0.74505805969E-08  0.10566000000E+00  0.10566000000E+00 0. -1.
     999900   -1    0    0    0    0 -0.00000000000E+00 -0.00000000000E+00 -0.74505805969E-08  0.93827000000E+00  0.93827000000E+00 0.  1.
     999902    2    1    2    0    0  0.76279039113E-02  0.94939340000E-03 -0.20623881235E-01  0.10219202126E+01  0.10216831652E+01 0.  0.
     999903    2    3    3    0    0  0.23947653758E-01  0.12740384106E+00 -0.20078873103E-01  0.13273105462E+00  0.20227280509E-01 0.  0.
         14    1    1    2    0    0 -0.76279039113E-02 -0.94939340000E-03  0.20623881235E-01  0.22009787439E-01  0.00000000000E+00 0. -1.
     999901    1    3    3    0    0 -0.16319749847E-01 -0.12645444766E+00 -0.54500813190E-03  0.88918915794E+00  0.88000000000E+00 0.  1.
        -11    1    4    4    0    0  0.25955513808E-01  0.10227016468E+00 -0.20604454983E-01  0.10750665080E+00  0.51100000000E-03 0. -1.
         11    1    4    4    0    0 -0.20078600498E-02  0.25133676385E-01  0.52558188017E-03  0.25224403817E-01  0.51100000000E-03 0.  1.
</event>
<event>
 8    1  0.1123361E+005  0.1043930E+01  0.7957747E-01            NaN
         13   -1    0    0    0    0  0.00000000000E+00  0.00000000000E+00  0.74505805969E-08  0.10566000000E+00  0.10566000000E+00 0. -1.
     999900   -1    0    0    0    0 -0.00000000000E+00 -0.00000000000E+00 -0.74505805969E-08  0.93827000000E+00  0.93827000000E+00 0.  1.
     999902    2    1    2    0    0  0.73473807742E-02  0.56594772505E-02  0.20214874720E-01  0.10216891626E+01  0.10214470570E+01 0.  0.
     999903    2    3    3    0    0 -0.12534637128E+00 -0.31444122974E-01  0.53352445657E-02  0.13084365842E+00  0.19777574408E-01 0.  0.
         14    1    1    2    0    0 -0.73473807742E-02 -0.56594772505E-02 -0.20214874720E-01  0.22240837370E-01  0.00000000000E+00 0.  1.
     999901    1    3    3    0    0  0.13269375206E+00  0.37103600225E-01  0.14879630154E-01  0.89084550421E+00  0.88000000000E+00 0.  1.
        -11    1    4    4    0    0 -0.53159537481E-01 -0.21671915543E-01 -0.31970251711E-02  0.57498612500E-01  0.51100000000E-03 0.  1.
         11    1    4    4    0    0 -0.72186833803E-01 -0.97722074317E-02  0.85322697368E-02  0.73345045916E-01  0.51100000000E-03 0. -1.
</event>
<event>
 8    1  0.1123361E+005  0.1043930E+01  0.7957747E-01            NaN
         13   -1    0    0    0    0  0.00000000000E+00  0.00000000000E+00  0.74505805969E-08  0.10566000000E+00  0.10566000000E+00 0. -1.
     999900   -1    0    0    0    0 -0.00000000000E+00 -0.00000000000E+00 -0.74505805969E-08  0.93827000000E+00  0.93827000000E+00 0.  1.
     999902    2    1    2    0    0 -0.33859423871E-02 -0.11877336599E-01  0.17808976779E-01  0.10222575432E+01  0.10220277830E+01 0.  0.
     999903    2    3    3    0    0 -0.19114767222E-02 -0.11087514635E+00 -0.70001332191E-01  0.13236238602E+00  0.17962820000E-01 0.  0.
         14    1    1    2    0    0  0.33859423871E-02  0.11877336599E-01 -0.17808976779E-01  0.21672456816E-01  0.00000000000E+00 0.  1.
     999901    1    3    3    0    0 -0.14744656649E-02  0.98997809752E-01  0.87810308970E-01  0.88989515717E+00  0.88000000000E+00 0. -1.
        -11    1    4    4    0    0  0.49503017101E-02 -0.15395908604E-01 -0.62266950684E-02  0.17337022272E-01  0.51100000000E-03 0.  1.
         11    1    4    4    0    0 -0.68617784323E-02 -0.95479237747E-01 -0.63774637122E-01  0.11502536375E+00  0.51100000000E-03 0. -1.
</event>
<event>
 8    1  0.1123361E+005  0.1043930E+01  0.7957747E-01            NaN
         13   -1    0    0    0    0  0.00000000000E+00  0.00000000000E+00  0.74505805969E-08  0.10566000000E+00  0.10566000000E+00 0. -1.
     999900   -1    0    0    0    0 -0.00000000000E+00 -0.00000000000E+00 -0.74505805969E-08  0.93827000000E+00  0.93827000000E+00 0. -1.
     999902    2    1    2    0    0  0.24798668151E-01 -0.11300899728E-02 -0.50363555196E-02  0.10185998614E+01  0.10182848627E+01 0.  0.
     999903    2    3    3    0    0 -0.79660422032E-01 -0.70200014722E-02 -0.97349949565E-01  0.12760704872E+00  0.20285042336E-01 0.  0.
         14    1    1    2    0    0 -0.24798668151E-01  0.11300899728E-02  0.50363555196E-02  0.25330138617E-01  0.00000000000E+00 0. -1.
     999901    1    3    3    0    0  0.10445909018E+00  0.58899114994E-02  0.92313594046E-01  0.89099281267E+00  0.88000000000E+00 0. -1.
        -11    1    4    4    0    0 -0.32971416530E-01 -0.85950856973E-02 -0.28614320945E-01  0.44497531283E-01  0.51100000000E-03 0.  1.
         11    1    4    4    0    0 -0.46689005503E-01  0.15750842250E-02 -0.68735628620E-01  0.83109517433E-01  0.51100000000E-03 0. -1.
</event>
<event>
 8    1  0.1123361E+005  0.1043930E+01  0.7957747E-01            NaN
         13   -1    0    0    0    0  0.00000000000E+00  0.00000000000E+00  0.74505805969E-08  0.10566000000E+00  0.10566000000E+00 0.  1.
     999900   -1    0    0    0    0 -0.00000000000E+00 -0.00000000000E+00 -0.74505805969E-08  0.93827000000E+00  0.93827000000E+00 0. -1.
     999902    2    1    2    0    0 -0.11315110530E-01 -0.17371402420E-01 -0.13820024490E-01  0.10190143337E+01  0.10187096848E+01 0.  0.
     999903    2    3    3    0    0  0.28357209950E-01 -0.12858853345E-02 -0.12630680949E+00  0.13082183564E+00  0.18845628124E-01 0.  0.
         14    1    1    2    0    0  0.11315110530E-01  0.17371402420E-01  0.13820024490E-01  0.24915666262E-01  0.00000000000E+00 0. -1.
     999901    1    3    3    0    0 -0.39672320480E-01 -0.16085517086E-01  0.11248678500E+00  0.88819249810E+00  0.88000000000E+00 0.  1.
        -11    1    4    4    0    0  0.93800687533E-02 -0.72952143372E-02 -0.72077607928E-01  0.73052368392E-01  0.51100000000E-03 0. -1.
         11    1    4    4    0    0  0.18977141197E-01  0.60093290026E-02 -0.54229201565E-01  0.57769467251E-01  0.51100000000E-03 0.  1.
</event>
<event>
 8    1  0.1123361E+005  0.1043930E+01  0.7957747E-01            NaN
         13   -1    0    0    0    0  0.00000000000E+00  0.00000000000E+00  0.74505805969E-08  0.10566000000E+00  0.10566000000E+00 0.  1.
     999900   -1    0    0    0    0 -0.00000000000E+00 -0.00000000000E+00 -0.74505805969E-08  0.93827000000E+00  0.93827000000E+00 0.  1.
     999902    2    1    2    0    0  0.13428205162E-01 -0.15289709619E-01 -0.12343444421E-01  0.10201297367E+01  0.10198520614E+01 0.  0.
     999903    2    3    3    0    0 -0.12431244053E+00  0.23044652812E-01  0.83639028301E-02  0.12835016579E+00  0.20473673177E-01 0.  0.
         14    1    1    2    0    0 -0.13428205162E-01  0.15289709619E-01  0.12343444421E-01  0.23800263324E-01  0.00000000000E+00 0. -1.
     999901    1    3    3    0    0  0.13774064570E+00 -0.38334362431E-01 -0.20707347251E-01  0.89177957089E+00  0.88000000000E+00 0.  1.
        -11    1    4    4    0    0 -0.80344290286E-01  0.22184658888E-01 -0.11188629192E-02  0.83359924705E-01  0.51100000000E-03 0. -1.
         11    1    4    4    0    0 -0.43968150247E-01  0.85999392408E-03  0.94827657493E-02  0.44990241086E-01  0.51100000000E-03 0.  1.
</event>
<event>
 8    1  0.1123361E+005  0.1043930E+01  0.7957747E-01            NaN
         13   -1    0    0    0    0  0.00000000000E+00  0.00000000000E+00  0.74505805969E-08  0.10566000000E+00  0.10566000000E+00 0.  1.
     999900   -1    0    0    0    0 -0.00000000000E+00 -0.00000000000E+00 -0.74505805969E-08  0.93827000000E+00  0.93827000000E+00 0. -1.
     999902    2    1    2    0    0  0.19027657153E-02 -0.43193308040E-02  0.24931280703E-01  0.10185558814E+01  0.10182397742E+01 0.  0.
     999903    2    3    3    0    0  0.74966250689E-01  0.23044593545E-01  0.10372411087E+00  0.13159738900E+00  0.20203702210E-01 0.  0.
         14    1    1    2    0    0 -0.19027657153E-02  0.43193308040E-02 -0.24931280703E-01  0.25374118575E-01  0.00000000000E+00 0. -1.
     999901    1    3    3    0    0 -0.73063484974E-01 -0.27363924349E-01 -0.78792830167E-01  0.88695849242E+00  0.88000000000E+00 0. -1.
        -11    1    4    4    0    0  0.19892003114E-01  0.79744841884E-02  0.15292797107E-01  0.26332773313E-01  0.51100000000E-03 0. -1.
         11    1    4    4    0    0  0.55074247574E-01  0.15070109357E-01  0.88431313762E-01  0.10526461569E+00  0.51100000000E-03 0.  1.
</event>
<event>
 8    1  0.1123361E+005  0.1043930E+01  0.7957747E-01            NaN
         13   -1    0    0    0    0  0.00000000000E+00  0.00000000000E+00  0.74505805969E-08  0.10566000000E+00  0.10566000000E+00 0.  1.
     999900   -1    0    0    0    0 -0.00000000000E+00 -0.00000000000E+00 -0.74505805969E-08  0.93827000000E+00  0.93827000000E+00 0.  1.
     999902    2    1    2    0    0 -0.14261364729E-01  0.13526933085E-01 -0.13477772290E-01  0.10200969392E+01  0.10198184890E+01 0.  0.
     999903    2    3    3    0    0 -0.12761993379E+00  0.51300215295E-02  0.26061304170E-01  0.13190551168E+00  0.20166998143E-01 0.  0.
         14    1    1    2    0    0  0.14261364729E-01 -0.13526933085E-01  0.13477772290E-01  0.23833060830E-01  0.00000000000E+00 0. -1.
     999901    1    3    3    0    0  0.11335856906E+00  0.83969115553E-02 -0.39539076460E-01  0.88819142749E+00  0.88000000000E+00 0. -1.
        -11    1    4    4    0    0 -0.59038080149E-01  0.11266356228E-01  0.73684240683E-02  0.60555598292E-01  0.51100000000E-03 0. -1.
         11    1    4    4    0    0 -0.68581853643E-01 -0.61363346981E-02  0.18692880102E-01  0.71349913386E-01  0.51100000000E-03 0.  1.
</event>
<event>
 8    1  0.1123361E+005  0.1043930E+01  0.7957747E-01            NaN
         13   -1    0    0    0    0  0.00000000000E+00  0.00000000000E+00  0.74505805969E-08  0.10566000000E+00  0.10566000000E+00 0.  1.
     999900   -1    0    0    0    0 -0.00000000000E+00 -0.00000000000E+00 -0.74505805969E-08  0.93827000000E+00  0.93827000000E+00 0. -1.
     999902    2    1    2    0    0 -0.89893193584E-02  0.59185556795E-02 -0.20359259869E-01  0.10209009612E+01  0.10206411887E+01 0.  0.
     999903    2    3    3    0    0 -0.66362102431E-01  0.11241986775E+00  0.12470862129E-01  0.13201852659E+00  0.15205711330E-01 0.  0.
         14    1    1    2    0    0  0.89893193584E-02 -0.59185556795E-02  0.20359259869E-01  0.23029038761E-01  0.00000000000E+00 0. -1.
     999901    1    3    3    0    0  0.57372783073E-01 -0.10650131207E+00 -0.32830121998E-01  0.88888243465E+00  0.88000000000E+00 0.  1.
        -11    1    4    4    0    0 -0.34055903671E-01  0.65522412669E-01  0.13444519290E-01  0.75060025025E-01  0.51100000000E-03 0.  1.
         11    1    4    4    0    0 -0.32306198760E-01  0.46897455084E-01 -0.97365716079E-03  0.56958501568E-01  0.51100000000E-03 0. -1.
</event>
<event>
 8    1  0.1123361E+005  0.1043930E+01  0.7957747E-01            NaN
         13   -1    0    0    0    0  0.00000000000E+00  0.00000000000E+00  0.74505805969E-08  0.10566000000E+00  0.10566000000E+00 0.  1.
     999900   -1    0    0    0    0 -0.00000000000E+00 -0.00000000000E+00 -0.74505805969E-08  0.93827000000E+00  0.93827000000E+00 0.  1.
     999902    2    1    2    0    0 -0.15276754848E-01 -0.87871557798E-02 -0.93622244541E-02  0.10239739335E+01  0.10237794547E+01 0.  0.
     999903    2    3    3    0    0  0.61832281779E-01  0.27813023249E-01 -0.11347112108E+00  0.13373574117E+00  0.20316441978E-01 0.  0.
         14    1    1    2    0    0  0.15276754848E-01  0.87871557798E-02  0.93622244541E-02  0.19956066549E-01  0.00000000000E+00 0.  1.
     999901    1    3    3    0    0 -0.77109036626E-01 -0.36600179029E-01  0.10410889663E+00  0.89023819228E+00  0.88000000000E+00 0.  1.
        -11    1    4    4    0    0  0.22046184253E-01  0.18695311453E-01 -0.36033262255E-01  0.46197467681E-01  0.51100000000E-03 0. -1.
         11    1    4    4    0    0  0.39786097526E-01  0.91177117958E-02 -0.77437858829E-01  0.87538273491E-01  0.51100000000E-03 0.  1.
</event>
<event>
 8    1  0.1123361E+005  0.1043930E+01  0.7957747E-01            NaN
         13   -1    0    0    0    0  0.00000000000E+00  0.00000000000E+00  0.74505805969E-08  0.10566000000E+00  0.10566000000E+00 0. -1.
     999900   -1    0    0    0    0 -0.00000000000E+00 -0.00000000000E+00 -0.74505805969E-08  0.93827000000E+00  0.93827000000E+00 0.  1.
     999902    2    1    2    0    0 -0.17776212098E-01 -0.13047457907E-01  0.88331831812E-02  0.10201759477E+01  0.10198993623E+01 0.  0.
     999903    2    3    3    0    0  0.53837523915E-01 -0.11631514827E+00 -0.17709369380E-01  0.13085190658E+00  0.19516838758E-01 0.  0.
         14    1    1    2    0    0  0.17776212098E-01  0.13047457907E-01 -0.88331831812E-02  0.23754052275E-01  0.00000000000E+00 0. -1.
     999901    1    3    3    0    0 -0.71613736013E-01  0.10326769036E+00  0.26542552561E-01  0.88932404114E+00  0.88000000000E+00 0. -1.
        -11    1    4    4    0    0  0.19280241562E-01 -0.64830153999E-01 -0.93677321969E-02  0.68283908132E-01  0.51100000000E-03 0. -1.
         11    1    4    4    0    0  0.34557282353E-01 -0.51484994266E-01 -0.83416371834E-02  0.62567998450E-01  0.51100000000E-03 0.  1.
</event>
<event>
 8    1  0.1123361E+005  0.1043930E+01  0.7957747E-01            NaN
         13   -1    0    0    0    0  0.00000000000E+00  0.00000000000E+00  0.74505805969E-08  0.10566000000E+00  0.10566000000E+00 0.  1.
     999900   -1    0    0    0    0 -0.00000000000E+00 -0.00000000000E+00 -0.74505805969E-08  0.93827000000E+00  0.93827000000E+00 0. -1.
     999902    2    1    2    0    0 -0.12335882649E-01  0.20053528823E-01  0.23063045943E-02  0.10202733506E+01  0.10199990554E+01 0.  0.
     999903    2    3    3    0    0  0.10608618753E-01 -0.62485421652E-01  0.11116675822E+00  0.12943681856E+00  0.19464612895E-01 0.  0.
         14    1    1    2    0    0  0.12335882649E-01 -0.20053528823E-01 -0.23063045943E-02  0.23656649380E-01  0.00000000000E+00 0. -1.
     999901    1    3    3    0    0 -0.22944501403E-01  0.82538950476E-01 -0.10886045362E+00  0.89083653206E+00  0.88000000000E+00 0.  1.
        -11    1    4    4    0    0  0.11721059447E-01 -0.23692803475E-01  0.34099867608E-01  0.43148514029E-01  0.51100000000E-03 0.  1.
         11    1    4    4    0    0 -0.11124406937E-02 -0.38792618177E-01  0.77066890610E-01  0.86288304530E-01  0.51100000000E-03 0. -1.
</event>
<event>
 8    1  0.1123361E+005  0.1043930E+01  0.7957747E-01            NaN
         13   -1    0    0    0    0  0.00000000000E+00  0.00000000000E+00  0.74505805969E-08  0.10566000000E+00  0.10566000000E+00 0.  1.
     999900   -1    0    0    0    0 -0.00000000000E+00 -0.00000000000E+00 -0.74505805969E-08  0.93827000000E+00  0.93827000000E+00 0. -1.
     999902    2    1    2    0    0  0.14773236107E-01  0.12077460650E-01 -0.13594503013E-01  0.10205008713E+01  0.10202318875E+01 0.  0.
     999903    2    3    3    0    0 -0.23595263695E-01  0.78532777609E-01  0.98854236305E-01  0.13003292131E+00  0.20304358193E-01 0.  0.
         14    1    1    2    0    0 -0.14773236107E-01 -0.12077460650E-01  0.13594503013E-01  0.23429128729E-01  0.00000000000E+00 0. -1.
     999901    1    3    3    0    0  0.38368499803E-01 -0.66455316960E-01 -0.11244873932E+00  0.89046794996E+00  0.88000000000E+00 0. -1.
        -11    1    4    4    0    0 -0.10759287930E-01  0.10042350344E-01  0.15346488439E-01  0.21269388933E-01  0.51100000000E-03 0. -1.
         11    1    4    4    0    0 -0.12835975766E-01  0.68490427266E-01  0.83507747866E-01  0.10876353238E+00  0.51100000000E-03 0.  1.
</event>
<event>
 8    1  0.1123361E+005  0.1043930E+01  0.7957747E-01            NaN
         13   -1    0    0    0    0  0.00000000000E+00  0.00000000000E+00  0.74505805969E-08  0.10566000000E+00  0.10566000000E+00 0. -1.
     999900   -1    0    0    0    0 -0.00000000000E+00 -0.00000000000E+00 -0.74505805969E-08  0.93827000000E+00  0.93827000000E+00 0. -1.
     999902    2    1    2    0    0  0.11204479970E-01  0.37456704126E-02  0.22487908942E-01  0.10185277074E+01  0.10182108889E+01 0.  0.
     999903    2    3    3    0    0  0.48326646355E-01 -0.21904366783E-01  0.11929401882E+00  0.13206992360E+00  0.19903159543E-01 0.  0.
         14    1    1    2    0    0 -0.11204479970E-01 -0.37456704126E-02 -0.22487908942E-01  0.25402292551E-01  0.00000000000E+00 0.  1.
     999901    1    3    3    0    0 -0.37122166384E-01  0.25650037195E-01 -0.96806109879E-01  0.88645778385E+00  0.88000000000E+00 0. -1.
        -11    1    4    4    0    0  0.35302842346E-01 -0.24610943778E-01  0.84796211852E-01  0.95092838305E-01  0.51100000000E-03 0. -1.
         11    1    4    4    0    0  0.13023804009E-01  0.27065769954E-02  0.34497806969E-01  0.36977085290E-01  0.51100000000E-03 0.  1.
</event>
<event>
 8    1  0.1123361E+005  0.1043930E+01  0.7957747E-01            NaN
         13   -1    0    0    0    0  0.00000000000E+00  0.00000000000E+00  0.74505805969E-08  0.10566000000E+00  0.10566000000E+00 0. -1.
     999900   -1    0    0    0    0 -0.00000000000E+00 -0.00000000000E+00 -0.74505805969E-08  0.93827000000E+00  0.93827000000E+00 0.  1.
     999902    2    1    2    0    0  0.14273804074E-01  0.13562875414E-01  0.13260600042E-01  0.10201910745E+01  0.10199148454E+01 0.  0.
     999903    2    3    3    0    0  0.37074215824E-01 -0.10637227287E+00 -0.59143848521E-01  0.12881758218E+00  0.20159780422E-01 0.  0.
         14    1    1    2    0    0 -0.14273804074E-01 -0.13562875414E-01 -0.13260600042E-01  0.23738925539E-01  0.00000000000E+00 0.  1.
     999901    1    3    3    0    0 -0.22800411750E-01  0.11993514828E+00  0.72404448563E-01  0.89137349228E+00  0.88000000000E+00 0. -1.
        -11    1    4    4    0    0  0.58406811640E-02 -0.35891617746E-01 -0.11287749300E-01  0.38078815451E-01  0.51100000000E-03 0. -1.
         11    1    4    4    0    0  0.31233534660E-01 -0.70480655122E-01 -0.47856099221E-01  0.90738766729E-01  0.51100000000E-03 0.  1.
</event>
<event>
 8    1  0.1123361E+005  0.1043930E+01  0.7957747E-01            NaN
         13   -1    0    0    0    0  0.00000000000E+00  0.00000000000E+00  0.74505805969E-08  0.10566000000E+00  0.10566000000E+00 0. -1.
     999900   -1    0    0    0    0 -0.00000000000E+00 -0.00000000000E+00 -0.74505805969E-08  0.93827000000E+00  0.93827000000E+00 0.  1.
     999902    2    1    2    0    0  0.14301538257E-01 -0.99162924623E-02 -0.16021294559E-01  0.10202752176E+01  0.10200009661E+01 0.  0.
     999903    2    3    3    0    0 -0.81406029541E-01 -0.74439636514E-01 -0.68069388417E-01  0.13121267503E+00  0.20374575320E-01 0.  0.
         14    1    1    2    0    0 -0.14301538257E-01  0.99162924623E-02  0.16021294559E-01  0.23654782435E-01  0.00000000000E+00 0.  1.
     999901    1    3    3    0    0  0.95707567798E-01  0.64523344052E-01  0.52048093858E-01  0.88906254253E+00  0.88000000000E+00 0.  1.
        -11    1    4    4    0    0 -0.45909513491E-01 -0.29503528637E-01 -0.38274747845E-01  0.66658525896E-01  0.51100000000E-03 0. -1.
         11    1    4    4    0    0 -0.35496516050E-01 -0.44936107877E-01 -0.29794640572E-01  0.64554149136E-01  0.51100000000E-03 0.  1.
</event>
<event>
 8    1  0.1123361E+005  0.1043930E+01  0.7957747E-01            NaN
         13   -1    0    0    0    0  0.00000000000E+00  0.00000000000E+00  0.74505805969E-08  0.10566000000E+00  0.10566000000E+00 0.  1.
     999900   -1    0    0    0    0 -0.00000000000E+00 -0.00000000000E+00 -0.74505805969E-08  0.93827000000E+00  0.93827000000E+00 0.  1.
     999902    2    1    2    0    0  0.22420258121E-02 -0.88224895161E-02  0.11922511365E-01  0.10289296907E+01  0.10288203435E+01 0.  0.
     999903    2    3    3    0    0  0.63637782857E-01  0.83507682185E-01  0.88406981651E-01  0.13868018987E+00  0.19826756310E-01 0.  0.
         14    1    1    2    0    0 -0.22420258121E-02  0.88224895161E-02 -0.11922511365E-01  0.15000309272E-01  0.00000000000E+00 0. -1.
     999901    1    3    3    0    0 -0.61395757045E-01 -0.92330171701E-01 -0.76484470286E-01  0.89024950086E+00  0.88000000000E+00 0. -1.
        -11    1    4    4    0    0  0.47422055452E-01  0.60720991385E-01  0.52810734807E-01  0.93408377408E-01  0.51100000000E-03 0. -1.
         11    1    4    4    0    0  0.16215727405E-01  0.22786690800E-01  0.35596246844E-01  0.45271812458E-01  0.51100000000E-03 0.  1.
</event>
<event>
 8    1  0.1123361E+005  0.1043930E+01  0.7957747E-01            NaN
         13   -1    0    0    0    0  0.00000000000E+00  0.00000000000E+00  0.74505805969E-08  0.10566000000E+00  0.10566000000E+00 0.  1.
     999900   -1    0    0    0    0 -0.00000000000E+00 -0.00000000000E+00 -0.74505805969E-08  0.93827000000E+00  0.93827000000E+00 0. -1.
     999902    2    1    2    0    0  0.67664211202E-02 -0.41040865636E-02  0.25891494434E-01  0.10168560741E+01  0.10164955868E+01 0.  0.
     999903    2    3    3    0    0 -0.86439213666E-01  0.71252135484E-01  0.58028418614E-01  0.12814991765E+00  0.22505545036E-01 0.  0.
         14    1    1    2    0    0 -0.67664211202E-02  0.41040865636E-02 -0.25891494434E-01  0.27073925931E-01  0.00000000000E+00 0.  1.
     999901    1    3    3    0    0  0.93205634786E-01 -0.75356222047E-01 -0.32136924180E-01  0.88870615642E+00  0.88000000000E+00 0.  1.
        -11    1    4    4    0    0 -0.10095593661E-01  0.42510387475E-03  0.49360360381E-02  0.11257321948E-01  0.51100000000E-03 0.  1.
         11    1    4    4    0    0 -0.76343620005E-01  0.70827031609E-01  0.53092382576E-01  0.11689259570E+00  0.51100000000E-03 0. -1.
</event>
<event>
 8    1  0.1123361E+005  0.1043930E+01  0.7957747E-01            NaN
         13   -1    0    0    0    0  0.00000000000E+00  0.00000000000E+00  0.74505805969E-08  0.10566000000E+00  0.10566000000E+00 0. -1.
     999900   -1    0    0    0    0 -0.00000000000E+00 -0.00000000000E+00 -0.74505805969E-08  0.93827000000E+00  0.93827000000E+00 0.  1.
     999902    2    1    2    0    0 -0.17165767023E-01 -0.89662892977E-02 -0.14306330216E-01  0.10198524381E+01  0.10195681765E+01 0.  0.
     999903    2    3    3    0    0 -0.32621465923E-01 -0.88753128746E-01  0.87331389990E-01  0.13028229219E+00  0.20135195065E-01 0.  0.
         14    1    1    2    0    0  0.17165767023E-01  0.89662892977E-02  0.14306330216E-01  0.24077561868E-01  0.00000000000E+00 0. -1.
     999901    1    3    3    0    0  0.15455698900E-01  0.79786839448E-01 -0.10163772021E+00  0.88957014594E+00  0.88000000000E+00 0.  1.
        -11    1    4    4    0    0 -0.13556879383E-01 -0.63466146155E-01  0.55794858898E-01  0.85586611610E-01  0.51100000000E-03 0. -1.
         11    1    4    4    0    0 -0.19064586540E-01 -0.25286982591E-01  0.31536531092E-01  0.44695680583E-01  0.51100000000E-03 0.  1.
</event>
<event>
 8    1  0.1123361E+005  0.1043930E+01  0.7957747E-01            NaN
         13   -1    0    0    0    0  0.00000000000E+00  0.00000000000E+00  0.74505805969E-08  0.10566000000E+00  0.10566000000E+00 0. -1.
     999900   -1    0    0    0    0 -0.00000000000E+00 -0.00000000000E+00 -0.74505805969E-08  0.93827000000E+00  0.93827000000E+00 0.  1.
     999902    2    1    2    0    0  0.20682131859E-01 -0.72486289921E-02 -0.89014247339E-02  0.10202756439E+01  0.10200014024E+01 0.  0.
     999903    2    3    3    0    0 -0.72680459101E-01  0.43608450105E-01 -0.95985672980E-01  0.12960921802E+00  0.20028827295E-01 0.  0.
         14    1    1    2    0    0 -0.20682131859E-01  0.72486289921E-02  0.89014247339E-02  0.23654356106E-01  0.00000000000E+00 0. -1.
     999901    1    3    3    0    0  0.93362590960E-01 -0.50857079097E-01  0.87084248246E-01  0.89066642587E+00  0.88000000000E+00 0. -1.
        -11    1    4    4    0    0 -0.56503888429E-01  0.41660820744E-01 -0.71588058557E-01  0.10026676738E+00  0.51100000000E-03 0.  1.
         11    1    4    4    0    0 -0.16176570671E-01  0.19476293606E-02 -0.24397614423E-01  0.29342450636E-01  0.51100000000E-03 0. -1.
</event>
<event>
 8    1  0.1123361E+005  0.1043930E+01  0.7957747E-01            NaN
         13   -1    0    0    0    0  0.00000000000E+00  0.00000000000E+00  0.74505805969E-08  0.10566000000E+00  0.10566000000E+00 0.  1.
     999900   -1    0    0    0    0 -0.00000000000E+00 -0.00000000000E+00 -0.74505805969E-08  0.93827000000E+00  0.93827000000E+00 0. -1.
     999902    2    1    2    0    0  0.35030441260E-02 -0.17092840988E-01  0.17329559957E-01  0.10193383311E+01  0.10190416493E+01 0.  0.
     999903    2    3    3    0    0  0.92630736555E-01  0.19273089763E-01  0.88709746677E-01  0.13121595353E+00  0.19907334363E-01 0.  0.
         14    1    1    2    0    0 -0.35030441260E-02  0.17092840988E-01 -0.17329559957E-01  0.24591668904E-01  0.00000000000E+00 0. -1.
     999901    1    3    3    0    0 -0.89127692429E-01 -0.36365930751E-01 -0.71380186720E-01  0.88812237757E+00  0.88000000000E+00 0. -1.
        -11    1    4    4    0    0  0.64157309214E-01  0.22516399988E-01  0.63845507477E-01  0.93271960096E-01  0.51100000000E-03 0.  1.
         11    1    4    4    0    0  0.28473427340E-01 -0.32433102246E-02  0.24864239200E-01  0.37943993434E-01  0.51100000000E-03 0. -1.
</event>
<event>
 8    1  0.1123361E+005  0.1043930E+01  0.7957747E-01            NaN
         13   -1    0    0    0    0  0.00000000000E+00  0.00000000000E+00  0.74505805969E-08  0.10566000000E+00  0.10566000000E+00 0. -1.
     999900   -1    0    0    0    0 -0.00000000000E+00 -0.00000000000E+00 -0.74505805969E-08  0.93827000000E+00  0.93827000000E+00 0.  1.
     999902    2    1    2    0    0 -0.74731117284E-02  0.20974021051E-01 -0.65236317817E-02  0.10207283895E+01  0.10204646640E+01 0.  0.
     999903    2    3    3    0    0  0.49691634396E-01 -0.11265900491E+00  0.29253194531E-01  0.12808872249E+00  0.19739846088E-01 0.  0.
         14    1    1    2    0    0  0.74731117284E-02 -0.20974021051E-01  0.65236317817E-02  0.23201610495E-01  0.00000000000E+00 0.  1.
     999901    1    3    3    0    0 -0.57164746125E-01  0.13363302596E+00 -0.35776826312E-01  0.89263966701E+00  0.88000000000E+00 0. -1.
        -11    1    4    4    0    0  0.82715159047E-02 -0.29933978263E-01  0.83671934547E-05  0.31059977801E-01  0.51100000000E-03 0.  1.
         11    1    4    4    0    0  0.41420118492E-01 -0.82725026644E-01  0.29244827337E-01  0.97028744690E-01  0.51100000000E-03 0. -1.
</event>
<event>
 8    1  0.1123361E+005  0.1043930E+01  0.7957747E-01            NaN
         13   -1    0    0    0    0  0.00000000000E+00  0.00000000000E+00  0.74505805969E-08  0.10566000000E+00  0.10566000000E+00 0.  1.
     999900   -1    0    0    0    0 -0.00000000000E+00 -0.00000000000E+00 -0.74505805969E-08  0.93827000000E+00  0.93827000000E+00 0.  1.
     999902    2    1    2    0    0  0.18165569808E-01  0.16226585582E-01 -0.97297200293E-03  0.10195530297E+01  0.10192615679E+01 0.  0.
     999903    2    3    3    0    0  0.76415555431E-01 -0.98434185972E-01 -0.30033169307E-01  0.12973021115E+00  0.19982751226E-01 0.  0.
         14    1    1    2    0    0 -0.18165569808E-01 -0.16226585582E-01  0.97297200293E-03  0.24376970292E-01  0.00000000000E+00 0. -1.
     999901    1    3    3    0    0 -0.58249985624E-01  0.11466077155E+00  0.29060197304E-01  0.88982281856E+00  0.88000000000E+00 0. -1.
        -11    1    4    4    0    0  0.27310441813E-01 -0.30392100231E-01 -0.19106260354E-01  0.45109314938E-01  0.51100000000E-03 0.  1.
         11    1    4    4    0    0  0.49105113618E-01 -0.68042085741E-01 -0.10926908953E-01  0.84620896212E-01  0.51100000000E-03 0. -1.
</event>
<event>
 8    1  0.1123361E+005  0.1043930E+01  0.7957747E-01            NaN
         13   -1    0    0    0    0  0.00000000000E+00  0.00000000000E+00  0.74505805969E-08  0.10566000000E+00  0.10566000000E+00 0. -1.
     999900   -1    0    0    0    0 -0.00000000000E+00 -0.00000000000E+00 -0.74505805969E-08  0.93827000000E+00  0.93827000000E+00 0.  1.
     999902    2    1    2    0    0 -0.11613933536E-01 -0.10927050024E-01 -0.17460606661E-01  0.10202835064E+01  0.10200094494E+01 0.  0.
     999903    2    3    3    0    0  0.12049901076E+00  0.32255288743E-01  0.23185448600E-01  0.12844795753E+00  0.20022425444E-01 0.  0.
         14    1    1    2    0    0  0.11613933536E-01  0.10927050024E-01  0.17460606661E-01  0.23646493596E-01  0.00000000000E+00 0. -1.
     999901    1    3    3    0    0 -0.13211294429E+00 -0.43182338766E-01 -0.40646055260E-01  0.89183554888E+00  0.88000000000E+00 0.  1.
        -11    1    4    4    0    0  0.48101652583E-01  0.23096815460E-01  0.97371974090E-02  0.54243027201E-01  0.51100000000E-03 0.  1.
         11    1    4    4    0    0  0.72397358176E-01  0.91584732830E-02  0.13448251190E-01  0.74204930327E-01  0.51100000000E-03 0. -1.
</event>
<event>
 8    1  0.1123361E+005  0.1043930E+01  0.7957747E-01            NaN
         13   -1    0    0    0    0  0.00000000000E+00  0.00000000000E+00  0.74505805969E-08  0.10566000000E+00  0.10566000000E+00 0. -1.
     999900   -1    0    0    0    0 -0.00000000000E+00 -0.00000000000E+00 -0.74505805969E-08  0.93827000000E+00  0.93827000000E+00 0.  1.
     999902    2    1    2    0    0 -0.10812351365E-01  0.18219458820E-01 -0.10318171795E-01  0.10203647652E+01  0.10200926104E+01 0.  0.
     999903    2    3    3    0    0  0.83054054492E-01 -0.61363161229E-01  0.72535420923E-01  0.12794725451E+00  0.21111587474E-01 0.  0.
         14    1    1    2    0    0  0.10812351365E-01 -0.18219458820E-01  0.10318171795E-01  0.23565234795E-01  0.00000000000E+00 0. -1.
     999901    1    3    3    0    0 -0.93866405857E-01  0.79582620049E-01 -0.82853592717E-01  0.89241751069E+00  0.88000000000E+00 0.  1.
        -11    1    4    4    0    0  0.62131399116E-01 -0.48454797691E-01  0.65243460007E-01  0.10229930777E+00  0.51100000000E-03 0. -1.
         11    1    4    4    0    0  0.20922655377E-01 -0.12908363537E-01  0.72919609153E-02  0.25647946745E-01  0.51100000000E-03 0.  1.
</event>
<event>
 8    1  0.1467371E+005  0.1043930E+01  0.7957747E-01            NaN
         13   -1    0    0    0    0  0.00000000000E+00  0.00000000000E+00  0.74505805969E-08  0.10566000000E+00  0.10566000000E+00 0.  1.
     999900   -1    0    0    0    0 -0.00000000000E+00 -0.00000000000E+00 -0.74505805969E-08  0.93827000000E+00  0.93827000000E+00 0.  1.
     999902    2    1    2    0    0  0.32189113010E-03  0.39634948866E-02 -0.22779846460E-01  0.10208056771E+01  0.10205437257E+01 0.  0.
     999903    2    3    3    0    0 -0.65281731460E-01  0.42385728377E-01  0.10067229466E+00  0.12894215923E+00  0.20806611555E-01 0.  0.
         14    1    1    2    0    0 -0.32189113010E-03 -0.39634948866E-02  0.22779846460E-01  0.23124322916E-01  0.00000000000E+00 0.  1.
     999901    1    3    3    0    0  0.65603622590E-01 -0.38422233490E-01 -0.12345214112E+00  0.89186351785E+00  0.88000000000E+00 0.  1.
        -11    1    4    4    0    0 -0.18290263744E-01  0.13189819688E-01  0.45629421531E-01  0.50900003158E-01  0.51100000000E-03 0.  1.
         11    1    4    4    0    0 -0.46991467716E-01  0.29195908689E-01  0.55042873125E-01  0.78042156077E-01  0.51100000000E-03 0. -1.
</event>
<event>
 8    1  0.1123361E+005  0.1043930E+01  0.7957747E-01            NaN
         13   -1    0    0    0    0  0.00000000000E+00  0.00000000000E+00  0.74505805969E-08  0.10566000000E+00  0.10566000000E+00 0.  1.
     999900   -1    0    0    0    0 -0.00000000000E+00 -0.00000000000E+00 -0.74505805969E-08  0.93827000000E+00  0.93827000000E+00 0. -1.
     999902    2    1    2    0    0  0.16245176629E-01  0.18140415668E-02 -0.14823940330E-01  0.10218631534E+01  0.10216248620E+01 0.  0.
     999903    2    3    3    0    0  0.11046308216E+00 -0.61760091548E-01  0.36062568710E-01  0.13309539922E+00  0.19936775149E-01 0.  0.
         14    1    1    2    0    0 -0.16245176629E-01 -0.18140415668E-02  0.14823940330E-01  0.22066846568E-01  0.00000000000E+00 0.  1.
     999901    1    3    3    0    0 -0.94217905532E-01  0.63574133115E-01 -0.50886509040E-01  0.88876775421E+00  0.88000000000E+00 0. -1.
        -11    1    4    4    0    0  0.94566915039E-02 -0.37334497266E-02 -0.23297082848E-02  0.10443003531E-01  0.51100000000E-03 0.  1.
         11    1    4    4    0    0  0.10100639066E+00 -0.58026641821E-01  0.38392276995E-01  0.12265239569E+00  0.51100000000E-03 0. -1.
</event>
<event>
 8    1  0.1123361E+005  0.1043930E+01  0.7957747E-01            NaN
         13   -1    0    0    0    0  0.00000000000E+00  0.00000000000E+00  0.74505805969E-08  0.10566000000E+00  0.10566000000E+00 0.  1.
     999900   -1    0    0    0    0 -0.00000000000E+00 -0.00000000000E+00 -0.74505805969E-08  0.93827000000E+00  0.93827000000E+00 0.  1.
     999902    2    1    2    0    0 -0.14390036038E-01  0.22435224102E-02 -0.20873530802E-01  0.10184778720E+01  0.10181597935E+01 0.  0.
     999903    2    3    3    0    0  0.85789677649E-01  0.81841794145E-01  0.41044651269E-01  0.12707127504E+00  0.20112122745E-01 0.  0.
         14    1    1    2    0    0  0.14390036038E-01 -0.22435224102E-02  0.20873530802E-01  0.25452127969E-01  0.00000000000E+00 0.  1.
     999901    1    3    3    0    0 -0.10017971369E+00 -0.79598271735E-01 -0.61918182071E-01  0.89140659700E+00  0.88000000000E+00 0. -1.
        -11    1    4    4    0    0  0.34174873392E-01  0.23129663360E-01  0.72403908445E-02  0.41899733640E-01  0.51100000000E-03 0.  1.
         11    1    4    4    0    0  0.51614804257E-01  0.58712130785E-01  0.33804260424E-01  0.85171541395E-01  0.51100000000E-03 0. -1.
</event>
<event>
 8    1  0.1123361E+005  0.1043930E+01  0.7957747E-01            NaN
         13   -1    0    0    0    0  0.00000000000E+00  0.00000000000E+00  0.74505805969E-08  0.10566000000E+00  0.10566000000E+00 0. -1.
     999900   -1    0    0    0    0 -0.00000000000E+00 -0.00000000000E+00 -0.74505805969E-08  0.93827000000E+00  0.93827000000E+00 0. -1.
     999902    2    1    2    0    0 -0.49502083637E-02  0.22703112494E-01 -0.25080140885E-02  0.10205585213E+01  0.10202908749E+01 0.  0.
     999903    2    3    3    0    0  0.97101966348E-01  0.69763083905E-01  0.51715413964E-01  0.13175625570E+00  0.19736948331E-01 0.  0.
         14    1    1    2    0    0  0.49502083637E-02 -0.22703112494E-01  0.25080140885E-02  0.23371478653E-01  0.00000000000E+00 0.  1.
     999901    1    3    3    0    0 -0.10205217471E+00 -0.47059971411E-01 -0.54223428052E-01  0.88880226565E+00  0.88000000000E+00 0. -1.
        -11    1    4    4    0    0  0.55183531078E-01  0.38295331531E-01  0.39532453930E-01  0.77941199337E-01  0.51100000000E-03 0. -1.
         11    1    4    4    0    0  0.41918435270E-01  0.31467752374E-01  0.12182960034E-01  0.53815056361E-01  0.51100000000E-03 0.  1.
</event>
<event>
 8    1  0.1123361E+005  0.1043930E+01  0.7957747E-01            NaN
         13   -1    0    0    0    0  0.00000000000E+00  0.00000000000E+00  0.74505805969E-08  0.10566000000E+00  0.10566000000E+00 0.  1.
     999900   -1    0    0    0    0 -0.00000000000E+00 -0.00000000000E+00 -0.74505805969E-08  0.93827000000E+00  0.93827000000E+00 0. -1.
     999902    2    1    2    0    0 -0.21513398756E-01 -0.71846336090E-03 -0.88675866053E-02  0.10206496089E+01  0.10203840687E+01 0.  0.
     999903    2    3    3    0    0  0.70762181506E-01  0.95619567791E-01  0.45607681953E-01  0.12893028435E+00  0.19813366555E-01 0.  0.
         14    1    1    2    0    0  0.21513398756E-01  0.71846336090E-03  0.88675866053E-02  0.23280391059E-01  0.00000000000E+00 0.  1.
     999901    1    3    3    0    0 -0.92275580262E-01 -0.96338031152E-01 -0.54475268559E-01  0.89171932459E+00  0.88000000000E+00 0.  1.
        -11    1    4    4    0    0  0.51230068467E-01  0.57931002126E-01  0.22231440560E-01  0.80467502713E-01  0.51100000000E-03 0.  1.
         11    1    4    4    0    0  0.19532113039E-01  0.37688565665E-01  0.23376241394E-01  0.48462781641E-01  0.51100000000E-03 0. -1.
</event>
<event>
 8    1  0.1123361E+005  0.1043930E+01  0.7957747E-01            NaN
         13   -1    0    0    0    0  0.00000000000E+00  0.00000000000E+00  0.74505805969E-08  0.10566000000E+00  0.10566000000E+00 0. -1.
     999900   -1    0    0    0    0 -0.00000000000E+00 -0.00000000000E+00 -0.74505805969E-08  0.93827000000E+00  0.93827000000E+00 0. -1.
     999902    2    1    2    0    0 -0.54560000798E-02 -0.19935633892E-01  0.71073986711E-02  0.10220733637E+01  0.10218396392E+01 0.  0.
     999903    2    3    3    0    0  0.53348871190E-01  0.90118393599E-02 -0.11749785939E+00  0.13088177966E+00  0.19924306258E-01 0.  0.
         14    1    1    2    0    0  0.54560000798E-02  0.19935633892E-01 -0.71073986711E-02  0.21856636324E-01  0.00000000000E+00 0. -1.
     999901    1    3    3    0    0 -0.58804871270E-01 -0.28947473252E-01  0.12460525806E+00  0.89119158402E+00  0.88000000000E+00 0.  1.
        -11    1    4    4    0    0  0.78463724182E-04  0.35595362044E-02 -0.12628349272E-01  0.13130604742E-01  0.51100000000E-03 0. -1.
         11    1    4    4    0    0  0.53270407466E-01  0.54523031556E-02 -0.10486951011E+00  0.11775117491E+00  0.51100000000E-03 0.  1.
</event>
<event>
 8    1  0.1123361E+005  0.1043930E+01  0.7957747E-01            NaN
         13   -1    0    0    0    0  0.00000000000E+00  0.00000000000E+00  0.74505805969E-08  0.10566000000E+00  0.10566000000E+00 0.  1.
     999900   -1    0    0    0    0 -0.00000000000E+00 -0.00000000000E+00 -0.74505805969E-08  0.93827000000E+00  0.93827000000E+00 0.  1.
     999902    2    1    2    0    0  0.10633278052E-01 -0.21118920767E-01  0.25151885793E-02  0.10201518253E+01  0.10198746713E+01 0.  0.
     999903    2    3    3    0    0  0.35038172937E-01  0.72031027203E-01  0.99898882900E-01  0.12955871083E+00  0.19736522080E-01 0.  0.
         14    1    1    2    0    0 -0.10633278052E-01  0.21118920767E-01 -0.25151885793E-02  0.23778174659E-01  0.00000000000E+00 0.  1.
     999901    1    3    3    0    0 -0.24404894885E-01 -0.93149947970E-01 -0.97383694321E-01  0.89059311451E+00  0.88000000000E+00 0.  1.
        -11    1    4    4    0    0  0.27851542666E-01  0.40130367013E-01  0.50044675091E-01  0.69934865492E-01  0.51100000000E-03 0. -1.
         11    1    4    4    0    0  0.71866302707E-02  0.31900660190E-01  0.49854207809E-01  0.59623845335E-01  0.51100000000E-03 0.  1.
</event>
<event>
 8    1  0.1123361E+005  0.1043930E+01  0.7957747E-01            NaN
         13   -1    0    0    0    0  0.00000000000E+00  0.00000000000E+00  0.74505805969E-08  0.10566000000E+00  0.10566000000E+00 0. -1.
     999900   -1    0    0    0    0 -0.00000000000E+00 -0.00000000000E+00 -0.74505805969E-08  0.93827000000E+00  0.93827000000E+00 0. -1.
     999902    2    1    2    0    0  0.22905385864E-01  0.53049962960E-02 -0.90372929913E-02  0.10187412654E+01  0.10184298176E+01 0.  0.
     999903    2    3    3    0    0 -0.77020006461E-01 -0.98383067602E-01  0.61599816520E-02  0.12690761733E+00  0.21360912374E-01 0.  0.
         14    1    1    2    0    0 -0.22905385864E-01 -0.53049962960E-02  0.90372929913E-02  0.25188734623E-01  0.00000000000E+00 0. -1.
     999901    1    3    3    0    0  0.99925392325E-01  0.10368806390E+00 -0.15197274643E-01  0.89183364804E+00  0.88000000000E+00 0. -1.
        -11    1    4    4    0    0 -0.55577177232E-01 -0.79303487338E-01 -0.26571056531E-02  0.96877175147E-01  0.51100000000E-03 0.  1.
         11    1    4    4    0    0 -0.21442829229E-01 -0.19079580264E-01  0.88170873051E-02  0.30030442187E-01  0.51100000000E-03 0. -1.
</event>
<event>
 8    1  0.1123361E+005  0.1043930E+01  0.7957747E-01            NaN
         13   -1    0    0    0    0  0.00000000000E+00  0.00000000000E+00  0.74505805969E-08  0.10566000000E+00  0.10566000000E+00 0. -1.
     999900   -1    0    0    0    0 -0.00000000000E+00 -0.00000000000E+00 -0.74505805969E-08  0.93827000000E+00  0.93827000000E+00 0. -1.
     999902    2    1    2    0    0 -0.11305746441E-01 -0.12413357879E-01  0.14538002580E-01  0.10217204328E+01  0.10214790149E+01 0.  0.
     999903    2    3    3    0    0  0.11855600862E+00  0.39585106739E-01  0.31250110799E-01  0.13051495126E+00  0.20858456875E-01 0.  0.
         14    1    1    2    0    0  0.11305746441E-01  0.12413357879E-01 -0.14538002580E-01  0.22209567204E-01  0.00000000000E+00 0.  1.
     999901    1    3    3    0    0 -0.12986175506E+00 -0.51998464618E-01 -0.16712108219E-01  0.89120548153E+00  0.88000000000E+00 0. -1.
        -11    1    4    4    0    0  0.17509866621E-02  0.21983571732E-02  0.39415562335E-02  0.48678244724E-02  0.51100000000E-03 0. -1.
         11    1    4    4    0    0  0.11680502196E+00  0.37386749566E-01  0.27308554565E-01  0.12564712679E+00  0.51100000000E-03 0.  1.
</event>
<event>
 8    1  0.1123361E+005  0.1043930E+01  0.7957747E-01            NaN
         13   -1    0    0    0    0  0.00000000000E+00  0.00000000000E+00  0.74505805969E-08  0.10566000000E+00  0.10566000000E+00 0.  1.
     999900   -1    0    0    0    0 -0.00000000000E+00 -0.00000000000E+00 -0.74505805969E-08  0.93827000000E+00  0.93827000000E+00 0. -1.
     999902    2    1    2    0    0  0.16643075011E-01  0.13693775749E-01 -0.74151370160E-02  0.10211375518E+01  0.10208831490E+01 0.  0.
     999903    2    3    3    0    0 -0.34154472618E-01  0.12471418124E+00 -0.21924609935E-01  0.13259017199E+00  0.19475887279E-01 0.  0.
         14    1    1    2    0    0 -0.16643075011E-01 -0.13693775749E-01  0.74151370160E-02  0.22792448246E-01  0.00000000000E+00 0.  1.
     999901    1    3    3    0    0  0.50797547630E-01 -0.11102040549E+00  0.14509472919E-01  0.88854737976E+00  0.88000000000E+00 0.  1.
        -11    1    4    4    0    0 -0.50222965482E-03  0.33596542927E-01 -0.44820797407E-02  0.33901771209E-01  0.51100000000E-03 0. -1.
         11    1    4    4    0    0 -0.33652242964E-01  0.91117638313E-01 -0.17442530194E-01  0.98688400781E-01  0.51100000000E-03 0.  1.
</event>
<event>
 8    1  0.1123361E+005  0.1043930E+01  0.7957747E-01            NaN
         13   -1    0    0    0    0  0.00000000000E+00  0.00000000000E+00  0.74505805969E-08  0.10566000000E+00  0.10566000000E+00 0. -1.
     999900   -1    0    0    0    0 -0.00000000000E+00 -0.00000000000E+00 -0.74505805969E-08  0.93827000000E+00  0.93827000000E+00 0.  1.
     999902    2    1    2    0    0 -0.50875728469E-02  0.18990377383E-01  0.12443413225E-01  0.10206629339E+01  0.10203977011E+01 0.  0.
     999903    2    3    3    0    0 -0.34894381349E-01 -0.36144149753E-01  0.12026340587E+00  0.13186969998E+00  0.20057755841E-01 0.  0.
         14    1    1    2    0    0  0.50875728469E-02 -0.18990377383E-01 -0.12443413225E-01  0.23267066066E-01  0.00000000000E+00 0.  1.
     999901    1    3    3    0    0  0.29806808502E-01  0.55134527136E-01 -0.10781999264E+00  0.88879323396E+00  0.88000000000E+00 0.  1.
        -11    1    4    4    0    0 -0.73929312124E-02 -0.20421133128E-01  0.59509889413E-01  0.63351133921E-01  0.51100000000E-03 0.  1.
         11    1    4    4    0    0 -0.27501450137E-01 -0.15723016625E-01  0.60753516456E-01  0.68518566055E-01  0.51100000000E-03 0. -1.
</event>
<event>
 8    1  0.1123361E+005  0.1043930E+01  0.7957747E-01            NaN
         13   -1    0    0    0    0  0.00000000000E+00  0.00000000000E+00  0.74505805969E-08  0.10566000000E+00  0.10566000000E+00 0.  1.
     999900   -1    0    0    0    0 -0.00000000000E+00 -0.00000000000E+00 -0.74505805969E-08  0.93827000000E+00  0.93827000000E+00 0. -1.
     999902    2    1    2    0    0 -0.53745071081E-02 -0.87721423231E-02 -0.21675934948E-01  0.10199366267E+01  0.10196543730E+01 0.  0.
     999903    2    3    3    0    0  0.10427660116E+00 -0.61442208319E-01  0.40923377121E-01  0.12936592467E+00  0.20299388162E-01 0.  0.
         14    1    1    2    0    0  0.53745071081E-02  0.87721423231E-02  0.21675934948E-01  0.23993373324E-01  0.00000000000E+00 0.  1.
     999901    1    3    3    0    0 -0.10965110826E+00  0.52670065996E-01 -0.62599312069E-01  0.89057070200E+00  0.88000000000E+00 0. -1.
        -11    1    4    4    0    0  0.16763630548E-01 -0.27698884839E-02  0.23289781825E-02  0.17157413900E-01  0.51100000000E-03 0.  1.
         11    1    4    4    0    0  0.87512970607E-01 -0.58672319835E-01  0.38594398938E-01  0.11220851077E+00  0.51100000000E-03 0. -1.
</event>
<event>
 8    1  0.1123361E+005  0.1043930E+01  0.7957747E-01            NaN
         13   -1    0    0    0    0  0.00000000000E+00  0.00000000000E+00  0.74505805969E-08  0.10566000000E+00  0.10566000000E+00 0. -1.
     999900   -1    0    0    0    0 -0.00000000000E+00 -0.00000000000E+00 -0.74505805969E-08  0.93827000000E+00  0.93827000000E+00 0.  1.
     999902    2    1    2    0    0 -0.22415213982E-01 -0.14120044515E-02  0.49740523827E-02  0.10209261575E+01  0.10206669595E+01 0.  0.
     999903    2    3    3    0    0  0.12474244493E+00  0.12022213446E-01 -0.17284126552E-01  0.12832810609E+00  0.21544154590E-01 0.  0.
         14    1    1    2    0    0  0.22415213982E-01  0.14120044515E-02 -0.49740523827E-02  0.23003842538E-01  0.00000000000E+00 0.  1.
     999901    1    3    3    0    0 -0.14715765892E+00 -0.13434217898E-01  0.22258178934E-01  0.89259805137E+00  0.88000000000E+00 0. -1.
        -11    1    4    4    0    0  0.81870889324E-01  0.16769283909E-01 -0.16493856612E-01  0.85184269841E-01  0.51100000000E-03 0. -1.
         11    1    4    4    0    0  0.42871555611E-01 -0.47470704623E-02 -0.79026993914E-03  0.43143836246E-01  0.51100000000E-03 0.  1.
</event>
<event>
 7    1  0.1123361E+005  0.1043930E+01  0.7957747E-01            NaN
         13   -1    0    0    0    0  0.00000000000E+00  0.00000000000E+00  0.74505805969E-08  0.10566000000E+00  0.10566000000E+00 0. -1.
     999900   -1    0    0    0    0 -0.00000000000E+00 -0.00000000000E+00 -0.74505805969E-08  0.93827000000E+00  0.93827000000E+00 0. -1.
     999903    2    1    2    0    0 -0.52501150454E-03  0.56730737183E-01 -0.95666841048E-01  0.11295665369E+00  0.19708093729E-01 0.  0.
         14    1    1    2    0    0  0.28839944412E-01  0.27920758019E-01  0.14746296360E-01  0.42764054747E-01  0.00000000000E+00 0. -1.
     999901    1    1    2    0    0 -0.28314932908E-01 -0.84651495202E-01  0.80920544688E-01  0.88820929156E+00  0.88000000000E+00 0.  1.
        -11    1    3    3    0    0 -0.77178586401E-02  0.22501596109E-01 -0.27699606984E-01  0.36515976195E-01  0.51100000000E-03 0. -1.
         11    1    3    3    0    0  0.71928471356E-02  0.34229141074E-01 -0.67967234064E-01  0.76440677495E-01  0.51100000000E-03 0.  1.
</event>
<event>
 8    1  0.1123361E+005  0.1043930E+01  0.7957747E-01            NaN
         13   -1    0    0    0    0  0.00000000000E+00  0.00000000000E+00  0.74505805969E-08  0.10566000000E+00  0.10566000000E+00 0. -1.
     999900   -1    0    0    0    0 -0.00000000000E+00 -0.00000000000E+00 -0.74505805969E-08  0.93827000000E+00  0.93827000000E+00 0.  1.
     999902    2    1    2    0    0 -0.22247387662E-01  0.69956029487E-02 -0.18353461678E-02  0.10205365562E+01  0.10202684006E+01 0.  0.
     999903    2    3    3    0    0 -0.15764651421E-01  0.10167228123E+00 -0.80048046193E-01  0.13198553022E+00  0.20657044380E-01 0.  0.
         14    1    1    2    0    0  0.22247387662E-01 -0.69956029487E-02  0.18353461678E-02  0.23393443825E-01  0.00000000000E+00 0.  1.
     999901    1    3    3    0    0 -0.64827362415E-02 -0.94676678285E-01  0.78212700026E-01  0.88855102595E+00  0.88000000000E+00 0. -1.
        -11    1    4    4    0    0 -0.20476763346E-01  0.75335441398E-01 -0.56937209179E-01  0.96627291579E-01  0.51100000000E-03 0.  1.
         11    1    4    4    0    0  0.47121119255E-02  0.26336839835E-01 -0.23110837015E-01  0.35358238641E-01  0.51100000000E-03 0. -1.
</event>
<event>
 8    1  0.1123361E+005  0.1043930E+01  0.7957747E-01            NaN
         13   -1    0    0    0    0  0.00000000000E+00  0.00000000000E+00  0.74505805969E-08  0.10566000000E+00  0.10566000000E+00 0.  1.
     999900   -1    0    0    0    0 -0.00000000000E+00 -0.00000000000E+00 -0.74505805969E-08  0.93827000000E+00  0.93827000000E+00 0. -1.
     999902    2    1    2    0    0 -0.18732965447E-01 -0.10255351748E-01 -0.10131254074E-01  0.10202923490E+01  0.10200184993E+01 0.  0.
     999903    2    3    3    0    0  0.47669703635E-01 -0.96007055563E-01  0.70695594605E-01  0.12995777786E+00  0.20035008534E-01 0.  0.
         14    1    1    2    0    0  0.18732965447E-01  0.10255351748E-01  0.10131254074E-01  0.23637650962E-01  0.00000000000E+00 0.  1.
     999901    1    3    3    0    0 -0.66402669082E-01  0.85751703815E-01 -0.80826848679E-01  0.89033457118E+00  0.88000000000E+00 0. -1.
        -11    1    4    4    0    0  0.26415246635E-01 -0.62573876532E-01  0.54778878170E-01  0.87259623501E-01  0.51100000000E-03 0. -1.
         11    1    4    4    0    0  0.21254457000E-01 -0.33433179032E-01  0.15916716435E-01  0.42698154358E-01  0.51100000000E-03 0.  1.
</event>
<event>
 8    1  0.1123361E+005  0.1043930E+01  0.7957747E-01            NaN
         13   -1    0    0    0    0  0.00000000000E+00  0.00000000000E+00  0.74505805969E-08  0.10566000000E+00  0.10566000000E+00 0.  1.
     999900   -1    0    0    0    0 -0.00000000000E+00 -0.00000000000E+00 -0.74505805969E-08  0.93827000000E+00  0.93827000000E+00 0.  1.
     999902    2    1    2    0    0 -0.11826521789E-01  0.20196620969E-01 -0.12626072433E-02  0.10204914784E+01  0.10202222764E+01 0.  0.
     999903    2    3    3    0    0  0.89758257370E-01  0.91667814691E-01 -0.21044237624E-01  0.13154889773E+00  0.20067873334E-01 0.  0.
         14    1    1    2    0    0  0.11826521789E-01 -0.20196620969E-01  0.12626072433E-02  0.23438521567E-01  0.00000000000E+00 0.  1.
     999901    1    3    3    0    0 -0.10158477916E+00 -0.71471193723E-01  0.19781630380E-01  0.88894258070E+00  0.88000000000E+00 0.  1.
        -11    1    4    4    0    0  0.68949114897E-01  0.63323432575E-01 -0.22748715801E-01  0.96341075091E-01  0.51100000000E-03 0.  1.
         11    1    4    4    0    0  0.20809142473E-01  0.28344382117E-01  0.17044781774E-02  0.35207822638E-01  0.51100000000E-03 0. -1.
</event>
<event>
 8    1  0.1123361E+005  0.1043930E+01  0.7957747E-01            NaN
         13   -1    0    0    0    0  0.00000000000E+00  0.00000000000E+00  0.74505805969E-08  0.10566000000E+00  0.10566000000E+00 0. -1.
     999900   -1    0    0    0    0 -0.00000000000E+00 -0.00000000000E+00 -0.74505805969E-08  0.93827000000E+00  0.93827000000E+00 0.  1.
     999902    2    1    2    0    0 -0.17370847345E-01  0.13948538931E-01 -0.71144039205E-02  0.10205436189E+01  0.10202756271E+01 0.  0.
     999903    2    3    3    0    0  0.71068045728E-01 -0.15789697471E-01 -0.10572296120E+00  0.13013391095E+00  0.21389450316E-01 0.  0.
         14    1    1    2    0    0  0.17370847345E-01 -0.13948538931E-01  0.71144039205E-02  0.23386381056E-01  0.00000000000E+00 0.  1.
     999901    1    3    3    0    0 -0.88438893073E-01  0.29738236402E-01  0.98608557283E-01  0.89040970799E+00  0.88000000000E+00 0.  1.
        -11    1    4    4    0    0  0.77098864487E-02 -0.93735220507E-02 -0.15313851568E-01  0.19546877897E-01  0.51100000000E-03 0. -1.
         11    1    4    4    0    0  0.63358159279E-01 -0.64161754206E-02 -0.90409109636E-01  0.11058703306E+00  0.51100000000E-03 0.  1.
</event>
<event>
 8    1  0.1123361E+005  0.1043930E+01  0.7957747E-01            NaN
         13   -1    0    0    0    0  0.00000000000E+00  0.00000000000E+00  0.74505805969E-08  0.10566000000E+00  0.10566000000E+00 0. -1.
     999900   -1    0    0    0    0 -0.00000000000E+00 -0.00000000000E+00 -0.74505805969E-08  0.93827000000E+00  0.93827000000E+00 0.  1.
     999902    2    1    2    0    0 -0.26519644045E-02  0.25195378805E-01  0.26046708219E-02  0.10184618957E+01  0.10181434126E+01 0.  0.
     999903    2    3    3    0    0  0.61575067786E-01  0.11338027547E+00 -0.19475302355E-01  0.13145050178E+00  0.15917637326E-01 0.  0.
         14    1    1    2    0    0  0.26519644045E-02 -0.25195378805E-01 -0.26046708219E-02  0.25468104335E-01  0.00000000000E+00 0. -1.
     999901    1    3    3    0    0 -0.64227032191E-01 -0.88184896666E-01  0.22079973177E-01  0.88701139388E+00  0.88000000000E+00 0. -1.
        -11    1    4    4    0    0  0.67642758334E-02  0.23942303075E-01 -0.67449223433E-02  0.25782637618E-01  0.51100000000E-03 0. -1.
         11    1    4    4    0    0  0.54810791953E-01  0.89437972395E-01 -0.12730380012E-01  0.10566786416E+00  0.51100000000E-03 0.  1.
</event>
<event>
 8    1  0.1123361E+005  0.1043930E+01  0.7957747E-01            NaN
         13   -1    0    0    0    0  0.00000000000E+00  0.00000000000E+00  0.74505805969E-08  0.10566000000E+00  0.10566000000E+00 0. -1.
     999900   -1    0    0    0    0 -0.00000000000E+00 -0.00000000000E+00 -0.74505805969E-08  0.93827000000E+00  0.93827000000E+00 0. -1.
     999902    2    1    2    0    0 -0.62750931629E-02  0.21978992817E-01 -0.79953694105E-02  0.10197147393E+01  0.10194271777E+01 0.  0.
     999903    2    3    3    0    0 -0.42811394645E-01  0.96302119874E-01  0.76996979270E-01  0.13174935264E+00  0.17956706308E-01 0.  0.
         14    1    1    2    0    0  0.62750931629E-02 -0.21978992817E-01  0.79953694105E-02  0.24215260715E-01  0.00000000000E+00 0. -1.
     999901    1    3    3    0    0  0.36536301482E-01 -0.74323127057E-01 -0.84992348681E-01  0.88796538664E+00  0.88000000000E+00 0. -1.
        -11    1    4    4    0    0 -0.36527961540E-01  0.92007792891E-01  0.68814787075E-01  0.12056310368E+00  0.51100000000E-03 0. -1.
         11    1    4    4    0    0 -0.62834331050E-02  0.42943269833E-02  0.81821921949E-02  0.11186248966E-01  0.51100000000E-03 0.  1.
</event>
<event>
 8    1  0.1123361E+005  0.1043930E+01  0.7957747E-01            NaN
         13   -1    0    0    0    0  0.00000000000E+00  0.00000000000E+00  0.74505805969E-08  0.10566000000E+00  0.10566000000E+00 0. -1.
     999900   -1    0    0    0    0 -0.00000000000E+00 -0.00000000000E+00 -0.74505805969E-08  0.93827000000E+00  0.93827000000E+00 0.  1.
     999902    2    1    2    0    0  0.24877389741E-02  0.22471959218E-01  0.17376059193E-03  0.10213200909E+01  0.10210697920E+01 0.  0.
     999903    2    3    3    0    0  0.38627739600E-01 -0.11883829381E+00 -0.24704651496E-01  0.12896723321E+00  0.20188736847E-01 0.  0.
         14    1    1    2    0    0 -0.24877389741E-02 -0.22471959218E-01 -0.17376059193E-03  0.22609909090E-01  0.00000000000E+00 0. -1.
     999901    1    3    3    0    0 -0.36140000626E-01  0.14131025302E+00  0.24878412088E-01  0.89235285770E+00  0.88000000000E+00 0.  1.
        -11    1    4    4    0    0  0.28691189924E-01 -0.93046153323E-01 -0.27505602439E-01  0.10118097802E+00  0.51100000000E-03 0.  1.
         11    1    4    4    0    0  0.99365496758E-02 -0.25792140482E-01  0.28009509429E-02  0.27786255187E-01  0.51100000000E-03 0. -1.
</event>
<event>
 8    1  0.1123361E+005  0.1043930E+01  0.7957747E-01            NaN
         13   -1    0    0    0    0  0.00000000000E+00  0.00000000000E+00  0.74505805969E-08  0.10566000000E+00  0.10566000000E+00 0. -1.
     999900   -1    0    0    0    0 -0.00000000000E+00 -0.00000000000E+00 -0.74505805969E-08  0.93827000000E+00  0.93827000000E+00 0.  1.
     999902    2    1    2    0    0 -0.21591727471E-01 -0.64681913782E-02  0.98921198148E-03  0.10213685564E+01  0.10211193414E+01 0.  0.
     999903    2    3    3    0    0  0.15568287244E-01 -0.12419889285E+00 -0.36881504319E-01  0.13194426180E+00  0.19527066015E-01 0.  0.
         14    1    1    2    0    0  0.21591727471E-01  0.64681913782E-02 -0.98921198148E-03  0.22561443553E-01  0.00000000000E+00 0. -1.
     999901    1    3    3    0    0 -0.37160014714E-01  0.11773070147E+00  0.37870716301E-01  0.88942429465E+00  0.88000000000E+00 0. -1.
        -11    1    4    4    0    0  0.10418355665E-01 -0.76199448506E-01 -0.12708626161E-01  0.77952988315E-01  0.51100000000E-03 0. -1.
         11    1    4    4    0    0  0.51499315783E-02 -0.47999444344E-01 -0.24172878159E-01  0.53991273480E-01  0.51100000000E-03 0.  1.
</event>
<event>
 7    1  0.1123361E+005  0.1043930E+01  0.7957747E-01            NaN
         13   -1    0    0    0    0  0.00000000000E+00  0.00000000000E+00  0.74505805969E-08  0.10566000000E+00  0.10566000000E+00 0.  1.
     999900   -1    0    0    0    0 -0.00000000000E+00 -0.00000000000E+00 -0.74505805969E-08  0.93827000000E+00  0.93827000000E+00 0. -1.
     999903    2    1    2    0    0 -0.60523109284E-01  0.87453871526E-01  0.21408768649E-01  0.11071475083E+00  0.22095118802E-01 0.  0.
         14    1    1    2    0    0  0.84145121569E-03  0.40092968421E-01  0.10481567441E-01  0.41448973606E-01  0.00000000000E+00 0.  1.
     999901    1    1    2    0    0  0.59681658068E-01 -0.12754683995E+00 -0.31890336090E-01  0.89176627556E+00  0.88000000000E+00 0. -1.
        -11    1    3    3    0    0 -0.24815300706E-01  0.23680069310E-01 -0.83014108311E-03  0.34314648285E-01  0.51100000000E-03 0. -1.
         11    1    3    3    0    0 -0.35707808578E-01  0.63773802216E-01  0.22238909732E-01  0.76400102550E-01  0.51100000000E-03 0.  1.
</event>
<event>
 8    1  0.1123361E+005  0.1043930E+01  0.7957747E-01            NaN
         13   -1    0    0    0    0  0.00000000000E+00  0.00000000000E+00  0.74505805969E-08  0.10566000000E+00  0.10566000000E+00 0.  1.
     999900   -1    0    0    0    0 -0.00000000000E+00 -0.00000000000E+00 -0.74505805969E-08  0.93827000000E+00  0.93827000000E+00 0. -1.
     999902    2    1    2    0    0  0.15543443276E-01  0.13718549246E-01  0.12315386692E-01  0.10198163945E+01  0.10195312710E+01 0.  0.
     999903    2    3    3    0    0  0.88701180297E-01 -0.10666713378E-01 -0.92621205770E-01  0.13023313026E+00  0.20007556062E-01 0.  0.
         14    1    1    2    0    0 -0.15543443276E-01 -0.13718549246E-01 -0.12315386692E-01  0.24113605530E-01  0.00000000000E+00 0.  1.
     999901    1    3    3    0    0 -0.73157737021E-01  0.24385262624E-01  0.10493659246E+00  0.88958326421E+00  0.88000000000E+00 0.  1.
        -11    1    4    4    0    0  0.48444885976E-01 -0.16642825157E-02 -0.62781404969E-01  0.79318615371E-01  0.51100000000E-03 0.  1.
         11    1    4    4    0    0  0.40256294320E-01 -0.90024308620E-02 -0.29839800801E-01  0.50914514892E-01  0.51100000000E-03 0. -1.
</event>
<event>
 8    1  0.1123361E+005  0.1043930E+01  0.7957747E-01            NaN
         13   -1    0    0    0    0  0.00000000000E+00  0.00000000000E+00  0.74505805969E-08  0.10566000000E+00  0.10566000000E+00 0. -1.
     999900   -1    0    0    0    0 -0.00000000000E+00 -0.00000000000E+00 -0.74505805969E-08  0.93827000000E+00  0.93827000000E+00 0. -1.
     999902    2    1    2    0    0  0.20483343112E-01 -0.42157376873E-02  0.11981462443E-01  0.10198282318E+01  0.10195433915E+01 0.  0.
     999903    2    3    3    0    0 -0.69870624478E-01 -0.99172464891E-01  0.41411636271E-01  0.12963344712E+00  0.19308677724E-01 0.  0.
         14    1    1    2    0    0 -0.20483343112E-01  0.42157376873E-02 -0.11981462443E-01  0.24101768225E-01  0.00000000000E+00 0. -1.
     999901    1    3    3    0    0  0.90353967590E-01  0.94956727204E-01 -0.29430173828E-01  0.89019478466E+00  0.88000000000E+00 0. -1.
        -11    1    4    4    0    0 -0.39657109533E-01 -0.55883841312E-01  0.33412026969E-01  0.76238538309E-01  0.51100000000E-03 0.  1.
         11    1    4    4    0    0 -0.30213514945E-01 -0.43288623579E-01  0.79996093017E-02  0.53394908809E-01  0.51100000000E-03 0. -1.
</event>
<event>
 8    1  0.1123361E+005  0.1043930E+01  0.7957747E-01            NaN
         13   -1    0    0    0    0  0.00000000000E+00  0.00000000000E+00  0.74505805969E-08  0.10566000000E+00  0.10566000000E+00 0.  1.
     999900   -1    0    0    0    0 -0.00000000000E+00 -0.00000000000E+00 -0.74505805969E-08  0.93827000000E+00  0.93827000000E+00 0.  1.
     999902    2    1    2    0    0 -0.22155850411E-01  0.91001785781E-02  0.17485043876E-02  0.10199143338E+01  0.10196315491E+01 0.  0.
     999903    2    3    3    0    0  0.10469152897E+00  0.66358201040E-01  0.28086427697E-01  0.12858811682E+00  0.19553242270E-01 0.  0.
         14    1    1    2    0    0  0.22155850411E-01 -0.91001785781E-02 -0.17485043876E-02  0.24015666245E-01  0.00000000000E+00 0.  1.
     999901    1    3    3    0    0 -0.12684737938E+00 -0.57258022462E-01 -0.26337923310E-01  0.89132621694E+00  0.88000000000E+00 0.  1.
        -11    1    4    4    0    0  0.10366101217E+00  0.63540751201E-01  0.24764422728E-01  0.12408291688E+00  0.51100000000E-03 0.  1.
         11    1    4    4    0    0  0.10305167961E-02  0.28174498388E-02  0.33220049690E-02  0.45051999373E-02  0.51100000000E-03 0. -1.
</event>
<event>
 8    1  0.1123361E+005  0.1043930E+01  0.7957747E-01            NaN
         13   -1    0    0    0    0  0.00000000000E+00  0.00000000000E+00  0.74505805969E-08  0.10566000000E+00  0.10566000000E+00 0. -1.
     999900   -1    0    0    0    0 -0.00000000000E+00 -0.00000000000E+00 -0.74505805969E-08  0.93827000000E+00  0.93827000000E+00 0. -1.
     999902    2    1    2    0    0  0.13733088026E-01 -0.19685876262E-01 -0.34154735139E-03  0.10199248321E+01  0.10196422976E+01 0.  0.
     999903    2    3    3    0    0 -0.10178788348E+00  0.32345308000E-01  0.68088562731E-01  0.12822139544E+00  0.19941958323E-01 0.  0.
         14    1    1    2    0    0 -0.13733088026E-01  0.19685876262E-01  0.34154735139E-03  0.24005167892E-01  0.00000000000E+00 0. -1.
     999901    1    3    3    0    0  0.11552097151E+00 -0.52031184262E-01 -0.68430110083E-01  0.89170343666E+00  0.88000000000E+00 0.  1.
        -11    1    4    4    0    0 -0.62058502603E-01  0.11771909977E-01  0.47134425688E-01  0.78814661172E-01  0.51100000000E-03 0. -1.
         11    1    4    4    0    0 -0.39729380877E-01  0.20573398023E-01  0.20954137044E-01  0.49406734271E-01  0.51100000000E-03 0.  1.
</event>
<event>
 8    1  0.1123361E+005  0.1043930E+01  0.7957747E-01            NaN
         13   -1    0    0    0    0  0.00000000000E+00  0.00000000000E+00  0.74505805969E-08  0.10566000000E+00  0.10566000000E+00 0.  1.
     999900   -1    0    0    0    0 -0.00000000000E+00 -0.00000000000E+00 -0.74505805969E-08  0.93827000000E+00  0.93827000000E+00 0.  1.
     999902    2    1    2    0    0 -0.16823437382E-01  0.12702066905E-01 -0.10614347842E-01  0.10203284126E+01  0.10200554076E+01 0.  0.
     999903    2    3    3    0    0 -0.13041046011E+00 -0.44326818288E-02  0.12962228645E-01  0.13254946131E+00  0.19359843712E-01 0.  0.
         14    1    1    2    0    0  0.16823437382E-01 -0.12702066905E-01  0.10614347842E-01  0.23601587428E-01  0.00000000000E+00 0.  1.
     999901    1    3    3    0    0  0.11358702273E+00  0.17134748734E-01 -0.23576576487E-01  0.88777895126E+00  0.88000000000E+00 0. -1.
        -11    1    4    4    0    0 -0.76462281921E-01 -0.67842109591E-02  0.16183219866E-01  0.78451665382E-01  0.51100000000E-03 0.  1.
         11    1    4    4    0    0 -0.53948178186E-01  0.23515291303E-02 -0.32209912211E-02  0.54097795928E-01  0.51100000000E-03 0. -1.
</event>
<event>
 8    1  0.1123361E+005  0.1043930E+01  0.7957747E-01            NaN
         13   -1    0    0    0    0  0.00000000000E+00  0.00000000000E+00  0.74505805969E-08  0.10566000000E+00  0.10566000000E+00 0. -1.
     999900   -1    0    0    0    0 -0.00000000000E+00 -0.00000000000E+00 -0.74505805969E-08  0.93827000000E+00  0.93827000000E+00 0. -1.
     999902    2    1    2    0    0  0.13763156993E-01  0.60667265035E-02 -0.20353116418E-01  0.10186223132E+01  0.10183078798E+01 0.  0.
     999903    2    3    3    0    0 -0.94932264003E-01 -0.80791498269E-01  0.14926938829E-01  0.12699249765E+00  0.19101832799E-01 0.  0.
         14    1    1    2    0    0 -0.13763156993E-01 -0.60667265035E-02  0.20353116418E-01  0.25307686753E-01  0.00000000000E+00 0. -1.
     999901    1    3    3    0    0  0.10869542100E+00  0.86858224772E-01 -0.35280055246E-01  0.89162981559E+00  0.88000000000E+00 0. -1.
        -11    1    4    4    0    0 -0.53595113360E-01 -0.47464217774E-01  0.17938361885E-01  0.73806057292E-01  0.51100000000E-03 0.  1.
         11    1    4    4    0    0 -0.41337150644E-01 -0.33327280495E-01 -0.30114230561E-02  0.53186440362E-01  0.51100000000E-03 0. -1.
</event>
<event>
 8    1  0.1458369E+005  0.1043930E+01  0.7957747E-01            NaN
         13   -1    0    0    0    0  0.00000000000E+00  0.00000000000E+00  0.74505805969E-08  0.10566000000E+00  0.10566000000E+00 0.  1.
     999900   -1    0    0    0    0 -0.00000000000E+00 -0.00000000000E+00 -0.74505805969E-08  0.93827000000E+00  0.93827000000E+00 0. -1.
     999902    2    1    2    0    0  0.19750505921E-01 -0.97191978094E-02 -0.62403358097E-02  0.10210501599E+01  0.10207937804E+01 0.  0.
     999903    2    3    3    0    0 -0.64811597574E-01  0.12166948716E-01  0.10937131968E+00  0.12920050465E+00  0.19547557687E-01 0.  0.
         14    1    1    2    0    0 -0.19750505921E-01  0.97191978094E-02  0.62403358097E-02  0.22879840061E-01  0.00000000000E+00 0. -1.
     999901    1    3    3    0    0  0.84562103495E-01 -0.21886146525E-01 -0.11561165549E+00  0.89184965529E+00  0.88000000000E+00 0. -1.
        -11    1    4    4    0    0 -0.28534008379E-01  0.74821148307E-02  0.67086835451E-01  0.73287627117E-01  0.51100000000E-03 0. -1.
         11    1    4    4    0    0 -0.36277589195E-01  0.46848338851E-02  0.42284484230E-01  0.55912877532E-01  0.51100000000E-03 0.  1.
</event>
<event>
 8    1  0.1123361E+005  0.1043930E+01  0.7957747E-01            NaN
         13   -1    0    0    0    0  0.00000000000E+00  0.00000000000E+00  0.74505805969E-08  0.10566000000E+00  0.10566000000E+00 0. -1.
     999900   -1    0    0    0    0 -0.00000000000E+00 -0.00000000000E+00 -0.74505805969E-08  0.93827000000E+00  0.93827000000E+00 0. -1.
     999902    2    1    2    0    0 -0.38169858288E-02  0.22678533295E-01  0.51678185803E-02  0.10203590093E+01  0.10200867200E+01 0.  0.
     999903    2    3    3    0    0 -0.35893421725E-01  0.11439831281E+00 -0.54157182798E-01  0.13302543535E+00  0.19683858945E-01 0.  0.
         14    1    1    2    0    0  0.38169858288E-02 -0.22678533295E-01 -0.51678185803E-02  0.23570990690E-01  0.00000000000E+00 0.  1.
     999901    1    3    3    0    0  0.32076435896E-01 -0.91719779517E-01  0.59325001378E-01  0.88733357396E+00  0.88000000000E+00 0.  1.
        -11    1    4    4    0    0 -0.15616155369E-01  0.52321265751E-01 -0.14038387253E-01  0.56380108159E-01  0.51100000000E-03 0. -1.
         11    1    4    4    0    0 -0.20277266356E-01  0.62077047061E-01 -0.40118795545E-01  0.76645327187E-01  0.51100000000E-03 0.  1.
</event>
<event>
 8    1  0.1123361E+005  0.1043930E+01  0.7957747E-01            NaN
         13   -1    0    0    0    0  0.00000000000E+00  0.00000000000E+00  0.74505805969E-08  0.10566000000E+00  0.10566000000E+00 0.  1.
     999900   -1    0    0    0    0 -0.00000000000E+00 -0.00000000000E+00 -0.74505805969E-08  0.93827000000E+00  0.93827000000E+00 0. -1.
     999902    2    1    2    0    0 -0.90923207624E-03 -0.23987656621E-01 -0.49596462730E-02  0.10194181159E+01  0.10191233794E+01 0.  0.
     999903    2    3    3    0    0 -0.62769475493E-01 -0.11513631543E+00 -0.50562446847E-02  0.13255015666E+00  0.18644040192E-01 0.  0.
         14    1    1    2    0    0  0.90923207624E-03  0.23987656621E-01  0.49596462730E-02  0.24511884144E-01  0.00000000000E+00 0.  1.
     999901    1    3    3    0    0  0.61860243417E-01  0.91148658813E-01  0.96598411674E-04  0.88686795920E+00  0.88000000000E+00 0.  1.
        -11    1    4    4    0    0 -0.53351022833E-01 -0.98376578096E-01 -0.10919502329E-01  0.11244456148E+00  0.51100000000E-03 0.  1.
         11    1    4    4    0    0 -0.94184526594E-02 -0.16759737338E-01  0.58632576442E-02  0.20105595175E-01  0.51100000000E-03 0. -1.
</event>
<event>
 8    1  0.1123361E+005  0.1043930E+01  0.7957747E-01            NaN
         13   -1    0    0    0    0  0.00000000000E+00  0.00000000000E+00  0.74505805969E-08  0.10566000000E+00  0.10566000000E+00 0.  1.
     999900   -1    0    0    0    0 -0.00000000000E+00 -0.00000000000E+00 -0.74505805969E-08  0.93827000000E+00  0.93827000000E+00 0.  1.
     999902    2    1    2    0    0 -0.59549676112E-02 -0.15064724622E-01 -0.18153054181E-01  0.10196001635E+01  0.10193098413E+01 0.  0.
     999903    2    3    3    0    0 -0.59991617660E-01  0.11175484714E+00 -0.83633584916E-02  0.12881455436E+00  0.20859137116E-01 0.  0.
         14    1    1    2    0    0  0.59549676112E-02  0.15064724622E-01  0.18153054181E-01  0.24329836483E-01  0.00000000000E+00 0.  1.
     999901    1    3    3    0    0  0.54036650049E-01 -0.12681957177E+00 -0.97896956897E-02  0.89078560915E+00  0.88000000000E+00 0. -1.
        -11    1    4    4    0    0 -0.27590882376E-01  0.46049139766E-01 -0.13553213135E-01  0.55369041628E-01  0.51100000000E-03 0. -1.
         11    1    4    4    0    0 -0.32400735284E-01  0.65705707377E-01  0.51898546433E-02  0.73445512736E-01  0.51100000000E-03 0.  1.
</event>
<event>
 8    1  0.1123361E+005  0.1043930E+01  0.7957747E-01            NaN
         13   -1    0    0    0    0  0.00000000000E+00  0.00000000000E+00  0.74505805969E-08  0.10566000000E+00  0.10566000000E+00 0.  1.
     999900   -1    0    0    0    0 -0.00000000000E+00 -0.00000000000E+00 -0.74505805969E-08  0.93827000000E+00  0.93827000000E+00 0. -1.
     999902    2    1    2    0    0 -0.20612884593E-01 -0.41250889960E-02 -0.11344509682E-01  0.10200426546E+01  0.10197629195E+01 0.  0.
     999903    2    3    3    0    0  0.87509508556E-01  0.28143456239E-01  0.86638036429E-01  0.12744403805E+00  0.16907550461E-01 0.  0.
         14    1    1    2    0    0  0.20612884593E-01  0.41250889960E-02  0.11344509682E-01  0.23887345402E-01  0.00000000000E+00 0. -1.
     999901    1    3    3    0    0 -0.10812239315E+00 -0.32268545235E-01 -0.97982546111E-01  0.89259861654E+00  0.88000000000E+00 0. -1.
        -11    1    4    4    0    0  0.68933371942E-01  0.14641081959E-01  0.66525195479E-01  0.96912505915E-01  0.51100000000E-03 0. -1.
         11    1    4    4    0    0  0.18576136614E-01  0.13502374280E-01  0.20112840950E-01  0.30531532139E-01  0.51100000000E-03 0.  1.
</event>
<event>
 8    1  0.1123361E+005  0.1043930E+01  0.7957747E-01            NaN
         13   -1    0    0    0    0  0.00000000000E+00  0.00000000000E+00  0.74505805969E-08  0.10566000000E+00  0.10566000000E+00 0. -1.
     999900   -1    0    0    0    0 -0.00000000000E+00 -0.00000000000E+00 -0.74505805969E-08  0.93827000000E+00  0.93827000000E+00 0. -1.
     999902    2    1    2    0    0  0.14268513609E-01 -0.90518838794E-02  0.20546845237E-01  0.10173273698E+01  0.10169794873E+01 0.  0.
     999903    2    3    3    0    0  0.53023037037E-01  0.30631210341E-01 -0.10853644220E+00  0.12618251284E+00  0.19802872470E-01 0.  0.
         14    1    1    2    0    0 -0.14268513609E-01  0.90518838794E-02 -0.20546845237E-01  0.26602630163E-01  0.00000000000E+00 0.  1.
     999901    1    3    3    0    0 -0.38754523427E-01 -0.39683094220E-01  0.12908328744E+00  0.89114485700E+00  0.88000000000E+00 0.  1.
        -11    1    4    4    0    0  0.22562774892E-01  0.41873061031E-02 -0.50843881155E-01  0.55785067134E-01  0.51100000000E-03 0. -1.
         11    1    4    4    0    0  0.30460262145E-01  0.26443904237E-01 -0.57692561046E-01  0.70397445708E-01  0.51100000000E-03 0.  1.
</event>
<event>
 8    1  0.1123361E+005  0.1043930E+01  0.7957747E-01            NaN
         13   -1    0    0    0    0  0.00000000000E+00  0.00000000000E+00  0.74505805969E-08  0.10566000000E+00  0.10566000000E+00 0.  1.
     999900   -1    0    0    0    0 -0.00000000000E+00 -0.00000000000E+00 -0.74505805969E-08  0.93827000000E+00  0.93827000000E+00 0.  1.
     999902    2    1    2    0    0  0.11760352308E-01 -0.63341068966E-02  0.17241224967E-01  0.10221197585E+01  0.10218870359E+01 0.  0.
     999903    2    3    3    0    0 -0.10641822021E+00  0.58280521561E-01  0.46667173356E-01  0.13138572879E+00  0.19050665987E-01 0.  0.
         14    1    1    2    0    0 -0.11760352308E-01  0.63341068966E-02 -0.17241224967E-01  0.21810241515E-01  0.00000000000E+00 0.  1.
     999901    1    3    3    0    0  0.11817857252E+00 -0.64614628457E-01 -0.29425948389E-01  0.89073402969E+00  0.88000000000E+00 0.  1.
        -11    1    4    4    0    0 -0.26231618527E-01  0.56194464187E-02  0.86183663576E-02  0.28181791076E-01  0.51100000000E-03 0.  1.
         11    1    4    4    0    0 -0.80186601687E-01  0.52661075142E-01  0.38048806999E-01  0.10320393772E+00  0.51100000000E-03 0. -1.
</event>
<event>
 8    1  0.1123361E+005  0.1043930E+01  0.7957747E-01            NaN
         13   -1    0    0    0    0  0.00000000000E+00  0.00000000000E+00  0.74505805969E-08  0.10566000000E+00  0.10566000000E+00 0. -1.
     999900   -1    0    0    0    0 -0.00000000000E+00 -0.00000000000E+00 -0.74505805969E-08  0.93827000000E+00  0.93827000000E+00 0. -1.
     999902    2    1    2    0    0  0.22000389708E-01 -0.86743928880E-02  0.24012261672E-02  0.10201596797E+01  0.10198827109E+01 0.  0.
     999903    2    3    3    0    0 -0.68033604058E-01 -0.43566547535E-01 -0.98208673757E-01  0.12917935757E+00  0.22710074321E-01 0.  0.
         14    1    1    2    0    0 -0.22000389708E-01  0.86743928880E-02 -0.24012261672E-02  0.23770320284E-01  0.00000000000E+00 0. -1.
     999901    1    3    3    0    0  0.90033993767E-01  0.34892154647E-01  0.10060989992E+00  0.89098032215E+00  0.88000000000E+00 0.  1.
        -11    1    4    4    0    0 -0.31259317403E-01 -0.33354776219E-01 -0.51697623901E-01  0.69011531349E-01  0.51100000000E-03 0. -1.
         11    1    4    4    0    0 -0.36774286655E-01 -0.10211771317E-01 -0.46511049856E-01  0.60167826221E-01  0.51100000000E-03 0.  1.
</event>
<event>
 8    1  0.1123361E+005  0.1043930E+01  0.7957747E-01            NaN
         13   -1    0    0    0    0  0.00000000000E+00  0.00000000000E+00  0.74505805969E-08  0.10566000000E+00  0.10566000000E+00 0. -1.
     999900   -1    0    0    0    0 -0.00000000000E+00 -0.00000000000E+00 -0.74505805969E-08  0.93827000000E+00  0.93827000000E+00 0. -1.
     999902    2    1    2    0    0 -0.21659390102E-01 -0.94957916967E-02  0.48723499760E-02  0.10197837988E+01  0.10194978947E+01 0.  0.
     999903    2    3    3    0    0  0.76079201750E-01 -0.10150906281E+00  0.16610928232E-01  0.12952705568E+00  0.20228703466E-01 0.  0.
         14    1    1    2    0    0  0.21659390102E-01  0.94957916967E-02 -0.48723499760E-02  0.24146201230E-01  0.00000000000E+00 0.  1.
     999901    1    3    3    0    0 -0.97738591852E-01  0.92013271118E-01 -0.11738578256E-01  0.89025674309E+00  0.88000000000E+00 0. -1.
        -11    1    4    4    0    0  0.60464323610E-01 -0.65557183112E-01  0.13544708117E-01  0.90207532536E-01  0.51100000000E-03 0. -1.
         11    1    4    4    0    0  0.15614878140E-01 -0.35951879703E-01  0.30662201151E-02  0.39319523144E-01  0.51100000000E-03 0.  1.
</event>
<event>
 8    1  0.1123361E+005  0.1043930E+01  0.7957747E-01            NaN
         13   -1    0    0    0    0  0.00000000000E+00  0.00000000000E+00  0.74505805969E-08  0.10566000000E+00  0.10566000000E+00 0.  1.
     999900   -1    0    0    0    0 -0.00000000000E+00 -0.00000000000E+00 -0.74505805969E-08  0.93827000000E+00  0.93827000000E+00 0.  1.
     999902    2    1    2    0    0  0.72119189186E-02 -0.10172147365E-01  0.21409227063E-01  0.10191542183E+01  0.10188530224E+01 0.  0.
     999903    2    3    3    0    0  0.11918263686E+00  0.33638746653E-01 -0.31904058631E-01  0.12937944760E+00  0.19624125407E-01 0.  0.
         14    1    1    2    0    0 -0.72119189186E-02  0.10172147365E-01 -0.21409227063E-01  0.24775781722E-01  0.00000000000E+00 0. -1.
     999901    1    3    3    0    0 -0.11197071794E+00 -0.43810894018E-01  0.53313285694E-01  0.88977477068E+00  0.88000000000E+00 0. -1.
        -11    1    4    4    0    0  0.11351548262E+00  0.27282490775E-01 -0.31038224423E-01  0.12080451810E+00  0.51100000000E-03 0. -1.
         11    1    4    4    0    0  0.56671542389E-02  0.63562558784E-02 -0.86583420809E-03  0.85749294944E-02  0.51100000000E-03 0.  1.
</event>
<event>
 8    1  0.1123361E+005  0.1043930E+01  0.7957747E-01            NaN
         13   -1    0    0    0    0  0.00000000000E+00  0.00000000000E+00  0.74505805969E-08  0.10566000000E+00  0.10566000000E+00 0. -1.
     999900   -1    0    0    0    0 -0.00000000000E+00 -0.00000000000E+00 -0.74505805969E-08  0.93827000000E+00  0.93827000000E+00 0.  1.
     999902    2    1    2    0    0 -0.20526152117E-01  0.70275267167E-02 -0.15421903064E-02  0.10221794275E+01  0.10219479902E+01 0.  0.
     999903    2    3    3    0    0 -0.11190640090E+00  0.69338548120E-01 -0.22304366726E-01  0.13501310645E+00  0.20004432569E-01 0.  0.
         14    1    1    2    0    0  0.20526152117E-01 -0.70275267167E-02  0.15421903064E-02  0.21750572485E-01  0.00000000000E+00 0.  1.
     999901    1    3    3    0    0  0.91380248779E-01 -0.62311021404E-01  0.20762176420E-01  0.88716632106E+00  0.88000000000E+00 0. -1.
        -11    1    4    4    0    0 -0.80631711858E-01  0.39641517889E-01 -0.11809547129E-01  0.90623669216E-01  0.51100000000E-03 0.  1.
         11    1    4    4    0    0 -0.31274689038E-01  0.29697030231E-01 -0.10494819597E-01  0.44389437238E-01  0.51100000000E-03 0. -1.
</event>
<event>
 8    1  0.1123361E+005  0.1043930E+01  0.7957747E-01            NaN
         13   -1    0    0    0    0  0.00000000000E+00  0.00000000000E+00  0.74505805969E-08  0.10566000000E+00  0.10566000000E+00 0. -1.
     999900   -1    0    0    0    0 -0.00000000000E+00 -0.00000000000E+00 -0.74505805969E-08  0.93827000000E+00  0.93827000000E+00 0.  1.
     999902    2    1    2    0    0  0.54947918278E-02  0.14290291943E-01 -0.17928495334E-01  0.10203538229E+01  0.10200814123E+01 0.  0.
     999903    2    3    3    0    0  0.57697968659E-01 -0.93462924084E-01  0.64454993846E-01  0.12843288106E+00  0.16618812800E-01 0.  0.
         14    1    1    2    0    0 -0.54947918278E-02 -0.14290291943E-01  0.17928495334E-01  0.23576177086E-01  0.00000000000E+00 0. -1.
     999901    1    3    3    0    0 -0.52203176831E-01  0.10775321603E+00 -0.82383489180E-01  0.89192094186E+00  0.88000000000E+00 0.  1.
        -11    1    4    4    0    0  0.28418090219E-01 -0.54632564400E-01  0.27991875623E-01  0.67646959773E-01  0.51100000000E-03 0. -1.
         11    1    4    4    0    0  0.29279878440E-01 -0.38830359684E-01  0.36463118223E-01  0.60785921283E-01  0.51100000000E-03 0.  1.
</event>
<event>
 8    1  0.1123361E+005  0.1043930E+01  0.7957747E-01            NaN
         13   -1    0    0    0    0  0.00000000000E+00  0.00000000000E+00  0.74505805969E-08  0.10566000000E+00  0.10566000000E+00 0.  1.
     999900   -1    0    0    0    0 -0.00000000000E+00 -0.00000000000E+00 -0.74505805969E-08  0.93827000000E+00  0.93827000000E+00 0. -1.
     999902    2    1    2    0    0 -0.14210839050E-01 -0.16451440139E-01 -0.48497881032E-02  0.10216562874E+01  0.10214134576E+01 0.  0.
     999903    2    3    3    0    0  0.66075202508E-01  0.10721390827E+00  0.20169913887E-01  0.12903937495E+00  0.19585207427E-01 0.  0.
         14    1    1    2    0    0  0.14210839050E-01  0.16451440139E-01  0.48497881032E-02  0.22273712618E-01  0.00000000000E+00 0. -1.
     999901    1    3    3    0    0 -0.80286041558E-01 -0.12366534841E+00 -0.25019701990E-01  0.89261691243E+00  0.88000000000E+00 0. -1.
        -11    1    4    4    0    0  0.36046484059E-01  0.46488667534E-01  0.16927973908E-01  0.61215705858E-01  0.51100000000E-03 0.  1.
         11    1    4    4    0    0  0.30028718449E-01  0.60725240733E-01  0.32419399786E-02  0.67823669096E-01  0.51100000000E-03 0. -1.
</event>
<event>
 8    1  0.1123361E+005  0.1043930E+01  0.7957747E-01            NaN
         13   -1    0    0    0    0  0.00000000000E+00  0.00000000000E+00  0.74505805969E-08  0.10566000000E+00  0.10566000000E+00 0. -1.
     999900   -1    0    0    0    0 -0.00000000000E+00 -0.00000000000E+00 -0.74505805969E-08  0.93827000000E+00  0.93827000000E+00 0.  1.
     999902    2    1    2    0    0 -0.29928210631E-02 -0.16624817382E-01  0.15158589536E-01  0.10212336486E+01  0.10209814105E+01 0.  0.
     999903    2    3    3    0    0  0.55480106840E-01  0.23996486415E-02 -0.11533493374E+00  0.12948840849E+00  0.19526915393E-01 0.  0.
         14    1    1    2    0    0  0.29928210631E-02  0.16624817382E-01 -0.15158589536E-01  0.22696351416E-01  0.00000000000E+00 0.  1.
     999901    1    3    3    0    0 -0.58472927903E-01 -0.19024466023E-01  0.13049352328E+00  0.89174524009E+00  0.88000000000E+00 0. -1.
        -11    1    4    4    0    0  0.46683548194E-01 -0.20044588322E-02 -0.78469739021E-01  0.91329801216E-01  0.51100000000E-03 0.  1.
         11    1    4    4    0    0  0.87965586459E-02  0.44041074737E-02 -0.36865194720E-01  0.38158607278E-01  0.51100000000E-03 0. -1.
</event>
<event>
 8    1  0.1123361E+005  0.1043930E+01  0.7957747E-01            NaN
         13   -1    0    0    0    0  0.00000000000E+00  0.00000000000E+00  0.74505805969E-08  0.10566000000E+00  0.10566000000E+00 0. -1.
     999900   -1    0    0    0    0 -0.00000000000E+00 -0.00000000000E+00 -0.74505805969E-08  0.93827000000E+00  0.93827000000E+00 0. -1.
     999902    2    1    2    0    0  0.12660971602E-01  0.76873325665E-02  0.18145770202E-01  0.10205064166E+01  0.10202375616E+01 0.  0.
     999903    2    3    3    0    0  0.15889803755E-01 -0.10610782552E+00 -0.68553822583E-01  0.12894790322E+00  0.20410258537E-01 0.  0.
         14    1    1    2    0    0 -0.12660971602E-01 -0.76873325665E-02 -0.18145770202E-01  0.23423583418E-01  0.00000000000E+00 0.  1.
     999901    1    3    3    0    0 -0.32288321528E-02  0.11379515809E+00  0.86699592785E-01  0.89155851336E+00  0.88000000000E+00 0. -1.
        -11    1    4    4    0    0  0.20059178600E-01 -0.94726802925E-01 -0.58017454125E-01  0.11287968791E+00  0.51100000000E-03 0. -1.
         11    1    4    4    0    0 -0.41693748447E-02 -0.11381022597E-01 -0.10536368458E-01  0.16068215309E-01  0.51100000000E-03 0.  1.
</event>
<event>
 8    1  0.1123361E+005  0.1043930E+01  0.7957747E-01            NaN
         13   -1    0    0    0    0  0.00000000000E+00  0.00000000000E+00  0.74505805969E-08  0.10566000000E+00  0.10566000000E+00 0.  1.
     999900   -1    0    0    0    0 -0.00000000000E+00 -0.00000000000E+00 -0.74505805969E-08  0.93827000000E+00  0.93827000000E+00 0. -1.
     999902    2    1    2    0    0  0.10680892158E-01  0.22471295060E-01 -0.12797679441E-01  0.10159510587E+01  0.10155657204E+01 0.  0.
     999903    2    3    3    0    0 -0.11604956989E+00 -0.25088750194E-01 -0.33426477033E-01  0.12536242456E+00  0.22393304074E-01 0.  0.
         14    1    1    2    0    0 -0.10680892158E-01 -0.22471295060E-01  0.12797679441E-01  0.27978941332E-01  0.00000000000E+00 0.  1.
     999901    1    3    3    0    0  0.12673046204E+00  0.47560045255E-01  0.20628797591E-01  0.89058863411E+00  0.88000000000E+00 0.  1.
        -11    1    4    4    0    0 -0.85357682845E-01 -0.83709732805E-02 -0.21402235343E-01  0.88398665222E-01  0.51100000000E-03 0. -1.
         11    1    4    4    0    0 -0.30691887041E-01 -0.16717776914E-01 -0.12024241690E-01  0.36963759337E-01  0.51100000000E-03 0.  1.
</event>
<event>
 8    1  0.1123361E+005  0.1043930E+01  0.7957747E-01            NaN
         13   -1    0    0    0    0  0.00000000000E+00  0.00000000000E+00  0.74505805969E-08  0.10566000000E+00  0.10566000000E+00 0. -1.
     999900   -1    0    0    0    0 -0.00000000000E+00 -0.00000000000E+00 -0.74505805969E-08  0.93827000000E+00  0.93827000000E+00 0. -1.
     999902    2    1    2    0    0  0.15994014511E-01 -0.16350844664E-01  0.42919210211E-02  0.10206581456E+01  0.10203928023E+01 0.  0.
     999903    2    3    3    0    0 -0.30901140824E-01  0.91086373120E-01 -0.83164347787E-01  0.12858723456E+00  0.19150986313E-01 0.  0.
         14    1    1    2    0    0 -0.15994014511E-01  0.16350844664E-01 -0.42919210211E-02  0.23271854405E-01  0.00000000000E+00 0.  1.
     999901    1    3    3    0    0  0.46895155335E-01 -0.10743721778E+00  0.87456268809E-01  0.89207091103E+00  0.88000000000E+00 0. -1.
        -11    1    4    4    0    0 -0.50379257009E-02  0.19457362388E-01 -0.28347159042E-01  0.34753304781E-01  0.51100000000E-03 0.  1.
         11    1    4    4    0    0 -0.25863215123E-01  0.71629010732E-01 -0.54817188745E-01  0.93833929780E-01  0.51100000000E-03 0. -1.
</event>
<event>
 8    1  0.1123361E+005  0.1043930E+01  0.7957747E-01            NaN
         13   -1    0    0    0    0  0.00000000000E+00  0.00000000000E+00  0.74505805969E-08  0.10566000000E+00  0.10566000000E+00 0. -1.
     999900   -1    0    0    0    0 -0.00000000000E+00 -0.00000000000E+00 -0.74505805969E-08  0.93827000000E+00  0.93827000000E+00 0. -1.
     999902    2    1    2    0    0  0.90813468005E-02  0.14697219140E-01 -0.17884671779E-01  0.10190635448E+01  0.10187601129E+01 0.  0.
     999903    2    3    3    0    0 -0.11728998169E+00  0.23087101869E-01  0.39939029852E-01  0.12811815742E+00  0.23003957861E-01 0.  0.
         14    1    1    2    0    0 -0.90813468005E-02 -0.14697219140E-01  0.17884671779E-01  0.24866455212E-01  0.00000000000E+00 0. -1.
     999901    1    3    3    0    0  0.12637132849E+00 -0.83898827293E-02 -0.57823701631E-01  0.89094538737E+00  0.88000000000E+00 0. -1.
        -11    1    4    4    0    0 -0.21800701359E-01  0.71953615030E-02 -0.10655390895E-02  0.22987829420E-01  0.51100000000E-03 0. -1.
         11    1    4    4    0    0 -0.95489280336E-01  0.15891740366E-01  0.41004568941E-01  0.10513032800E+00  0.51100000000E-03 0.  1.
</event>
<event>
 8    1  0.1123361E+005  0.1043930E+01  0.7957747E-01            NaN
         13   -1    0    0    0    0  0.00000000000E+00  0.00000000000E+00  0.74505805969E-08  0.10566000000E+00  0.10566000000E+00 0. -1.
     999900   -1    0    0    0    0 -0.00000000000E+00 -0.00000000000E+00 -0.74505805969E-08  0.93827000000E+00  0.93827000000E+00 0.  1.
     999902    2    1    2    0    0  0.22275332554E-01  0.68849951898E-02 -0.13324718961E-02  0.10205768614E+01  0.10203096398E+01 0.  0.
     999903    2    3    3    0    0 -0.40116662363E-01 -0.74460534636E-01  0.95921163385E-01  0.12930354431E+00  0.19100240026E-01 0.  0.
         14    1    1    2    0    0 -0.22275332554E-01 -0.68849951898E-02  0.13324718961E-02  0.23353138558E-01  0.00000000000E+00 0. -1.
     999901    1    3    3    0    0  0.62391994917E-01  0.81345529826E-01 -0.97253635281E-01  0.89127331713E+00  0.88000000000E+00 0. -1.
        -11    1    4    4    0    0 -0.34716536950E-01 -0.46083837132E-01  0.60671119671E-01  0.83726960208E-01  0.51100000000E-03 0.  1.
         11    1    4    4    0    0 -0.54001254136E-02 -0.28376697504E-01  0.35250043714E-01  0.45576584103E-01  0.51100000000E-03 0. -1.
</event>
<event>
 8    1  0.1123361E+005  0.1043930E+01  0.7957747E-01            NaN
         13   -1    0    0    0    0  0.00000000000E+00  0.00000000000E+00  0.74505805969E-08  0.10566000000E+00  0.10566000000E+00 0.  1.
     999900   -1    0    0    0    0 -0.00000000000E+00 -0.00000000000E+00 -0.74505805969E-08  0.93827000000E+00  0.93827000000E+00 0.  1.
     999902    2    1    2    0    0  0.17267952111E-01 -0.12818732652E-01 -0.93731527392E-02  0.10204702884E+01  0.10202005937E+01 0.  0.
     999903    2    3    3    0    0  0.18670889123E-01  0.35454532772E-01  0.12143140950E+00  0.12949211250E+00  0.20420430754E-01 0.  0.
         14    1    1    2    0    0 -0.17267952111E-01  0.12818732652E-01  0.93731527392E-02  0.23459711617E-01  0.00000000000E+00 0. -1.
     999901    1    3    3    0    0 -0.14029370127E-02 -0.48273265424E-01 -0.13080456224E+00  0.89097817588E+00  0.88000000000E+00 0.  1.
        -11    1    4    4    0    0  0.95384989632E-02  0.13146126491E-01  0.23069038471E-01  0.28217818150E-01  0.51100000000E-03 0.  1.
         11    1    4    4    0    0  0.91323901602E-02  0.22308406281E-01  0.98362371033E-01  0.10127429436E+00  0.51100000000E-03 0. -1.
</event>
<event>
 8    1  0.1123361E+005  0.1043930E+01  0.7957747E-01            NaN
         13   -1    0    0    0    0  0.00000000000E+00  0.00000000000E+00  0.74505805969E-08  0.10566000000E+00  0.10566000000E+00 0. -1.
     999900   -1    0    0    0    0 -0.00000000000E+00 -0.00000000000E+00 -0.74505805969E-08  0.93827000000E+00  0.93827000000E+00 0. -1.
     999902    2    1    2    0    0  0.94308654895E-02  0.38943982511E-02  0.21087076117E-01  0.10205041096E+01  0.10202352010E+01 0.  0.
     999903    2    3    3    0    0 -0.65843966882E-01  0.59111849740E-02 -0.10700577859E+00  0.12804786572E+00  0.23992690197E-01 0.  0.
         14    1    1    2    0    0 -0.94308654895E-02 -0.38943982511E-02 -0.21087076117E-01  0.23425890394E-01  0.00000000000E+00 0.  1.
     999901    1    3    3    0    0  0.75274832372E-01 -0.20167867229E-02  0.12809285470E+00  0.89245624388E+00  0.88000000000E+00 0.  1.
        -11    1    4    4    0    0 -0.18720782982E-01  0.78480204469E-02 -0.50591178685E-01  0.54514104800E-01  0.51100000000E-03 0.  1.
         11    1    4    4    0    0 -0.47123183901E-01 -0.19368354729E-02 -0.56414599902E-01  0.73533760924E-01  0.51100000000E-03 0. -1.
</event>
<event>
 8    1  0.1123361E+005  0.1043930E+01  0.7957747E-01            NaN
         13   -1    0    0    0    0  0.00000000000E+00  0.00000000000E+00  0.74505805969E-08  0.10566000000E+00  0.10566000000E+00 0. -1.
     999900   -1    0    0    0    0 -0.00000000000E+00 -0.00000000000E+00 -0.74505805969E-08  0.93827000000E+00  0.93827000000E+00 0.  1.
     999902    2    1    2    0    0 -0.96177293727E-02 -0.20362255081E-02  0.20719754924E-01  0.10209962873E+01  0.10207386853E+01 0.  0.
     999903    2    3    3    0    0 -0.10161955765E+00  0.79594648265E-01 -0.15963532097E-01  0.13168554327E+00  0.20601102386E-01 0.  0.
         14    1    1    2    0    0  0.96177293727E-02  0.20362255081E-02 -0.20719754924E-01  0.22933712667E-01  0.00000000000E+00 0.  1.
     999901    1    3    3    0    0  0.92001828278E-01 -0.81630873773E-01  0.36683287020E-01  0.88931074406E+00  0.88000000000E+00 0. -1.
        -11    1    4    4    0    0 -0.19869893583E-01  0.26752319929E-01 -0.25897080612E-02  0.33428535735E-01  0.51100000000E-03 0.  1.
         11    1    4    4    0    0 -0.81749664068E-01  0.52842328337E-01 -0.13373824035E-01  0.98257007534E-01  0.51100000000E-03 0. -1.
</event>
<event>
 8    1  0.1123361E+005  0.1043930E+01  0.7957747E-01            NaN
         13   -1    0    0    0    0  0.00000000000E+00  0.00000000000E+00  0.74505805969E-08  0.10566000000E+00  0.10566000000E+00 0.  1.
     999900   -1    0    0    0    0 -0.00000000000E+00 -0.00000000000E+00 -0.74505805969E-08  0.93827000000E+00  0.93827000000E+00 0. -1.
     999902    2    1    2    0    0 -0.49817081380E-02  0.13953376490E-01 -0.18260152307E-01  0.10204151686E+01  0.10201441903E+01 0.  0.
     999903    2    3    3    0    0  0.24614409963E-01  0.31993238038E-01 -0.12544880389E+00  0.13323380396E+00  0.19606316904E-01 0.  0.
         14    1    1    2    0    0  0.49817081380E-02 -0.13953376490E-01  0.18260152307E-01  0.23514831356E-01  0.00000000000E+00 0.  1.
     999901    1    3    3    0    0 -0.29596118101E-01 -0.18039861548E-01  0.10718865158E+00  0.88718136468E+00  0.88000000000E+00 0.  1.
        -11    1    4    4    0    0  0.26124333244E-01  0.27634779298E-01 -0.93330734510E-01  0.10078218563E+00  0.51100000000E-03 0. -1.
         11    1    4    4    0    0 -0.15099232805E-02  0.43584587396E-02 -0.32118069380E-01  0.32451618336E-01  0.51100000000E-03 0.  1.
</event>
<event>
 8    1  0.1123361E+005  0.1043930E+01  0.7957747E-01            NaN
         13   -1    0    0    0    0  0.00000000000E+00  0.00000000000E+00  0.74505805969E-08  0.10566000000E+00  0.10566000000E+00 0. -1.
     999900   -1    0    0    0    0 -0.00000000000E+00 -0.00000000000E+00 -0.74505805969E-08  0.93827000000E+00  0.93827000000E+00 0. -1.
     999902    2    1    2    0    0  0.15790978377E-01  0.17178947683E-01  0.24004710157E-02  0.10204729434E+01  0.10202033105E+01 0.  0.
     999903    2    3    3    0    0  0.58451567014E-01 -0.35544768626E-01 -0.10981195836E+00  0.13075875034E+00  0.18951736866E-01 0.  0.
         14    1    1    2    0    0 -0.15790978377E-01 -0.17178947683E-01 -0.24004710157E-02  0.23457056565E-01  0.00000000000E+00 0.  1.
     999901    1    3    3    0    0 -0.42660588637E-01  0.52723716308E-01  0.11221242937E+00  0.88971419309E+00  0.88000000000E+00 0.  1.
        -11    1    4    4    0    0  0.46824143378E-01 -0.20335478101E-01 -0.70651798238E-01  0.87166334029E-01  0.51100000000E-03 0. -1.
         11    1    4    4    0    0  0.11627423635E-01 -0.15209290525E-01 -0.39160160118E-01  0.43592416314E-01  0.51100000000E-03 0.  1.
</event>
<event>
 8    1  0.1259202E+005  0.1043930E+01  0.7957747E-01            NaN
         13   -1    0    0    0    0  0.00000000000E+00  0.00000000000E+00  0.74505805969E-08  0.10566000000E+00  0.10566000000E+00 0.  1.
     999900   -1    0    0    0    0 -0.00000000000E+00 -0.00000000000E+00 -0.74505805969E-08  0.93827000000E+00  0.93827000000E+00 0.  1.
     999902    2    1    2    0    0 -0.20539319562E-01 -0.63585690773E-02  0.10636306720E-01  0.10199419599E+01  0.10196598332E+01 0.  0.
     999903    2    3    3    0    0  0.73484608286E-01 -0.14718159095E-01  0.10414453364E+00  0.12996770729E+00  0.20710122863E-01 0.  0.
         14    1    1    2    0    0  0.20539319562E-01  0.63585690773E-02 -0.10636306720E-01  0.23988040133E-01  0.00000000000E+00 0. -1.
     999901    1    3    3    0    0 -0.94023927848E-01  0.83595900173E-02 -0.93508226917E-01  0.88997425258E+00  0.88000000000E+00 0.  1.
        -11    1    4    4    0    0  0.47302884897E-01  0.62027586388E-03  0.66552932753E-01  0.81654771084E-01  0.51100000000E-03 0.  1.
         11    1    4    4    0    0  0.26181723389E-01 -0.15338434959E-01  0.37591600884E-01  0.48312936203E-01  0.51100000000E-03 0. -1.
</event>
<event>
 8    1  0.1123361E+005  0.1043930E+01  0.7957747E-01            NaN
         13   -1    0    0    0    0  0.00000000000E+00  0.00000000000E+00  0.74505805969E-08  0.10566000000E+00  0.10566000000E+00 0. -1.
     999900   -1    0    0    0    0 -0.00000000000E+00 -0.00000000000E+00 -0.74505805969E-08  0.93827000000E+00  0.93827000000E+00 0. -1.
     999902    2    1    2    0    0  0.17368792670E-01 -0.62719303461E-02  0.11770575892E-01  0.10220311752E+01  0.10217965378E+01 0.  0.
     999903    2    3    3    0    0  0.71870027990E-01  0.10864399214E+00  0.16236725428E-01  0.13287652031E+00  0.20584470969E-01 0.  0.
         14    1    1    2    0    0 -0.17368792670E-01  0.62719303461E-02 -0.11770575892E-01  0.21898824761E-01  0.00000000000E+00 0. -1.
     999901    1    3    3    0    0 -0.54501235320E-01 -0.11491592249E+00 -0.44661495355E-02  0.88915465493E+00  0.88000000000E+00 0. -1.
        -11    1    4    4    0    0  0.27070734876E-01  0.53666144418E-01  0.14963924958E-01  0.61944006284E-01  0.51100000000E-03 0.  1.
         11    1    4    4    0    0  0.44799293114E-01  0.54977847723E-01  0.12728004702E-02  0.70932514024E-01  0.51100000000E-03 0. -1.
</event>
<event>
 8    1  0.1123361E+005  0.1043930E+01  0.7957747E-01            NaN
         13   -1    0    0    0    0  0.00000000000E+00  0.00000000000E+00  0.74505805969E-08  0.10566000000E+00  0.10566000000E+00 0. -1.
     999900   -1    0    0    0    0 -0.00000000000E+00 -0.00000000000E+00 -0.74505805969E-08  0.93827000000E+00  0.93827000000E+00 0. -1.
     999902    2    1    2    0    0 -0.55577841894E-02 -0.11782729854E-01 -0.19432988631E-01  0.10205342154E+01  0.10202660056E+01 0.  0.
     999903    2    3    3    0    0 -0.12514379899E-02  0.12438247552E-01 -0.13095918066E+00  0.13315419996E+00  0.20578091983E-01 0.  0.
         14    1    1    2    0    0  0.55577841894E-02  0.11782729854E-01  0.19432988631E-01  0.23395784557E-01  0.00000000000E+00 0. -1.
     999901    1    3    3    0    0 -0.43063461995E-02 -0.24220977406E-01  0.11152619203E+00  0.88738001548E+00  0.88000000000E+00 0.  1.
        -11    1    4    4    0    0 -0.99819688183E-02  0.46269015265E-02 -0.85522590136E-01  0.86228895759E-01  0.51100000000E-03 0.  1.
         11    1    4    4    0    0  0.87305308284E-02  0.78113460258E-02 -0.45436590524E-01  0.46925304204E-01  0.51100000000E-03 0. -1.
</event>
<event>
 8    1  0.1123361E+005  0.1043930E+01  0.7957747E-01            NaN
         13   -1    0    0    0    0  0.00000000000E+00  0.00000000000E+00  0.74505805969E-08  0.10566000000E+00  0.10566000000E+00 0.  1.
     999900   -1    0    0    0    0 -0.00000000000E+00 -0.00000000000E+00 -0.74505805969E-08  0.93827000000E+00  0.93827000000E+00 0. -1.
     999902    2    1    2    0    0  0.16844793284E-01 -0.10646230041E-01  0.12582346918E-01  0.10203629737E+01  0.10200907770E+01 0.  0.
     999903    2    3    3    0    0 -0.11525583751E+00  0.28743141277E-02 -0.52085493631E-01  0.12805399617E+00  0.19818111070E-01 0.  0.
         14    1    1    2    0    0 -0.16844793284E-01  0.10646230041E-01 -0.12582346918E-01  0.23567026304E-01  0.00000000000E+00 0. -1.
     999901    1    3    3    0    0  0.13210063079E+00 -0.13520544168E-01  0.64667840549E-01  0.89230897753E+00  0.88000000000E+00 0. -1.
        -11    1    4    4    0    0 -0.54660584354E-01  0.53474460284E-02 -0.14881887573E-01  0.56904361518E-01  0.51100000000E-03 0.  1.
         11    1    4    4    0    0 -0.60595253157E-01 -0.24731319007E-02 -0.37203606058E-01  0.71149634653E-01  0.51100000000E-03 0. -1.
</event>
<event>
 8    1  0.1123361E+005  0.1043930E+01  0.7957747E-01            NaN
         13   -1    0    0    0    0  0.00000000000E+00  0.00000000000E+00  0.74505805969E-08  0.10566000000E+00  0.10566000000E+00 0.  1.
     999900   -1    0    0    0    0 -0.00000000000E+00 -0.00000000000E+00 -0.74505805969E-08  0.93827000000E+00  0.93827000000E+00 0.  1.
     999902    2    1    2    0    0  0.12978094017E-01  0.11421876272E-01  0.17466459765E-01  0.10193542518E+01  0.10190579588E+01 0.  0.
     999903    2    3    3    0    0  0.12106829898E+00  0.42258150834E-01 -0.20563875501E-01  0.13138990871E+00  0.19928642820E-01 0.  0.
         14    1    1    2    0    0 -0.12978094017E-01 -0.11421876272E-01 -0.17466459765E-01  0.24575748180E-01  0.00000000000E+00 0. -1.
     999901    1    3    3    0    0 -0.10809020496E+00 -0.30836274563E-01  0.38030335266E-01  0.88796434311E+00  0.88000000000E+00 0.  1.
        -11    1    4    4    0    0  0.85772475524E-01  0.21911648377E-01 -0.19402719025E-01  0.90629821354E-01  0.51100000000E-03 0. -1.
         11    1    4    4    0    0  0.35295823457E-01  0.20346502457E-01 -0.11611564759E-02  0.40760087354E-01  0.51100000000E-03 0.  1.
</event>
<event>
 8    1  0.1123361E+005  0.1043930E+01  0.7957747E-01            NaN
         13   -1    0    0    0    0  0.00000000000E+00  0.00000000000E+00  0.74505805969E-08  0.10566000000E+00  0.10566000000E+00 0. -1.
     999900   -1    0    0    0    0 -0.00000000000E+00 -0.00000000000E+00 -0.74505805969E-08  0.93827000000E+00  0.93827000000E+00 0. -1.
     999902    2    1    2    0    0  0.21504219322E-01  0.17549896252E-02 -0.46159703166E-02  0.10218660335E+01  0.10216278049E+01 0.  0.
     999903    2    3    3    0    0 -0.10572270239E+00  0.70303694117E-01 -0.18737164802E-01  0.12996636275E+00  0.20500607130E-01 0.  0.
         14    1    1    2    0    0 -0.21504219322E-01 -0.17549896252E-02  0.46159703166E-02  0.22063966533E-01  0.00000000000E+00 0.  1.
     999901    1    3    3    0    0  0.12722692172E+00 -0.68548704492E-01  0.14121194485E-01  0.89189967072E+00  0.88000000000E+00 0. -1.
        -11    1    4    4    0    0 -0.39890732729E-01  0.36789860636E-01 -0.13414146966E-01  0.55901385163E-01  0.51100000000E-03 0.  1.
         11    1    4    4    0    0 -0.65831969665E-01  0.33513833481E-01 -0.53230178356E-02  0.74064977583E-01  0.51100000000E-03 0. -1.
</event>
<event>
 8    1  0.1123361E+005  0.1043930E+01  0.7957747E-01            NaN
         13   -1    0    0    0    0  0.00000000000E+00  0.00000000000E+00  0.74505805969E-08  0.10566000000E+00  0.10566000000E+00 0.  1.
     999900   -1    0    0    0    0 -0.00000000000E+00 -0.00000000000E+00 -0.74505805969E-08  0.93827000000E+00  0.93827000000E+00 0. -1.
     999902    2    1    2    0    0  0.57920449166E-02  0.32452196623E-01 -0.11520011367E-01  0.10090100414E+01  0.10084056029E+01 0.  0.
     999903    2    3    3    0    0 -0.54383101890E-01  0.40496106113E-01  0.97349621779E-01  0.12022528125E+00  0.19486226146E-01 0.  0.
         14    1    1    2    0    0 -0.57920449166E-02 -0.32452196623E-01  0.11520011367E-01  0.34919958646E-01  0.00000000000E+00 0.  1.
     999901    1    3    3    0    0  0.60175146807E-01 -0.80439094902E-02 -0.10886963315E+00  0.88878476010E+00  0.88000000000E+00 0. -1.
        -11    1    4    4    0    0 -0.27346623524E-01  0.17454931057E-01  0.30546715222E-01  0.44563161561E-01  0.51100000000E-03 0. -1.
         11    1    4    4    0    0 -0.27036478366E-01  0.23041175055E-01  0.66802906557E-01  0.75662119689E-01  0.51100000000E-03 0.  1.
</event>
<event>
 8    1  0.1123361E+005  0.1043930E+01  0.7957747E-01            NaN
         13   -1    0    0    0    0  0.00000000000E+00  0.00000000000E+00  0.74505805969E-08  0.10566000000E+00  0.10566000000E+00 0. -1.
     999900   -1    0    0    0    0 -0.00000000000E+00 -0.00000000000E+00 -0.74505805969E-08  0.93827000000E+00  0.93827000000E+00 0. -1.
     999902    2    1    2    0    0  0.14868110280E-01  0.89199658013E-02 -0.16225128457E-01  0.10201838153E+01  0.10199074153E+01 0.  0.
     999903    2    3    3    0    0  0.98634364848E-01 -0.71832407383E-01 -0.45989935128E-01  0.13202635468E+00  0.20670063330E-01 0.  0.
         14    1    1    2    0    0 -0.14868110280E-01 -0.89199658013E-02  0.16225128457E-01  0.23746184676E-01  0.00000000000E+00 0. -1.
     999901    1    3    3    0    0 -0.83766254568E-01  0.80752373184E-01  0.29764806671E-01  0.88815746064E+00  0.88000000000E+00 0.  1.
        -11    1    4    4    0    0  0.74256981042E-01 -0.43005878434E-01 -0.35269417158E-01  0.92778217924E-01  0.51100000000E-03 0.  1.
         11    1    4    4    0    0  0.24377383806E-01 -0.28826528949E-01 -0.10720517970E-01  0.39248136758E-01  0.51100000000E-03 0. -1.
</event>
<event>
 8    1  0.1123361E+005  0.1043930E+01  0.7957747E-01            NaN
         13   -1    0    0    0    0  0.00000000000E+00  0.00000000000E+00  0.74505805969E-08  0.10566000000E+00  0.10566000000E+00 0. -1.
     999900   -1    0    0    0    0 -0.00000000000E+00 -0.00000000000E+00 -0.74505805969E-08  0.93827000000E+00  0.93827000000E+00 0. -1.
     999902    2    1    2    0    0  0.77978781023E-02  0.21700820046E-01  0.50714501068E-02  0.10203195765E+01  0.10200463646E+01 0.  0.
     999903    2    3    3    0    0 -0.21935337744E-01  0.10277166499E-02 -0.12613275349E+00  0.12985566121E+00  0.21698064431E-01 0.  0.
         14    1    1    2    0    0 -0.77978781023E-02 -0.21700820046E-01 -0.50714501068E-02  0.23610423540E-01  0.00000000000E+00 0. -1.
     999901    1    3    3    0    0  0.29733215847E-01  0.20673103396E-01  0.13120420360E+00  0.89046391525E+00  0.88000000000E+00 0.  1.
        -11    1    4    4    0    0 -0.15378233986E-01  0.11007468074E-01 -0.77015756101E-01  0.79305373353E-01  0.51100000000E-03 0. -1.
         11    1    4    4    0    0 -0.65571037580E-02 -0.99797514237E-02 -0.49116997391E-01  0.50550287852E-01  0.51100000000E-03 0.  1.
</event>
<event>
 8    1  0.1123361E+005  0.1043930E+01  0.7957747E-01            NaN
         13   -1    0    0    0    0  0.00000000000E+00  0.00000000000E+00  0.74505805969E-08  0.10566000000E+00  0.10566000000E+00 0. -1.
     999900   -1    0    0    0    0 -0.00000000000E+00 -0.00000000000E+00 -0.74505805969E-08  0.93827000000E+00  0.93827000000E+00 0. -1.
     999902    2    1    2    0    0  0.20904159974E-01 -0.11345127694E-01 -0.19922480656E-02  0.10200623466E+01  0.10197830779E+01 0.  0.
     999903    2    3    3    0    0  0.17934461676E-01  0.89186038323E-01  0.89988092188E-01  0.12957050641E+00  0.20368236251E-01 0.  0.
         14    1    1    2    0    0 -0.20904159974E-01  0.11345127694E-01  0.19922480656E-02  0.23867653403E-01  0.00000000000E+00 0. -1.
     999901    1    3    3    0    0  0.29696982974E-02 -0.10053116602E+00 -0.91980340254E-01  0.89049184019E+00  0.88000000000E+00 0. -1.
        -11    1    4    4    0    0  0.14933455739E-01  0.28671128492E-01  0.26440201513E-01  0.41765860297E-01  0.51100000000E-03 0. -1.
         11    1    4    4    0    0  0.30010059370E-02  0.60514909831E-01  0.63547890675E-01  0.87804646112E-01  0.51100000000E-03 0.  1.
</event>
<event>
 8    1  0.1123361E+005  0.1043930E+01  0.7957747E-01            NaN
         13   -1    0    0    0    0  0.00000000000E+00  0.00000000000E+00  0.74505805969E-08  0.10566000000E+00  0.10566000000E+00 0. -1.
     999900   -1    0    0    0    0 -0.00000000000E+00 -0.00000000000E+00 -0.74505805969E-08  0.93827000000E+00  0.93827000000E+00 0.  1.
     999902    2    1    2    0    0  0.86282653674E-02  0.16281288334E-02  0.15163440886E-01  0.10264077939E+01  0.10262582188E+01 0.  0.
     999903    2    3    3    0    0 -0.53509903810E-01  0.32955768029E-01  0.12062691211E+00  0.13738298165E+00  0.19334923617E-01 0.  0.
         14    1    1    2    0    0 -0.86282653674E-02 -0.16281288334E-02 -0.15163440886E-01  0.17522206090E-01  0.00000000000E+00 0.  1.
     999901    1    3    3    0    0  0.62138169177E-01 -0.31327639195E-01 -0.10546347122E+00  0.88902481226E+00  0.88000000000E+00 0.  1.
        -11    1    4    4    0    0 -0.82462302715E-02  0.56127079649E-03  0.29129883072E-01  0.30284097268E-01  0.51100000000E-03 0.  1.
         11    1    4    4    0    0 -0.45263673538E-01  0.32394497232E-01  0.91497029036E-01  0.10709888438E+00  0.51100000000E-03 0. -1.
</event>
<event>
 8    1  0.1123361E+005  0.1043930E+01  0.7957747E-01            NaN
         13   -1    0    0    0    0  0.00000000000E+00  0.00000000000E+00  0.74505805969E-08  0.10566000000E+00  0.10566000000E+00 0.  1.
     999900   -1    0    0    0    0 -0.00000000000E+00 -0.00000000000E+00 -0.74505805969E-08  0.93827000000E+00  0.93827000000E+00 0. -1.
     999902    2    1    2    0    0 -0.33108600948E-02  0.27520552019E-02  0.23263621130E-01  0.10202713510E+01  0.10199970089E+01 0.  0.
     999903    2    3    3    0    0  0.58719466254E-01  0.94899823853E-01  0.68202530067E-01  0.13215059451E+00  0.18927288143E-01 0.  0.
         14    1    1    2    0    0  0.33108600948E-02 -0.27520552019E-02 -0.23263621130E-01  0.23658648957E-01  0.00000000000E+00 0. -1.
     999901    1    3    3    0    0 -0.62030326349E-01 -0.92147768651E-01 -0.44938908937E-01  0.88812075654E+00  0.88000000000E+00 0. -1.
        -11    1    4    4    0    0  0.24574037787E-01  0.57412303405E-01  0.39116116833E-01  0.73691163870E-01  0.51100000000E-03 0.  1.
         11    1    4    4    0    0  0.34145428467E-01  0.37487520448E-01  0.29086413234E-01  0.58459430637E-01  0.51100000000E-03 0. -1.
</event>
<event>
 8    1  0.1123361E+005  0.1043930E+01  0.7957747E-01            NaN
         13   -1    0    0    0    0  0.00000000000E+00  0.00000000000E+00  0.74505805969E-08  0.10566000000E+00  0.10566000000E+00 0.  1.
     999900   -1    0    0    0    0 -0.00000000000E+00 -0.00000000000E+00 -0.74505805969E-08  0.93827000000E+00  0.93827000000E+00 0. -1.
     999902    2    1    2    0    0 -0.25774047547E-01 -0.70694357729E-02 -0.15581761752E-02  0.10171586279E+01  0.10168062588E+01 0.  0.
     999903    2    3    3    0    0 -0.93177297125E-01  0.81329811083E-01 -0.33496043754E-01  0.12959023492E+00  0.19367425465E-01 0.  0.
         14    1    1    2    0    0  0.25774047547E-01  0.70694357729E-02  0.15581761752E-02  0.26771372062E-01  0.00000000000E+00 0. -1.
     999901    1    3    3    0    0  0.67403249578E-01 -0.88399246856E-01  0.31937867579E-01  0.88756839302E+00  0.88000000000E+00 0. -1.
        -11    1    4    4    0    0 -0.59182626671E-01  0.57672860618E-01 -0.14012686188E-01  0.83817412551E-01  0.51100000000E-03 0. -1.
         11    1    4    4    0    0 -0.33994670454E-01  0.23656950465E-01 -0.19483357566E-01  0.45772822369E-01  0.51100000000E-03 0.  1.
</event>
<event>
 8    1  0.1123361E+005  0.1043930E+01  0.7957747E-01            NaN
         13   -1    0    0    0    0  0.00000000000E+00  0.00000000000E+00  0.74505805969E-08  0.10566000000E+00  0.10566000000E+00 0.  1.
     999900   -1    0    0    0    0 -0.00000000000E+00 -0.00000000000E+00 -0.74505805969E-08  0.93827000000E+00  0.93827000000E+00 0. -1.
     999902    2    1    2    0    0 -0.69843539656E-02  0.21355946038E-01 -0.88043532263E-02  0.10197975681E+01  0.10195119939E+01 0.  0.
     999903    2    3    3    0    0 -0.10941667829E+00 -0.11650524662E-01 -0.68890105042E-01  0.13120761448E+00  0.19022284664E-01 0.  0.
         14    1    1    2    0    0  0.69843539656E-02 -0.21355946038E-01  0.88043532263E-02  0.24132431855E-01  0.00000000000E+00 0. -1.
     999901    1    3    3    0    0  0.10243232432E+00  0.33006470701E-01  0.60085751816E-01  0.88858995366E+00  0.88000000000E+00 0.  1.
        -11    1    4    4    0    0 -0.10008844683E+00 -0.14535029640E-01 -0.66802813342E-01  0.12120990581E+00  0.51100000000E-03 0. -1.
         11    1    4    4    0    0 -0.93282314530E-02  0.28845049780E-02 -0.20872917005E-02  0.99977086701E-02  0.51100000000E-03 0.  1.
</event>
<event>
 8    1  0.1123361E+005  0.1043930E+01  0.7957747E-01            NaN
         13   -1    0    0    0    0  0.00000000000E+00  0.00000000000E+00  0.74505805969E-08  0.10566000000E+00  0.10566000000E+00 0.  1.
     999900   -1    0    0    0    0 -0.00000000000E+00 -0.00000000000E+00 -0.74505805969E-08  0.93827000000E+00  0.93827000000E+00 0.  1.
     999902    2    1    2    0    0 -0.10314225917E-01 -0.77419261287E-02 -0.20833169107E-01  0.10194281304E+01  0.10191336377E+01 0.  0.
     999903    2    3    3    0    0 -0.96944744998E-01 -0.33099769671E-01  0.76047045033E-01  0.12952159437E+00  0.22334099820E-01 0.  0.
         14    1    1    2    0    0  0.10314225917E-01  0.77419261287E-02  0.20833169107E-01  0.24501869551E-01  0.00000000000E+00 0.  1.
     999901    1    3    3    0    0  0.86630519081E-01  0.25357843542E-01 -0.96880214141E-01  0.88990653608E+00  0.88000000000E+00 0.  1.
        -11    1    4    4    0    0 -0.71605617276E-01 -0.27742834703E-01  0.67503415394E-01  0.10224481167E+00  0.51100000000E-03 0. -1.
         11    1    4    4    0    0 -0.25339127721E-01 -0.53569349676E-02  0.85436296390E-02  0.27276782698E-01  0.51100000000E-03 0.  1.
</event>
<event>
 8    1  0.1123361E+005  0.1043930E+01  0.7957747E-01            NaN
         13   -1    0    0    0    0  0.00000000000E+00  0.00000000000E+00  0.74505805969E-08  0.10566000000E+00  0.10566000000E+00 0.  1.
     999900   -1    0    0    0    0 -0.00000000000E+00 -0.00000000000E+00 -0.74505805969E-08  0.93827000000E+00  0.93827000000E+00 0. -1.
     999902    2    1    2    0    0  0.59017174660E-02 -0.19626154352E-01  0.11891903329E-01  0.10202354106E+01  0.10199602244E+01 0.  0.
     999903    2    3    3    0    0 -0.21778808983E-01 -0.11327109984E+00 -0.60642462155E-01  0.13186790692E+00  0.20173697698E-01 0.  0.
         14    1    1    2    0    0 -0.59017174660E-02  0.19626154352E-01 -0.11891903329E-01  0.23694589435E-01  0.00000000000E+00 0. -1.
     999901    1    3    3    0    0  0.27680526449E-01  0.93644945489E-01  0.72534365484E-01  0.88836750365E+00  0.88000000000E+00 0.  1.
        -11    1    4    4    0    0  0.23367454673E-03 -0.45148151844E-01 -0.18517580231E-01  0.48801353642E-01  0.51100000000E-03 0.  1.
         11    1    4    4    0    0 -0.22012483530E-01 -0.68122947997E-01 -0.42124881924E-01  0.83066553275E-01  0.51100000000E-03 0. -1.
</event>
<event>
 8    1  0.1123361E+005  0.1043930E+01  0.7957747E-01            NaN
         13   -1    0    0    0    0  0.00000000000E+00  0.00000000000E+00  0.74505805969E-08  0.10566000000E+00  0.10566000000E+00 0. -1.
     999900   -1    0    0    0    0 -0.00000000000E+00 -0.00000000000E+00 -0.74505805969E-08  0.93827000000E+00  0.93827000000E+00 0.  1.
     999902    2    1    2    0    0  0.67143440343E-02 -0.23447385436E-01 -0.19098634739E-02  0.10194655385E+01  0.10191719552E+01 0.  0.
     999903    2    3    3    0    0 -0.44604705778E-01  0.95118448055E-01 -0.69416762501E-01  0.12747412418E+00  0.19846069671E-01 0.  0.
         14    1    1    2    0    0 -0.67143440343E-02  0.23447385436E-01  0.19098634739E-02  0.24464461533E-01  0.00000000000E+00 0. -1.
     999901    1    3    3    0    0  0.51319049813E-01 -0.11856583349E+00  0.67506899027E-01  0.89199141429E+00  0.88000000000E+00 0. -1.
        -11    1    4    4    0    0 -0.33293416452E-01  0.48226819587E-01 -0.40389843446E-01  0.71174983534E-01  0.51100000000E-03 0. -1.
         11    1    4    4    0    0 -0.11311289326E-01  0.46891628468E-01 -0.29026919055E-01  0.56299140646E-01  0.51100000000E-03 0.  1.
</event>
<event>
 8    1  0.1123361E+005  0.1043930E+01  0.7957747E-01            NaN
         13   -1    0    0    0    0  0.00000000000E+00  0.00000000000E+00  0.74505805969E-08  0.10566000000E+00  0.10566000000E+00 0. -1.
     999900   -1    0    0    0    0 -0.00000000000E+00 -0.00000000000E+00 -0.74505805969E-08  0.93827000000E+00  0.93827000000E+00 0.  1.
     999902    2    1    2    0    0  0.18183633064E-01  0.80317111990E-02 -0.11967505773E-01  0.10207271103E+01  0.10204633553E+01 0.  0.
     999903    2    3    3    0    0  0.98879700253E-01  0.25282978161E-01 -0.84409280155E-01  0.13390284803E+00  0.19713498598E-01 0.  0.
         14    1    1    2    0    0 -0.18183633064E-01 -0.80317111990E-02  0.11967505773E-01  0.23202889704E-01  0.00000000000E+00 0.  1.
     999901    1    3    3    0    0 -0.80696067189E-01 -0.17251266962E-01  0.72441774382E-01  0.88682426227E+00  0.88000000000E+00 0. -1.
        -11    1    4    4    0    0  0.76127023975E-01  0.14704839685E-01 -0.54061608079E-01  0.94522350153E-01  0.51100000000E-03 0. -1.
         11    1    4    4    0    0  0.22752676278E-01  0.10578138475E-01 -0.30347672076E-01  0.39380497875E-01  0.51100000000E-03 0.  1.
</event>
<event>
 7    1  0.1123361E+005  0.1043930E+01  0.7957747E-01            NaN
         13   -1    0    0    0    0  0.00000000000E+00  0.00000000000E+00  0.74505805969E-08  0.10566000000E+00  0.10566000000E+00 0.  1.
     999900   -1    0    0    0    0 -0.00000000000E+00 -0.00000000000E+00 -0.74505805969E-08  0.93827000000E+00  0.93827000000E+00 0.  1.
     999903    2    1    2    0    0  0.12331766232E-01  0.97756120883E-01  0.47936838551E-02  0.10071862568E+00  0.20320692069E-01 0.  0.
         14    1    1    2    0    0  0.27071118832E-01  0.35467745555E-01 -0.26785235197E-01  0.52040900013E-01  0.00000000000E+00 0. -1.
     999901    1    1    2    0    0 -0.39402885064E-01 -0.13322386644E+00  0.21991551342E-01  0.89117047430E+00  0.88000000000E+00 0.  1.
        -11    1    3    3    0    0  0.13345535241E-01  0.37340665381E-01  0.69138392975E-02  0.40255321348E-01  0.51100000000E-03 0. -1.
         11    1    3    3    0    0 -0.10137690089E-02  0.60415455502E-01 -0.21201554424E-02  0.60463304336E-01  0.51100000000E-03 0.  1.
</event>
<event>
 8    1  0.1123361E+005  0.1043930E+01  0.7957747E-01            NaN
         13   -1    0    0    0    0  0.00000000000E+00  0.00000000000E+00  0.74505805969E-08  0.10566000000E+00  0.10566000000E+00 0. -1.
     999900   -1    0    0    0    0 -0.00000000000E+00 -0.00000000000E+00 -0.74505805969E-08  0.93827000000E+00  0.93827000000E+00 0. -1.
     999902    2    1    2    0    0  0.23076085027E-01 -0.58990778944E-02 -0.33375448414E-02  0.10198791367E+01  0.10195955127E+01 0.  0.
     999903    2    3    3    0    0 -0.22492167771E-01  0.26541440880E-01  0.12268290376E+00  0.12914348209E+00  0.20410742191E-01 0.  0.
         14    1    1    2    0    0 -0.23076085027E-01  0.58990778944E-02  0.33375448414E-02  0.24050863305E-01  0.00000000000E+00 0.  1.
     999901    1    3    3    0    0  0.45568252797E-01 -0.32440518774E-01 -0.12602044860E+00  0.89073565461E+00  0.88000000000E+00 0. -1.
        -11    1    4    4    0    0 -0.23497521642E-01  0.16641564414E-01  0.10465908089E+00  0.10854888081E+00  0.51100000000E-03 0. -1.
         11    1    4    4    0    0  0.10053538717E-02  0.98998764653E-02  0.18023822862E-01  0.20594601283E-01  0.51100000000E-03 0.  1.
</event>
<event>
 8    1  0.1123361E+005  0.1043930E+01  0.7957747E-01            NaN
         13   -1    0    0    0    0  0.00000000000E+00  0.00000000000E+00  0.74505805969E-08  0.10566000000E+00  0.10566000000E+00 0.  1.
     999900   -1    0    0    0    0 -0.00000000000E+00 -0.00000000000E+00 -0.74505805969E-08  0.93827000000E+00  0.93827000000E+00 0.  1.
     999902    2    1    2    0    0  0.59025857758E-03  0.17893983193E-01  0.15753509203E-01  0.10200822309E+01  0.10198034329E+01 0.  0.
     999903    2    3    3    0    0  0.22203921699E-02  0.12938407266E+00 -0.20054951896E-01  0.13232384975E+00  0.19032386050E-01 0.  0.
         14    1    1    2    0    0 -0.59025857758E-03 -0.17893983193E-01 -0.15753509203E-01  0.23847769119E-01  0.00000000000E+00 0. -1.
     999901    1    3    3    0    0 -0.16301335923E-02 -0.11149008946E+00  0.35808461099E-01  0.88775838113E+00  0.88000000000E+00 0.  1.
        -11    1    4    4    0    0  0.84807784111E-02  0.53159273817E-01 -0.13864219034E-01  0.55590553924E-01  0.51100000000E-03 0.  1.
         11    1    4    4    0    0 -0.62603862412E-02  0.76224798838E-01 -0.61907328620E-02  0.76733295825E-01  0.51100000000E-03 0. -1.
</event>
<event>
 8    1  0.1123361E+005  0.1043930E+01  0.7957747E-01            NaN
         13   -1    0    0    0    0  0.00000000000E+00  0.00000000000E+00  0.74505805969E-08  0.10566000000E+00  0.10566000000E+00 0.  1.
     999900   -1    0    0    0    0 -0.00000000000E+00 -0.00000000000E+00 -0.74505805969E-08  0.93827000000E+00  0.93827000000E+00 0.  1.
     999902    2    1    2    0    0 -0.23393925000E-02 -0.16990986201E-01  0.82319125834E-03  0.10267589775E+01  0.10266153875E+01 0.  0.
     999903    2    3    3    0    0 -0.12342343970E+00 -0.27335968793E-01  0.49225589378E-01  0.13708984953E+00  0.19745063569E-01 0.  0.
         14    1    1    2    0    0  0.23393925000E-02  0.16990986201E-01 -0.82319125834E-03  0.17171022485E-01  0.00000000000E+00 0. -1.
     999901    1    3    3    0    0  0.12108404720E+00  0.10344982593E-01 -0.48402398120E-01  0.88966912799E+00  0.88000000000E+00 0. -1.
        -11    1    4    4    0    0 -0.44135957960E-01 -0.17589213442E-01  0.12288326564E-01  0.49077767934E-01  0.51100000000E-03 0.  1.
         11    1    4    4    0    0 -0.79287481743E-01 -0.97467553511E-02  0.36937262815E-01  0.88012081593E-01  0.51100000000E-03 0. -1.
</event>
<event>
 8    1  0.1123361E+005  0.1043930E+01  0.7957747E-01            NaN
         13   -1    0    0    0    0  0.00000000000E+00  0.00000000000E+00  0.74505805969E-08  0.10566000000E+00  0.10566000000E+00 0.  1.
     999900   -1    0    0    0    0 -0.00000000000E+00 -0.00000000000E+00 -0.74505805969E-08  0.93827000000E+00  0.93827000000E+00 0.  1.
     999902    2    1    2    0    0 -0.16648328674E-01 -0.10960942606E-01  0.11804701592E-01  0.10207640748E+01  0.10205011692E+01 0.  0.
     999903    2    3    3    0    0 -0.57412380600E-01  0.20762130401E-01  0.11648265160E+00  0.13305605158E+00  0.20210324909E-01 0.  0.
         14    1    1    2    0    0  0.16648328674E-01  0.10960942606E-01 -0.11804701592E-01  0.23165925195E-01  0.00000000000E+00 0. -1.
     999901    1    3    3    0    0  0.40764051926E-01 -0.31723073007E-01 -0.10467795000E+00  0.88770802323E+00  0.88000000000E+00 0.  1.
        -11    1    4    4    0    0 -0.20051741126E-01  0.12144529733E-01  0.27352170539E-01  0.36027271320E-01  0.51100000000E-03 0. -1.
         11    1    4    4    0    0 -0.37360639474E-01  0.86176006686E-02  0.89130481057E-01  0.97028780255E-01  0.51100000000E-03 0.  1.
</event>
<event>
 8    1  0.1123361E+005  0.1043930E+01  0.7957747E-01            NaN
         13   -1    0    0    0    0  0.00000000000E+00  0.00000000000E+00  0.74505805969E-08  0.10566000000E+00  0.10566000000E+00 0.  1.
     999900   -1    0    0    0    0 -0.00000000000E+00 -0.00000000000E+00 -0.74505805969E-08  0.93827000000E+00  0.93827000000E+00 0. -1.
     999902    2    1    2    0    0  0.54014116626E-02 -0.82079233124E-02  0.20309995775E-01  0.10213680590E+01  0.10211188328E+01 0.  0.
     999903    2    3    3    0    0  0.11337117118E+00  0.60249045303E-01 -0.19717627704E-01  0.13122984717E+00  0.18695401374E-01 0.  0.
         14    1    1    2    0    0 -0.54014116626E-02  0.82079233124E-02 -0.20309995775E-01  0.22561940994E-01  0.00000000000E+00 0. -1.
     999901    1    3    3    0    0 -0.10796975952E+00 -0.68456968616E-01  0.40027623479E-01  0.89013821183E+00  0.88000000000E+00 0.  1.
        -11    1    4    4    0    0  0.48885429681E-01  0.30946539619E-01 -0.60156748317E-03  0.57862738908E-01  0.51100000000E-03 0.  1.
         11    1    4    4    0    0  0.64485741498E-01  0.29302505684E-01 -0.19116060221E-01  0.73367108266E-01  0.51100000000E-03 0. -1.
</event>
<event>
 8    1  0.1123361E+005  0.1043930E+01  0.7957747E-01            NaN
         13   -1    0    0    0    0  0.00000000000E+00  0.00000000000E+00  0.74505805969E-08  0.10566000000E+00  0.10566000000E+00 0. -1.
     999900   -1    0    0    0    0 -0.00000000000E+00 -0.00000000000E+00 -0.74505805969E-08  0.93827000000E+00  0.93827000000E+00 0. -1.
     999902    2    1    2    0    0 -0.12519843981E-02  0.42727675642E-03 -0.24184646362E-01  0.10197092001E+01  0.10194215053E+01 0.  0.
     999903    2    3    3    0    0 -0.66726816931E-01 -0.31848666786E-01 -0.10831871477E+00  0.13268764919E+00  0.20155957032E-01 0.  0.
         14    1    1    2    0    0  0.12519843981E-02 -0.42727675642E-03  0.24184646362E-01  0.24220799945E-01  0.00000000000E+00 0. -1.
     999901    1    3    3    0    0  0.65474832533E-01  0.32275943542E-01  0.84134068413E-01  0.88702155086E+00  0.88000000000E+00 0. -1.
        -11    1    4    4    0    0 -0.21601343996E-01 -0.17072855572E-01 -0.27290144969E-01  0.38770008940E-01  0.51100000000E-03 0.  1.
         11    1    4    4    0    0 -0.45125472935E-01 -0.14775811214E-01 -0.81028569806E-01  0.93917640252E-01  0.51100000000E-03 0. -1.
</event>
<event>
 8    1  0.1123361E+005  0.1043930E+01  0.7957747E-01            NaN
         13   -1    0    0    0    0  0.00000000000E+00  0.00000000000E+00  0.74505805969E-08  0.10566000000E+00  0.10566000000E+00 0.  1.
     999900   -1    0    0    0    0 -0.00000000000E+00 -0.00000000000E+00 -0.74505805969E-08  0.93827000000E+00  0.93827000000E+00 0.  1.
     999902    2    1    2    0    0  0.22268166091E-01  0.14331105362E-02 -0.10534853512E-01  0.10192539354E+01  0.10189551887E+01 0.  0.
     999903    2    3    3    0    0 -0.34803919632E-01 -0.52722518841E-01  0.10906243992E+00  0.12768589660E+00  0.20447385563E-01 0.  0.
         14    1    1    2    0    0 -0.22268166091E-01 -0.14331105362E-02  0.10534853512E-01  0.24676064625E-01  0.00000000000E+00 0.  1.
     999901    1    3    3    0    0  0.57072085723E-01  0.54155629378E-01 -0.11959729343E+00  0.89156803877E+00  0.88000000000E+00 0.  1.
        -11    1    4    4    0    0 -0.12329129242E-01 -0.14244098489E-01  0.16895221266E-01  0.25310302097E-01  0.51100000000E-03 0. -1.
         11    1    4    4    0    0 -0.22474790390E-01 -0.38478420352E-01  0.92167218651E-01  0.10237559451E+00  0.51100000000E-03 0.  1.
</event>
<event>
 8    1  0.1123361E+005  0.1043930E+01  0.7957747E-01            NaN
         13   -1    0    0    0    0  0.00000000000E+00  0.00000000000E+00  0.74505805969E-08  0.10566000000E+00  0.10566000000E+00 0. -1.
     999900   -1    0    0    0    0 -0.00000000000E+00 -0.00000000000E+00 -0.74505805969E-08  0.93827000000E+00  0.93827000000E+00 0. -1.
     999902    2    1    2    0    0  0.19600721156E-01 -0.13866014531E-01 -0.13038455291E-02  0.10198851535E+01  0.10196016731E+01 0.  0.
     999903    2    3    3    0    0 -0.20059657257E-01 -0.12485965093E+00 -0.29922012348E-01  0.13156565447E+00  0.20539530983E-01 0.  0.
         14    1    1    2    0    0 -0.19600721156E-01  0.13866014531E-01  0.13038455291E-02  0.24044846474E-01  0.00000000000E+00 0. -1.
     999901    1    3    3    0    0  0.39660378413E-01  0.11099363640E+00  0.28618166819E-01  0.88831949906E+00  0.88000000000E+00 0.  1.
        -11    1    4    4    0    0 -0.32311630905E-02 -0.24531316169E-01 -0.14468347081E-01  0.28667404419E-01  0.51100000000E-03 0. -1.
         11    1    4    4    0    0 -0.16828494167E-01 -0.10032833476E+00 -0.15453665267E-01  0.10289825005E+00  0.51100000000E-03 0.  1.
</event>
<event>
 8    1  0.1123361E+005  0.1043930E+01  0.7957747E-01            NaN
         13   -1    0    0    0    0  0.00000000000E+00  0.00000000000E+00  0.74505805969E-08  0.10566000000E+00  0.10566000000E+00 0. -1.
     999900   -1    0    0    0    0 -0.00000000000E+00 -0.00000000000E+00 -0.74505805969E-08  0.93827000000E+00  0.93827000000E+00 0.  1.
     999902    2    1    2    0    0  0.16058324298E-01  0.15538710730E-01  0.85518506571E-02  0.10200039585E+01  0.10197233056E+01 0.  0.
     999903    2    3    3    0    0 -0.86274240888E-01 -0.23198436750E-02 -0.92460332938E-01  0.12815512432E+00  0.20644524856E-01 0.  0.
         14    1    1    2    0    0 -0.16058324298E-01 -0.15538710730E-01 -0.85518506571E-02  0.23926041462E-01  0.00000000000E+00 0.  1.
     999901    1    3    3    0    0  0.10233256519E+00  0.17858554405E-01  0.10101218360E+00  0.89184883422E+00  0.88000000000E+00 0. -1.
        -11    1    4    4    0    0 -0.43308292112E-01 -0.14626161098E-02 -0.31529414698E-01  0.53592093855E-01  0.51100000000E-03 0.  1.
         11    1    4    4    0    0 -0.42965948777E-01 -0.85722756512E-03 -0.60930918240E-01  0.74563030464E-01  0.51100000000E-03 0. -1.
</event>
<event>
 8    1  0.1123361E+005  0.1043930E+01  0.7957747E-01            NaN
         13   -1    0    0    0    0  0.00000000000E+00  0.00000000000E+00  0.74505805969E-08  0.10566000000E+00  0.10566000000E+00 0. -1.
     999900   -1    0    0    0    0 -0.00000000000E+00 -0.00000000000E+00 -0.74505805969E-08  0.93827000000E+00  0.93827000000E+00 0.  1.
     999902    2    1    2    0    0  0.18291034838E-01 -0.14322356943E-01 -0.37801297466E-02  0.10203931938E+01  0.10201217029E+01 0.  0.
     999903    2    3    3    0    0 -0.90818795186E-01  0.29692858567E-01  0.83254002947E-01  0.12830730421E+00  0.20045346037E-01 0.  0.
         14    1    1    2    0    0 -0.18291034838E-01  0.14322356943E-01  0.37801297466E-02  0.23536806172E-01  0.00000000000E+00 0. -1.
     999901    1    3    3    0    0  0.10910983002E+00 -0.44015215510E-01 -0.87034132694E-01  0.89208588962E+00  0.88000000000E+00 0.  1.
        -11    1    4    4    0    0 -0.17611100819E-01  0.86633193701E-03  0.77770295722E-02  0.19278088937E-01  0.51100000000E-03 0. -1.
         11    1    4    4    0    0 -0.73207694367E-01  0.28826526630E-01  0.75476973375E-01  0.10902921527E+00  0.51100000000E-03 0.  1.
</event>
<event>
 8    1  0.1123361E+005  0.1043930E+01  0.7957747E-01            NaN
         13   -1    0    0    0    0  0.00000000000E+00  0.00000000000E+00  0.74505805969E-08  0.10566000000E+00  0.10566000000E+00 0. -1.
     999900   -1    0    0    0    0 -0.00000000000E+00 -0.00000000000E+00 -0.74505805969E-08  0.93827000000E+00  0.93827000000E+00 0. -1.
     999902    2    1    2    0    0  0.15282034534E-01  0.19322820360E-01  0.56294946170E-02  0.10186594010E+01  0.10183459000E+01 0.  0.
     999903    2    3    3    0    0  0.48166814770E-03  0.34813162827E-01  0.12437131575E+00  0.13042597351E+00  0.18180266067E-01 0.  0.
         14    1    1    2    0    0 -0.15282034534E-01 -0.19322820360E-01 -0.56294946170E-02  0.25270599039E-01  0.00000000000E+00 0.  1.
     999901    1    3    3    0    0  0.14800366386E-01 -0.15490342467E-01 -0.11874182113E+00  0.88823342745E+00  0.88000000000E+00 0. -1.
        -11    1    4    4    0    0 -0.60226171427E-02  0.28440786461E-01  0.10600047166E+00  0.10991592862E+00  0.51100000000E-03 0.  1.
         11    1    4    4    0    0  0.65042852904E-02  0.63723763657E-02  0.18370844091E-01  0.20510044887E-01  0.51100000000E-03 0. -1.
</event>
<event>
 8    1  0.1123361E+005  0.1043930E+01  0.7957747E-01            NaN
         13   -1    0    0    0    0  0.00000000000E+00  0.00000000000E+00  0.74505805969E-08  0.10566000000E+00  0.10566000000E+00 0. -1.
     999900   -1    0    0    0    0 -0.00000000000E+00 -0.00000000000E+00 -0.74505805969E-08  0.93827000000E+00  0.93827000000E+00 0. -1.
     999902    2    1    2    0    0  0.31918074899E-02 -0.98576925260E-02 -0.22420844901E-01  0.10192306878E+01  0.10189313711E+01 0.  0.
     999903    2    3    3    0    0 -0.68804739791E-01  0.68829444412E-01 -0.84943041323E-01  0.13058891893E+00  0.19145778699E-01 0.  0.
         14    1    1    2    0    0 -0.31918074899E-02  0.98576925260E-02  0.22420844901E-01  0.24699312198E-01  0.00000000000E+00 0. -1.
     999901    1    3    3    0    0  0.71996547281E-01 -0.78687136939E-01  0.62522196422E-01  0.88864176887E+00  0.88000000000E+00 0.  1.
        -11    1    4    4    0    0 -0.30336661310E-01  0.24136000686E-01 -0.23070194633E-01  0.45114903857E-01  0.51100000000E-03 0. -1.
         11    1    4    4    0    0 -0.38468078481E-01  0.44693443726E-01 -0.61872846690E-01  0.85474015073E-01  0.51100000000E-03 0.  1.
</event>
<event>
 8    1  0.1123361E+005  0.1043930E+01  0.7957747E-01            NaN
         13   -1    0    0    0    0  0.00000000000E+00  0.00000000000E+00  0.74505805969E-08  0.10566000000E+00  0.10566000000E+00 0. -1.
     999900   -1    0    0    0    0 -0.00000000000E+00 -0.00000000000E+00 -0.74505805969E-08  0.93827000000E+00  0.93827000000E+00 0.  1.
     999902    2    1    2    0    0 -0.66937787558E-03  0.81231877067E-02 -0.21442117400E-01  0.10209909799E+01  0.10207332572E+01 0.  0.
     999903    2    3    3    0    0  0.11195350749E+00 -0.37547161648E-01  0.49883292023E-01  0.12978000085E+00  0.20276306633E-01 0.  0.
         14    1    1    2    0    0  0.66937787558E-03 -0.81231877067E-02  0.21442117400E-01  0.22939020116E-01  0.00000000000E+00 0. -1.
     999901    1    3    3    0    0 -0.11262288537E+00  0.45670349354E-01 -0.71325409423E-01  0.89121097903E+00  0.88000000000E+00 0.  1.
        -11    1    4    4    0    0  0.47924218700E-01 -0.57400982291E-02  0.21846529617E-01  0.52983124134E-01  0.51100000000E-03 0. -1.
         11    1    4    4    0    0  0.64029288791E-01 -0.31807063419E-01  0.28036762406E-01  0.76796876718E-01  0.51100000000E-03 0.  1.
</event>
<event>
 8    1  0.1123361E+005  0.1043930E+01  0.7957747E-01            NaN
         13   -1    0    0    0    0  0.00000000000E+00  0.00000000000E+00  0.74505805969E-08  0.10566000000E+00  0.10566000000E+00 0.  1.
     999900   -1    0    0    0    0 -0.00000000000E+00 -0.00000000000E+00 -0.74505805969E-08  0.93827000000E+00  0.93827000000E+00 0.  1.
     999902    2    1    2    0    0 -0.13633412691E-01  0.17237695176E-01 -0.87810758228E-02  0.10202632434E+01  0.10199887109E+01 0.  0.
     999903    2    3    3    0    0  0.12147545900E+00  0.35275479746E-01  0.17808720971E-01  0.12937223647E+00  0.20478730828E-01 0.  0.
         14    1    1    2    0    0  0.13633412691E-01 -0.17237695176E-01  0.87810758228E-02  0.23666756626E-01  0.00000000000E+00 0.  1.
     999901    1    3    3    0    0 -0.13510887169E+00 -0.18037784571E-01 -0.26589796794E-01  0.89089100690E+00  0.88000000000E+00 0.  1.
        -11    1    4    4    0    0  0.10244526019E+00  0.31620774406E-01  0.76529052604E-02  0.10748829141E+00  0.51100000000E-03 0. -1.
         11    1    4    4    0    0  0.19030198809E-01  0.36547053407E-02  0.10155815710E-01  0.21883945065E-01  0.51100000000E-03 0.  1.
</event>
<event>
 8    1  0.1123361E+005  0.1043930E+01  0.7957747E-01            NaN
         13   -1    0    0    0    0  0.00000000000E+00  0.00000000000E+00  0.74505805969E-08  0.10566000000E+00  0.10566000000E+00 0.  1.
     999900   -1    0    0    0    0 -0.00000000000E+00 -0.00000000000E+00 -0.74505805969E-08  0.93827000000E+00  0.93827000000E+00 0. -1.
     999902    2    1    2    0    0  0.15855651078E-01  0.10876181875E-01 -0.12882265453E-01  0.10207859777E+01  0.10205235747E+01 0.  0.
     999903    2    3    3    0    0 -0.14661260035E-01 -0.12623813101E+00  0.15681203997E-01  0.12918770023E+00  0.17103902084E-01 0.  0.
         14    1    1    2    0    0 -0.15855651078E-01 -0.10876181875E-01  0.12882265453E-01  0.23144022262E-01  0.00000000000E+00 0.  1.
     999901    1    3    3    0    0  0.30516911112E-01  0.13711431288E+00 -0.28563469449E-01  0.89159827750E+00  0.88000000000E+00 0. -1.
        -11    1    4    4    0    0 -0.46308856299E-02 -0.62958777237E-01 -0.38722314155E-03  0.63132113822E-01  0.51100000000E-03 0. -1.
         11    1    4    4    0    0 -0.10030374405E-01 -0.63279353772E-01  0.16068427138E-01  0.66055586412E-01  0.51100000000E-03 0.  1.
</event>
<event>
 8    1  0.1123361E+005  0.1043930E+01  0.7957747E-01            NaN
         13   -1    0    0    0    0  0.00000000000E+00  0.00000000000E+00  0.74505805969E-08  0.10566000000E+00  0.10566000000E+00 0.  1.
     999900   -1    0    0    0    0 -0.00000000000E+00 -0.00000000000E+00 -0.74505805969E-08  0.93827000000E+00  0.93827000000E+00 0. -1.
     999902    2    1    2    0    0  0.15525497922E-01  0.31541005698E-01  0.28041570188E-02  0.10086633100E+01  0.10080465929E+01 0.  0.
     999903    2    3    3    0    0  0.71896828930E-01  0.85973494547E-01  0.48857936740E-01  0.12398168738E+00  0.20585554340E-01 0.  0.
         14    1    1    2    0    0 -0.15525497922E-01 -0.31541005698E-01 -0.28041570188E-02  0.35266689988E-01  0.00000000000E+00 0.  1.
     999901    1    3    3    0    0 -0.56371331008E-01 -0.54432488849E-01 -0.46053779721E-01  0.88468162264E+00  0.88000000000E+00 0. -1.
        -11    1    4    4    0    0  0.17729158573E-01  0.30271309938E-01  0.23587592435E-01  0.42276599992E-01  0.51100000000E-03 0.  1.
         11    1    4    4    0    0  0.54167670357E-01  0.55702184609E-01  0.25270344305E-01  0.81705087384E-01  0.51100000000E-03 0. -1.
</event>
<event>
 8    1  0.1123361E+005  0.1043930E+01  0.7957747E-01            NaN
         13   -1    0    0    0    0  0.00000000000E+00  0.00000000000E+00  0.74505805969E-08  0.10566000000E+00  0.10566000000E+00 0.  1.
     999900   -1    0    0    0    0 -0.00000000000E+00 -0.00000000000E+00 -0.74505805969E-08  0.93827000000E+00  0.93827000000E+00 0.  1.
     999902    2    1    2    0    0  0.96717813377E-03  0.16711785769E-02 -0.23965645856E-01  0.10198866963E+01  0.10196032527E+01 0.  0.
     999903    2    3    3    0    0 -0.86514089731E-01 -0.33550793436E-01 -0.92859094459E-01  0.13217060047E+00  0.15359451250E-01 0.  0.
         14    1    1    2    0    0 -0.96717813377E-03 -0.16711785769E-02  0.23965645856E-01  0.24043303697E-01  0.00000000000E+00 0.  1.
     999901    1    3    3    0    0  0.87481267865E-01  0.35221972013E-01  0.68893448603E-01  0.88771609583E+00  0.88000000000E+00 0.  1.
        -11    1    4    4    0    0 -0.65199290573E-02  0.10578508056E-02 -0.42099248068E-02  0.78494019593E-02  0.51100000000E-03 0.  1.
         11    1    4    4    0    0 -0.79994160674E-01 -0.34608644242E-01 -0.88649169652E-01  0.12432119851E+00  0.51100000000E-03 0. -1.
</event>
<event>
 8    1  0.1123361E+005  0.1043930E+01  0.7957747E-01            NaN
         13   -1    0    0    0    0  0.00000000000E+00  0.00000000000E+00  0.74505805969E-08  0.10566000000E+00  0.10566000000E+00 0. -1.
     999900   -1    0    0    0    0 -0.00000000000E+00 -0.00000000000E+00 -0.74505805969E-08  0.93827000000E+00  0.93827000000E+00 0. -1.
     999902    2    1    2    0    0  0.88551622139E-02 -0.18591072371E-01  0.11722095499E-01  0.10202350766E+01  0.10199598827E+01 0.  0.
     999903    2    3    3    0    0 -0.55376719308E-02  0.81214548041E-01  0.99528366606E-01  0.13013493802E+00  0.20068326048E-01 0.  0.
         14    1    1    2    0    0 -0.88551622139E-02  0.18591072371E-01 -0.11722095499E-01  0.23694923352E-01  0.00000000000E+00 0.  1.
     999901    1    3    3    0    0  0.14392834145E-01 -0.99805620412E-01 -0.87806271106E-01  0.89010013863E+00  0.88000000000E+00 0. -1.
        -11    1    4    4    0    0 -0.66997150055E-02  0.56631740518E-01  0.54855693684E-01  0.79129314833E-01  0.51100000000E-03 0. -1.
         11    1    4    4    0    0  0.11620430747E-02  0.24582807523E-01  0.44672672921E-01  0.51005623188E-01  0.51100000000E-03 0.  1.
</event>
<event>
 8    1  0.1123361E+005  0.1043930E+01  0.7957747E-01            NaN
         13   -1    0    0    0    0  0.00000000000E+00  0.00000000000E+00  0.74505805969E-08  0.10566000000E+00  0.10566000000E+00 0.  1.
     999900   -1    0    0    0    0 -0.00000000000E+00 -0.00000000000E+00 -0.74505805969E-08  0.93827000000E+00  0.93827000000E+00 0.  1.
     999902    2    1    2    0    0  0.42408811526E-02 -0.18823271761E-01 -0.12850164047E-01  0.10207475207E+01  0.10204842348E+01 0.  0.
     999903    2    3    3    0    0 -0.11109005289E+00  0.63079610254E-01  0.54838951658E-02  0.12926255490E+00  0.18939321871E-01 0.  0.
         14    1    1    2    0    0 -0.42408811526E-02  0.18823271761E-01  0.12850164047E-01  0.23182479349E-01  0.00000000000E+00 0.  1.
     999901    1    3    3    0    0  0.11533093404E+00 -0.81902882015E-01 -0.18334059213E-01  0.89148496575E+00  0.88000000000E+00 0.  1.
        -11    1    4    4    0    0 -0.89591989268E-01  0.42003751472E-01  0.22183289684E-02  0.98975864649E-01  0.51100000000E-03 0. -1.
         11    1    4    4    0    0 -0.21498063621E-01  0.21075858783E-01  0.32655661974E-02  0.30286690252E-01  0.51100000000E-03 0.  1.
</event>
<event>
 8    1  0.1123361E+005  0.1043930E+01  0.7957747E-01            NaN
         13   -1    0    0    0    0  0.00000000000E+00  0.00000000000E+00  0.74505805969E-08  0.10566000000E+00  0.10566000000E+00 0. -1.
     999900   -1    0    0    0    0 -0.00000000000E+00 -0.00000000000E+00 -0.74505805969E-08  0.93827000000E+00  0.93827000000E+00 0.  1.
     999902    2    1    2    0    0  0.14232611729E-02 -0.23171447908E-01 -0.82228031443E-04  0.10207147371E+01  0.10204506975E+01 0.  0.
     999903    2    3    3    0    0  0.85461390223E-01  0.76118765470E-01  0.57089622014E-01  0.12931719724E+00  0.19131045079E-01 0.  0.
         14    1    1    2    0    0 -0.14232611729E-02  0.23171447908E-01  0.82228031443E-04  0.23215262909E-01  0.00000000000E+00 0.  1.
     999901    1    3    3    0    0 -0.84038129051E-01 -0.99290213377E-01 -0.57171850045E-01  0.89139753985E+00  0.88000000000E+00 0.  1.
        -11    1    4    4    0    0  0.33679620047E-01  0.33653769371E-01  0.13798173479E-01  0.49573619111E-01  0.51100000000E-03 0. -1.
         11    1    4    4    0    0  0.51781770176E-01  0.42464996099E-01  0.43291448534E-01  0.79743578133E-01  0.51100000000E-03 0.  1.
</event>
<event>
 8    1  0.1123361E+005  0.1043930E+01  0.7957747E-01            NaN
         13   -1    0    0    0    0  0.00000000000E+00  0.00000000000E+00  0.74505805969E-08  0.10566000000E+00  0.10566000000E+00 0.  1.
     999900   -1    0    0    0    0 -0.00000000000E+00 -0.00000000000E+00 -0.74505805969E-08  0.93827000000E+00  0.93827000000E+00 0.  1.
     999902    2    1    2    0    0 -0.18712662476E-01 -0.99580705487E-02  0.10062144400E-01  0.10204656940E+01  0.10201958925E+01 0.  0.
     999903    2    3    3    0    0  0.16803787690E-01  0.77095922789E-01  0.10218678157E+00  0.13067540143E+00  0.20193405351E-01 0.  0.
         14    1    1    2    0    0  0.18712662476E-01  0.99580705487E-02 -0.10062144400E-01  0.23464305997E-01  0.00000000000E+00 0.  1.
     999901    1    3    3    0    0 -0.35516450166E-01 -0.87053993338E-01 -0.92124637167E-01  0.88979029258E+00  0.88000000000E+00 0.  1.
        -11    1    4    4    0    0  0.20390269412E-01  0.67857646875E-01  0.83458381495E-01  0.10948052744E+00  0.51100000000E-03 0.  1.
         11    1    4    4    0    0 -0.35864817219E-02  0.92382759143E-02  0.18728400073E-01  0.21194873986E-01  0.51100000000E-03 0. -1.
</event>
<event>
 8    1  0.1123361E+005  0.1043930E+01  0.7957747E-01            NaN
         13   -1    0    0    0    0  0.00000000000E+00  0.00000000000E+00  0.74505805969E-08  0.10566000000E+00  0.10566000000E+00 0. -1.
     999900   -1    0    0    0    0 -0.00000000000E+00 -0.00000000000E+00 -0.74505805969E-08  0.93827000000E+00  0.93827000000E+00 0. -1.
     999902    2    1    2    0    0  0.15230810121E-01 -0.19306901077E-01  0.75005133635E-02  0.10182202410E+01  0.10178956074E+01 0.  0.
     999903    2    3    3    0    0 -0.48841990267E-01  0.41971971598E-01  0.10886030655E+00  0.12797632407E+00  0.19498378572E-01 0.  0.
         14    1    1    2    0    0 -0.15230810121E-01  0.19306901077E-01 -0.75005133635E-02  0.25709758981E-01  0.00000000000E+00 0.  1.
     999901    1    3    3    0    0  0.64072800389E-01 -0.61278872676E-01 -0.10135979319E+00  0.89024391695E+00  0.88000000000E+00 0. -1.
        -11    1    4    4    0    0 -0.28903143963E-01  0.27396009916E-01  0.48504371056E-01  0.62760403303E-01  0.51100000000E-03 0. -1.
         11    1    4    4    0    0 -0.19938846304E-01  0.14575961682E-01  0.60355935497E-01  0.65215920768E-01  0.51100000000E-03 0.  1.
</event>
<event>
 8    1  0.1123361E+005  0.1043930E+01  0.7957747E-01            NaN
         13   -1    0    0    0    0  0.00000000000E+00  0.00000000000E+00  0.74505805969E-08  0.10566000000E+00  0.10566000000E+00 0.  1.
     999900   -1    0    0    0    0 -0.00000000000E+00 -0.00000000000E+00 -0.74505805969E-08  0.93827000000E+00  0.93827000000E+00 0. -1.
     999902    2    1    2    0    0  0.14125669965E-01 -0.91571858173E-02 -0.16130183740E-01  0.10206153816E+01  0.10203490509E+01 0.  0.
     999903    2    3    3    0    0 -0.10888388025E+00  0.23437584574E-01 -0.64281106531E-01  0.13015916152E+00  0.20107882051E-01 0.  0.
         14    1    1    2    0    0 -0.14125669965E-01  0.91571858173E-02  0.16130183740E-01  0.23314618409E-01  0.00000000000E+00 0.  1.
     999901    1    3    3    0    0  0.12300955022E+00 -0.32594770392E-01  0.48150922791E-01  0.89045622007E+00  0.88000000000E+00 0. -1.
        -11    1    4    4    0    0 -0.17842903942E-01  0.83416666071E-02 -0.18966615710E-01  0.27348606095E-01  0.51100000000E-03 0. -1.
         11    1    4    4    0    0 -0.91040976311E-01  0.15095917967E-01 -0.45314490821E-01  0.10281055542E+00  0.51100000000E-03 0.  1.
</event>
<event>
 8    1  0.1123361E+005  0.1043930E+01  0.7957747E-01            NaN
         13   -1    0    0    0    0  0.00000000000E+00  0.00000000000E+00  0.74505805969E-08  0.10566000000E+00  0.10566000000E+00 0.  1.
     999900   -1    0    0    0    0 -0.00000000000E+00 -0.00000000000E+00 -0.74505805969E-08  0.93827000000E+00  0.93827000000E+00 0.  1.
     999902    2    1    2    0    0 -0.83135644584E-02 -0.12096528110E-02 -0.21672328858E-01  0.10206863245E+01  0.10204216308E+01 0.  0.
     999903    2    3    3    0    0  0.21646387763E-02 -0.72924891545E-01 -0.10974285787E+00  0.13332546986E+00  0.20235132637E-01 0.  0.
         14    1    1    2    0    0  0.83135644584E-02  0.12096528110E-02  0.21672328858E-01  0.23243675528E-01  0.00000000000E+00 0.  1.
     999901    1    3    3    0    0 -0.10478203235E-01  0.71715238734E-01  0.88070529012E-01  0.88736085461E+00  0.88000000000E+00 0. -1.
        -11    1    4    4    0    0 -0.39076074276E-02 -0.33329925297E-01 -0.65781434901E-01  0.73848572191E-01  0.51100000000E-03 0.  1.
         11    1    4    4    0    0  0.60722462040E-02 -0.39594966249E-01 -0.43961422970E-01  0.59476897673E-01  0.51100000000E-03 0. -1.
</event>
<event>
 8    1  0.1123361E+005  0.1043930E+01  0.7957747E-01            NaN
         13   -1    0    0    0    0  0.00000000000E+00  0.00000000000E+00  0.74505805969E-08  0.10566000000E+00  0.10566000000E+00 0. -1.
     999900   -1    0    0    0    0 -0.00000000000E+00 -0.00000000000E+00 -0.74505805969E-08  0.93827000000E+00  0.93827000000E+00 0. -1.
     999902    2    1    2    0    0 -0.21493935874E-01  0.96034260905E-02  0.22549381309E-02  0.10202804795E+01  0.10200063515E+01 0.  0.
     999903    2    3    3    0    0 -0.37158177162E-01 -0.41909718889E-01  0.11700786639E+00  0.13119825212E+00  0.19621057459E-01 0.  0.
         14    1    1    2    0    0  0.21493935874E-01 -0.96034260905E-02 -0.22549381309E-02  0.23649520460E-01  0.00000000000E+00 0.  1.
     999901    1    3    3    0    0  0.15664241288E-01  0.51513144980E-01 -0.11475292826E+00  0.88908222741E+00  0.88000000000E+00 0. -1.
        -11    1    4    4    0    0 -0.18321278345E-01 -0.76234219365E-02  0.46575607159E-01  0.50629379865E-01  0.51100000000E-03 0.  1.
         11    1    4    4    0    0 -0.18836898817E-01 -0.34286296953E-01  0.70432259232E-01  0.80568872260E-01  0.51100000000E-03 0. -1.
</event>
<event>
 8    1  0.1123361E+005  0.1043930E+01  0.7957747E-01            NaN
         13   -1    0    0    0    0  0.00000000000E+00  0.00000000000E+00  0.74505805969E-08  0.10566000000E+00  0.10566000000E+00 0.  1.
     999900   -1    0    0    0    0 -0.00000000000E+00 -0.00000000000E+00 -0.74505805969E-08  0.93827000000E+00  0.93827000000E+00 0.  1.
     999902    2    1    2    0    0  0.31898541129E-02 -0.19023933259E-01 -0.13856022471E-01  0.10201797460E+01  0.10199032501E+01 0.  0.
     999903    2    3    3    0    0 -0.67820307838E-01 -0.55663019162E-01 -0.97498941101E-01  0.13260946510E+00  0.19525902308E-01 0.  0.
         14    1    1    2    0    0 -0.31898541129E-02  0.19023933259E-01  0.13856022471E-01  0.23750253991E-01  0.00000000000E+00 0.  1.
     999901    1    3    3    0    0  0.71010161951E-01  0.36639085903E-01  0.83642918629E-01  0.88757028091E+00  0.88000000000E+00 0.  1.
        -11    1    4    4    0    0 -0.14594549402E-01 -0.53875338177E-02 -0.25801853696E-01  0.30133422773E-01  0.51100000000E-03 0. -1.
         11    1    4    4    0    0 -0.53225758436E-01 -0.50275485344E-01 -0.71697087405E-01  0.10247604233E+00  0.51100000000E-03 0.  1.
</event>
<event>
 8    1  0.1123361E+005  0.1043930E+01  0.7957747E-01            NaN
         13   -1    0    0    0    0  0.00000000000E+00  0.00000000000E+00  0.74505805969E-08  0.10566000000E+00  0.10566000000E+00 0.  1.
     999900   -1    0    0    0    0 -0.00000000000E+00 -0.00000000000E+00 -0.74505805969E-08  0.93827000000E+00  0.93827000000E+00 0. -1.
     999902    2    1    2    0    0 -0.18925503143E-01 -0.63838501741E-02 -0.15574048294E-01  0.10186025605E+01  0.10182876298E+01 0.  0.
     999903    2    3    3    0    0 -0.31373262674E-01  0.35935395832E-01 -0.12079663685E+00  0.13123698844E+00  0.18859622886E-01 0.  0.
         14    1    1    2    0    0  0.18925503143E-01  0.63838501741E-02  0.15574048294E-01  0.25327439518E-01  0.00000000000E+00 0.  1.
     999901    1    3    3    0    0  0.12447759530E-01 -0.42319246007E-01  0.10522258856E+00  0.88736557204E+00  0.88000000000E+00 0.  1.
        -11    1    4    4    0    0 -0.10686647369E-01  0.10537670903E-01 -0.63350838320E-01  0.65106349743E-01  0.51100000000E-03 0. -1.
         11    1    4    4    0    0 -0.20686615305E-01  0.25397724930E-01 -0.57445798535E-01  0.66130638698E-01  0.51100000000E-03 0.  1.
</event>
<event>
 8    1  0.1123361E+005  0.1043930E+01  0.7957747E-01            NaN
         13   -1    0    0    0    0  0.00000000000E+00  0.00000000000E+00  0.74505805969E-08  0.10566000000E+00  0.10566000000E+00 0. -1.
     999900   -1    0    0    0    0 -0.00000000000E+00 -0.00000000000E+00 -0.74505805969E-08  0.93827000000E+00  0.93827000000E+00 0.  1.
     999902    2    1    2    0    0  0.22493781975E-01  0.11735559589E-01 -0.28032227965E-03  0.10185573343E+01  0.10182412636E+01 0.  0.
     999903    2    3    3    0    0 -0.45468366535E-01 -0.10060599344E-01 -0.11743558342E+00  0.12792874647E+00  0.20150928140E-01 0.  0.
         14    1    1    2    0    0 -0.22493781975E-01 -0.11735559589E-01  0.28032227965E-03  0.25372665745E-01  0.00000000000E+00 0.  1.
     999901    1    3    3    0    0  0.67962148511E-01  0.21796158933E-01  0.11715526114E+00  0.89062858779E+00  0.88000000000E+00 0. -1.
        -11    1    4    4    0    0 -0.15441752550E-01 -0.16254183125E-02 -0.65744458351E-01  0.67555048896E-01  0.51100000000E-03 0. -1.
         11    1    4    4    0    0 -0.30026613986E-01 -0.84351810316E-02 -0.51691125068E-01  0.60373697570E-01  0.51100000000E-03 0.  1.
</event>
<event>
 8    1  0.1123361E+005  0.1043930E+01  0.7957747E-01            NaN
         13   -1    0    0    0    0  0.00000000000E+00  0.00000000000E+00  0.74505805969E-08  0.10566000000E+00  0.10566000000E+00 0.  1.
     999900   -1    0    0    0    0 -0.00000000000E+00 -0.00000000000E+00 -0.74505805969E-08  0.93827000000E+00  0.93827000000E+00 0. -1.
     999902    2    1    2    0    0  0.70154141853E-02 -0.19567534960E-01 -0.12154487289E-01  0.10198502155E+01  0.10195659008E+01 0.  0.
     999903    2    3    3    0    0 -0.70524777528E-02  0.11439669476E+00 -0.54447914300E-01  0.12859657348E+00  0.20884494893E-01 0.  0.
         14    1    1    2    0    0 -0.70154141853E-02  0.19567534960E-01  0.12154487289E-01  0.24079784506E-01  0.00000000000E+00 0.  1.
     999901    1    3    3    0    0  0.14067891938E-01 -0.13396422972E+00  0.42293427010E-01  0.89125364201E+00  0.88000000000E+00 0.  1.
        -11    1    4    4    0    0  0.56441238215E-02  0.67958862433E-01 -0.28570050219E-01  0.73937622409E-01  0.51100000000E-03 0.  1.
         11    1    4    4    0    0 -0.12696601574E-01  0.46437832322E-01 -0.25877864081E-01  0.54658951075E-01  0.51100000000E-03 0. -1.
</event>
<event>
 8    1  0.1123361E+005  0.1043930E+01  0.7957747E-01            NaN
         13   -1    0    0    0    0  0.00000000000E+00  0.00000000000E+00  0.74505805969E-08  0.10566000000E+00  0.10566000000E+00 0. -1.
     999900   -1    0    0    0    0 -0.00000000000E+00 -0.00000000000E+00 -0.74505805969E-08  0.93827000000E+00  0.93827000000E+00 0.  1.
     999902    2    1    2    0    0  0.25587811345E-01  0.98425133751E-04 -0.80176775663E-02  0.10171152852E+01  0.10167617589E+01 0.  0.
     999903    2    3    3    0    0 -0.80898420818E-01  0.41675261644E-01  0.83774584949E-01  0.12498649940E+00  0.17946086608E-01 0.  0.
         14    1    1    2    0    0 -0.25587811345E-01 -0.98425133751E-04  0.80176775663E-02  0.26814714813E-01  0.00000000000E+00 0.  1.
     999901    1    3    3    0    0  0.10648623216E+00 -0.41576836511E-01 -0.91792262516E-01  0.89212878579E+00  0.88000000000E+00 0.  1.
        -11    1    4    4    0    0 -0.89981382330E-02  0.10059647873E-01  0.18211329832E-01  0.22673258747E-01  0.51100000000E-03 0. -1.
         11    1    4    4    0    0 -0.71900282585E-01  0.31615613771E-01  0.65563255118E-01  0.10231324065E+00  0.51100000000E-03 0.  1.
</event>
<event>
 7    1  0.1123361E+005  0.1043930E+01  0.7957747E-01            NaN
         13   -1    0    0    0    0  0.00000000000E+00  0.00000000000E+00  0.74505805969E-08  0.10566000000E+00  0.10566000000E+00 0.  1.
     999900   -1    0    0    0    0 -0.00000000000E+00 -0.00000000000E+00 -0.74505805969E-08  0.93827000000E+00  0.93827000000E+00 0.  1.
     999902    2    1    2    0    0  0.39855359329E-02  0.10512765436E-01 -0.21003775467E-01  0.10201064546E+01  0.10198282293E+01 0.  0.
         14    1    1    2    0    0 -0.39855359329E-02 -0.10512765436E-01  0.21003775467E-01  0.23823545447E-01  0.00000000000E+00 0.  1.
     999901    1    3    3    0    0 -0.11278557315E+00  0.49196135236E-01 -0.32405606104E-02  0.88856701856E+00  0.88000000000E+00 0.  1.
        -11    1    3    3    0    0  0.11686370119E+00 -0.29132370113E-01 -0.13966176933E-01  0.12124823654E+00  0.51100000000E-03 0.  1.
         11    1    3    3    0    0 -0.92592106843E-04 -0.95509996875E-02 -0.37970379243E-02  0.10291199460E-01  0.51100000000E-03 0. -1.
</event>
<event>
 8    1  0.1123361E+005  0.1043930E+01  0.7957747E-01            NaN
         13   -1    0    0    0    0  0.00000000000E+00  0.00000000000E+00  0.74505805969E-08  0.10566000000E+00  0.10566000000E+00 0.  1.
     999900   -1    0    0    0    0 -0.00000000000E+00 -0.00000000000E+00 -0.74505805969E-08  0.93827000000E+00  0.93827000000E+00 0.  1.
     999902    2    1    2    0    0  0.25661473202E-02 -0.11006691702E-01 -0.20795682511E-01  0.10202616079E+01  0.10199870370E+01 0.  0.
     999903    2    3    3    0    0  0.86366920382E-01 -0.27286982330E-01 -0.95381759480E-01  0.13299011600E+00  0.19618016506E-01 0.  0.
         14    1    1    2    0    0 -0.25661473202E-02  0.11006691702E-01  0.20795682511E-01  0.23668392117E-01  0.00000000000E+00 0. -1.
     999901    1    3    3    0    0 -0.83800773062E-01  0.16280290628E-01  0.74586076968E-01  0.88727149188E+00  0.88000000000E+00 0. -1.
        -11    1    4    4    0    0  0.59247662316E-01 -0.23590467042E-01 -0.55058272679E-01  0.84252419173E-01  0.51100000000E-03 0. -1.
         11    1    4    4    0    0  0.27119258066E-01 -0.36965152883E-02 -0.40323486801E-01  0.48737696828E-01  0.51100000000E-03 0.  1.
</event>
<event>
 8    1  0.1123361E+005  0.1043930E+01  0.7957747E-01            NaN
         13   -1    0    0    0    0  0.00000000000E+00  0.00000000000E+00  0.74505805969E-08  0.10566000000E+00  0.10566000000E+00 0. -1.
     999900   -1    0    0    0    0 -0.00000000000E+00 -0.00000000000E+00 -0.74505805969E-08  0.93827000000E+00  0.93827000000E+00 0.  1.
     999902    2    1    2    0    0 -0.24077920476E-03  0.18005339888E-01 -0.16516265097E-01  0.10194956543E+01  0.10192028021E+01 0.  0.
     999903    2    3    3    0    0 -0.12511042376E+00  0.75279046127E-02  0.25614005735E-01  0.12962085155E+00  0.20885410816E-01 0.  0.
         14    1    1    2    0    0  0.24077920476E-03 -0.18005339888E-01  0.16516265097E-01  0.24434345743E-01  0.00000000000E+00 0.  1.
     999901    1    3    3    0    0  0.12486964455E+00  0.10477435276E-01 -0.42130270832E-01  0.88987480271E+00  0.88000000000E+00 0.  1.
        -11    1    4    4    0    0 -0.68465667256E-01  0.94258142353E-02  0.49416674777E-02  0.69289788319E-01  0.51100000000E-03 0.  1.
         11    1    4    4    0    0 -0.56644756502E-01 -0.18979096226E-02  0.20672338257E-01  0.60331063227E-01  0.51100000000E-03 0. -1.
</event>
<event>
 8    1  0.1123361E+005  0.1043930E+01  0.7957747E-01            NaN
         13   -1    0    0    0    0  0.00000000000E+00  0.00000000000E+00  0.74505805969E-08  0.10566000000E+00  0.10566000000E+00 0. -1.
     999900   -1    0    0    0    0 -0.00000000000E+00 -0.00000000000E+00 -0.74505805969E-08  0.93827000000E+00  0.93827000000E+00 0. -1.
     999902    2    1    2    0    0 -0.94406513088E-02 -0.18706317277E-01 -0.10596723598E-01  0.10204493110E+01  0.10201791282E+01 0.  0.
     999903    2    3    3    0    0 -0.95759188000E-01 -0.25320584371E-01  0.84212971355E-01  0.13113299129E+00  0.17119660671E-01 0.  0.
         14    1    1    2    0    0  0.94406513088E-02  0.18706317277E-01  0.10596723598E-01  0.23480688963E-01  0.00000000000E+00 0. -1.
     999901    1    3    3    0    0  0.86318536691E-01  0.66142670946E-02 -0.94809694953E-01  0.88931631974E+00  0.88000000000E+00 0.  1.
        -11    1    4    4    0    0 -0.93232197759E-03  0.14327587511E-02  0.52764751842E-03  0.18605254130E-02  0.51100000000E-03 0. -1.
         11    1    4    4    0    0 -0.94826866023E-01 -0.26753343123E-01  0.83685323837E-01  0.12927246588E+00  0.51100000000E-03 0.  1.
</event>
<event>
 8    1  0.1123361E+005  0.1043930E+01  0.7957747E-01            NaN
         13   -1    0    0    0    0  0.00000000000E+00  0.00000000000E+00  0.74505805969E-08  0.10566000000E+00  0.10566000000E+00 0.  1.
     999900   -1    0    0    0    0 -0.00000000000E+00 -0.00000000000E+00 -0.74505805969E-08  0.93827000000E+00  0.93827000000E+00 0.  1.
     999902    2    1    2    0    0  0.15587121510E-01 -0.12040055463E-01 -0.13855636702E-01  0.10198488879E+01  0.10195645414E+01 0.  0.
     999903    2    3    3    0    0 -0.10982061402E+00 -0.31909585948E-01  0.54389968295E-01  0.12812058791E+00  0.19437784245E-01 0.  0.
         14    1    1    2    0    0 -0.15587121510E-01  0.12040055463E-01  0.13855636702E-01  0.24081112120E-01  0.00000000000E+00 0. -1.
     999901    1    3    3    0    0  0.12540773553E+00  0.19869530485E-01 -0.68245604997E-01  0.89172829997E+00  0.88000000000E+00 0. -1.
        -11    1    4    4    0    0 -0.64973164421E-01 -0.17892374803E-01  0.21411919858E-01  0.70713369344E-01  0.51100000000E-03 0.  1.
         11    1    4    4    0    0 -0.44847449595E-01 -0.14017211145E-01  0.32978048437E-01  0.57407218563E-01  0.51100000000E-03 0. -1.
</event>
<event>
 8    1  0.1123361E+005  0.1043930E+01  0.7957747E-01            NaN
         13   -1    0    0    0    0  0.00000000000E+00  0.00000000000E+00  0.74505805969E-08  0.10566000000E+00  0.10566000000E+00 0. -1.
     999900   -1    0    0    0    0 -0.00000000000E+00 -0.00000000000E+00 -0.74505805969E-08  0.93827000000E+00  0.93827000000E+00 0.  1.
     999902    2    1    2    0    0  0.48115482212E-02 -0.20450166867E-01  0.11850294630E-01  0.10198096807E+01  0.10195243965E+01 0.  0.
     999903    2    3    3    0    0 -0.12785059424E+00 -0.57837168243E-02  0.76263697091E-02  0.12973541954E+00  0.19846706047E-01 0.  0.
         14    1    1    2    0    0 -0.48115482212E-02  0.20450166867E-01 -0.11850294630E-01  0.24120319318E-01  0.00000000000E+00 0.  1.
     999901    1    3    3    0    0  0.13266214246E+00 -0.14666450043E-01  0.42239249210E-02  0.89007426114E+00  0.88000000000E+00 0.  1.
        -11    1    4    4    0    0 -0.40541232792E-01 -0.61014250633E-02 -0.57605784896E-02  0.41403675315E-01  0.51100000000E-03 0. -1.
         11    1    4    4    0    0 -0.87309361450E-01  0.31770823904E-03  0.13386948199E-01  0.88331744228E-01  0.51100000000E-03 0.  1.
</event>
<event>
 8    1  0.1123361E+005  0.1043930E+01  0.7957747E-01            NaN
         13   -1    0    0    0    0  0.00000000000E+00  0.00000000000E+00  0.74505805969E-08  0.10566000000E+00  0.10566000000E+00 0. -1.
     999900   -1    0    0    0    0 -0.00000000000E+00 -0.00000000000E+00 -0.74505805969E-08  0.93827000000E+00  0.93827000000E+00 0.  1.
     999902    2    1    2    0    0  0.16991976571E-01  0.14251619897E-01 -0.91245315775E-02  0.10199489030E+01  0.10196669415E+01 0.  0.
     999903    2    3    3    0    0 -0.30647674602E-01 -0.12004716085E+00  0.24485526554E-01  0.12785286842E+00  0.19905129194E-01 0.  0.
         14    1    1    2    0    0 -0.16991976571E-01 -0.14251619897E-01  0.91245315775E-02  0.23981097014E-01  0.00000000000E+00 0. -1.
     999901    1    3    3    0    0  0.47639651174E-01  0.13429878074E+00 -0.33610058131E-01  0.89209603456E+00  0.88000000000E+00 0. -1.
        -11    1    4    4    0    0 -0.27814712078E-02 -0.34543093890E-01  0.43294869584E-04  0.34658691739E-01  0.51100000000E-03 0. -1.
         11    1    4    4    0    0 -0.27866203394E-01 -0.85504066955E-01  0.24442231684E-01  0.93194176686E-01  0.51100000000E-03 0.  1.
</event>
<event>
 8    1  0.1123361E+005  0.1043930E+01  0.7957747E-01            NaN
         13   -1    0    0    0    0  0.00000000000E+00  0.00000000000E+00  0.74505805969E-08  0.10566000000E+00  0.10566000000E+00 0. -1.
     999900   -1    0    0    0    0 -0.00000000000E+00 -0.00000000000E+00 -0.74505805969E-08  0.93827000000E+00  0.93827000000E+00 0.  1.
     999902    2    1    2    0    0 -0.19172591002E-01 -0.10264258580E-01  0.38765489075E-03  0.10221792868E+01  0.10219478464E+01 0.  0.
     999903    2    3    3    0    0 -0.69922046311E-01  0.10268533179E+00 -0.42652296581E-01  0.13246834797E+00  0.17183564397E-01 0.  0.
         14    1    1    2    0    0  0.19172591002E-01  0.10264258580E-01 -0.38765489075E-03  0.21750713236E-01  0.00000000000E+00 0.  1.
     999901    1    3    3    0    0  0.50749455308E-01 -0.11294959037E+00  0.43039951471E-01  0.88971093879E+00  0.88000000000E+00 0.  1.
        -11    1    4    4    0    0 -0.58806055906E-01  0.73299808928E-01 -0.31012614156E-01  0.98959878526E-01  0.51100000000E-03 0.  1.
         11    1    4    4    0    0 -0.11115990405E-01  0.29385522866E-01 -0.11639682425E-01  0.33508469448E-01  0.51100000000E-03 0. -1.
</event>
<event>
 8    1  0.1123361E+005  0.1043930E+01  0.7957747E-01            NaN
         13   -1    0    0    0    0  0.00000000000E+00  0.00000000000E+00  0.74505805969E-08  0.10566000000E+00  0.10566000000E+00 0.  1.
     999900   -1    0    0    0    0 -0.00000000000E+00 -0.00000000000E+00 -0.74505805969E-08  0.93827000000E+00  0.93827000000E+00 0. -1.
     999902    2    1    2    0    0 -0.14785408232E-01  0.68671384314E-02  0.13575941312E-01  0.10227150979E+01  0.10224950364E+01 0.  0.
     999903    2    3    3    0    0 -0.12938809765E+00 -0.30479479489E-01  0.11931832871E-03  0.13439667137E+00  0.19803347033E-01 0.  0.
         14    1    1    2    0    0  0.14785408232E-01 -0.68671384314E-02 -0.13575941312E-01  0.21214902059E-01  0.00000000000E+00 0. -1.
     999901    1    3    3    0    0  0.11460268942E+00  0.37346617921E-01  0.13456622984E-01  0.88831842658E+00  0.88000000000E+00 0. -1.
        -11    1    4    4    0    0 -0.63199359703E-01 -0.10700724673E-01 -0.89446555364E-02  0.64721963499E-01  0.51100000000E-03 0.  1.
         11    1    4    4    0    0 -0.66188737947E-01 -0.19778754817E-01  0.90639738651E-02  0.69674707867E-01  0.51100000000E-03 0. -1.
</event>
<event>
 8    1  0.1123361E+005  0.1043930E+01  0.7957747E-01            NaN
         13   -1    0    0    0    0  0.00000000000E+00  0.00000000000E+00  0.74505805969E-08  0.10566000000E+00  0.10566000000E+00 0. -1.
     999900   -1    0    0    0    0 -0.00000000000E+00 -0.00000000000E+00 -0.74505805969E-08  0.93827000000E+00  0.93827000000E+00 0. -1.
     999902    2    1    2    0    0  0.19147915015E-01 -0.45868404910E-02  0.14224650590E-01  0.10196396225E+01  0.10193502525E+01 0.  0.
     999903    2    3    3    0    0  0.78106227474E-01  0.81117174516E-01  0.65840142518E-01  0.13201052213E+00  0.20279911623E-01 0.  0.
         14    1    1    2    0    0 -0.19147915015E-01  0.45868404910E-02 -0.14224650590E-01  0.24290377509E-01  0.00000000000E+00 0. -1.
     999901    1    3    3    0    0 -0.58958312459E-01 -0.85704015007E-01 -0.51615491928E-01  0.88762910036E+00  0.88000000000E+00 0. -1.
        -11    1    4    4    0    0  0.76685480243E-01  0.72216760579E-01  0.61708062997E-01  0.12208222454E+00  0.51100000000E-03 0.  1.
         11    1    4    4    0    0  0.14207472306E-02  0.89004139369E-02  0.41320795207E-02  0.99282975936E-02  0.51100000000E-03 0. -1.
</event>
<event>
 8    1  0.1123361E+005  0.1043930E+01  0.7957747E-01            NaN
         13   -1    0    0    0    0  0.00000000000E+00  0.00000000000E+00  0.74505805969E-08  0.10566000000E+00  0.10566000000E+00 0. -1.
     999900   -1    0    0    0    0 -0.00000000000E+00 -0.00000000000E+00 -0.74505805969E-08  0.93827000000E+00  0.93827000000E+00 0. -1.
     999902    2    1    2    0    0  0.48301323615E-02 -0.10028382831E-02 -0.22964253813E-01  0.10204418580E+01  0.10201715016E+01 0.  0.
     999903    2    3    3    0    0  0.15887123233E-01  0.11789925309E+00  0.47496136754E-01  0.12958573545E+00  0.19594521202E-01 0.  0.
         14    1    1    2    0    0 -0.48301323615E-02  0.10028382831E-02  0.22964253813E-01  0.23488142038E-01  0.00000000000E+00 0. -1.
     999901    1    3    3    0    0 -0.11056990871E-01 -0.11890209137E+00 -0.70460390566E-01  0.89085612251E+00  0.88000000000E+00 0.  1.
        -11    1    4    4    0    0  0.77437299425E-02  0.93105249081E-01  0.29858789888E-01  0.98083440062E-01  0.51100000000E-03 0. -1.
         11    1    4    4    0    0  0.81433932905E-02  0.24794004010E-01  0.17637346866E-01  0.31502295386E-01  0.51100000000E-03 0.  1.
</event>
<event>
 8    1  0.1123361E+005  0.1043930E+01  0.7957747E-01            NaN
         13   -1    0    0    0    0  0.00000000000E+00  0.00000000000E+00  0.74505805969E-08  0.10566000000E+00  0.10566000000E+00 0.  1.
     999900   -1    0    0    0    0 -0.00000000000E+00 -0.00000000000E+00 -0.74505805969E-08  0.93827000000E+00  0.93827000000E+00 0. -1.
     999902    2    1    2    0    0 -0.10610077599E-01 -0.21420643344E-01 -0.68296544247E-02  0.10190691495E+01  0.10187658561E+01 0.  0.
     999903    2    3    3    0    0 -0.75552230406E-01  0.63769290409E-01 -0.80739765095E-01  0.12949761641E+00  0.21818823760E-01 0.  0.
         14    1    1    2    0    0  0.10610077599E-01  0.21420643344E-01  0.68296544247E-02  0.24860850498E-01  0.00000000000E+00 0.  1.
     999901    1    3    3    0    0  0.64942152807E-01 -0.85189933753E-01  0.73910110671E-01  0.88957153309E+00  0.88000000000E+00 0.  1.
        -11    1    4    4    0    0 -0.34863459977E-01  0.33629098279E-01 -0.26197093100E-01  0.55072006505E-01  0.51100000000E-03 0. -1.
         11    1    4    4    0    0 -0.40688770429E-01  0.30140192130E-01 -0.54542671995E-01  0.74425609907E-01  0.51100000000E-03 0.  1.
</event>
<event>
 8    1  0.1233643E+005  0.1043930E+01  0.7957747E-01            NaN
         13   -1    0    0    0    0  0.00000000000E+00  0.00000000000E+00  0.74505805969E-08  0.10566000000E+00  0.10566000000E+00 0.  1.
     999900   -1    0    0    0    0 -0.00000000000E+00 -0.00000000000E+00 -0.74505805969E-08  0.93827000000E+00  0.93827000000E+00 0.  1.
     999902    2    1    2    0    0  0.10662108329E-01  0.17040578510E-01 -0.12436544220E-01  0.10202925403E+01  0.10200186950E+01 0.  0.
     999903    2    3    3    0    0  0.66279593063E-01 -0.10476707469E+00 -0.32911025991E-01  0.12992766373E+00  0.20710813014E-01 0.  0.
         14    1    1    2    0    0 -0.10662108329E-01 -0.17040578510E-01  0.12436544220E-01  0.23637459723E-01  0.00000000000E+00 0.  1.
     999901    1    3    3    0    0 -0.55617484734E-01  0.12180765320E+00  0.20474481771E-01  0.89036487655E+00  0.88000000000E+00 0.  1.
        -11    1    4    4    0    0  0.53089082726E-01 -0.65816482029E-01 -0.22560369592E-01  0.87518520374E-01  0.51100000000E-03 0. -1.
         11    1    4    4    0    0  0.13190510337E-01 -0.38950592657E-01 -0.10350656399E-01  0.42409143356E-01  0.51100000000E-03 0.  1.
</event>
<event>
 8    1  0.1123361E+005  0.1043930E+01  0.7957747E-01            NaN
         13   -1    0    0    0    0  0.00000000000E+00  0.00000000000E+00  0.74505805969E-08  0.10566000000E+00  0.10566000000E+00 0.  1.
     999900   -1    0    0    0    0 -0.00000000000E+00 -0.00000000000E+00 -0.74505805969E-08  0.93827000000E+00  0.93827000000E+00 0. -1.
     999902    2    1    2    0    0  0.53323570304E-02 -0.13527549447E-01  0.14401104739E-01  0.10234648969E+01  0.10232602674E+01 0.  0.
     999903    2    3    3    0    0 -0.50875512654E-01  0.26477844051E-01  0.12001891136E+00  0.13446834059E+00  0.19692676921E-01 0.  0.
         14    1    1    2    0    0 -0.53323570304E-02  0.13527549447E-01 -0.14401104739E-01  0.20465103060E-01  0.00000000000E+00 0. -1.
     999901    1    3    3    0    0  0.56207869684E-01 -0.40005393498E-01 -0.10561780662E+00  0.88899655635E+00  0.88000000000E+00 0. -1.
        -11    1    4    4    0    0 -0.91365217451E-02 -0.28285180325E-02  0.16884881127E-01  0.19412286716E-01  0.51100000000E-03 0.  1.
         11    1    4    4    0    0 -0.41738990909E-01  0.29306362083E-01  0.10313403023E+00  0.11505605388E+00  0.51100000000E-03 0. -1.
</event>
<event>
 8    1  0.1123361E+005  0.1043930E+01  0.7957747E-01            NaN
         13   -1    0    0    0    0  0.00000000000E+00  0.00000000000E+00  0.74505805969E-08  0.10566000000E+00  0.10566000000E+00 0. -1.
     999900   -1    0    0    0    0 -0.00000000000E+00 -0.00000000000E+00 -0.74505805969E-08  0.93827000000E+00  0.93827000000E+00 0.  1.
     999902    2    1    2    0    0 -0.20233281102E-01  0.90888663847E-02 -0.99682010107E-02  0.10196121426E+01  0.10193221096E+01 0.  0.
     999903    2    3    3    0    0  0.16750554697E-01  0.99268327283E-01  0.74781153881E-01  0.13018390356E+00  0.34940605117E-01 0.  0.
         14    1    1    2    0    0  0.20233281102E-01 -0.90888663847E-02  0.99682010107E-02  0.24317857383E-01  0.00000000000E+00 0. -1.
     999901    1    3    3    0    0 -0.36983835799E-01 -0.90179460898E-01 -0.84749354892E-01  0.88942823906E+00  0.88000000000E+00 0.  1.
        -11    1    4    4    0    0 -0.56706243903E-02  0.13908609011E-01  0.24124009423E-01  0.28422426660E-01  0.51100000000E-03 0.  1.
         11    1    4    4    0    0  0.22421179087E-01  0.85359718272E-01  0.50657144458E-01  0.10176147690E+00  0.51100000000E-03 0. -1.
</event>
<event>
 8    1  0.1123361E+005  0.1043930E+01  0.7957747E-01            NaN
         13   -1    0    0    0    0  0.00000000000E+00  0.00000000000E+00  0.74505805969E-08  0.10566000000E+00  0.10566000000E+00 0. -1.
     999900   -1    0    0    0    0 -0.00000000000E+00 -0.00000000000E+00 -0.74505805969E-08  0.93827000000E+00  0.93827000000E+00 0. -1.
     999902    2    1    2    0    0 -0.21495909790E-01  0.16778150854E-01 -0.49379442298E-02  0.10162178406E+01  0.10158399164E+01 0.  0.
     999903    2    3    3    0    0  0.39220443992E-01 -0.11217244715E+00  0.29750439650E-01  0.12407546616E+00  0.19716275435E-01 0.  0.
         14    1    1    2    0    0  0.21495909790E-01 -0.16778150854E-01  0.49379442298E-02  0.27712159371E-01  0.00000000000E+00 0.  1.
     999901    1    3    3    0    0 -0.60716353782E-01  0.12895059801E+00 -0.34688383880E-01  0.89214237447E+00  0.88000000000E+00 0.  1.
        -11    1    4    4    0    0  0.14295721009E-01 -0.28848767809E-01  0.16223407280E-01  0.36056609769E-01  0.51100000000E-03 0.  1.
         11    1    4    4    0    0  0.24924722984E-01 -0.83323679344E-01  0.13527032370E-01  0.88018856394E-01  0.51100000000E-03 0. -1.
</event>
<event>
 8    1  0.1123361E+005  0.1043930E+01  0.7957747E-01            NaN
         13   -1    0    0    0    0  0.00000000000E+00  0.00000000000E+00  0.74505805969E-08  0.10566000000E+00  0.10566000000E+00 0.  1.
     999900   -1    0    0    0    0 -0.00000000000E+00 -0.00000000000E+00 -0.74505805969E-08  0.93827000000E+00  0.93827000000E+00 0. -1.
     999902    2    1    2    0    0  0.11796805037E-01 -0.14933955331E-01  0.14018403703E-01  0.10202930951E+01  0.10200192629E+01 0.  0.
     999903    2    3    3    0    0  0.85800453631E-01  0.93312711292E-01 -0.94731918801E-02  0.13026740114E+00  0.28475858267E-01 0.  0.
         14    1    1    2    0    0 -0.11796805037E-01  0.14933955331E-01 -0.14018403703E-01  0.23636904900E-01  0.00000000000E+00 0. -1.
     999901    1    3    3    0    0 -0.74003648595E-01 -0.10824666662E+00  0.23491595583E-01  0.89002569396E+00  0.88000000000E+00 0.  1.
        -11    1    4    4    0    0  0.47213894386E-01  0.41194489379E-01 -0.17148132428E-01  0.64965047103E-01  0.51100000000E-03 0. -1.
         11    1    4    4    0    0  0.38586559246E-01  0.52118221913E-01  0.76749405475E-02  0.65302354040E-01  0.51100000000E-03 0.  1.
</event>
<event>
 8    1  0.1123361E+005  0.1043930E+01  0.7957747E-01            NaN
         13   -1    0    0    0    0  0.00000000000E+00  0.00000000000E+00  0.74505805969E-08  0.10566000000E+00  0.10566000000E+00 0.  1.
     999900   -1    0    0    0    0 -0.00000000000E+00 -0.00000000000E+00 -0.74505805969E-08  0.93827000000E+00  0.93827000000E+00 0. -1.
     999902    2    1    2    0    0  0.21902507123E-01 -0.68139587064E-02 -0.60900335551E-02  0.10201973567E+01  0.10199212755E+01 0.  0.
     999903    2    3    3    0    0 -0.11171481629E+00 -0.59101036239E-01  0.99044979896E-02  0.12843317671E+00  0.20587596671E-01 0.  0.
         14    1    1    2    0    0 -0.21902507123E-01  0.68139587064E-02  0.60900335551E-02  0.23732643346E-01  0.00000000000E+00 0. -1.
     999901    1    3    3    0    0  0.13361732341E+00  0.52287077532E-01 -0.15994531545E-01  0.89176417994E+00  0.88000000000E+00 0. -1.
        -11    1    4    4    0    0 -0.71040839376E-01 -0.40883803796E-01 -0.30343411822E-02  0.82022890826E-01  0.51100000000E-03 0. -1.
         11    1    4    4    0    0 -0.40673976911E-01 -0.18217232442E-01  0.12938839172E-01  0.46410285883E-01  0.51100000000E-03 0.  1.
</event>
<event>
 8    1  0.1123361E+005  0.1043930E+01  0.7957747E-01            NaN
         13   -1    0    0    0    0  0.00000000000E+00  0.00000000000E+00  0.74505805969E-08  0.10566000000E+00  0.10566000000E+00 0.  1.
     999900   -1    0    0    0    0 -0.00000000000E+00 -0.00000000000E+00 -0.74505805969E-08  0.93827000000E+00  0.93827000000E+00 0. -1.
     999902    2    1    2    0    0 -0.21255687054E-01  0.99684809590E-02  0.21843468814E-02  0.10203514883E+01  0.10200790231E+01 0.  0.
     999903    2    3    3    0    0 -0.10160180181E-02  0.11042426950E+00  0.69212237941E-01  0.13187315547E+00  0.20140597424E-01 0.  0.
         14    1    1    2    0    0  0.21255687054E-01 -0.99684809590E-02 -0.21843468814E-02  0.23578511744E-01  0.00000000000E+00 0. -1.
     999901    1    3    3    0    0 -0.20239669036E-01 -0.10045578854E+00 -0.67027891060E-01  0.88847833279E+00  0.88000000000E+00 0. -1.
        -11    1    4    4    0    0  0.32525288697E-02  0.88618062897E-01  0.63050689663E-01  0.10880896380E+00  0.51100000000E-03 0. -1.
         11    1    4    4    0    0 -0.42685468878E-02  0.21806206604E-01  0.61615482784E-02  0.23064191666E-01  0.51100000000E-03 0.  1.
</event>
<event>
 8    1  0.1123361E+005  0.1043930E+01  0.7957747E-01            NaN
         13   -1    0    0    0    0  0.00000000000E+00  0.00000000000E+00  0.74505805969E-08  0.10566000000E+00  0.10566000000E+00 0. -1.
     999900   -1    0    0    0    0 -0.00000000000E+00 -0.00000000000E+00 -0.74505805969E-08  0.93827000000E+00  0.93827000000E+00 0.  1.
     999902    2    1    2    0    0 -0.20314147502E-01 -0.30486031733E-02  0.12342441596E-01  0.10199655590E+01  0.10196839937E+01 0.  0.
     999903    2    3    3    0    0 -0.76377258098E-01  0.38467980835E-01  0.10022013392E+00  0.13284144818E+00  0.17014817288E-01 0.  0.
         14    1    1    2    0    0  0.20314147502E-01  0.30486031733E-02 -0.12342441596E-01  0.23964441045E-01  0.00000000000E+00 0.  1.
     999901    1    3    3    0    0  0.56063110595E-01 -0.41516584008E-01 -0.87877692320E-01  0.88712411078E+00  0.88000000000E+00 0.  1.
        -11    1    4    4    0    0 -0.48909729127E-01  0.26597138236E-01  0.52572677768E-01  0.76574910606E-01  0.51100000000E-03 0.  1.
         11    1    4    4    0    0 -0.27467528971E-01  0.11870842600E-01  0.47647456148E-01  0.56266537570E-01  0.51100000000E-03 0. -1.
</event>
<event>
 8    1  0.1123361E+005  0.1043930E+01  0.7957747E-01            NaN
         13   -1    0    0    0    0  0.00000000000E+00  0.00000000000E+00  0.74505805969E-08  0.10566000000E+00  0.10566000000E+00 0.  1.
     999900   -1    0    0    0    0 -0.00000000000E+00 -0.00000000000E+00 -0.74505805969E-08  0.93827000000E+00  0.93827000000E+00 0. -1.
     999902    2    1    2    0    0  0.11535583364E-01 -0.21556840131E-01 -0.84678259108E-02  0.10180558601E+01  0.10177270082E+01 0.  0.
     999903    2    3    3    0    0 -0.12142963383E+00  0.98144358479E-03  0.31397327137E-01  0.12688979609E+00  0.19212209562E-01 0.  0.
         14    1    1    2    0    0 -0.11535583364E-01  0.21556840131E-01  0.84678259108E-02  0.25874139902E-01  0.00000000000E+00 0.  1.
     999901    1    3    3    0    0  0.13296521719E+00 -0.22538283716E-01 -0.39865153048E-01  0.89116606401E+00  0.88000000000E+00 0. -1.
        -11    1    4    4    0    0 -0.51715701124E-01  0.89813427891E-03  0.36486747641E-02  0.51854549815E-01  0.51100000000E-03 0. -1.
         11    1    4    4    0    0 -0.69713932706E-01  0.83309305883E-04  0.27748652373E-01  0.75035246273E-01  0.51100000000E-03 0.  1.
</event>
<event>
 8    1  0.1123361E+005  0.1043930E+01  0.7957747E-01            NaN
         13   -1    0    0    0    0  0.00000000000E+00  0.00000000000E+00  0.74505805969E-08  0.10566000000E+00  0.10566000000E+00 0. -1.
     999900   -1    0    0    0    0 -0.00000000000E+00 -0.00000000000E+00 -0.74505805969E-08  0.93827000000E+00  0.93827000000E+00 0. -1.
     999902    2    1    2    0    0  0.14169762179E-01  0.14057148186E-01 -0.12519468404E-01  0.10203689588E+01  0.10200969019E+01 0.  0.
     999903    2    3    3    0    0 -0.21387283570E-01 -0.12407397751E+00 -0.17166563057E-01  0.12887240415E+00  0.21485759715E-01 0.  0.
         14    1    1    2    0    0 -0.14169762179E-01 -0.14057148186E-01  0.12519468404E-01  0.23561041242E-01  0.00000000000E+00 0. -1.
     999901    1    3    3    0    0  0.35557045748E-01  0.13813112570E+00  0.46470946531E-02  0.89149655461E+00  0.88000000000E+00 0. -1.
        -11    1    4    4    0    0 -0.22549505383E-01 -0.10298409107E+00 -0.76569402832E-02  0.10570285267E+00  0.51100000000E-03 0. -1.
         11    1    4    4    0    0  0.11622218132E-02 -0.21089886441E-01 -0.95096227738E-02  0.23169551483E-01  0.51100000000E-03 0.  1.
</event>
<event>
 8    1  0.1123361E+005  0.1043930E+01  0.7957747E-01            NaN
         13   -1    0    0    0    0  0.00000000000E+00  0.00000000000E+00  0.74505805969E-08  0.10566000000E+00  0.10566000000E+00 0.  1.
     999900   -1    0    0    0    0 -0.00000000000E+00 -0.00000000000E+00 -0.74505805969E-08  0.93827000000E+00  0.93827000000E+00 0. -1.
     999902    2    1    2    0    0 -0.12603241786E-01  0.19639571995E-01  0.58671050574E-02  0.10198680505E+01  0.10195841618E+01 0.  0.
     999903    2    3    3    0    0 -0.11477899025E+00 -0.39778945476E-01  0.45355909760E-01  0.13108809490E+00  0.19244452918E-01 0.  0.
         14    1    1    2    0    0  0.12603241786E-01 -0.19639571995E-01 -0.58671050574E-02  0.24061949493E-01  0.00000000000E+00 0. -1.
     999901    1    3    3    0    0  0.10217574846E+00  0.59418517471E-01 -0.39488804703E-01  0.88877995561E+00  0.88000000000E+00 0.  1.
        -11    1    4    4    0    0 -0.50240987628E-01 -0.27287782839E-01  0.18766491760E-01  0.60176592327E-01  0.51100000000E-03 0.  1.
         11    1    4    4    0    0 -0.64538002622E-01 -0.12491162637E-01  0.26589418001E-01  0.70911502572E-01  0.51100000000E-03 0. -1.
</event>
<event>
 7    1  0.1123361E+005  0.1043930E+01  0.7957747E-01            NaN
         13   -1    0    0    0    0  0.00000000000E+00  0.00000000000E+00  0.74505805969E-08  0.10566000000E+00  0.10566000000E+00 0. -1.
     999900   -1    0    0    0    0 -0.00000000000E+00 -0.00000000000E+00 -0.74505805969E-08  0.93827000000E+00  0.93827000000E+00 0. -1.
     999903    2    1    2    0    0  0.19217166640E-01 -0.20687911080E-01  0.54744994880E-01  0.64383005407E-01  0.18731464499E-01 0.  0.
         14    1    1    2    0    0  0.12734071916E-01 -0.33895035825E-01  0.79278395026E-01  0.87155573310E-01  0.00000000000E+00 0. -1.
     999901    1    1    2    0    0 -0.31951238557E-01  0.54582946905E-01 -0.13402338991E+00  0.89239142128E+00  0.88000000000E+00 0. -1.
        -11    1    3    3    0    0 -0.27821651951E-02 -0.35032270848E-02  0.16030543659E-01  0.16650900701E-01  0.51100000000E-03 0. -1.
         11    1    3    3    0    0  0.21999331835E-01 -0.17184683995E-01  0.38714451221E-01  0.47732104705E-01  0.51100000000E-03 0.  1.
</event>
<event>
 8    1  0.1123361E+005  0.1043930E+01  0.7957747E-01            NaN
         13   -1    0    0    0    0  0.00000000000E+00  0.00000000000E+00  0.74505805969E-08  0.10566000000E+00  0.10566000000E+00 0. -1.
     999900   -1    0    0    0    0 -0.00000000000E+00 -0.00000000000E+00 -0.74505805969E-08  0.93827000000E+00  0.93827000000E+00 0. -1.
     999902    2    1    2    0    0  0.17604395419E-02 -0.10152470989E-01 -0.19704463925E-01  0.10216940446E+01  0.10214520464E+01 0.  0.
     999903    2    3    3    0    0  0.11800840445E+00  0.14867419191E-01  0.50780549691E-01  0.13090354094E+00  0.20249669848E-01 0.  0.
         14    1    1    2    0    0 -0.17604395419E-02  0.10152470989E-01  0.19704463925E-01  0.22235955413E-01  0.00000000000E+00 0. -1.
     999901    1    3    3    0    0 -0.11624796491E+00 -0.25019890179E-01 -0.70485013616E-01  0.89079050365E+00  0.88000000000E+00 0.  1.
        -11    1    4    4    0    0  0.56279889398E-01 -0.24971393034E-02  0.20102296116E-01  0.59816595402E-01  0.51100000000E-03 0.  1.
         11    1    4    4    0    0  0.61728515050E-01  0.17364558494E-01  0.30678253575E-01  0.71086945534E-01  0.51100000000E-03 0. -1.
</event>
<event>
 8    1  0.1123361E+005  0.1043930E+01  0.7957747E-01            NaN
         13   -1    0    0    0    0  0.00000000000E+00  0.00000000000E+00  0.74505805969E-08  0.10566000000E+00  0.10566000000E+00 0.  1.
     999900   -1    0    0    0    0 -0.00000000000E+00 -0.00000000000E+00 -0.74505805969E-08  0.93827000000E+00  0.93827000000E+00 0.  1.
     999902    2    1    2    0    0  0.20717065339E-01 -0.11247255564E-01  0.42147064192E-02  0.10199829479E+01  0.10197017960E+01 0.  0.
     999903    2    3    3    0    0 -0.54903295922E-01 -0.49634311117E-01  0.10507055134E+00  0.13017178449E+00  0.20662429104E-01 0.  0.
         14    1    1    2    0    0 -0.20717065339E-01  0.11247255564E-01 -0.42147064192E-02  0.23947052097E-01  0.00000000000E+00 0. -1.
     999901    1    3    3    0    0  0.75620361261E-01  0.38387055553E-01 -0.10085584492E+00  0.88981116341E+00  0.88000000000E+00 0. -1.
        -11    1    4    4    0    0 -0.33902035977E-01 -0.41348418362E-01  0.81951136197E-01  0.97853408676E-01  0.51100000000E-03 0.  1.
         11    1    4    4    0    0 -0.21001259945E-01 -0.82858927542E-02  0.23119415143E-01  0.32318375819E-01  0.51100000000E-03 0. -1.
</event>
<event>
 8    1  0.1123361E+005  0.1043930E+01  0.7957747E-01            NaN
         13   -1    0    0    0    0  0.00000000000E+00  0.00000000000E+00  0.74505805969E-08  0.10566000000E+00  0.10566000000E+00 0. -1.
     999900   -1    0    0    0    0 -0.00000000000E+00 -0.00000000000E+00 -0.74505805969E-08  0.93827000000E+00  0.93827000000E+00 0. -1.
     999902    2    1    2    0    0 -0.98139874599E-02  0.96701084445E-02 -0.21821631082E-01  0.10181228512E+01  0.10177957217E+01 0.  0.
     999903    2    3    3    0    0 -0.76093987730E-01 -0.60110654776E-01  0.79561358512E-01  0.12708923569E+00  0.20446962460E-01 0.  0.
         14    1    1    2    0    0  0.98139874599E-02 -0.96701084445E-02  0.21821631082E-01  0.25807148821E-01  0.00000000000E+00 0. -1.
     999901    1    3    3    0    0  0.66280000270E-01  0.69780763221E-01 -0.10138298959E+00  0.89103361549E+00  0.88000000000E+00 0. -1.
        -11    1    4    4    0    0 -0.18027697120E-02 -0.33461771012E-03 -0.10959432460E-02  0.21963971055E-02  0.51100000000E-03 0.  1.
         11    1    4    4    0    0 -0.74291218018E-01 -0.59776037066E-01  0.80657301758E-01  0.12489283858E+00  0.51100000000E-03 0. -1.
</event>
<event>
 8    1  0.1123361E+005  0.1043930E+01  0.7957747E-01            NaN
         13   -1    0    0    0    0  0.00000000000E+00  0.00000000000E+00  0.74505805969E-08  0.10566000000E+00  0.10566000000E+00 0. -1.
     999900   -1    0    0    0    0 -0.00000000000E+00 -0.00000000000E+00 -0.74505805969E-08  0.93827000000E+00  0.93827000000E+00 0. -1.
     999902    2    1    2    0    0  0.83409201326E-03  0.89227773815E-02 -0.21031600242E-01  0.10210686817E+01  0.10208127217E+01 0.  0.
     999903    2    3    3    0    0  0.38230774081E-01 -0.11527964128E+00 -0.45665109769E-01  0.13121950211E+00  0.19551667542E-01 0.  0.
         14    1    1    2    0    0 -0.83409201326E-03 -0.89227773815E-02  0.21031600242E-01  0.22861318300E-01  0.00000000000E+00 0. -1.
     999901    1    3    3    0    0 -0.37396682068E-01  0.12420241866E+00  0.24633509527E-01  0.88984917959E+00  0.88000000000E+00 0. -1.
        -11    1    4    4    0    0  0.19673719689E-01 -0.81014502785E-01 -0.24623199068E-01  0.86930822849E-01  0.51100000000E-03 0. -1.
         11    1    4    4    0    0  0.18557054392E-01 -0.34265138491E-01 -0.21041910701E-01  0.44288679258E-01  0.51100000000E-03 0.  1.
</event>
<event>
 8    1  0.1123361E+005  0.1043930E+01  0.7957747E-01            NaN
         13   -1    0    0    0    0  0.00000000000E+00  0.00000000000E+00  0.74505805969E-08  0.10566000000E+00  0.10566000000E+00 0.  1.
     999900   -1    0    0    0    0 -0.00000000000E+00 -0.00000000000E+00 -0.74505805969E-08  0.93827000000E+00  0.93827000000E+00 0.  1.
     999902    2    1    2    0    0  0.20057413054E-01 -0.36290940806E-03 -0.50772822317E-02  0.10232367567E+01  0.10230274923E+01 0.  0.
     999903    2    3    3    0    0  0.95802205728E-01  0.91557307276E-01 -0.18519925825E-01  0.13511103112E+00  0.18740329206E-01 0.  0.
         14    1    1    2    0    0 -0.20057413054E-01  0.36290940806E-03  0.50772822317E-02  0.20693243258E-01  0.00000000000E+00 0. -1.
     999901    1    3    3    0    0 -0.75744792674E-01 -0.91920216684E-01  0.13442643594E-01  0.88812572563E+00  0.88000000000E+00 0. -1.
        -11    1    4    4    0    0  0.89775701637E-01  0.78086251761E-01 -0.17970877235E-01  0.12033433786E+00  0.51100000000E-03 0.  1.
         11    1    4    4    0    0  0.60265040904E-02  0.13471055515E-01 -0.54904859037E-03  0.14776693256E-01  0.51100000000E-03 0. -1.
</event>
<event>
 8    1  0.1245767E+005  0.1043930E+01  0.7957747E-01            NaN
         13   -1    0    0    0    0  0.00000000000E+00  0.00000000000E+00  0.74505805969E-08  0.10566000000E+00  0.10566000000E+00 0. -1.
     999900   -1    0    0    0    0 -0.00000000000E+00 -0.00000000000E+00 -0.74505805969E-08  0.93827000000E+00  0.93827000000E+00 0.  1.
     999902    2    1    2    0    0  0.25327316984E-02  0.22034354388E-01  0.69233816142E-02  0.10206950970E+01  0.10204306054E+01 0.  0.
     999903    2    3    3    0    0 -0.10235753822E+00 -0.74117389259E-01  0.18226625822E-01  0.12919361646E+00  0.19706030124E-01 0.  0.
         14    1    1    2    0    0 -0.25327316984E-02 -0.22034354388E-01 -0.69233816142E-02  0.23234902972E-01  0.00000000000E+00 0.  1.
     999901    1    3    3    0    0  0.10489026992E+00  0.96151743647E-01 -0.11303244208E-01  0.89150148057E+00  0.88000000000E+00 0.  1.
        -11    1    4    4    0    0 -0.39184705672E-01 -0.38766829278E-01  0.12851169735E-01  0.56601430153E-01  0.51100000000E-03 0.  1.
         11    1    4    4    0    0 -0.63172832549E-01 -0.35350559981E-01  0.53754560876E-02  0.72592186304E-01  0.51100000000E-03 0. -1.
</event>
<event>
 8    1  0.1123361E+005  0.1043930E+01  0.7957747E-01            NaN
         13   -1    0    0    0    0  0.00000000000E+00  0.00000000000E+00  0.74505805969E-08  0.10566000000E+00  0.10566000000E+00 0.  1.
     999900   -1    0    0    0    0 -0.00000000000E+00 -0.00000000000E+00 -0.74505805969E-08  0.93827000000E+00  0.93827000000E+00 0.  1.
     999902    2    1    2    0    0 -0.10510880836E-01 -0.18051222536E-01 -0.95091667306E-02  0.10209789760E+01  0.10207209804E+01 0.  0.
     999903    2    3    3    0    0  0.58604775660E-01  0.10902344486E+00  0.27256478986E-01  0.12841152321E+00  0.20639098520E-01 0.  0.
         14    1    1    2    0    0  0.10510880836E-01  0.18051222536E-01  0.95091667306E-02  0.22951024006E-01  0.00000000000E+00 0.  1.
     999901    1    3    3    0    0 -0.69115656496E-01 -0.12707466739E+00 -0.36765645716E-01  0.89256745278E+00  0.88000000000E+00 0.  1.
        -11    1    4    4    0    0 -0.96095135764E-03  0.55217545008E-02 -0.94699360035E-03  0.57071111920E-02  0.51100000000E-03 0. -1.
         11    1    4    4    0    0  0.59565727017E-01  0.10350169036E+00  0.28203472586E-01  0.12270441202E+00  0.51100000000E-03 0.  1.
</event>
<event>
 8    1  0.1123361E+005  0.1043930E+01  0.7957747E-01            NaN
         13   -1    0    0    0    0  0.00000000000E+00  0.00000000000E+00  0.74505805969E-08  0.10566000000E+00  0.10566000000E+00 0. -1.
     999900   -1    0    0    0    0 -0.00000000000E+00 -0.00000000000E+00 -0.74505805969E-08  0.93827000000E+00  0.93827000000E+00 0.  1.
     999902    2    1    2    0    0 -0.13757792932E-01  0.93350318002E-02 -0.17105683159E-01  0.10200757743E+01  0.10197968236E+01 0.  0.
     999903    2    3    3    0    0 -0.15690484861E-01 -0.12650617639E+00  0.38729189400E-02  0.12940374106E+00  0.21916311676E-01 0.  0.
         14    1    1    2    0    0  0.13757792932E-01 -0.93350318002E-02  0.17105683159E-01  0.23854225651E-01  0.00000000000E+00 0.  1.
     999901    1    3    3    0    0  0.19326919288E-02  0.13584120819E+00 -0.20978602099E-01  0.89067203329E+00  0.88000000000E+00 0. -1.
        -11    1    4    4    0    0  0.54649373755E-03 -0.38311467748E-01 -0.73773023644E-02  0.39022466959E-01  0.51100000000E-03 0. -1.
         11    1    4    4    0    0 -0.16236978599E-01 -0.88194708646E-01  0.11250221304E-01  0.90381274098E-01  0.51100000000E-03 0.  1.
</event>
<event>
 8    1  0.1123361E+005  0.1043930E+01  0.7957747E-01            NaN
         13   -1    0    0    0    0  0.00000000000E+00  0.00000000000E+00  0.74505805969E-08  0.10566000000E+00  0.10566000000E+00 0.  1.
     999900   -1    0    0    0    0 -0.00000000000E+00 -0.00000000000E+00 -0.74505805969E-08  0.93827000000E+00  0.93827000000E+00 0. -1.
     999902    2    1    2    0    0 -0.20614376969E-01  0.11097928809E-01 -0.52117314827E-02  0.10199450317E+01  0.10196629781E+01 0.  0.
     999903    2    3    3    0    0  0.62871845086E-01 -0.20356446098E-01  0.10870032938E+00  0.12812930821E+00  0.15300464443E-01 0.  0.
         14    1    1    2    0    0  0.20614376969E-01 -0.11097928809E-01  0.52117314827E-02  0.23984968349E-01  0.00000000000E+00 0.  1.
     999901    1    3    3    0    0 -0.83486222055E-01  0.31454374907E-01 -0.11391206086E+00  0.89181572344E+00  0.88000000000E+00 0. -1.
        -11    1    4    4    0    0  0.79463266947E-02  0.14600896233E-02  0.19634744229E-01  0.21238179573E-01  0.51100000000E-03 0.  1.
         11    1    4    4    0    0  0.54925518391E-01 -0.21816535721E-01  0.89065585149E-01  0.10689112863E+00  0.51100000000E-03 0. -1.
</event>
<event>
 8    1  0.1123361E+005  0.1043930E+01  0.7957747E-01            NaN
         13   -1    0    0    0    0  0.00000000000E+00  0.00000000000E+00  0.74505805969E-08  0.10566000000E+00  0.10566000000E+00 0.  1.
     999900   -1    0    0    0    0 -0.00000000000E+00 -0.00000000000E+00 -0.74505805969E-08  0.93827000000E+00  0.93827000000E+00 0. -1.
     999902    2    1    2    0    0 -0.14915643605E-02  0.21960284359E-02  0.23353723609E-01  0.10204258788E+01  0.10201551502E+01 0.  0.
     999903    2    3    3    0    0 -0.83943749982E-01 -0.76536827610E-01 -0.59891379899E-01  0.12917564866E+00  0.13961793552E-01 0.  0.
         14    1    1    2    0    0  0.14915643605E-02 -0.21960284359E-02 -0.23353723609E-01  0.23504121161E-01  0.00000000000E+00 0. -1.
     999901    1    3    3    0    0  0.82452185621E-01  0.78732856045E-01  0.83245103508E-01  0.89125023018E+00  0.88000000000E+00 0.  1.
        -11    1    4    4    0    0 -0.55781085856E-01 -0.59187799748E-01 -0.41048631690E-01  0.91104206615E-01  0.51100000000E-03 0.  1.
         11    1    4    4    0    0 -0.28162664126E-01 -0.17349027862E-01 -0.18842748209E-01  0.38071442046E-01  0.51100000000E-03 0. -1.
</event>
<event>
 8    1  0.1123361E+005  0.1043930E+01  0.7957747E-01            NaN
         13   -1    0    0    0    0  0.00000000000E+00  0.00000000000E+00  0.74505805969E-08  0.10566000000E+00  0.10566000000E+00 0. -1.
     999900   -1    0    0    0    0 -0.00000000000E+00 -0.00000000000E+00 -0.74505805969E-08  0.93827000000E+00  0.93827000000E+00 0. -1.
     999902    2    1    2    0    0  0.16803937702E-01 -0.11371293098E-01  0.12455550264E-01  0.10201220316E+01  0.10198441743E+01 0.  0.
     999903    2    3    3    0    0  0.10123868011E+00 -0.82838776306E-01 -0.10816732764E-01  0.13289126899E+00  0.20773888829E-01 0.  0.
         14    1    1    2    0    0 -0.16803937702E-01  0.11371293098E-01 -0.12455550264E-01  0.23807968443E-01  0.00000000000E+00 0.  1.
     999901    1    3    3    0    0 -0.84434742406E-01  0.71467483207E-01  0.23272283028E-01  0.88723076256E+00  0.88000000000E+00 0.  1.
        -11    1    4    4    0    0  0.82324523535E-01 -0.70601041960E-01 -0.16374288733E-01  0.10968232653E+00  0.51100000000E-03 0.  1.
         11    1    4    4    0    0  0.18914156574E-01 -0.12237734345E-01  0.55575559688E-02  0.23208942461E-01  0.51100000000E-03 0. -1.
</event>
<event>
 8    1  0.1123361E+005  0.1043930E+01  0.7957747E-01            NaN
         13   -1    0    0    0    0  0.00000000000E+00  0.00000000000E+00  0.74505805969E-08  0.10566000000E+00  0.10566000000E+00 0.  1.
     999900   -1    0    0    0    0 -0.00000000000E+00 -0.00000000000E+00 -0.74505805969E-08  0.93827000000E+00  0.93827000000E+00 0.  1.
     999902    2    1    2    0    0 -0.17032654884E-01  0.93380306536E-02  0.12848364471E-01  0.10206407188E+01  0.10203749734E+01 0.  0.
     999903    2    3    3    0    0  0.85146619245E-01  0.18177447048E-01  0.95566922260E-01  0.13083113291E+00  0.20084380986E-01 0.  0.
         14    1    1    2    0    0  0.17032654884E-01 -0.93380306536E-02 -0.12848364471E-01  0.23289281192E-01  0.00000000000E+00 0. -1.
     999901    1    3    3    0    0 -0.10217927413E+00 -0.88394163943E-02 -0.82718557789E-01  0.88980958589E+00  0.88000000000E+00 0.  1.
        -11    1    4    4    0    0  0.79479321927E-01  0.11698693540E-01  0.82317171150E-01  0.11502260574E+00  0.51100000000E-03 0.  1.
         11    1    4    4    0    0  0.56672973174E-02  0.64787535079E-02  0.13249751110E-01  0.15808527173E-01  0.51100000000E-03 0. -1.
</event>
<event>
 8    1  0.1123361E+005  0.1043930E+01  0.7957747E-01            NaN
         13   -1    0    0    0    0  0.00000000000E+00  0.00000000000E+00  0.74505805969E-08  0.10566000000E+00  0.10566000000E+00 0. -1.
     999900   -1    0    0    0    0 -0.00000000000E+00 -0.00000000000E+00 -0.74505805969E-08  0.93827000000E+00  0.93827000000E+00 0.  1.
     999902    2    1    2    0    0 -0.77074526443E-02  0.19840698781E-01  0.29415755904E-01  0.10076209812E+01  0.10069665818E+01 0.  0.
     999903    2    3    3    0    0  0.68245902594E-01 -0.57569854483E-01 -0.70330145607E-01  0.11537070752E+00  0.19806044686E-01 0.  0.
         14    1    1    2    0    0  0.77074526443E-02 -0.19840698781E-01 -0.29415755904E-01  0.36309018849E-01  0.00000000000E+00 0.  1.
     999901    1    3    3    0    0 -0.75953355238E-01  0.77410553264E-01  0.99745901512E-01  0.89225027363E+00  0.88000000000E+00 0. -1.
        -11    1    4    4    0    0  0.25797707457E-01 -0.32252008308E-01 -0.39281826636E-01  0.57000322586E-01  0.51100000000E-03 0. -1.
         11    1    4    4    0    0  0.42448195137E-01 -0.25317846175E-01 -0.31048318971E-01  0.58370384933E-01  0.51100000000E-03 0.  1.
</event>
<event>
 8    1  0.1123361E+005  0.1043930E+01  0.7957747E-01            NaN
         13   -1    0    0    0    0  0.00000000000E+00  0.00000000000E+00  0.74505805969E-08  0.10566000000E+00  0.10566000000E+00 0. -1.
     999900   -1    0    0    0    0 -0.00000000000E+00 -0.00000000000E+00 -0.74505805969E-08  0.93827000000E+00  0.93827000000E+00 0.  1.
     999902    2    1    2    0    0  0.19682147041E-01 -0.14504144890E-02 -0.12286059752E-01  0.10206826802E+01  0.10204179025E+01 0.  0.
     999903    2    3    3    0    0 -0.20329435367E-01  0.56085545442E-01  0.11255717735E+00  0.12911263400E+00  0.21025692266E-01 0.  0.
         14    1    1    2    0    0 -0.19682147041E-01  0.14504144890E-02  0.12286059752E-01  0.23247319815E-01  0.00000000000E+00 0. -1.
     999901    1    3    3    0    0  0.40011582409E-01 -0.57535959931E-01 -0.12484323710E+00  0.89157004619E+00  0.88000000000E+00 0. -1.
        -11    1    4    4    0    0 -0.49622952617E-02  0.30592078970E-01  0.75241861627E-01  0.81376277452E-01  0.51100000000E-03 0.  1.
         11    1    4    4    0    0 -0.15367140106E-01  0.25493466472E-01  0.37315315721E-01  0.47736356544E-01  0.51100000000E-03 0. -1.
</event>
<event>
 8    1  0.1123361E+005  0.1043930E+01  0.7957747E-01            NaN
         13   -1    0    0    0    0  0.00000000000E+00  0.00000000000E+00  0.74505805969E-08  0.10566000000E+00  0.10566000000E+00 0.  1.
     999900   -1    0    0    0    0 -0.00000000000E+00 -0.00000000000E+00 -0.74505805969E-08  0.93827000000E+00  0.93827000000E+00 0. -1.
     999902    2    1    2    0    0 -0.18984151059E-01  0.10277635039E-01 -0.94194005759E-02  0.10203768074E+01  0.10201049339E+01 0.  0.
     999903    2    3    3    0    0  0.25271547943E-01 -0.12181179274E+00  0.26330166202E-01  0.12870185804E+00  0.19852622670E-01 0.  0.
         14    1    1    2    0    0  0.18984151059E-01 -0.10277635039E-01  0.94194005759E-02  0.23553192578E-01  0.00000000000E+00 0.  1.
     999901    1    3    3    0    0 -0.44255699002E-01  0.13208942777E+00 -0.35749566777E-01  0.89167494938E+00  0.88000000000E+00 0.  1.
        -11    1    4    4    0    0  0.68728876550E-02 -0.32561553461E-01  0.16187973590E-01  0.37010849199E-01  0.51100000000E-03 0. -1.
         11    1    4    4    0    0  0.18398660288E-01 -0.89250239274E-01  0.10142192612E-01  0.91691008844E-01  0.51100000000E-03 0.  1.
</event>
<event>
 8    1  0.1123361E+005  0.1043930E+01  0.7957747E-01            NaN
         13   -1    0    0    0    0  0.00000000000E+00  0.00000000000E+00  0.74505805969E-08  0.10566000000E+00  0.10566000000E+00 0. -1.
     999900   -1    0    0    0    0 -0.00000000000E+00 -0.00000000000E+00 -0.74505805969E-08  0.93827000000E+00  0.93827000000E+00 0.  1.
     999902    2    1    2    0    0  0.17493445545E-01  0.11540341415E-02 -0.17024929186E-01  0.10194923110E+01  0.10191993777E+01 0.  0.
     999903    2    3    3    0    0  0.51120534184E-01 -0.19472782393E-01  0.11460321977E+00  0.12882839216E+00  0.21687747121E-01 0.  0.
         14    1    1    2    0    0 -0.17493445545E-01 -0.11540341415E-02  0.17024929186E-01  0.24437689040E-01  0.00000000000E+00 0. -1.
     999901    1    3    3    0    0 -0.33627088639E-01  0.20626816535E-01 -0.13162814896E+00  0.89066391880E+00  0.88000000000E+00 0.  1.
        -11    1    4    4    0    0  0.28512894126E-01 -0.18115485273E-01  0.49791513819E-01  0.60171520735E-01  0.51100000000E-03 0.  1.
         11    1    4    4    0    0  0.22607640057E-01 -0.13572971202E-02  0.64811705954E-01  0.68656871427E-01  0.51100000000E-03 0. -1.
</event>
<event>
 8    1  0.1123361E+005  0.1043930E+01  0.7957747E-01            NaN
         13   -1    0    0    0    0  0.00000000000E+00  0.00000000000E+00  0.74505805969E-08  0.10566000000E+00  0.10566000000E+00 0. -1.
     999900   -1    0    0    0    0 -0.00000000000E+00 -0.00000000000E+00 -0.74505805969E-08  0.93827000000E+00  0.93827000000E+00 0.  1.
     999902    2    1    2    0    0  0.12045726450E-01  0.75963667853E-02 -0.18508698354E-01  0.10205767084E+01  0.10203094832E+01 0.  0.
     999903    2    3    3    0    0 -0.50007958620E-01  0.85502164136E-01 -0.85547986755E-01  0.13242455967E+00  0.20159116277E-01 0.  0.
         14    1    1    2    0    0 -0.12045726450E-01 -0.75963667853E-02  0.18508698354E-01  0.23353291606E-01  0.00000000000E+00 0. -1.
     999901    1    3    3    0    0  0.62053685071E-01 -0.77905797350E-01  0.67039288401E-01  0.88815214872E+00  0.88000000000E+00 0. -1.
        -11    1    4    4    0    0 -0.13425032705E-01  0.18513021170E-01 -0.97868865880E-02  0.24879865877E-01  0.51100000000E-03 0.  1.
         11    1    4    4    0    0 -0.36582925916E-01  0.66989142965E-01 -0.75761100167E-01  0.10754469379E+00  0.51100000000E-03 0. -1.
</event>
<event>
 8    1  0.1123361E+005  0.1043930E+01  0.7957747E-01            NaN
         13   -1    0    0    0    0  0.00000000000E+00  0.00000000000E+00  0.74505805969E-08  0.10566000000E+00  0.10566000000E+00 0. -1.
     999900   -1    0    0    0    0 -0.00000000000E+00 -0.00000000000E+00 -0.74505805969E-08  0.93827000000E+00  0.93827000000E+00 0. -1.
     999902    2    1    2    0    0 -0.72842724424E-02  0.21251524415E-01  0.75919985844E-02  0.10202165785E+01  0.10199409496E+01 0.  0.
     999903    2    3    3    0    0 -0.10881791505E+00 -0.29499722174E-01  0.64036751381E-01  0.13113234196E+00  0.19580943189E-01 0.  0.
         14    1    1    2    0    0  0.72842724424E-02 -0.21251524415E-01 -0.75919985844E-02  0.23713421463E-01  0.00000000000E+00 0.  1.
     999901    1    3    3    0    0  0.10153364261E+00  0.50751246590E-01 -0.56444752796E-01  0.88908423658E+00  0.88000000000E+00 0.  1.
        -11    1    4    4    0    0 -0.74730640948E-01 -0.24083901869E-01  0.34748762927E-01  0.85862917908E-01  0.51100000000E-03 0. -1.
         11    1    4    4    0    0 -0.34087274102E-01 -0.54158203049E-02  0.29287988453E-01  0.45269424051E-01  0.51100000000E-03 0.  1.
</event>
<event>
 8    1  0.1123361E+005  0.1043930E+01  0.7957747E-01            NaN
         13   -1    0    0    0    0  0.00000000000E+00  0.00000000000E+00  0.74505805969E-08  0.10566000000E+00  0.10566000000E+00 0.  1.
     999900   -1    0    0    0    0 -0.00000000000E+00 -0.00000000000E+00 -0.74505805969E-08  0.93827000000E+00  0.93827000000E+00 0.  1.
     999902    2    1    2    0    0 -0.18937914141E-01 -0.25918968586E-02 -0.19991690593E-01  0.10162708204E+01  0.10158943598E+01 0.  0.
     999903    2    3    3    0    0 -0.10516094950E+00 -0.72087492427E-01  0.76854611689E-03  0.12908705308E+00  0.20185260600E-01 0.  0.
         14    1    1    2    0    0  0.18937914141E-01  0.25918968586E-02  0.19991690593E-01  0.27659179563E-01  0.00000000000E+00 0.  1.
     999901    1    3    3    0    0  0.86223035361E-01  0.69495595569E-01 -0.20760236710E-01  0.88718376736E+00  0.88000000000E+00 0.  1.
        -11    1    4    4    0    0 -0.38286097626E-01 -0.26153486400E-01  0.99882233971E-02  0.47432645403E-01  0.51100000000E-03 0.  1.
         11    1    4    4    0    0 -0.66874851876E-01 -0.45934006027E-01 -0.92196772802E-02  0.81654407679E-01  0.51100000000E-03 0. -1.
</event>
<event>
 8    1  0.1326229E+005  0.1043930E+01  0.7957747E-01            NaN
         13   -1    0    0    0    0  0.00000000000E+00  0.00000000000E+00  0.74505805969E-08  0.10566000000E+00  0.10566000000E+00 0.  1.
     999900   -1    0    0    0    0 -0.00000000000E+00 -0.00000000000E+00 -0.74505805969E-08  0.93827000000E+00  0.93827000000E+00 0. -1.
     999902    2    1    2    0    0  0.16465186093E-01 -0.92046483398E-02 -0.14310236255E-01  0.10202527796E+01  0.10199780015E+01 0.  0.
     999903    2    3    3    0    0  0.11309599692E-01 -0.74122431843E-01 -0.10797459521E+00  0.13288931922E+00  0.19468333337E-01 0.  0.
         14    1    1    2    0    0 -0.16465186093E-01  0.92046483398E-02  0.14310236255E-01  0.23677220399E-01  0.00000000000E+00 0.  1.
     999901    1    3    3    0    0  0.51555864015E-02  0.64917783503E-01  0.93664358958E-01  0.88736346038E+00  0.88000000000E+00 0.  1.
        -11    1    4    4    0    0 -0.23700170098E-02 -0.47160995955E-01 -0.66605369987E-01  0.81647492014E-01  0.51100000000E-03 0. -1.
         11    1    4    4    0    0  0.13679616701E-01 -0.26961435889E-01 -0.41369225226E-01  0.51241827203E-01  0.51100000000E-03 0.  1.
</event>
<event>
 8    1  0.1123361E+005  0.1043930E+01  0.7957747E-01            NaN
         13   -1    0    0    0    0  0.00000000000E+00  0.00000000000E+00  0.74505805969E-08  0.10566000000E+00  0.10566000000E+00 0.  1.
     999900   -1    0    0    0    0 -0.00000000000E+00 -0.00000000000E+00 -0.74505805969E-08  0.93827000000E+00  0.93827000000E+00 0. -1.
     999902    2    1    2    0    0 -0.11462590217E-01  0.16207760496E-01 -0.12965925588E-01  0.10202192914E+01  0.10199437263E+01 0.  0.
     999903    2    3    3    0    0  0.71841895669E-01 -0.18763306708E-01 -0.10650793697E+00  0.13066169306E+00  0.14670301479E-01 0.  0.
         14    1    1    2    0    0  0.11462590217E-01 -0.16207760496E-01  0.12965925588E-01  0.23710708576E-01  0.00000000000E+00 0. -1.
     999901    1    3    3    0    0 -0.83304485886E-01  0.34971067205E-01  0.93542011377E-01  0.88955759836E+00  0.88000000000E+00 0.  1.
        -11    1    4    4    0    0  0.46801999350E-01 -0.17531020027E-01 -0.78583414892E-01  0.93130972418E-01  0.51100000000E-03 0. -1.
         11    1    4    4    0    0  0.25039896319E-01 -0.12322866816E-02 -0.27924522073E-01  0.37530720645E-01  0.51100000000E-03 0.  1.
</event>
<event>
 8    1  0.1123361E+005  0.1043930E+01  0.7957747E-01            NaN
         13   -1    0    0    0    0  0.00000000000E+00  0.00000000000E+00  0.74505805969E-08  0.10566000000E+00  0.10566000000E+00 0. -1.
     999900   -1    0    0    0    0 -0.00000000000E+00 -0.00000000000E+00 -0.74505805969E-08  0.93827000000E+00  0.93827000000E+00 0.  1.
     999902    2    1    2    0    0 -0.20738331585E-01 -0.54704116843E-04 -0.11843352634E-01  0.10200480740E+01  0.10197684673E+01 0.  0.
     999903    2    3    3    0    0 -0.59496496465E-01  0.11076478682E+00  0.23782021699E-01  0.13153677848E+00  0.30457650036E-01 0.  0.
         14    1    1    2    0    0  0.20738331585E-01  0.54704116843E-04  0.11843352634E-01  0.23881926034E-01  0.00000000000E+00 0. -1.
     999901    1    3    3    0    0  0.38758164880E-01 -0.11081949093E+00 -0.35625374333E-01  0.88851129549E+00  0.88000000000E+00 0.  1.
        -11    1    4    4    0    0 -0.54088477378E-01  0.84143078845E-01  0.28386309004E-01  0.10397915542E+00  0.51100000000E-03 0. -1.
         11    1    4    4    0    0 -0.54080190875E-02  0.26621707972E-01 -0.46042873051E-02  0.27557623054E-01  0.51100000000E-03 0.  1.
</event>
<event>
 8    1  0.1123361E+005  0.1043930E+01  0.7957747E-01            NaN
         13   -1    0    0    0    0  0.00000000000E+00  0.00000000000E+00  0.74505805969E-08  0.10566000000E+00  0.10566000000E+00 0.  1.
     999900   -1    0    0    0    0 -0.00000000000E+00 -0.00000000000E+00 -0.74505805969E-08  0.93827000000E+00  0.93827000000E+00 0.  1.
     999902    2    1    2    0    0 -0.26363932459E-01 -0.10417948876E-01 -0.34421524857E-02  0.10153741073E+01  0.10149724818E+01 0.  0.
     999903    2    3    3    0    0  0.86530383714E-01  0.33542355909E-01  0.78754143591E-01  0.12327889596E+00  0.19567169234E-01 0.  0.
         14    1    1    2    0    0  0.26363932459E-01  0.10417948876E-01  0.34421524857E-02  0.28555892688E-01  0.00000000000E+00 0.  1.
     999901    1    3    3    0    0 -0.11289431617E+00 -0.43960304785E-01 -0.82196296076E-01  0.89209521135E+00  0.88000000000E+00 0.  1.
        -11    1    4    4    0    0  0.46375714756E-01  0.26906400581E-01  0.51117747924E-01  0.74080676193E-01  0.51100000000E-03 0.  1.
         11    1    4    4    0    0  0.40154668958E-01  0.66359553283E-02  0.27636395667E-01  0.49198219771E-01  0.51100000000E-03 0. -1.
</event>
<event>
 8    1  0.1123361E+005  0.1043930E+01  0.7957747E-01            NaN
         13   -1    0    0    0    0  0.00000000000E+00  0.00000000000E+00  0.74505805969E-08  0.10566000000E+00  0.10566000000E+00 0. -1.
     999900   -1    0    0    0    0 -0.00000000000E+00 -0.00000000000E+00 -0.74505805969E-08  0.93827000000E+00  0.93827000000E+00 0. -1.
     999902    2    1    2    0    0  0.52656397427E-03 -0.19069738857E-01 -0.14226011032E-01  0.10201326976E+01  0.10198550923E+01 0.  0.
     999903    2    3    3    0    0  0.65190333197E-02 -0.12639174560E+00 -0.36441056538E-01  0.13331398389E+00  0.20671152531E-01 0.  0.
         14    1    1    2    0    0 -0.52656397427E-03  0.19069738857E-01  0.14226011032E-01  0.23797302359E-01  0.00000000000E+00 0. -1.
     999901    1    3    3    0    0 -0.59924693454E-02  0.10732200674E+00  0.22215045506E-01  0.88681871376E+00  0.88000000000E+00 0. -1.
        -11    1    4    4    0    0  0.13805833644E-01 -0.84311987662E-01 -0.26658582477E-01  0.89498901931E-01  0.51100000000E-03 0. -1.
         11    1    4    4    0    0 -0.72868003239E-02 -0.42079757936E-01 -0.97824740604E-02  0.43815081955E-01  0.51100000000E-03 0.  1.
</event>
<event>
 8    1  0.1123361E+005  0.1043930E+01  0.7957747E-01            NaN
         13   -1    0    0    0    0  0.00000000000E+00  0.00000000000E+00  0.74505805969E-08  0.10566000000E+00  0.10566000000E+00 0. -1.
     999900   -1    0    0    0    0 -0.00000000000E+00 -0.00000000000E+00 -0.74505805969E-08  0.93827000000E+00  0.93827000000E+00 0.  1.
     999902    2    1    2    0    0 -0.15370799340E-01  0.10640001982E-04  0.18787135944E-01  0.10196561857E+01  0.10193672149E+01 0.  0.
     999903    2    3    3    0    0  0.11525695435E+00  0.46710080578E-02  0.55113084142E-01  0.12926026048E+00  0.19099189868E-01 0.  0.
         14    1    1    2    0    0  0.15370799340E-01 -0.10640001982E-04 -0.18787135944E-01  0.24273814339E-01  0.00000000000E+00 0.  1.
     999901    1    3    3    0    0 -0.13062775369E+00 -0.46603680558E-02 -0.36325948198E-01  0.89039592518E+00  0.88000000000E+00 0. -1.
        -11    1    4    4    0    0  0.94028597400E-01 -0.30588699773E-02  0.41061692271E-01  0.10265017052E+00  0.51100000000E-03 0. -1.
         11    1    4    4    0    0  0.21228356950E-01  0.77298780351E-02  0.14051391871E-01  0.26610089961E-01  0.51100000000E-03 0.  1.
</event>
<event>
 8    1  0.1123361E+005  0.1043930E+01  0.7957747E-01            NaN
         13   -1    0    0    0    0  0.00000000000E+00  0.00000000000E+00  0.74505805969E-08  0.10566000000E+00  0.10566000000E+00 0. -1.
     999900   -1    0    0    0    0 -0.00000000000E+00 -0.00000000000E+00 -0.74505805969E-08  0.93827000000E+00  0.93827000000E+00 0.  1.
     999902    2    1    2    0    0  0.44521658578E-02 -0.30122752647E-03  0.23699285314E-01  0.10198142656E+01  0.10195290912E+01 0.  0.
     999903    2    3    3    0    0  0.68477632678E-01  0.23547811567E-01  0.10975020602E+00  0.13298124979E+00  0.19880127462E-01 0.  0.
         14    1    1    2    0    0 -0.44521658578E-02  0.30122752647E-03 -0.23699285314E-01  0.24115734350E-01  0.00000000000E+00 0.  1.
     999901    1    3    3    0    0 -0.64025466821E-01 -0.23849039094E-01 -0.86050920702E-01  0.88683301586E+00  0.88000000000E+00 0.  1.
        -11    1    4    4    0    0  0.38848552577E-01  0.15259270710E-01  0.45519971962E-01  0.61760702298E-01  0.51100000000E-03 0.  1.
         11    1    4    4    0    0  0.29629080102E-01  0.82885408571E-02  0.64230234054E-01  0.71220547491E-01  0.51100000000E-03 0. -1.
</event>
<event>
 8    1  0.1123361E+005  0.1043930E+01  0.7957747E-01            NaN
         13   -1    0    0    0    0  0.00000000000E+00  0.00000000000E+00  0.74505805969E-08  0.10566000000E+00  0.10566000000E+00 0. -1.
     999900   -1    0    0    0    0 -0.00000000000E+00 -0.00000000000E+00 -0.74505805969E-08  0.93827000000E+00  0.93827000000E+00 0.  1.
     999902    2    1    2    0    0  0.16841454889E-01  0.76449412726E-03 -0.17258139799E-01  0.10198040297E+01  0.10195186102E+01 0.  0.
     999903    2    3    3    0    0  0.11203300658E+00 -0.30294807784E-01  0.57562375872E-01  0.13097096251E+00  0.19256063000E-01 0.  0.
         14    1    1    2    0    0 -0.16841454889E-01 -0.76449412726E-03  0.17258139799E-01  0.24125970309E-01  0.00000000000E+00 0. -1.
     999901    1    3    3    0    0 -0.95191551693E-01  0.31059301912E-01 -0.74820515671E-01  0.88883306718E+00  0.88000000000E+00 0.  1.
        -11    1    4    4    0    0  0.84109643609E-01 -0.28946677240E-01  0.37381660432E-01  0.96488299440E-01  0.51100000000E-03 0.  1.
         11    1    4    4    0    0  0.27923362973E-01 -0.13481305449E-02  0.20180715441E-01  0.34482663070E-01  0.51100000000E-03 0. -1.
</event>
<event>
 8    1  0.1123361E+005  0.1043930E+01  0.7957747E-01            NaN
         13   -1    0    0    0    0  0.00000000000E+00  0.00000000000E+00  0.74505805969E-08  0.10566000000E+00  0.10566000000E+00 0. -1.
     999900   -1    0    0    0    0 -0.00000000000E+00 -0.00000000000E+00 -0.74505805969E-08  0.93827000000E+00  0.93827000000E+00 0. -1.
     999902    2    1    2    0    0 -0.21544992848E-01  0.89444780186E-02 -0.11306732861E-01  0.10180064082E+01  0.10176762818E+01 0.  0.
     999903    2    3    3    0    0  0.96708303216E-02  0.64821871298E-02 -0.12770819264E+00  0.12978921048E+00  0.20007822993E-01 0.  0.
         14    1    1    2    0    0  0.21544992848E-01 -0.89444780186E-02  0.11306732861E-01  0.25923591801E-01  0.00000000000E+00 0.  1.
     999901    1    3    3    0    0 -0.31215823170E-01  0.24622908888E-02  0.11640145977E+00  0.88821719772E+00  0.88000000000E+00 0.  1.
        -11    1    4    4    0    0 -0.50605948147E-02 -0.18123166252E-02 -0.48225430973E-01  0.48526770188E-01  0.51100000000E-03 0. -1.
         11    1    4    4    0    0  0.14731425136E-01  0.82945037551E-02 -0.79482761663E-01  0.81262440288E-01  0.51100000000E-03 0.  1.
</event>
<event>
 8    1  0.1123361E+005  0.1043930E+01  0.7957747E-01            NaN
         13   -1    0    0    0    0  0.00000000000E+00  0.00000000000E+00  0.74505805969E-08  0.10566000000E+00  0.10566000000E+00 0. -1.
     999900   -1    0    0    0    0 -0.00000000000E+00 -0.00000000000E+00 -0.74505805969E-08  0.93827000000E+00  0.93827000000E+00 0.  1.
     999902    2    1    2    0    0 -0.18003178646E-02 -0.24983435729E-02 -0.15493016855E-01  0.10281339107E+01  0.10280125592E+01 0.  0.
     999903    2    3    3    0    0  0.11337445191E+00 -0.44568805306E-01 -0.62661034506E-01  0.13838115112E+00  0.19565096114E-01 0.  0.
         14    1    1    2    0    0  0.18003178646E-02  0.24983435729E-02  0.15493016855E-01  0.15796089273E-01  0.00000000000E+00 0. -1.
     999901    1    3    3    0    0 -0.11517476978E+00  0.42070461733E-01  0.47168017651E-01  0.88975275961E+00  0.88000000000E+00 0.  1.
        -11    1    4    4    0    0  0.84821864602E-01 -0.41370612288E-01 -0.51843553497E-01  0.10767679154E+00  0.51100000000E-03 0. -1.
         11    1    4    4    0    0  0.28552587313E-01 -0.31981930173E-02 -0.10817481009E-01  0.30704359580E-01  0.51100000000E-03 0.  1.
</event>
<event>
 8    1  0.1123361E+005  0.1043930E+01  0.7957747E-01            NaN
         13   -1    0    0    0    0  0.00000000000E+00  0.00000000000E+00  0.74505805969E-08  0.10566000000E+00  0.10566000000E+00 0. -1.
     999900   -1    0    0    0    0 -0.00000000000E+00 -0.00000000000E+00 -0.74505805969E-08  0.93827000000E+00  0.93827000000E+00 0.  1.
     999902    2    1    2    0    0 -0.17236001535E-01  0.51659269627E-02  0.14643837982E-01  0.10207306780E+01  0.10204670051E+01 0.  0.
     999903    2    3    3    0    0 -0.47433237896E-01  0.68821579218E-01  0.10227691451E+00  0.13357597264E+00  0.19890987948E-01 0.  0.
         14    1    1    2    0    0  0.17236001535E-01 -0.51659269627E-02 -0.14643837982E-01  0.23199321997E-01  0.00000000000E+00 0.  1.
     999901    1    3    3    0    0  0.30197236362E-01 -0.63655652255E-01 -0.87633076527E-01  0.88715470536E+00  0.88000000000E+00 0.  1.
        -11    1    4    4    0    0 -0.42808633955E-01  0.63663838430E-01  0.82713579822E-01  0.11281604883E+00  0.51100000000E-03 0. -1.
         11    1    4    4    0    0 -0.46246039412E-02  0.51577407883E-02  0.19563334686E-01  0.20759923812E-01  0.51100000000E-03 0.  1.
</event>
<event>
 8    1  0.1123361E+005  0.1043930E+01  0.7957747E-01            NaN
         13   -1    0    0    0    0  0.00000000000E+00  0.00000000000E+00  0.74505805969E-08  0.10566000000E+00  0.10566000000E+00 0. -1.
     999900   -1    0    0    0    0 -0.00000000000E+00 -0.00000000000E+00 -0.74505805969E-08  0.93827000000E+00  0.93827000000E+00 0.  1.
     999902    2    1    2    0    0  0.11896252196E-02 -0.24102945514E-01 -0.47580611259E-02  0.10193331234E+01  0.10190363145E+01 0.  0.
     999903    2    3    3    0    0  0.11875519147E+00  0.15813404682E-01  0.44464352023E-01  0.12925569797E+00  0.19419000682E-01 0.  0.
         14    1    1    2    0    0 -0.11896252196E-02  0.24102945514E-01  0.47580611259E-02  0.24596876556E-01  0.00000000000E+00 0. -1.
     999901    1    3    3    0    0 -0.11756556625E+00 -0.39916350196E-01 -0.49222413149E-01  0.89007742547E+00  0.88000000000E+00 0.  1.
        -11    1    4    4    0    0  0.34603920265E-01  0.79241005553E-02  0.45847158192E-02  0.35798092232E-01  0.51100000000E-03 0.  1.
         11    1    4    4    0    0  0.84151271208E-01  0.78893041269E-02  0.39879636204E-01  0.93457605738E-01  0.51100000000E-03 0. -1.
</event>
<event>
 8    1  0.1123361E+005  0.1043930E+01  0.7957747E-01            NaN
         13   -1    0    0    0    0  0.00000000000E+00  0.00000000000E+00  0.74505805969E-08  0.10566000000E+00  0.10566000000E+00 0.  1.
     999900   -1    0    0    0    0 -0.00000000000E+00 -0.00000000000E+00 -0.74505805969E-08  0.93827000000E+00  0.93827000000E+00 0. -1.
     999902    2    1    2    0    0  0.10586633362E-01  0.25488858625E-02  0.21079882609E-01  0.10202037471E+01  0.10199278163E+01 0.  0.
     999903    2    3    3    0    0  0.12743611033E+00 -0.24174609079E-01 -0.11816143879E-01  0.13146863809E+00  0.17888756392E-01 0.  0.
         14    1    1    2    0    0 -0.10586633362E-01 -0.25488858625E-02 -0.21079882609E-01  0.23726252883E-01  0.00000000000E+00 0. -1.
     999901    1    3    3    0    0 -0.11684947697E+00  0.26723494942E-01  0.32896026488E-01  0.88873510902E+00  0.88000000000E+00 0. -1.
        -11    1    4    4    0    0  0.80255213187E-01 -0.67676232987E-02 -0.98047871464E-02  0.81136273890E-01  0.51100000000E-03 0. -1.
         11    1    4    4    0    0  0.47180897146E-01 -0.17406985780E-01 -0.20113567328E-02  0.50332364204E-01  0.51100000000E-03 0.  1.
</event>
<event>
 8    1  0.1123361E+005  0.1043930E+01  0.7957747E-01            NaN
         13   -1    0    0    0    0  0.00000000000E+00  0.00000000000E+00  0.74505805969E-08  0.10566000000E+00  0.10566000000E+00 0. -1.
     999900   -1    0    0    0    0 -0.00000000000E+00 -0.00000000000E+00 -0.74505805969E-08  0.93827000000E+00  0.93827000000E+00 0.  1.
     999902    2    1    2    0    0 -0.12246334335E-01 -0.50855122847E-02  0.16442143259E-01  0.10228070453E+01  0.10225889070E+01 0.  0.
     999903    2    3    3    0    0 -0.71479225590E-01  0.57241109752E-01  0.97405832283E-01  0.13491726490E+00  0.18136920032E-01 0.  0.
         14    1    1    2    0    0  0.12246334335E-01  0.50855122847E-02 -0.16442143259E-01  0.21122954689E-01  0.00000000000E+00 0.  1.
     999901    1    3    3    0    0  0.59232891255E-01 -0.62326622037E-01 -0.80963689024E-01  0.88788978041E+00  0.88000000000E+00 0.  1.
        -11    1    4    4    0    0 -0.29016233522E-01  0.15196440920E-01  0.43362256190E-01  0.54345377056E-01  0.51100000000E-03 0. -1.
         11    1    4    4    0    0 -0.42462992068E-01  0.42044668832E-01  0.54043576093E-01  0.80571887842E-01  0.51100000000E-03 0.  1.
</event>
<event>
 8    1  0.1123361E+005  0.1043930E+01  0.7957747E-01            NaN
         13   -1    0    0    0    0  0.00000000000E+00  0.00000000000E+00  0.74505805969E-08  0.10566000000E+00  0.10566000000E+00 0. -1.
     999900   -1    0    0    0    0 -0.00000000000E+00 -0.00000000000E+00 -0.74505805969E-08  0.93827000000E+00  0.93827000000E+00 0.  1.
     999902    2    1    2    0    0 -0.17900841766E-02  0.91328923125E-02  0.22557022808E-01  0.10195284959E+01  0.10192364400E+01 0.  0.
     999903    2    3    3    0    0  0.54126430793E-01  0.87989493691E-01 -0.74543006132E-01  0.12892564625E+00  0.19832825987E-01 0.  0.
         14    1    1    2    0    0  0.17900841766E-02 -0.91328923125E-02 -0.22557022808E-01  0.24401504079E-01  0.00000000000E+00 0.  1.
     999901    1    3    3    0    0 -0.55916514970E-01 -0.78856601378E-01  0.97100028940E-01  0.89060284967E+00  0.88000000000E+00 0. -1.
        -11    1    4    4    0    0  0.10384407280E-01  0.31357644757E-01 -0.17327831515E-01  0.37304861148E-01  0.51100000000E-03 0. -1.
         11    1    4    4    0    0  0.43742023514E-01  0.56631848934E-01 -0.57215174617E-01  0.91620785099E-01  0.51100000000E-03 0.  1.
</event>
<event>
 8    1  0.1123361E+005  0.1043930E+01  0.7957747E-01            NaN
         13   -1    0    0    0    0  0.00000000000E+00  0.00000000000E+00  0.74505805969E-08  0.10566000000E+00  0.10566000000E+00 0.  1.
     999900   -1    0    0    0    0 -0.00000000000E+00 -0.00000000000E+00 -0.74505805969E-08  0.93827000000E+00  0.93827000000E+00 0.  1.
     999902    2    1    2    0    0 -0.13728128712E-01 -0.15586834262E-01 -0.11155594264E-01  0.10203533547E+01  0.10200809332E+01 0.  0.
     999903    2    3    3    0    0 -0.35612457471E-01 -0.93134672716E-01  0.82767302988E-01  0.13169475787E+00  0.23468455785E-01 0.  0.
         14    1    1    2    0    0  0.13728128712E-01  0.15586834262E-01  0.11155594264E-01  0.23576645301E-01  0.00000000000E+00 0.  1.
     999901    1    3    3    0    0  0.21884328759E-01  0.77547838454E-01 -0.93922897253E-01  0.88865859683E+00  0.88000000000E+00 0.  1.
        -11    1    4    4    0    0 -0.27014003931E-01 -0.73006771134E-01  0.75964662426E-01  0.10876872757E+00  0.51100000000E-03 0. -1.
         11    1    4    4    0    0 -0.85984535408E-02 -0.20127901582E-01  0.68026405626E-02  0.22926030293E-01  0.51100000000E-03 0.  1.
</event>
<event>
 8    1  0.1123361E+005  0.1043930E+01  0.7957747E-01            NaN
         13   -1    0    0    0    0  0.00000000000E+00  0.00000000000E+00  0.74505805969E-08  0.10566000000E+00  0.10566000000E+00 0. -1.
     999900   -1    0    0    0    0 -0.00000000000E+00 -0.00000000000E+00 -0.74505805969E-08  0.93827000000E+00  0.93827000000E+00 0. -1.
     999902    2    1    2    0    0  0.10941237451E-01  0.13800590863E-01  0.16874477624E-01  0.10195391210E+01  0.10192473224E+01 0.  0.
     999903    2    3    3    0    0 -0.14606516543E-01 -0.10634556119E+00  0.69512124883E-01  0.12945007626E+00  0.20066340709E-01 0.  0.
         14    1    1    2    0    0 -0.10941237451E-01 -0.13800590863E-01 -0.16874477624E-01  0.24390879037E-01  0.00000000000E+00 0.  1.
     999901    1    3    3    0    0  0.25547753994E-01  0.12014615205E+00 -0.52637647259E-01  0.89008904470E+00  0.88000000000E+00 0. -1.
        -11    1    4    4    0    0 -0.77198627364E-02 -0.82560342910E-01  0.43917596284E-01  0.93834017747E-01  0.51100000000E-03 0.  1.
         11    1    4    4    0    0 -0.68866538067E-02 -0.23785218275E-01  0.25594528599E-01  0.35616058516E-01  0.51100000000E-03 0. -1.
</event>
<event>
 8    1  0.1123361E+005  0.1043930E+01  0.7957747E-01            NaN
         13   -1    0    0    0    0  0.00000000000E+00  0.00000000000E+00  0.74505805969E-08  0.10566000000E+00  0.10566000000E+00 0. -1.
     999900   -1    0    0    0    0 -0.00000000000E+00 -0.00000000000E+00 -0.74505805969E-08  0.93827000000E+00  0.93827000000E+00 0.  1.
     999902    2    1    2    0    0  0.20262248029E-01 -0.86348609250E-02 -0.11811851114E-01  0.10189372141E+01  0.10186306529E+01 0.  0.
     999903    2    3    3    0    0  0.86905710344E-01 -0.26335857368E-01  0.91178296525E-01  0.13025186664E+00  0.20146640725E-01 0.  0.
         14    1    1    2    0    0 -0.20262248029E-01  0.86348609250E-02  0.11811851114E-01  0.24992785862E-01  0.00000000000E+00 0. -1.
     999901    1    3    3    0    0 -0.66643462315E-01  0.17700996443E-01 -0.10299014764E+00  0.88868534750E+00  0.88000000000E+00 0.  1.
        -11    1    4    4    0    0  0.47604478739E-01 -0.98324305511E-02  0.35827101925E-01  0.60387957739E-01  0.51100000000E-03 0.  1.
         11    1    4    4    0    0  0.39301231605E-01 -0.16503426817E-01  0.55351194600E-01  0.69863908902E-01  0.51100000000E-03 0. -1.
</event>
<event>
 8    1  0.1123361E+005  0.1043930E+01  0.7957747E-01            NaN
         13   -1    0    0    0    0  0.00000000000E+00  0.00000000000E+00  0.74505805969E-08  0.10566000000E+00  0.10566000000E+00 0.  1.
     999900   -1    0    0    0    0 -0.00000000000E+00 -0.00000000000E+00 -0.74505805969E-08  0.93827000000E+00  0.93827000000E+00 0. -1.
     999902    2    1    2    0    0  0.13973647165E-01 -0.14771218697E-02 -0.16177430983E-01  0.10225021215E+01  0.10222775721E+01 0.  0.
     999903    2    3    3    0    0 -0.68274829124E-01 -0.10659820042E+00 -0.32405073459E-01  0.13228945623E+00  0.20634505567E-01 0.  0.
         14    1    1    2    0    0 -0.13973647165E-01  0.14771218697E-02  0.16177430983E-01  0.21427878508E-01  0.00000000000E+00 0.  1.
     999901    1    3    3    0    0  0.82248476289E-01  0.10512107855E+00  0.16227642475E-01  0.89021266526E+00  0.88000000000E+00 0. -1.
        -11    1    4    4    0    0 -0.17765609179E-01 -0.15101708139E-01 -0.10136243851E-01  0.25429963008E-01  0.51100000000E-03 0. -1.
         11    1    4    4    0    0 -0.50509219945E-01 -0.91496492281E-01 -0.22268829608E-01  0.10685949323E+00  0.51100000000E-03 0.  1.
</event>
<event>
 8    1  0.1123361E+005  0.1043930E+01  0.7957747E-01            NaN
         13   -1    0    0    0    0  0.00000000000E+00  0.00000000000E+00  0.74505805969E-08  0.10566000000E+00  0.10566000000E+00 0. -1.
     999900   -1    0    0    0    0 -0.00000000000E+00 -0.00000000000E+00 -0.74505805969E-08  0.93827000000E+00  0.93827000000E+00 0. -1.
     999902    2    1    2    0    0 -0.66030061840E-02 -0.17133304775E-01  0.12554132284E-01  0.10216868873E+01  0.10214447316E+01 0.  0.
     999903    2    3    3    0    0  0.12476929880E+00 -0.34798594287E-01 -0.92829898327E-02  0.13149162513E+00  0.20628947875E-01 0.  0.
         14    1    1    2    0    0  0.66030061840E-02  0.17133304775E-01 -0.12554132284E-01  0.22243112655E-01  0.00000000000E+00 0. -1.
     999901    1    3    3    0    0 -0.13137230499E+00  0.17665289512E-01  0.21837122116E-01  0.89019526222E+00  0.88000000000E+00 0. -1.
        -11    1    4    4    0    0  0.64610416805E-01 -0.10993202220E-01  0.31142961056E-02  0.65614910013E-01  0.51100000000E-03 0.  1.
         11    1    4    4    0    0  0.60158881998E-01 -0.23805392067E-01 -0.12397285938E-01  0.65876715115E-01  0.51100000000E-03 0. -1.
</event>
<event>
 8    1  0.1123361E+005  0.1043930E+01  0.7957747E-01            NaN
         13   -1    0    0    0    0  0.00000000000E+00  0.00000000000E+00  0.74505805969E-08  0.10566000000E+00  0.10566000000E+00 0.  1.
     999900   -1    0    0    0    0 -0.00000000000E+00 -0.00000000000E+00 -0.74505805969E-08  0.93827000000E+00  0.93827000000E+00 0.  1.
     999902    2    1    2    0    0  0.19445592287E-01 -0.38018522088E-02  0.12285769283E-01  0.10206163717E+01  0.10203500639E+01 0.  0.
     999903    2    3    3    0    0  0.11485628590E+00  0.42223273835E-01  0.49495210352E-01  0.13348275422E+00  0.19826713370E-01 0.  0.
         14    1    1    2    0    0 -0.19445592287E-01  0.38018522088E-02 -0.12285769283E-01  0.23313628343E-01  0.00000000000E+00 0.  1.
     999901    1    3    3    0    0 -0.95410693610E-01 -0.46025126043E-01 -0.37209441069E-01  0.88713361744E+00  0.88000000000E+00 0.  1.
        -11    1    4    4    0    0  0.43068385694E-01  0.26005905708E-01  0.22053172550E-01  0.54934474773E-01  0.51100000000E-03 0. -1.
         11    1    4    4    0    0  0.71787900202E-01  0.16217368126E-01  0.27442037802E-01  0.78548279447E-01  0.51100000000E-03 0.  1.
</event>
<event>
 8    1  0.1123361E+005  0.1043930E+01  0.7957747E-01            NaN
         13   -1    0    0    0    0  0.00000000000E+00  0.00000000000E+00  0.74505805969E-08  0.10566000000E+00  0.10566000000E+00 0.  1.
     999900   -1    0    0    0    0 -0.00000000000E+00 -0.00000000000E+00 -0.74505805969E-08  0.93827000000E+00  0.93827000000E+00 0. -1.
     999902    2    1    2    0    0  0.12428887151E-01  0.12347505452E-01  0.18031187324E-01  0.10187891599E+01  0.10184789101E+01 0.  0.
     999903    2    3    3    0    0 -0.11998524259E+00  0.34340154302E-01  0.24228229121E-01  0.12858941728E+00  0.19300945927E-01 0.  0.
         14    1    1    2    0    0 -0.12428887151E-01 -0.12347505452E-01 -0.18031187324E-01  0.25140840141E-01  0.00000000000E+00 0. -1.
     999901    1    3    3    0    0  0.13241412974E+00 -0.21992648849E-01 -0.61970417972E-02  0.89019974258E+00  0.88000000000E+00 0.  1.
        -11    1    4    4    0    0 -0.71245207782E-01  0.23054171139E-01  0.23731985397E-01  0.78554711448E-01  0.51100000000E-03 0.  1.
         11    1    4    4    0    0 -0.48740034808E-01  0.11285983163E-01  0.49624372425E-03  0.50034705833E-01  0.51100000000E-03 0. -1.
</event>
<event>
 8    1  0.1123361E+005  0.1043930E+01  0.7957747E-01            NaN
         13   -1    0    0    0    0  0.00000000000E+00  0.00000000000E+00  0.74505805969E-08  0.10566000000E+00  0.10566000000E+00 0.  1.
     999900   -1    0    0    0    0 -0.00000000000E+00 -0.00000000000E+00 -0.74505805969E-08  0.93827000000E+00  0.93827000000E+00 0. -1.
     999902    2    1    2    0    0  0.95098115333E-02  0.14994425229E-01 -0.16408326923E-01  0.10197535136E+01  0.10194668832E+01 0.  0.
     999903    2    3    3    0    0 -0.93112527501E-01 -0.63373978636E-01  0.55773591371E-01  0.12740650679E+00  0.20869128691E-01 0.  0.
         14    1    1    2    0    0 -0.95098115333E-02 -0.14994425229E-01  0.16408326923E-01  0.24176486423E-01  0.00000000000E+00 0. -1.
     999901    1    3    3    0    0  0.10262233903E+00  0.78368403865E-01 -0.72181918293E-01  0.89234700679E+00  0.88000000000E+00 0.  1.
        -11    1    4    4    0    0 -0.18628200876E-01 -0.92680621317E-02  0.22976523160E-02  0.20939130132E-01  0.51100000000E-03 0.  1.
         11    1    4    4    0    0 -0.74484326625E-01 -0.54105916504E-01  0.53475939055E-01  0.10646737666E+00  0.51100000000E-03 0. -1.
</event>
<event>
 8    1  0.1123361E+005  0.1043930E+01  0.7957747E-01            NaN
         13   -1    0    0    0    0  0.00000000000E+00  0.00000000000E+00  0.74505805969E-08  0.10566000000E+00  0.10566000000E+00 0.  1.
     999900   -1    0    0    0    0 -0.00000000000E+00 -0.00000000000E+00 -0.74505805969E-08  0.93827000000E+00  0.93827000000E+00 0.  1.
     999902    2    1    2    0    0 -0.97478751914E-02  0.20531969210E-01  0.51233713199E-02  0.10206312497E+01  0.10203652857E+01 0.  0.
     999903    2    3    3    0    0 -0.68421590009E-01  0.76052925631E-01  0.83444955842E-01  0.13346753766E+00  0.19620435207E-01 0.  0.
         14    1    1    2    0    0  0.97478751914E-02 -0.20531969210E-01 -0.51233713199E-02  0.23298750268E-01  0.00000000000E+00 0. -1.
     999901    1    3    3    0    0  0.58673714817E-01 -0.55520956421E-01 -0.78321584522E-01  0.88716371207E+00  0.88000000000E+00 0.  1.
        -11    1    4    4    0    0 -0.39344941609E-01  0.49534028228E-01  0.62311972368E-01  0.88795762309E-01  0.51100000000E-03 0.  1.
         11    1    4    4    0    0 -0.29076648400E-01  0.26518897403E-01  0.21132983474E-01  0.44671775353E-01  0.51100000000E-03 0. -1.
</event>
<event>
 8    1  0.1123361E+005  0.1043930E+01  0.7957747E-01            NaN
         13   -1    0    0    0    0  0.00000000000E+00  0.00000000000E+00  0.74505805969E-08  0.10566000000E+00  0.10566000000E+00 0.  1.
     999900   -1    0    0    0    0 -0.00000000000E+00 -0.00000000000E+00 -0.74505805969E-08  0.93827000000E+00  0.93827000000E+00 0. -1.
     999902    2    1    2    0    0 -0.23402274655E-02 -0.15279101856E-01  0.18111388379E-01  0.10201192880E+01  0.10198413659E+01 0.  0.
     999903    2    3    3    0    0 -0.15430108638E-01  0.63769474936E-01 -0.10762627321E+00  0.12757798247E+00  0.19700069548E-01 0.  0.
         14    1    1    2    0    0  0.23402274655E-02  0.15279101856E-01 -0.18111388379E-01  0.23810712025E-01  0.00000000000E+00 0. -1.
     999901    1    3    3    0    0  0.13089881173E-01 -0.79048576792E-01  0.12573766159E+00  0.89254130550E+00  0.88000000000E+00 0.  1.
        -11    1    4    4    0    0 -0.18633147090E-01  0.39742471656E-01 -0.62896557930E-01  0.76700041357E-01  0.51100000000E-03 0. -1.
         11    1    4    4    0    0  0.32030384520E-02  0.24027003281E-01 -0.44729715284E-01  0.50877941117E-01  0.51100000000E-03 0.  1.
</event>
<event>
 8    1  0.1123361E+005  0.1043930E+01  0.7957747E-01            NaN
         13   -1    0    0    0    0  0.00000000000E+00  0.00000000000E+00  0.74505805969E-08  0.10566000000E+00  0.10566000000E+00 0.  1.
     999900   -1    0    0    0    0 -0.00000000000E+00 -0.00000000000E+00 -0.74505805969E-08  0.93827000000E+00  0.93827000000E+00 0.  1.
     999902    2    1    2    0    0  0.10720328800E-02 -0.22484500996E-01 -0.12517650679E-01  0.10181735713E+01  0.10178477429E+01 0.  0.
     999903    2    3    3    0    0 -0.56459554134E-01 -0.60805238280E-01 -0.99554763058E-01  0.13118212754E+00  0.20313578812E-01 0.  0.
         14    1    1    2    0    0 -0.10720328800E-02  0.22484500996E-01  0.12517650679E-01  0.25756428674E-01  0.00000000000E+00 0. -1.
     999901    1    3    3    0    0  0.57531587014E-01  0.38320737285E-01  0.87037112379E-01  0.88699144378E+00  0.88000000000E+00 0. -1.
        -11    1    4    4    0    0 -0.29719387867E-01 -0.45461917970E-01 -0.58353508224E-01  0.79720894650E-01  0.51100000000E-03 0. -1.
         11    1    4    4    0    0 -0.26740166267E-01 -0.15343320311E-01 -0.41201254834E-01  0.51461232894E-01  0.51100000000E-03 0.  1.
</event>
<event>
 8    1  0.1123361E+005  0.1043930E+01  0.7957747E-01            NaN
         13   -1    0    0    0    0  0.00000000000E+00  0.00000000000E+00  0.74505805969E-08  0.10566000000E+00  0.10566000000E+00 0.  1.
     999900   -1    0    0    0    0 -0.00000000000E+00 -0.00000000000E+00 -0.74505805969E-08  0.93827000000E+00  0.93827000000E+00 0. -1.
     999902    2    1    2    0    0  0.51121906877E-02 -0.24269208365E-01  0.26236853954E-02  0.10189898177E+01  0.10186845615E+01 0.  0.
     999903    2    3    3    0    0 -0.58133296147E-01  0.11029317521E+00 -0.37006827714E-02  0.12649498616E+00  0.21052834790E-01 0.  0.
         14    1    1    2    0    0 -0.51121906877E-02  0.24269208365E-01 -0.26236853954E-02  0.24940182304E-01  0.00000000000E+00 0.  1.
     999901    1    3    3    0    0  0.63245486835E-01 -0.13456238358E+00  0.63243681668E-02  0.89249483153E+00  0.88000000000E+00 0.  1.
        -11    1    4    4    0    0 -0.40539519910E-01  0.62061408382E-01 -0.98618905038E-02  0.74783615118E-01  0.51100000000E-03 0.  1.
         11    1    4    4    0    0 -0.17593776238E-01  0.48231766829E-01  0.61612077324E-02  0.51711371046E-01  0.51100000000E-03 0. -1.
</event>
<event>
 8    1  0.1123361E+005  0.1043930E+01  0.7957747E-01            NaN
         13   -1    0    0    0    0  0.00000000000E+00  0.00000000000E+00  0.74505805969E-08  0.10566000000E+00  0.10566000000E+00 0.  1.
     999900   -1    0    0    0    0 -0.00000000000E+00 -0.00000000000E+00 -0.74505805969E-08  0.93827000000E+00  0.93827000000E+00 0. -1.
     999902    2    1    2    0    0 -0.78824039578E-02  0.17847485144E-02  0.21458799243E-01  0.10209997212E+01  0.10207421972E+01 0.  0.
     999903    2    3    3    0    0 -0.31662113616E-01  0.10705315304E+00 -0.64510016384E-01  0.13024860625E+00  0.18446956414E-01 0.  0.
         14    1    1    2    0    0  0.78824039578E-02 -0.17847485144E-02 -0.21458799243E-01  0.22930278767E-01  0.00000000000E+00 0. -1.
     999901    1    3    3    0    0  0.23779709658E-01 -0.10526840453E+00  0.85968815627E-01  0.89075111498E+00  0.88000000000E+00 0.  1.
        -11    1    4    4    0    0 -0.24056076726E-01  0.68994778425E-01 -0.32649638620E-01  0.80032707691E-01  0.51100000000E-03 0.  1.
         11    1    4    4    0    0 -0.76060368895E-02  0.38058374619E-01 -0.31860377764E-01  0.50215898559E-01  0.51100000000E-03 0. -1.
</event>
<event>
 8    1  0.1123361E+005  0.1043930E+01  0.7957747E-01            NaN
         13   -1    0    0    0    0  0.00000000000E+00  0.00000000000E+00  0.74505805969E-08  0.10566000000E+00  0.10566000000E+00 0. -1.
     999900   -1    0    0    0    0 -0.00000000000E+00 -0.00000000000E+00 -0.74505805969E-08  0.93827000000E+00  0.93827000000E+00 0. -1.
     999902    2    1    2    0    0 -0.19963046878E-01  0.12556446859E-01 -0.17797782003E-02  0.10202793085E+01  0.10200051530E+01 0.  0.
     999903    2    3    3    0    0 -0.96455377705E-01  0.84531537452E-01  0.30131390389E-01  0.13345925176E+00  0.21313152779E-01 0.  0.
         14    1    1    2    0    0  0.19963046878E-01 -0.12556446859E-01  0.17797782003E-02  0.23650691508E-01  0.00000000000E+00 0.  1.
     999901    1    3    3    0    0  0.76492330826E-01 -0.71975090593E-01 -0.31911168589E-01  0.88682005673E+00  0.88000000000E+00 0. -1.
        -11    1    4    4    0    0 -0.42146737474E-02  0.11379709842E-01  0.46496970206E-02  0.13005463247E-01  0.51100000000E-03 0. -1.
         11    1    4    4    0    0 -0.92240703957E-01  0.73151827611E-01  0.25481693368E-01  0.12045378851E+00  0.51100000000E-03 0.  1.
</event>
<event>
 8    1  0.1123361E+005  0.1043930E+01  0.7957747E-01            NaN
         13   -1    0    0    0    0  0.00000000000E+00  0.00000000000E+00  0.74505805969E-08  0.10566000000E+00  0.10566000000E+00 0. -1.
     999900   -1    0    0    0    0 -0.00000000000E+00 -0.00000000000E+00 -0.74505805969E-08  0.93827000000E+00  0.93827000000E+00 0.  1.
     999902    2    1    2    0    0  0.10868477904E-01 -0.78895808421E-03  0.18807849007E-01  0.10221933616E+01  0.10219622238E+01 0.  0.
     999903    2    3    3    0    0  0.64719608460E-01 -0.50894084725E-01  0.10488279476E+00  0.13493952850E+00  0.20722937436E-01 0.  0.
         14    1    1    2    0    0 -0.10868477904E-01  0.78895808421E-03 -0.18807849007E-01  0.21736638449E-01  0.00000000000E+00 0.  1.
     999901    1    3    3    0    0 -0.53851130555E-01  0.50105126640E-01 -0.86074945753E-01  0.88725383305E+00  0.88000000000E+00 0.  1.
        -11    1    4    4    0    0  0.21744584954E-01 -0.56118459995E-02  0.26941279914E-01  0.35077250102E-01  0.51100000000E-03 0. -1.
         11    1    4    4    0    0  0.42975023506E-01 -0.45282238725E-01  0.77941514845E-01  0.99862278397E-01  0.51100000000E-03 0.  1.
</event>
<event>
 8    1  0.1123361E+005  0.1043930E+01  0.7957747E-01            NaN
         13   -1    0    0    0    0  0.00000000000E+00  0.00000000000E+00  0.74505805969E-08  0.10566000000E+00  0.10566000000E+00 0. -1.
     999900   -1    0    0    0    0 -0.00000000000E+00 -0.00000000000E+00 -0.74505805969E-08  0.93827000000E+00  0.93827000000E+00 0.  1.
     999902    2    1    2    0    0  0.23009426329E-01 -0.37993110145E-02  0.11154498315E-03  0.10206087456E+01  0.10203422615E+01 0.  0.
     999903    2    3    3    0    0  0.59992949968E-01  0.88415937633E-01 -0.74676446300E-01  0.13186543241E+00  0.19884379810E-01 0.  0.
         14    1    1    2    0    0 -0.23009426329E-01  0.37993110145E-02 -0.11154498315E-03  0.23321254393E-01  0.00000000000E+00 0.  1.
     999901    1    3    3    0    0 -0.36983523639E-01 -0.92215248648E-01  0.74787991283E-01  0.88874331319E+00  0.88000000000E+00 0. -1.
        -11    1    4    4    0    0  0.87757439282E-02  0.50714768056E-02 -0.29704694926E-02  0.10574420480E-01  0.51100000000E-03 0. -1.
         11    1    4    4    0    0  0.51217206040E-01  0.83344460828E-01 -0.71705976808E-01  0.12129101193E+00  0.51100000000E-03 0.  1.
</event>
<event>
 8    1  0.1123361E+005  0.1043930E+01  0.7957747E-01            NaN
         13   -1    0    0    0    0  0.00000000000E+00  0.00000000000E+00  0.74505805969E-08  0.10566000000E+00  0.10566000000E+00 0. -1.
     999900   -1    0    0    0    0 -0.00000000000E+00 -0.00000000000E+00 -0.74505805969E-08  0.93827000000E+00  0.93827000000E+00 0. -1.
     999902    2    1    2    0    0  0.11550463561E-01  0.12289436940E-01  0.16256951476E-01  0.10205049719E+01  0.10202360834E+01 0.  0.
     999903    2    3    3    0    0 -0.22029795752E-01  0.12688598086E+00  0.23592419356E-01  0.13240936290E+00  0.19755330712E-01 0.  0.
         14    1    1    2    0    0 -0.11550463561E-01 -0.12289436940E-01 -0.16256951476E-01  0.23425028069E-01  0.00000000000E+00 0.  1.
     999901    1    3    3    0    0  0.33580259313E-01 -0.11459654392E+00 -0.73354678802E-02  0.88809560903E+00  0.88000000000E+00 0. -1.
        -11    1    4    4    0    0 -0.19780599411E-01  0.64152908298E-01  0.71400983886E-02  0.67513775499E-01  0.51100000000E-03 0.  1.
         11    1    4    4    0    0 -0.22491963411E-02  0.62733072565E-01  0.16452320967E-01  0.64895587398E-01  0.51100000000E-03 0. -1.
</event>
<event>
 8    1  0.1123361E+005  0.1043930E+01  0.7957747E-01            NaN
         13   -1    0    0    0    0  0.00000000000E+00  0.00000000000E+00  0.74505805969E-08  0.10566000000E+00  0.10566000000E+00 0.  1.
     999900   -1    0    0    0    0 -0.00000000000E+00 -0.00000000000E+00 -0.74505805969E-08  0.93827000000E+00  0.93827000000E+00 0. -1.
     999902    2    1    2    0    0  0.53170839927E-02  0.22618860182E-01 -0.48124166056E-02  0.10202014608E+01  0.10199254762E+01 0.  0.
     999903    2    3    3    0    0 -0.36926726773E-01 -0.25250278779E-01  0.11960109591E+00  0.12916009471E+00  0.19410002423E-01 0.  0.
         14    1    1    2    0    0 -0.53170839927E-02 -0.22618860182E-01  0.48124166056E-02  0.23728539182E-01  0.00000000000E+00 0.  1.
     999901    1    3    3    0    0  0.42243810766E-01  0.47869138961E-01 -0.12441351252E+00  0.89104136610E+00  0.88000000000E+00 0. -1.
        -11    1    4    4    0    0 -0.30591009695E-01 -0.18615438506E-01  0.11077146250E+00  0.11641701959E+00  0.51100000000E-03 0.  1.
         11    1    4    4    0    0 -0.63357170781E-02 -0.66348402734E-02  0.88296334097E-02  0.12743075119E-01  0.51100000000E-03 0. -1.
</event>
<event>
 8    1  0.1123361E+005  0.1043930E+01  0.7957747E-01            NaN
         13   -1    0    0    0    0  0.00000000000E+00  0.00000000000E+00  0.74505805969E-08  0.10566000000E+00  0.10566000000E+00 0. -1.
     999900   -1    0    0    0    0 -0.00000000000E+00 -0.00000000000E+00 -0.74505805969E-08  0.93827000000E+00  0.93827000000E+00 0.  1.
     999902    2    1    2    0    0  0.14385591138E-01 -0.23223615898E-01  0.91113103147E-03  0.10165966554E+01  0.10162291317E+01 0.  0.
     999903    2    3    3    0    0  0.26356189054E-01 -0.80338147493E-01  0.96048543030E-01  0.12954733766E+00  0.20207014407E-01 0.  0.
         14    1    1    2    0    0 -0.14385591138E-01  0.23223615898E-01 -0.91113103147E-03  0.27333344609E-01  0.00000000000E+00 0.  1.
     999901    1    3    3    0    0 -0.11970597916E-01  0.57114531595E-01 -0.95137411999E-01  0.88704931774E+00  0.88000000000E+00 0.  1.
        -11    1    4    4    0    0  0.19812007655E-01 -0.75120656525E-01  0.80460429145E-01  0.11184708518E+00  0.51100000000E-03 0.  1.
         11    1    4    4    0    0  0.65441813997E-02 -0.52174909685E-02  0.15588113885E-01  0.17700252475E-01  0.51100000000E-03 0. -1.
</event>
<event>
 8    1  0.1123361E+005  0.1043930E+01  0.7957747E-01            NaN
         13   -1    0    0    0    0  0.00000000000E+00  0.00000000000E+00  0.74505805969E-08  0.10566000000E+00  0.10566000000E+00 0. -1.
     999900   -1    0    0    0    0 -0.00000000000E+00 -0.00000000000E+00 -0.74505805969E-08  0.93827000000E+00  0.93827000000E+00 0.  1.
     999902    2    1    2    0    0 -0.56760697268E-02  0.17639754224E-01 -0.15254160359E-01  0.10199285812E+01  0.10196461360E+01 0.  0.
     999903    2    3    3    0    0  0.11859451322E+00 -0.32197517513E-01 -0.35752081672E-01  0.12956511820E+00  0.20188358294E-01 0.  0.
         14    1    1    2    0    0  0.56760697268E-02 -0.17639754224E-01  0.15254160359E-01  0.24001418810E-01  0.00000000000E+00 0.  1.
     999901    1    3    3    0    0 -0.12427058295E+00  0.49837271738E-01  0.20497921313E-01  0.89036346299E+00  0.88000000000E+00 0.  1.
        -11    1    4    4    0    0  0.51904834189E-01 -0.20218110496E-01 -0.77270147346E-02  0.56239236142E-01  0.51100000000E-03 0.  1.
         11    1    4    4    0    0  0.66689679036E-01 -0.11979407017E-01 -0.28025066937E-01  0.73325882062E-01  0.51100000000E-03 0. -1.
</event>
<event>
 8    1  0.1123361E+005  0.1043930E+01  0.7957747E-01            NaN
         13   -1    0    0    0    0  0.00000000000E+00  0.00000000000E+00  0.74505805969E-08  0.10566000000E+00  0.10566000000E+00 0.  1.
     999900   -1    0    0    0    0 -0.00000000000E+00 -0.00000000000E+00 -0.74505805969E-08  0.93827000000E+00  0.93827000000E+00 0.  1.
     999902    2    1    2    0    0 -0.11871473780E-01  0.19395829005E-01 -0.83417566440E-02  0.10197077999E+01  0.10194200715E+01 0.  0.
     999903    2    3    3    0    0  0.26189076801E-01 -0.95901133448E-01 -0.79062384355E-01  0.12856056055E+00  0.19850994163E-01 0.  0.
         14    1    1    2    0    0  0.11871473780E-01 -0.19395829005E-01  0.83417566440E-02  0.24222200074E-01  0.00000000000E+00 0.  1.
     999901    1    3    3    0    0 -0.38060550581E-01  0.11529696245E+00  0.70720627711E-01  0.89114723937E+00  0.88000000000E+00 0. -1.
        -11    1    4    4    0    0  0.28554284005E-02 -0.41683606009E-01 -0.39512825836E-01  0.57508269039E-01  0.51100000000E-03 0. -1.
         11    1    4    4    0    0  0.23333648400E-01 -0.54217527439E-01 -0.39549558518E-01  0.71052291513E-01  0.51100000000E-03 0.  1.
</event>
<event>
 8    1  0.1123361E+005  0.1043930E+01  0.7957747E-01            NaN
         13   -1    0    0    0    0  0.00000000000E+00  0.00000000000E+00  0.74505805969E-08  0.10566000000E+00  0.10566000000E+00 0. -1.
     999900   -1    0    0    0    0 -0.00000000000E+00 -0.00000000000E+00 -0.74505805969E-08  0.93827000000E+00  0.93827000000E+00 0. -1.
     999902    2    1    2    0    0  0.10489071463E-01 -0.11722710292E-01 -0.17707128677E-01  0.10202448789E+01  0.10199699152E+01 0.  0.
     999903    2    3    3    0    0  0.12228984987E-01  0.85623677839E-01 -0.96790029257E-01  0.13135036784E+00  0.20090970312E-01 0.  0.
         14    1    1    2    0    0 -0.10489071463E-01  0.11722710292E-01  0.17707128677E-01  0.23685121126E-01  0.00000000000E+00 0. -1.
     999901    1    3    3    0    0 -0.17399135238E-02 -0.97346388130E-01  0.79082900579E-01  0.88889451103E+00  0.88000000000E+00 0.  1.
        -11    1    4    4    0    0  0.15727017890E-01  0.41178386371E-01 -0.51635700462E-01  0.67893337516E-01  0.51100000000E-03 0.  1.
         11    1    4    4    0    0 -0.34980329027E-02  0.44445291468E-01 -0.45154328794E-01  0.63457030325E-01  0.51100000000E-03 0. -1.
</event>
<event>
 7    1  0.1123361E+005  0.1043930E+01  0.7957747E-01            NaN
         13   -1    0    0    0    0  0.00000000000E+00  0.00000000000E+00  0.74505805969E-08  0.10566000000E+00  0.10566000000E+00 0.  1.
     999900   -1    0    0    0    0 -0.00000000000E+00 -0.00000000000E+00 -0.74505805969E-08  0.93827000000E+00  0.93827000000E+00 0.  1.
     999903    2    1    2    0    0 -0.50388019827E-01  0.31218403795E-01  0.32396619798E-01  0.70521841680E-01  0.20254577311E-01 0.  0.
         14    1    1    2    0    0  0.80629419639E-01  0.37440073466E-01  0.82575963536E-02  0.89280738740E-01  0.00000000000E+00 0.  1.
     999901    1    1    2    0    0 -0.30241399812E-01 -0.68658477261E-01 -0.40654216151E-01  0.88412741958E+00  0.88000000000E+00 0.  1.
        -11    1    3    3    0    0 -0.36717112847E-01  0.14779076911E-01  0.28517034801E-01  0.48785754939E-01  0.51100000000E-03 0.  1.
         11    1    3    3    0    0 -0.13670906980E-01  0.16439326884E-01  0.38795849971E-02  0.21736086741E-01  0.51100000000E-03 0. -1.
</event>
<event>
 8    1  0.1123361E+005  0.1043930E+01  0.7957747E-01            NaN
         13   -1    0    0    0    0  0.00000000000E+00  0.00000000000E+00  0.74505805969E-08  0.10566000000E+00  0.10566000000E+00 0.  1.
     999900   -1    0    0    0    0 -0.00000000000E+00 -0.00000000000E+00 -0.74505805969E-08  0.93827000000E+00  0.93827000000E+00 0.  1.
     999902    2    1    2    0    0 -0.10024032622E-01  0.16361648167E-01  0.12858728851E-01  0.10208316956E+01  0.10205703400E+01 0.  0.
     999903    2    3    3    0    0  0.75591684154E-01 -0.99658709637E-01 -0.19626985480E-01  0.12850546820E+00  0.21965329013E-01 0.  0.
         14    1    1    2    0    0  0.10024032622E-01 -0.16361648167E-01 -0.12858728851E-01  0.23098304449E-01  0.00000000000E+00 0. -1.
     999901    1    3    3    0    0 -0.85615716775E-01  0.11602035780E+00  0.32485714331E-01  0.89232622735E+00  0.88000000000E+00 0.  1.
        -11    1    4    4    0    0  0.40141077320E-01 -0.51928191782E-01  0.78742638766E-03  0.65640874091E-01  0.51100000000E-03 0. -1.
         11    1    4    4    0    0  0.35450606834E-01 -0.47730517855E-01 -0.20414411868E-01  0.62864594109E-01  0.51100000000E-03 0.  1.
</event>
<event>
 8    1  0.1123361E+005  0.1043930E+01  0.7957747E-01            NaN
         13   -1    0    0    0    0  0.00000000000E+00  0.00000000000E+00  0.74505805969E-08  0.10566000000E+00  0.10566000000E+00 0. -1.
     999900   -1    0    0    0    0 -0.00000000000E+00 -0.00000000000E+00 -0.74505805969E-08  0.93827000000E+00  0.93827000000E+00 0.  1.
     999902    2    1    2    0    0  0.36490384177E-02  0.23685355051E-01  0.26320754359E-02  0.10198210940E+01  0.10195360830E+01 0.  0.
     999903    2    3    3    0    0 -0.72482451534E-01 -0.99454931105E-01 -0.26751769788E-01  0.12750783952E+00  0.19939981226E-01 0.  0.
         14    1    1    2    0    0 -0.36490384177E-02 -0.23685355051E-01 -0.26320754359E-02  0.24108905956E-01  0.00000000000E+00 0. -1.
     999901    1    3    3    0    0  0.76131489951E-01  0.12314028616E+00  0.29383845224E-01  0.89231325452E+00  0.88000000000E+00 0. -1.
        -11    1    4    4    0    0 -0.21984011310E-01 -0.43632814479E-01 -0.16310259539E-01  0.51511211788E-01  0.51100000000E-03 0. -1.
         11    1    4    4    0    0 -0.50498440223E-01 -0.55822116626E-01 -0.10441510249E-01  0.75996627733E-01  0.51100000000E-03 0.  1.
</event>
<event>
 8    1  0.1123361E+005  0.1043930E+01  0.7957747E-01            NaN
         13   -1    0    0    0    0  0.00000000000E+00  0.00000000000E+00  0.74505805969E-08  0.10566000000E+00  0.10566000000E+00 0. -1.
     999900   -1    0    0    0    0 -0.00000000000E+00 -0.00000000000E+00 -0.74505805969E-08  0.93827000000E+00  0.93827000000E+00 0.  1.
     999902    2    1    2    0    0  0.21536544430E-02  0.14374079646E-01  0.15958482802E-01  0.10223446910E+01  0.10221167945E+01 0.  0.
     999903    2    3    3    0    0 -0.12708721912E+00 -0.27938733928E-01  0.10434808926E-01  0.13188184021E+00  0.18767003562E-01 0.  0.
         14    1    1    2    0    0 -0.21536544430E-02 -0.14374079646E-01 -0.15958482802E-01  0.21585309043E-01  0.00000000000E+00 0.  1.
     999901    1    3    3    0    0  0.12924087356E+00  0.42312813574E-01  0.55236738758E-02  0.89046285075E+00  0.88000000000E+00 0. -1.
        -11    1    4    4    0    0 -0.36991818695E-01 -0.97341818209E-02 -0.53236073991E-02  0.38623190739E-01  0.51100000000E-03 0.  1.
         11    1    4    4    0    0 -0.90095400423E-01 -0.18204552107E-01  0.15758416326E-01  0.93258649469E-01  0.51100000000E-03 0. -1.
</event>
<event>
 8    1  0.1123361E+005  0.1043930E+01  0.7957747E-01            NaN
         13   -1    0    0    0    0  0.00000000000E+00  0.00000000000E+00  0.74505805969E-08  0.10566000000E+00  0.10566000000E+00 0. -1.
     999900   -1    0    0    0    0 -0.00000000000E+00 -0.00000000000E+00 -0.74505805969E-08  0.93827000000E+00  0.93827000000E+00 0. -1.
     999902    2    1    2    0    0 -0.18935345707E-01 -0.20416977711E-02 -0.12776635209E-01  0.10209962202E+01  0.10207386166E+01 0.  0.
     999903    2    3    3    0    0 -0.11334362585E+00  0.55649315860E-01 -0.39061406103E-01  0.13367887814E+00  0.20015622320E-01 0.  0.
         14    1    1    2    0    0  0.18935345707E-01  0.20416977711E-02  0.12776635209E-01  0.22933779760E-01  0.00000000000E+00 0.  1.
     999901    1    3    3    0    0  0.94408280143E-01 -0.57691013631E-01  0.26284770895E-01  0.88731734210E+00  0.88000000000E+00 0. -1.
        -11    1    4    4    0    0 -0.64132167265E-01  0.21721910293E-01 -0.25717207633E-01  0.72432121012E-01  0.51100000000E-03 0.  1.
         11    1    4    4    0    0 -0.49211458586E-01  0.33927405567E-01 -0.13344198470E-01  0.61246757126E-01  0.51100000000E-03 0. -1.
</event>
<event>
 8    1  0.1123361E+005  0.1043930E+01  0.7957747E-01            NaN
         13   -1    0    0    0    0  0.00000000000E+00  0.00000000000E+00  0.74505805969E-08  0.10566000000E+00  0.10566000000E+00 0. -1.
     999900   -1    0    0    0    0 -0.00000000000E+00 -0.00000000000E+00 -0.74505805969E-08  0.93827000000E+00  0.93827000000E+00 0.  1.
     999902    2    1    2    0    0  0.37222568686E-02  0.21017430700E-01  0.90386281678E-02  0.10207506042E+01  0.10204873893E+01 0.  0.
     999903    2    3    3    0    0  0.11007990255E+00 -0.34676726042E-01  0.59126667052E-01  0.13118745327E+00  0.19852578289E-01 0.  0.
         14    1    1    2    0    0 -0.37222568686E-02 -0.21017430700E-01 -0.90386281678E-02  0.23179395777E-01  0.00000000000E+00 0.  1.
     999901    1    3    3    0    0 -0.10635764568E+00  0.55694156742E-01 -0.50088038884E-01  0.88956315095E+00  0.88000000000E+00 0.  1.
        -11    1    4    4    0    0  0.29386735202E-01 -0.12642732480E-01  0.74083781528E-02  0.32841499330E-01  0.51100000000E-03 0. -1.
         11    1    4    4    0    0  0.80693167349E-01 -0.22033993562E-01  0.51718288899E-01  0.98345953942E-01  0.51100000000E-03 0.  1.
</event>
<event>
 8    1  0.1123361E+005  0.1043930E+01  0.7957747E-01            NaN
         13   -1    0    0    0    0  0.00000000000E+00  0.00000000000E+00  0.74505805969E-08  0.10566000000E+00  0.10566000000E+00 0.  1.
     999900   -1    0    0    0    0 -0.00000000000E+00 -0.00000000000E+00 -0.74505805969E-08  0.93827000000E+00  0.93827000000E+00 0. -1.
     999902    2    1    2    0    0 -0.20471608969E-01  0.18325359138E-02  0.95484074688E-02  0.10212668791E+01  0.10210153874E+01 0.  0.
     999903    2    3    3    0    0 -0.98477628378E-01 -0.38307345271E-01  0.79589525694E-01  0.13413559948E+00  0.22193928318E-01 0.  0.
         14    1    1    2    0    0  0.20471608969E-01 -0.18325359138E-02 -0.95484074688E-02  0.22663120854E-01  0.00000000000E+00 0.  1.
     999901    1    3    3    0    0  0.78006019409E-01  0.40139881185E-01 -0.70041118225E-01  0.88713127967E+00  0.88000000000E+00 0.  1.
        -11    1    4    4    0    0 -0.57878483658E-01 -0.27376589413E-01  0.35505503540E-01  0.73214058903E-01  0.51100000000E-03 0.  1.
         11    1    4    4    0    0 -0.40599144720E-01 -0.10930755858E-01  0.44084022154E-01  0.60921540574E-01  0.51100000000E-03 0. -1.
</event>
<event>
 8    1  0.1123361E+005  0.1043930E+01  0.7957747E-01            NaN
         13   -1    0    0    0    0  0.00000000000E+00  0.00000000000E+00  0.74505805969E-08  0.10566000000E+00  0.10566000000E+00 0. -1.
     999900   -1    0    0    0    0 -0.00000000000E+00 -0.00000000000E+00 -0.74505805969E-08  0.93827000000E+00  0.93827000000E+00 0. -1.
     999902    2    1    2    0    0 -0.19272986525E-01 -0.12518121450E-01  0.73976301690E-02  0.10197871686E+01  0.10195013453E+01 0.  0.
     999903    2    3    3    0    0  0.10206796534E-01 -0.12958526574E+00  0.18629130315E-02  0.13152796830E+00  0.19990402908E-01 0.  0.
         14    1    1    2    0    0  0.19272986525E-01  0.12518121450E-01 -0.73976301690E-02  0.24142831366E-01  0.00000000000E+00 0. -1.
     999901    1    3    3    0    0 -0.29479783059E-01  0.11706714429E+00  0.55347171375E-02  0.88825920033E+00  0.88000000000E+00 0. -1.
        -11    1    4    4    0    0  0.54913066250E-02 -0.51853464501E-01  0.10439835182E-01  0.53180706170E-01  0.51100000000E-03 0.  1.
         11    1    4    4    0    0  0.47154899086E-02 -0.77731801239E-01 -0.85769221505E-02  0.78347262131E-01  0.51100000000E-03 0. -1.
</event>
<event>
 8    1  0.1123361E+005  0.1043930E+01  0.7957747E-01            NaN
         13   -1    0    0    0    0  0.00000000000E+00  0.00000000000E+00  0.74505805969E-08  0.10566000000E+00  0.10566000000E+00 0.  1.
     999900   -1    0    0    0    0 -0.00000000000E+00 -0.00000000000E+00 -0.74505805969E-08  0.93827000000E+00  0.93827000000E+00 0. -1.
     999902    2    1    2    0    0  0.18659303091E-01 -0.84858216205E-02 -0.11169966291E-01  0.10205859021E+01  0.10203188897E+01 0.  0.
     999903    2    3    3    0    0 -0.14917631447E-01 -0.17742465194E-01  0.12542397987E+00  0.12936707255E+00  0.21617907734E-01 0.  0.
         14    1    1    2    0    0 -0.18659303091E-01  0.84858216205E-02  0.11169966291E-01  0.23344097913E-01  0.00000000000E+00 0.  1.
     999901    1    3    3    0    0  0.33576934538E-01  0.92566435739E-02 -0.13659394617E+00  0.89121882953E+00  0.88000000000E+00 0. -1.
        -11    1    4    4    0    0 -0.20499224093E-01 -0.15283273520E-01  0.10075641711E+00  0.10395149516E+00  0.51100000000E-03 0. -1.
         11    1    4    4    0    0  0.55815926464E-02 -0.24591916740E-02  0.24667562768E-01  0.25415577391E-01  0.51100000000E-03 0.  1.
</event>
<event>
 8    1  0.1123361E+005  0.1043930E+01  0.7957747E-01            NaN
         13   -1    0    0    0    0  0.00000000000E+00  0.00000000000E+00  0.74505805969E-08  0.10566000000E+00  0.10566000000E+00 0.  1.
     999900   -1    0    0    0    0 -0.00000000000E+00 -0.00000000000E+00 -0.74505805969E-08  0.93827000000E+00  0.93827000000E+00 0.  1.
     999902    2    1    2    0    0  0.42442813474E-02  0.13305186080E-01  0.22922253452E-01  0.10170883979E+01  0.10167341528E+01 0.  0.
     999903    2    3    3    0    0  0.95227535401E-01  0.84781551621E-01  0.76242252322E-02  0.12938301150E+00  0.20631041193E-01 0.  0.
         14    1    1    2    0    0 -0.42442813474E-02 -0.13305186080E-01 -0.22922253452E-01  0.26841602115E-01  0.00000000000E+00 0. -1.
     999901    1    3    3    0    0 -0.90983254053E-01 -0.71476365540E-01  0.15298028220E-01  0.88770538638E+00  0.88000000000E+00 0.  1.
        -11    1    4    4    0    0  0.15377658944E-01  0.18262178195E-01 -0.58474353018E-02  0.24585222546E-01  0.51100000000E-03 0.  1.
         11    1    4    4    0    0  0.79849876456E-01  0.66519373425E-01  0.13471660534E-01  0.10479778895E+00  0.51100000000E-03 0. -1.
</event>
<event>
 8    1  0.1123361E+005  0.1043930E+01  0.7957747E-01            NaN
         13   -1    0    0    0    0  0.00000000000E+00  0.00000000000E+00  0.74505805969E-08  0.10566000000E+00  0.10566000000E+00 0. -1.
     999900   -1    0    0    0    0 -0.00000000000E+00 -0.00000000000E+00 -0.74505805969E-08  0.93827000000E+00  0.93827000000E+00 0. -1.
     999902    2    1    2    0    0 -0.66933066857E-03 -0.11431319824E-01  0.20980287165E-01  0.10200282108E+01  0.10197481333E+01 0.  0.
     999903    2    3    3    0    0 -0.10503164806E+00 -0.71889595489E-01  0.28153875937E-01  0.13177252873E+00  0.19276866053E-01 0.  0.
         14    1    1    2    0    0  0.66933066857E-03  0.11431319824E-01 -0.20980287165E-01  0.23901789179E-01  0.00000000000E+00 0.  1.
     999901    1    3    3    0    0  0.10436231739E+00  0.60458275665E-01 -0.71735887726E-02  0.88825568209E+00  0.88000000000E+00 0.  1.
        -11    1    4    4    0    0 -0.61833101467E-01 -0.52994204216E-01  0.14863410954E-01  0.82782245824E-01  0.51100000000E-03 0.  1.
         11    1    4    4    0    0 -0.43198546591E-01 -0.18895391273E-01  0.13290464983E-01  0.48990282908E-01  0.51100000000E-03 0. -1.
</event>
<event>
 8    1  0.1123361E+005  0.1043930E+01  0.7957747E-01            NaN
         13   -1    0    0    0    0  0.00000000000E+00  0.00000000000E+00  0.74505805969E-08  0.10566000000E+00  0.10566000000E+00 0.  1.
     999900   -1    0    0    0    0 -0.00000000000E+00 -0.00000000000E+00 -0.74505805969E-08  0.93827000000E+00  0.93827000000E+00 0.  1.
     999902    2    1    2    0    0  0.93046713695E-02 -0.63031211511E-02 -0.22377029652E-01  0.10188892791E+01  0.10185815262E+01 0.  0.
     999903    2    3    3    0    0  0.83883568857E-01  0.18244731369E-01 -0.98193347453E-01  0.13214651877E+00  0.21247249037E-01 0.  0.
         14    1    1    2    0    0 -0.93046713695E-02  0.63031211511E-02  0.22377029652E-01  0.25040720868E-01  0.00000000000E+00 0.  1.
     999901    1    3    3    0    0 -0.74578897487E-01 -0.24547852520E-01  0.75816317801E-01  0.88674276036E+00  0.88000000000E+00 0. -1.
        -11    1    4    4    0    0  0.31565085370E-01  0.17513689476E-01 -0.39263960611E-01  0.53338575696E-01  0.51100000000E-03 0.  1.
         11    1    4    4    0    0  0.52318483487E-01  0.73104189329E-03 -0.58929386842E-01  0.78807943072E-01  0.51100000000E-03 0. -1.
</event>
<event>
 8    1  0.1123361E+005  0.1043930E+01  0.7957747E-01            NaN
         13   -1    0    0    0    0  0.00000000000E+00  0.00000000000E+00  0.74505805969E-08  0.10566000000E+00  0.10566000000E+00 0. -1.
     999900   -1    0    0    0    0 -0.00000000000E+00 -0.00000000000E+00 -0.74505805969E-08  0.93827000000E+00  0.93827000000E+00 0. -1.
     999902    2    1    2    0    0  0.21048203325E-01 -0.15332353672E-02  0.10710020408E-01  0.10202639439E+01  0.10199894279E+01 0.  0.
     999903    2    3    3    0    0  0.31401484553E-01 -0.12451988593E+00 -0.17647032009E-01  0.13119868811E+00  0.20258894260E-01 0.  0.
         14    1    1    2    0    0 -0.21048203325E-01  0.15332353672E-02 -0.10710020408E-01  0.23666056094E-01  0.00000000000E+00 0. -1.
     999901    1    3    3    0    0 -0.10353281228E-01  0.12298665057E+00  0.28357052417E-01  0.88906525580E+00  0.88000000000E+00 0.  1.
        -11    1    4    4    0    0  0.15446879120E-01 -0.84384897478E-01 -0.39243623514E-02  0.85878278614E-01  0.51100000000E-03 0. -1.
         11    1    4    4    0    0  0.15954605433E-01 -0.40134988457E-01 -0.13722669657E-01  0.45320409491E-01  0.51100000000E-03 0.  1.
</event>
<event>
 8    1  0.1123361E+005  0.1043930E+01  0.7957747E-01            NaN
         13   -1    0    0    0    0  0.00000000000E+00  0.00000000000E+00  0.74505805969E-08  0.10566000000E+00  0.10566000000E+00 0. -1.
     999900   -1    0    0    0    0 -0.00000000000E+00 -0.00000000000E+00 -0.74505805969E-08  0.93827000000E+00  0.93827000000E+00 0.  1.
     999902    2    1    2    0    0 -0.12637561463E-02  0.19629335722E-02 -0.23804735029E-01  0.10200110619E+01  0.10197305776E+01 0.  0.
     999903    2    3    3    0    0 -0.12562103307E+00 -0.13297861461E-01 -0.28612239080E-01  0.13112370334E+00  0.20427635279E-01 0.  0.
         14    1    1    2    0    0  0.12637561463E-02 -0.19629335722E-02  0.23804735029E-01  0.23918938054E-01  0.00000000000E+00 0. -1.
     999901    1    3    3    0    0  0.12435727693E+00  0.15260795033E-01  0.48075040513E-02  0.88888735860E+00  0.88000000000E+00 0.  1.
        -11    1    4    4    0    0 -0.12331567027E-01 -0.76387959472E-02 -0.39315056618E-02  0.15037839161E-01  0.51100000000E-03 0.  1.
         11    1    4    4    0    0 -0.11328946605E+00 -0.56590655139E-02 -0.24680733419E-01  0.11608586418E+00  0.51100000000E-03 0. -1.
</event>
<event>
 8    1  0.1123361E+005  0.1043930E+01  0.7957747E-01            NaN
         13   -1    0    0    0    0  0.00000000000E+00  0.00000000000E+00  0.74505805969E-08  0.10566000000E+00  0.10566000000E+00 0. -1.
     999900   -1    0    0    0    0 -0.00000000000E+00 -0.00000000000E+00 -0.74505805969E-08  0.93827000000E+00  0.93827000000E+00 0. -1.
     999902    2    1    2    0    0  0.20706834869E-01 -0.32548244944E-03 -0.11438984758E-01  0.10202714007E+01  0.10199970597E+01 0.  0.
     999903    2    3    3    0    0 -0.98135593205E-02 -0.15296049103E-01 -0.12914310526E+00  0.13178399374E+00  0.18942130439E-01 0.  0.
         14    1    1    2    0    0 -0.20706834869E-01  0.32548244944E-03  0.11438984758E-01  0.23658599312E-01  0.00000000000E+00 0. -1.
     999901    1    3    3    0    0  0.30520394189E-01  0.14970566653E-01  0.11770412050E+00  0.88848740695E+00  0.88000000000E+00 0.  1.
        -11    1    4    4    0    0  0.39686700495E-02 -0.10506577583E-01 -0.67918300566E-01  0.68842539082E-01  0.51100000000E-03 0.  1.
         11    1    4    4    0    0 -0.13782229370E-01 -0.47894715194E-02 -0.61224804690E-01  0.62941454656E-01  0.51100000000E-03 0. -1.
</event>
<event>
 8    1  0.1123361E+005  0.1043930E+01  0.7957747E-01            NaN
         13   -1    0    0    0    0  0.00000000000E+00  0.00000000000E+00  0.74505805969E-08  0.10566000000E+00  0.10566000000E+00 0.  1.
     999900   -1    0    0    0    0 -0.00000000000E+00 -0.00000000000E+00 -0.74505805969E-08  0.93827000000E+00  0.93827000000E+00 0. -1.
     999902    2    1    2    0    0 -0.48252219946E-02 -0.11514229472E-01  0.12421528632E-01  0.10263187927E+01  0.10261676811E+01 0.  0.
     999903    2    3    3    0    0 -0.69084330786E-01 -0.51015069353E-01  0.10625596307E+00  0.13812148893E+00  0.20298619488E-01 0.  0.
         14    1    1    2    0    0  0.48252219946E-02  0.11514229472E-01 -0.12421528632E-01  0.17611207261E-01  0.00000000000E+00 0. -1.
     999901    1    3    3    0    0  0.64259108791E-01  0.39500839881E-01 -0.93834434442E-01  0.88819730381E+00  0.88000000000E+00 0. -1.
        -11    1    4    4    0    0 -0.10015428677E-01 -0.14085586451E-01  0.12589609839E-01  0.21388594020E-01  0.51100000000E-03 0. -1.
         11    1    4    4    0    0 -0.59068902109E-01 -0.36929482902E-01  0.93666353235E-01  0.11673289491E+00  0.51100000000E-03 0.  1.
</event>
<event>
 8    1  0.1123361E+005  0.1043930E+01  0.7957747E-01            NaN
         13   -1    0    0    0    0  0.00000000000E+00  0.00000000000E+00  0.74505805969E-08  0.10566000000E+00  0.10566000000E+00 0.  1.
     999900   -1    0    0    0    0 -0.00000000000E+00 -0.00000000000E+00 -0.74505805969E-08  0.93827000000E+00  0.93827000000E+00 0.  1.
     999902    2    1    2    0    0  0.90304814255E-02  0.82086066360E-02  0.21939888119E-01  0.10188244327E+01  0.10185150638E+01 0.  0.
     999903    2    3    3    0    0  0.82656896383E-01 -0.89541277356E-01  0.40753058306E-01  0.13015698976E+00  0.20741922598E-01 0.  0.
         14    1    1    2    0    0 -0.90304814255E-02 -0.82086066360E-02 -0.21939888119E-01  0.25105567278E-01  0.00000000000E+00 0. -1.
     999901    1    3    3    0    0 -0.73626414957E-01  0.97749883992E-01 -0.18813170186E-01  0.88866744296E+00  0.88000000000E+00 0. -1.
        -11    1    4    4    0    0  0.36017287596E-01 -0.53555377182E-01  0.24603648067E-01  0.69072599850E-01  0.51100000000E-03 0. -1.
         11    1    4    4    0    0  0.46639608786E-01 -0.35985900174E-01  0.16149410239E-01  0.61084389914E-01  0.51100000000E-03 0.  1.
</event>
<event>
 8    1  0.1123361E+005  0.1043930E+01  0.7957747E-01            NaN
         13   -1    0    0    0    0  0.00000000000E+00  0.00000000000E+00  0.74505805969E-08  0.10566000000E+00  0.10566000000E+00 0. -1.
     999900   -1    0    0    0    0 -0.00000000000E+00 -0.00000000000E+00 -0.74505805969E-08  0.93827000000E+00  0.93827000000E+00 0. -1.
     999902    2    1    2    0    0 -0.16940862934E-01 -0.59025060499E-02  0.14725823927E-01  0.10207204695E+01  0.10204565618E+01 0.  0.
     999903    2    3    3    0    0  0.12494515538E+00 -0.17351042102E-01  0.20024944037E-01  0.12926615670E+00  0.19909554722E-01 0.  0.
         14    1    1    2    0    0  0.16940862934E-01  0.59025060499E-02 -0.14725823927E-01  0.23209530476E-01  0.00000000000E+00 0.  1.
     999901    1    3    3    0    0 -0.14188601832E+00  0.11448536052E-01 -0.52991201098E-02  0.89145431282E+00  0.88000000000E+00 0.  1.
        -11    1    4    4    0    0  0.41324066718E-01 -0.14973305172E-01  0.92476926387E-02  0.44918362593E-01  0.51100000000E-03 0.  1.
         11    1    4    4    0    0  0.83621088666E-01 -0.23777369293E-02  0.10777251398E-01  0.84347794110E-01  0.51100000000E-03 0. -1.
</event>
<event>
 8    1  0.1123361E+005  0.1043930E+01  0.7957747E-01            NaN
         13   -1    0    0    0    0  0.00000000000E+00  0.00000000000E+00  0.74505805969E-08  0.10566000000E+00  0.10566000000E+00 0.  1.
     999900   -1    0    0    0    0 -0.00000000000E+00 -0.00000000000E+00 -0.74505805969E-08  0.93827000000E+00  0.93827000000E+00 0. -1.
     999902    2    1    2    0    0  0.26173147021E-02  0.52179785339E-02  0.24376475863E-01  0.10188642821E+01  0.10185559068E+01 0.  0.
     999903    2    3    3    0    0 -0.31124450942E-02  0.95747834847E-01  0.88115069765E-01  0.13190819902E+00  0.21404958705E-01 0.  0.
         14    1    1    2    0    0 -0.26173147021E-02 -0.52179785339E-02 -0.24376475863E-01  0.25065717857E-01  0.00000000000E+00 0. -1.
     999901    1    3    3    0    0  0.57297597963E-02 -0.90529856313E-01 -0.63738593902E-01  0.88695608312E+00  0.88000000000E+00 0. -1.
        -11    1    4    4    0    0  0.84719343676E-03  0.72376197646E-01  0.53750075042E-01  0.90157436801E-01  0.51100000000E-03 0. -1.
         11    1    4    4    0    0 -0.39596385310E-02  0.23371637201E-01  0.34364994723E-01  0.41750762222E-01  0.51100000000E-03 0.  1.
</event>
<event>
 8    1  0.1123361E+005  0.1043930E+01  0.7957747E-01            NaN
         13   -1    0    0    0    0  0.00000000000E+00  0.00000000000E+00  0.74505805969E-08  0.10566000000E+00  0.10566000000E+00 0. -1.
     999900   -1    0    0    0    0 -0.00000000000E+00 -0.00000000000E+00 -0.74505805969E-08  0.93827000000E+00  0.93827000000E+00 0.  1.
     999902    2    1    2    0    0 -0.11961070019E-01  0.48391997108E-03 -0.19418989956E-01  0.10211177545E+01  0.10208629046E+01 0.  0.
     999903    2    3    3    0    0 -0.51907178866E-01 -0.11224253274E+00 -0.43949114284E-01  0.13268955156E+00  0.19551242244E-01 0.  0.
         14    1    1    2    0    0  0.11961070019E-01 -0.48391997108E-03  0.19418989956E-01  0.22812245515E-01  0.00000000000E+00 0. -1.
     999901    1    3    3    0    0  0.39946108847E-01  0.11272645271E+00  0.24530124328E-01  0.88842820292E+00  0.88000000000E+00 0.  1.
        -11    1    4    4    0    0 -0.10240800054E-01 -0.19828013140E-01 -0.31843050060E-03  0.22324574123E-01  0.51100000000E-03 0. -1.
         11    1    4    4    0    0 -0.41666378812E-01 -0.92414519600E-01 -0.43630683784E-01  0.11036497744E+00  0.51100000000E-03 0.  1.
</event>
<event>
 8    1  0.1123361E+005  0.1043930E+01  0.7957747E-01            NaN
         13   -1    0    0    0    0  0.00000000000E+00  0.00000000000E+00  0.74505805969E-08  0.10566000000E+00  0.10566000000E+00 0.  1.
     999900   -1    0    0    0    0 -0.00000000000E+00 -0.00000000000E+00 -0.74505805969E-08  0.93827000000E+00  0.93827000000E+00 0. -1.
     999902    2    1    2    0    0  0.25644099722E-01  0.35684264838E-02 -0.75642107530E-03  0.10180277667E+01  0.10176981910E+01 0.  0.
     999903    2    3    3    0    0  0.15988649354E-01  0.12265700918E+00 -0.32467922595E-01  0.12938782971E+00  0.19663816276E-01 0.  0.
         14    1    1    2    0    0 -0.25644099722E-01 -0.35684264838E-02  0.75642107530E-03  0.25902233320E-01  0.00000000000E+00 0. -1.
     999901    1    3    3    0    0  0.96554503676E-02 -0.11908858270E+00  0.31711501520E-01  0.88863993697E+00  0.88000000000E+00 0.  1.
        -11    1    4    4    0    0  0.57365013913E-02  0.38951245359E-01 -0.19919426739E-01  0.44126541285E-01  0.51100000000E-03 0.  1.
         11    1    4    4    0    0  0.10252147963E-01  0.83705763820E-01 -0.12548495856E-01  0.85261288424E-01  0.51100000000E-03 0. -1.
</event>
<event>
 7    1  0.1123361E+005  0.1043930E+01  0.7957747E-01            NaN
         13   -1    0    0    0    0  0.00000000000E+00  0.00000000000E+00  0.74505805969E-08  0.10566000000E+00  0.10566000000E+00 0.  1.
     999900   -1    0    0    0    0 -0.00000000000E+00 -0.00000000000E+00 -0.74505805969E-08  0.93827000000E+00  0.93827000000E+00 0. -1.
     999903    2    1    2    0    0 -0.45327734332E-01 -0.10351954481E+00  0.26490694821E-01  0.11772213589E+00  0.19642930233E-01 0.  0.
         14    1    1    2    0    0 -0.32302234681E-01  0.20234779969E-01  0.41669766617E-02  0.38343765859E-01  0.00000000000E+00 0.  1.
     999901    1    1    2    0    0  0.77629969012E-01  0.83284764845E-01 -0.30657671483E-01  0.88786409825E+00  0.88000000000E+00 0. -1.
        -11    1    3    3    0    0 -0.52268585797E-02 -0.17082209217E-01 -0.26759125882E-02  0.18070516083E-01  0.51100000000E-03 0.  1.
         11    1    3    3    0    0 -0.40100875752E-01 -0.86437335597E-01  0.29166607410E-01  0.99651619806E-01  0.51100000000E-03 0. -1.
</event>
<event>
 8    1  0.1123361E+005  0.1043930E+01  0.7957747E-01            NaN
         13   -1    0    0    0    0  0.00000000000E+00  0.00000000000E+00  0.74505805969E-08  0.10566000000E+00  0.10566000000E+00 0. -1.
     999900   -1    0    0    0    0 -0.00000000000E+00 -0.00000000000E+00 -0.74505805969E-08  0.93827000000E+00  0.93827000000E+00 0.  1.
     999902    2    1    2    0    0 -0.16541801928E-01 -0.51116903631E-03 -0.18132878226E-01  0.10193801776E+01  0.10190845170E+01 0.  0.
     999903    2    3    3    0    0 -0.65249773747E-01 -0.60617747513E-01 -0.96074840785E-01  0.13255425514E+00  0.20204238107E-01 0.  0.
         14    1    1    2    0    0  0.16541801928E-01  0.51116903631E-03  0.18132878226E-01  0.24549822353E-01  0.00000000000E+00 0.  1.
     999901    1    3    3    0    0  0.48707971819E-01  0.60106578476E-01  0.77941962559E-01  0.88682592250E+00  0.88000000000E+00 0. -1.
        -11    1    4    4    0    0 -0.10477995676E-01 -0.20825214711E-01 -0.29491668347E-01  0.37596510264E-01  0.51100000000E-03 0.  1.
         11    1    4    4    0    0 -0.54771778071E-01 -0.39792532801E-01 -0.66583172438E-01  0.94957744880E-01  0.51100000000E-03 0. -1.
</event>
<event>
 8    1  0.1123361E+005  0.1043930E+01  0.7957747E-01            NaN
         13   -1    0    0    0    0  0.00000000000E+00  0.00000000000E+00  0.74505805969E-08  0.10566000000E+00  0.10566000000E+00 0.  1.
     999900   -1    0    0    0    0 -0.00000000000E+00 -0.00000000000E+00 -0.74505805969E-08  0.93827000000E+00  0.93827000000E+00 0. -1.
     999902    2    1    2    0    0  0.18299906930E-01 -0.64633385637E-04 -0.14962818073E-01  0.10202915420E+01  0.10200176734E+01 0.  0.
     999903    2    3    3    0    0 -0.89259134715E-01  0.10795286859E-01  0.88398251846E-01  0.12767158028E+00  0.20051187856E-01 0.  0.
         14    1    1    2    0    0 -0.18299906930E-01  0.64633385637E-04  0.14962818073E-01  0.23638457983E-01  0.00000000000E+00 0.  1.
     999901    1    3    3    0    0  0.10755904165E+00 -0.10859920244E-01 -0.10336106992E+00  0.89261996173E+00  0.88000000000E+00 0. -1.
        -11    1    4    4    0    0 -0.33410478925E-01  0.13825557881E-01  0.33307400214E-01  0.49163504581E-01  0.51100000000E-03 0.  1.
         11    1    4    4    0    0 -0.55848655791E-01 -0.30302710222E-02  0.55090851632E-01  0.78508075703E-01  0.51100000000E-03 0. -1.
</event>
<event>
 8    1  0.1123361E+005  0.1043930E+01  0.7957747E-01            NaN
         13   -1    0    0    0    0  0.00000000000E+00  0.00000000000E+00  0.74505805969E-08  0.10566000000E+00  0.10566000000E+00 0. -1.
     999900   -1    0    0    0    0 -0.00000000000E+00 -0.00000000000E+00 -0.74505805969E-08  0.93827000000E+00  0.93827000000E+00 0.  1.
     999902    2    1    2    0    0 -0.10839308477E-01  0.12852267733E-01  0.13624828033E-01  0.10222895903E+01  0.10220605163E+01 0.  0.
     999903    2    3    3    0    0  0.11391905832E+00 -0.19001027925E-02 -0.60094520235E-01  0.13031603415E+00  0.19742217594E-01 0.  0.
         14    1    1    2    0    0  0.10839308477E-01 -0.12852267733E-01 -0.13624828033E-01  0.21640409725E-01  0.00000000000E+00 0. -1.
     999901    1    3    3    0    0 -0.12475836679E+00  0.14752370526E-01  0.73719348268E-01  0.89197355613E+00  0.88000000000E+00 0. -1.
        -11    1    4    4    0    0  0.14561960741E-01 -0.44661704216E-02 -0.14237416906E-01  0.20855755561E-01  0.51100000000E-03 0.  1.
         11    1    4    4    0    0  0.99357097575E-01  0.25660676291E-02 -0.45857103329E-01  0.10946027859E+00  0.51100000000E-03 0. -1.
</event>
<event>
 8    1  0.1123361E+005  0.1043930E+01  0.7957747E-01            NaN
         13   -1    0    0    0    0  0.00000000000E+00  0.00000000000E+00  0.74505805969E-08  0.10566000000E+00  0.10566000000E+00 0. -1.
     999900   -1    0    0    0    0 -0.00000000000E+00 -0.00000000000E+00 -0.74505805969E-08  0.93827000000E+00  0.93827000000E+00 0.  1.
     999902    2    1    2    0    0  0.88213150913E-02 -0.12263019010E-01  0.17846305755E-01  0.10205486428E+01  0.10202807675E+01 0.  0.
     999903    2    3    3    0    0  0.11896048527E+00 -0.50718833642E-01 -0.15260753793E-01  0.13223250320E+00  0.22990153466E-01 0.  0.
         14    1    1    2    0    0 -0.88213150913E-02  0.12263019010E-01 -0.17846305755E-01  0.23381357195E-01  0.00000000000E+00 0.  1.
     999901    1    3    3    0    0 -0.11013917017E+00  0.38455814633E-01  0.33107059548E-01  0.88831613960E+00  0.88000000000E+00 0. -1.
        -11    1    4    4    0    0  0.47329126918E-01 -0.25213650429E-01 -0.16737355072E-01  0.56179841567E-01  0.51100000000E-03 0.  1.
         11    1    4    4    0    0  0.71631358348E-01 -0.25505183213E-01  0.14766012790E-02  0.76052661636E-01  0.51100000000E-03 0. -1.
</event>
<event>
 8    1  0.1123361E+005  0.1043930E+01  0.7957747E-01            NaN
         13   -1    0    0    0    0  0.00000000000E+00  0.00000000000E+00  0.74505805969E-08  0.10566000000E+00  0.10566000000E+00 0.  1.
     999900   -1    0    0    0    0 -0.00000000000E+00 -0.00000000000E+00 -0.74505805969E-08  0.93827000000E+00  0.93827000000E+00 0.  1.
     999902    2    1    2    0    0 -0.18784797178E-01 -0.18240373430E-01 -0.48164976447E-03  0.10177419910E+01  0.10174050071E+01 0.  0.
     999903    2    3    3    0    0  0.10613076987E+00  0.45332675948E-01  0.45026999927E-01  0.12548840112E+00  0.20027887345E-01 0.  0.
         14    1    1    2    0    0  0.18784797178E-01  0.18240373430E-01  0.48164976447E-03  0.26188008981E-01  0.00000000000E+00 0. -1.
     999901    1    3    3    0    0 -0.12491556704E+00 -0.63573049378E-01 -0.45508649691E-01  0.89225358990E+00  0.88000000000E+00 0. -1.
        -11    1    4    4    0    0  0.33703141182E-01  0.46017831370E-02  0.12145499077E-01  0.36122740793E-01  0.51100000000E-03 0. -1.
         11    1    4    4    0    0  0.72427628683E-01  0.40730892811E-01  0.32881500849E-01  0.89365660323E-01  0.51100000000E-03 0.  1.
</event>
<event>
 8    1  0.1123361E+005  0.1043930E+01  0.7957747E-01            NaN
         13   -1    0    0    0    0  0.00000000000E+00  0.00000000000E+00  0.74505805969E-08  0.10566000000E+00  0.10566000000E+00 0.  1.
     999900   -1    0    0    0    0 -0.00000000000E+00 -0.00000000000E+00 -0.74505805969E-08  0.93827000000E+00  0.93827000000E+00 0.  1.
     999902    2    1    2    0    0  0.91164024318E-02 -0.13292660865E-01 -0.23640730066E-01  0.10153172800E+01  0.10149140315E+01 0.  0.
     999903    2    3    3    0    0  0.16100351168E-01  0.11328132302E+00 -0.48480792536E-01  0.12588668822E+00  0.20129370895E-01 0.  0.
         14    1    1    2    0    0 -0.91164024318E-02  0.13292660865E-01  0.23640730066E-01  0.28612719972E-01  0.00000000000E+00 0.  1.
     999901    1    3    3    0    0 -0.69839487366E-02 -0.12657398389E+00  0.24840062470E-01  0.88943059181E+00  0.88000000000E+00 0.  1.
        -11    1    4    4    0    0  0.13151152465E-01  0.85587625785E-01 -0.45646212788E-01  0.97887856047E-01  0.51100000000E-03 0. -1.
         11    1    4    4    0    0  0.29491987039E-02  0.27693697239E-01 -0.28345797478E-02  0.27998832174E-01  0.51100000000E-03 0.  1.
</event>
<event>
 8    1  0.1123361E+005  0.1043930E+01  0.7957747E-01            NaN
         13   -1    0    0    0    0  0.00000000000E+00  0.00000000000E+00  0.74505805969E-08  0.10566000000E+00  0.10566000000E+00 0. -1.
     999900   -1    0    0    0    0 -0.00000000000E+00 -0.00000000000E+00 -0.74505805969E-08  0.93827000000E+00  0.93827000000E+00 0.  1.
     999902    2    1    2    0    0 -0.96239037032E-02  0.20554880348E-01 -0.36463392088E-02  0.10209426466E+01  0.10206838243E+01 0.  0.
     999903    2    3    3    0    0  0.87677996123E-01  0.52979931463E-02 -0.93529728222E-01  0.13089800951E+00  0.25903264215E-01 0.  0.
         14    1    1    2    0    0  0.96239037032E-02 -0.20554880348E-01  0.36463392088E-02  0.22987353441E-01  0.00000000000E+00 0. -1.
     999901    1    3    3    0    0 -0.97301899826E-01  0.15256887202E-01  0.89883389013E-01  0.89004463705E+00  0.88000000000E+00 0. -1.
        -11    1    4    4    0    0  0.10391839954E-01  0.77707872137E-02 -0.22074293455E-01  0.25610759928E-01  0.51100000000E-03 0.  1.
         11    1    4    4    0    0  0.77286156169E-01 -0.24727940674E-02 -0.71455434767E-01  0.10528724958E+00  0.51100000000E-03 0. -1.
</event>
<event>
 8    1  0.1123361E+005  0.1043930E+01  0.7957747E-01            NaN
         13   -1    0    0    0    0  0.00000000000E+00  0.00000000000E+00  0.74505805969E-08  0.10566000000E+00  0.10566000000E+00 0. -1.
     999900   -1    0    0    0    0 -0.00000000000E+00 -0.00000000000E+00 -0.74505805969E-08  0.93827000000E+00  0.93827000000E+00 0. -1.
     999902    2    1    2    0    0  0.17560887189E-01 -0.51891145499E-02 -0.15210510080E-01  0.10201251416E+01  0.10198473578E+01 0.  0.
     999903    2    3    3    0    0 -0.54094398858E-01 -0.11627994032E+00  0.85450360050E-02  0.12993416342E+00  0.19043126698E-01 0.  0.
         14    1    1    2    0    0 -0.17560887189E-01  0.51891145499E-02  0.15210510080E-01  0.23804858445E-01  0.00000000000E+00 0. -1.
     999901    1    3    3    0    0  0.71655286047E-01  0.11109082577E+00 -0.23755546085E-01  0.89019097814E+00  0.88000000000E+00 0. -1.
        -11    1    4    4    0    0 -0.45397861180E-01 -0.77405430806E-01  0.38539621816E-02  0.89820268667E-01  0.51100000000E-03 0.  1.
         11    1    4    4    0    0 -0.86965376784E-02 -0.38874509513E-01  0.46910738234E-02  0.40113894751E-01  0.51100000000E-03 0. -1.
</event>
<event>
 8    1  0.1123361E+005  0.1043930E+01  0.7957747E-01            NaN
         13   -1    0    0    0    0  0.00000000000E+00  0.00000000000E+00  0.74505805969E-08  0.10566000000E+00  0.10566000000E+00 0. -1.
     999900   -1    0    0    0    0 -0.00000000000E+00 -0.00000000000E+00 -0.74505805969E-08  0.93827000000E+00  0.93827000000E+00 0.  1.
     999902    2    1    2    0    0 -0.12966411256E-01  0.65691168743E-02 -0.19196479076E-01  0.10198512557E+01  0.10195669659E+01 0.  0.
     999903    2    3    3    0    0 -0.92667858340E-02 -0.66086656374E-01 -0.11223846357E+00  0.13196085736E+00  0.19049296555E-01 0.  0.
         14    1    1    2    0    0  0.12966411256E-01 -0.65691168743E-02  0.19196479076E-01  0.24078744284E-01  0.00000000000E+00 0. -1.
     999901    1    3    3    0    0 -0.36996254222E-02  0.72655773249E-01  0.93041984497E-01  0.88789039836E+00  0.88000000000E+00 0.  1.
        -11    1    4    4    0    0 -0.10192556640E-01 -0.21720620593E-01 -0.29099714471E-01  0.37719067766E-01  0.51100000000E-03 0. -1.
         11    1    4    4    0    0  0.92577080601E-03 -0.44366035782E-01 -0.83138749102E-01  0.94241789594E-01  0.51100000000E-03 0.  1.
</event>
<event>
 8    1  0.1123361E+005  0.1043930E+01  0.7957747E-01            NaN
         13   -1    0    0    0    0  0.00000000000E+00  0.00000000000E+00  0.74505805969E-08  0.10566000000E+00  0.10566000000E+00 0. -1.
     999900   -1    0    0    0    0 -0.00000000000E+00 -0.00000000000E+00 -0.74505805969E-08  0.93827000000E+00  0.93827000000E+00 0.  1.
     999902    2    1    2    0    0 -0.21916148167E-01  0.17091926970E-02  0.87613684657E-02  0.10202656710E+01  0.10199911955E+01 0.  0.
     999903    2    3    3    0    0 -0.10910715091E-01 -0.90061220618E-01 -0.90802123386E-01  0.12984115581E+00  0.19586550704E-01 0.  0.
         14    1    1    2    0    0  0.21916148167E-01 -0.17091926970E-02 -0.87613684657E-02  0.23664329011E-01  0.00000000000E+00 0.  1.
     999901    1    3    3    0    0 -0.11005433076E-01  0.91770413315E-01  0.99563491852E-01  0.89042451518E+00  0.88000000000E+00 0. -1.
        -11    1    4    4    0    0 -0.16629177885E-01 -0.64519381660E-01 -0.64917837237E-01  0.93026162339E-01  0.51100000000E-03 0. -1.
         11    1    4    4    0    0  0.57184627941E-02 -0.25541838958E-01 -0.25884286148E-01  0.36814993474E-01  0.51100000000E-03 0.  1.
</event>
<event>
 8    1  0.1123361E+005  0.1043930E+01  0.7957747E-01            NaN
         13   -1    0    0    0    0  0.00000000000E+00  0.00000000000E+00  0.74505805969E-08  0.10566000000E+00  0.10566000000E+00 0.  1.
     999900   -1    0    0    0    0 -0.00000000000E+00 -0.00000000000E+00 -0.74505805969E-08  0.93827000000E+00  0.93827000000E+00 0.  1.
     999902    2    1    2    0    0 -0.22603973775E-01  0.20363039023E-02  0.32100381779E-02  0.10210086015E+01  0.10207512791E+01 0.  0.
     999903    2    3    3    0    0 -0.11455156623E+00  0.20846821816E-01  0.63511250264E-01  0.13396608193E+00  0.18883349644E-01 0.  0.
         14    1    1    2    0    0  0.22603973775E-01 -0.20363039023E-02 -0.32100381779E-02  0.22921398499E-01  0.00000000000E+00 0.  1.
     999901    1    3    3    0    0  0.91947592451E-01 -0.18810517914E-01 -0.60301212086E-01  0.88704251957E+00  0.88000000000E+00 0.  1.
        -11    1    4    4    0    0 -0.94556289242E-01  0.22694331076E-01  0.57624213246E-01  0.11303422301E+00  0.51100000000E-03 0.  1.
         11    1    4    4    0    0 -0.19995276985E-01 -0.18475092598E-02  0.58870370178E-02  0.20931858924E-01  0.51100000000E-03 0. -1.
</event>
<event>
 8    1  0.1123361E+005  0.1043930E+01  0.7957747E-01            NaN
         13   -1    0    0    0    0  0.00000000000E+00  0.00000000000E+00  0.74505805969E-08  0.10566000000E+00  0.10566000000E+00 0. -1.
     999900   -1    0    0    0    0 -0.00000000000E+00 -0.00000000000E+00 -0.74505805969E-08  0.93827000000E+00  0.93827000000E+00 0.  1.
     999902    2    1    2    0    0  0.16703907354E-02  0.99607446688E-02 -0.21395268477E-01  0.10202706646E+01  0.10199963063E+01 0.  0.
     999903    2    3    3    0    0  0.65183972440E-01 -0.23290243557E-02  0.10880574132E+00  0.12834167837E+00  0.19455653277E-01 0.  0.
         14    1    1    2    0    0 -0.16703907354E-02 -0.99607446688E-02  0.21395268477E-01  0.23659335426E-01  0.00000000000E+00 0. -1.
     999901    1    3    3    0    0 -0.63513581704E-01  0.12289769024E-01 -0.13020100980E+00  0.89192898621E+00  0.88000000000E+00 0.  1.
        -11    1    4    4    0    0  0.35254502540E-02  0.16128776691E-03  0.19283921134E-01  0.19610852825E-01  0.51100000000E-03 0.  1.
         11    1    4    4    0    0  0.61658522186E-01 -0.24903121226E-02  0.89521820186E-01  0.10873082554E+00  0.51100000000E-03 0. -1.
</event>
<event>
 8    1  0.1123361E+005  0.1043930E+01  0.7957747E-01            NaN
         13   -1    0    0    0    0  0.00000000000E+00  0.00000000000E+00  0.74505805969E-08  0.10566000000E+00  0.10566000000E+00 0. -1.
     999900   -1    0    0    0    0 -0.00000000000E+00 -0.00000000000E+00 -0.74505805969E-08  0.93827000000E+00  0.93827000000E+00 0. -1.
     999902    2    1    2    0    0  0.21625373233E-01 -0.36593680541E-02 -0.78391076633E-02  0.10206383845E+01  0.10203725852E+01 0.  0.
     999903    2    3    3    0    0  0.11163492928E+00  0.56547807723E-01 -0.42546068864E-01  0.13332153169E+00  0.17448519773E-01 0.  0.
         14    1    1    2    0    0 -0.21625373233E-01  0.36593680541E-02  0.78391076633E-02  0.23291615465E-01  0.00000000000E+00 0.  1.
     999901    1    3    3    0    0 -0.90009556045E-01 -0.60207175777E-01  0.34706961201E-01  0.88731685285E+00  0.88000000000E+00 0.  1.
        -11    1    4    4    0    0  0.47254770913E-01  0.18509846255E-01 -0.24688819678E-01  0.56439584695E-01  0.51100000000E-03 0. -1.
         11    1    4    4    0    0  0.64380158364E-01  0.38037961468E-01 -0.17857249186E-01  0.76881946991E-01  0.51100000000E-03 0.  1.
</event>
<event>
 8    1  0.1123361E+005  0.1043930E+01  0.7957747E-01            NaN
         13   -1    0    0    0    0  0.00000000000E+00  0.00000000000E+00  0.74505805969E-08  0.10566000000E+00  0.10566000000E+00 0. -1.
     999900   -1    0    0    0    0 -0.00000000000E+00 -0.00000000000E+00 -0.74505805969E-08  0.93827000000E+00  0.93827000000E+00 0. -1.
     999902    2    1    2    0    0 -0.17015245133E-01  0.13191740506E-01  0.10090404439E-01  0.10201527662E+01  0.10198756344E+01 0.  0.
     999903    2    3    3    0    0  0.20382208137E-02  0.13059766495E+00  0.48880000426E-03  0.13209906488E+00  0.19748913434E-01 0.  0.
         14    1    1    2    0    0  0.17015245133E-01 -0.13191740506E-01 -0.10090404439E-01  0.23777233781E-01  0.00000000000E+00 0.  1.
     999901    1    3    3    0    0 -0.19053465947E-01 -0.11740592444E+00  0.96016044345E-02  0.88805370134E+00  0.88000000000E+00 0.  1.
        -11    1    4    4    0    0  0.10698730956E-01  0.69656148287E-01  0.23654068170E-02  0.70514524098E-01  0.51100000000E-03 0.  1.
         11    1    4    4    0    0 -0.86605101420E-02  0.60941516662E-01 -0.18766068127E-02  0.61584540780E-01  0.51100000000E-03 0. -1.
</event>
<event>
 8    1  0.1123361E+005  0.1043930E+01  0.7957747E-01            NaN
         13   -1    0    0    0    0  0.00000000000E+00  0.00000000000E+00  0.74505805969E-08  0.10566000000E+00  0.10566000000E+00 0. -1.
     999900   -1    0    0    0    0 -0.00000000000E+00 -0.00000000000E+00 -0.74505805969E-08  0.93827000000E+00  0.93827000000E+00 0.  1.
     999902    2    1    2    0    0  0.74677210188E-02 -0.14158236342E-01  0.18485519948E-01  0.10194772504E+01  0.10191839516E+01 0.  0.
     999903    2    3    3    0    0  0.68610968679E-01  0.33198219505E-01  0.10550404567E+00  0.13180988342E+00  0.20812374055E-01 0.  0.
         14    1    1    2    0    0 -0.74677210188E-02  0.14158236342E-01 -0.18485519948E-01  0.24452749565E-01  0.00000000000E+00 0. -1.
     999901    1    3    3    0    0 -0.61143247660E-01 -0.47356455847E-01 -0.87018525719E-01  0.88766736701E+00  0.88000000000E+00 0.  1.
        -11    1    4    4    0    0  0.31715511637E-01  0.15597285820E-01  0.31894436321E-01  0.47609507376E-01  0.51100000000E-03 0.  1.
         11    1    4    4    0    0  0.36895457042E-01  0.17600933685E-01  0.73609609346E-01  0.84200376045E-01  0.51100000000E-03 0. -1.
</event>
<event>
 8    1  0.1123361E+005  0.1043930E+01  0.7957747E-01            NaN
         13   -1    0    0    0    0  0.00000000000E+00  0.00000000000E+00  0.74505805969E-08  0.10566000000E+00  0.10566000000E+00 0.  1.
     999900   -1    0    0    0    0 -0.00000000000E+00 -0.00000000000E+00 -0.74505805969E-08  0.93827000000E+00  0.93827000000E+00 0. -1.
     999902    2    1    2    0    0 -0.17194302335E-02  0.20873641874E-01  0.14975591096E-01  0.10181825012E+01  0.10178569016E+01 0.  0.
     999903    2    3    3    0    0  0.64126843258E-01  0.65507340553E-01  0.91838715661E-01  0.13125756712E+00  0.19767031614E-01 0.  0.
         14    1    1    2    0    0  0.17194302335E-02 -0.20873641874E-01 -0.14975591096E-01  0.25747498793E-01  0.00000000000E+00 0. -1.
     999901    1    3    3    0    0 -0.65846273492E-01 -0.44633698679E-01 -0.76863124566E-01  0.88692493409E+00  0.88000000000E+00 0. -1.
        -11    1    4    4    0    0  0.24205083041E-01  0.28238949142E-01  0.50698565655E-01  0.62880282872E-01  0.51100000000E-03 0. -1.
         11    1    4    4    0    0  0.39921760218E-01  0.37268391412E-01  0.41140150006E-01  0.68377284246E-01  0.51100000000E-03 0.  1.
</event>
<event>
 8    1  0.1123361E+005  0.1043930E+01  0.7957747E-01            NaN
         13   -1    0    0    0    0  0.00000000000E+00  0.00000000000E+00  0.74505805969E-08  0.10566000000E+00  0.10566000000E+00 0. -1.
     999900   -1    0    0    0    0 -0.00000000000E+00 -0.00000000000E+00 -0.74505805969E-08  0.93827000000E+00  0.93827000000E+00 0. -1.
     999902    2    1    2    0    0 -0.12863501122E-01  0.17910956836E-01 -0.98214974441E-02  0.10197901191E+01  0.10195043665E+01 0.  0.
     999903    2    3    3    0    0 -0.65288886324E-01  0.43048808639E-01  0.10271307389E+00  0.13072073920E+00  0.20545011720E-01 0.  0.
         14    1    1    2    0    0  0.12863501122E-01 -0.17910956836E-01  0.98214974441E-02  0.24139880860E-01  0.00000000000E+00 0.  1.
     999901    1    3    3    0    0  0.52425385203E-01 -0.25137851803E-01 -0.11253457133E+00  0.88906937994E+00  0.88000000000E+00 0. -1.
        -11    1    4    4    0    0 -0.22042342691E-01  0.25217401125E-01  0.50683565772E-01  0.60752507365E-01  0.51100000000E-03 0. -1.
         11    1    4    4    0    0 -0.43246543634E-01  0.17831407514E-01  0.52029508114E-01  0.69968231833E-01  0.51100000000E-03 0.  1.
</event>
<event>
 8    1  0.1123361E+005  0.1043930E+01  0.7957747E-01            NaN
         13   -1    0    0    0    0  0.00000000000E+00  0.00000000000E+00  0.74505805969E-08  0.10566000000E+00  0.10566000000E+00 0. -1.
     999900   -1    0    0    0    0 -0.00000000000E+00 -0.00000000000E+00 -0.74505805969E-08  0.93827000000E+00  0.93827000000E+00 0.  1.
     999902    2    1    2    0    0  0.20722423579E-01 -0.60621544679E-02 -0.30630121357E-01  0.10064550365E+01  0.10057571116E+01 0.  0.
     999903    2    3    3    0    0  0.85544121864E-01  0.42197898410E-01 -0.71617024717E-01  0.12180210369E+00  0.24663633492E-01 0.  0.
         14    1    1    2    0    0 -0.20722423579E-01  0.60621544679E-02  0.30630121357E-01  0.37474963511E-01  0.00000000000E+00 0.  1.
     999901    1    3    3    0    0 -0.64821698285E-01 -0.48260052877E-01  0.40986903361E-01  0.88465293280E+00  0.88000000000E+00 0. -1.
        -11    1    4    4    0    0  0.32100054354E-01  0.25188505273E-01 -0.19451025715E-01  0.45204842769E-01  0.51100000000E-03 0. -1.
         11    1    4    4    0    0  0.53444067510E-01  0.17009393137E-01 -0.52165999002E-01  0.76597260916E-01  0.51100000000E-03 0.  1.
</event>
<event>
 8    1  0.1123361E+005  0.1043930E+01  0.7957747E-01            NaN
         13   -1    0    0    0    0  0.00000000000E+00  0.00000000000E+00  0.74505805969E-08  0.10566000000E+00  0.10566000000E+00 0.  1.
     999900   -1    0    0    0    0 -0.00000000000E+00 -0.00000000000E+00 -0.74505805969E-08  0.93827000000E+00  0.93827000000E+00 0. -1.
     999902    2    1    2    0    0 -0.21999169357E-01 -0.17135039751E-02  0.81218073604E-02  0.10204169546E+01  0.10201460180E+01 0.  0.
     999903    2    3    3    0    0 -0.91383619338E-01  0.54687920663E-01  0.77471360221E-01  0.13317139499E+00  0.19775597065E-01 0.  0.
         14    1    1    2    0    0  0.21999169357E-01  0.17135039751E-02 -0.81218073604E-02  0.23513045380E-01  0.00000000000E+00 0. -1.
     999901    1    3    3    0    0  0.69384449982E-01 -0.56401424638E-01 -0.69349552861E-01  0.88724555963E+00  0.88000000000E+00 0. -1.
        -11    1    4    4    0    0 -0.83277397047E-01  0.43145984691E-01  0.71054171629E-01  0.11766757107E+00  0.51100000000E-03 0. -1.
         11    1    4    4    0    0 -0.81062222912E-02  0.11541935972E-01  0.64171885921E-02  0.15503823923E-01  0.51100000000E-03 0.  1.
</event>
<event>
 8    1  0.1123361E+005  0.1043930E+01  0.7957747E-01            NaN
         13   -1    0    0    0    0  0.00000000000E+00  0.00000000000E+00  0.74505805969E-08  0.10566000000E+00  0.10566000000E+00 0. -1.
     999900   -1    0    0    0    0 -0.00000000000E+00 -0.00000000000E+00 -0.74505805969E-08  0.93827000000E+00  0.93827000000E+00 0. -1.
     999902    2    1    2    0    0 -0.21968767215E-01  0.59634531087E-03  0.71664227639E-02  0.10208142051E+01  0.10205524491E+01 0.  0.
     999903    2    3    3    0    0  0.93312531611E-01 -0.72968650715E-02 -0.85679998574E-01  0.12841713055E+00  0.19733840675E-01 0.  0.
         14    1    1    2    0    0  0.21968767215E-01 -0.59634531087E-03 -0.71664227639E-02  0.23115794945E-01  0.00000000000E+00 0. -1.
     999901    1    3    3    0    0 -0.11528129883E+00  0.78932103824E-02  0.92846421338E-01  0.89239707450E+00  0.88000000000E+00 0.  1.
        -11    1    4    4    0    0  0.52519786661E-01 -0.43024469460E-02 -0.34883351266E-01  0.63197692657E-01  0.51100000000E-03 0.  1.
         11    1    4    4    0    0  0.40792744950E-01 -0.29944181255E-02 -0.50796647308E-01  0.65219437894E-01  0.51100000000E-03 0. -1.
</event>
<event>
 8    1  0.1123361E+005  0.1043930E+01  0.7957747E-01            NaN
         13   -1    0    0    0    0  0.00000000000E+00  0.00000000000E+00  0.74505805969E-08  0.10566000000E+00  0.10566000000E+00 0.  1.
     999900   -1    0    0    0    0 -0.00000000000E+00 -0.00000000000E+00 -0.74505805969E-08  0.93827000000E+00  0.93827000000E+00 0. -1.
     999902    2    1    2    0    0 -0.10070406589E-01 -0.20660391036E-01  0.47845499150E-03  0.10209410077E+01  0.10206821481E+01 0.  0.
     999903    2    3    3    0    0  0.75925901650E-01  0.13299356757E-01 -0.10276113407E+00  0.13009475710E+00  0.20571332432E-01 0.  0.
         14    1    1    2    0    0  0.10070406589E-01  0.20660391036E-01 -0.47845499150E-03  0.22988992275E-01  0.00000000000E+00 0.  1.
     999901    1    3    3    0    0 -0.85996308239E-01 -0.33959747793E-01  0.10323958906E+00  0.89084625062E+00  0.88000000000E+00 0.  1.
        -11    1    4    4    0    0  0.34312473724E-01 -0.41362466866E-02 -0.41466882864E-01  0.53983496415E-01  0.51100000000E-03 0.  1.
         11    1    4    4    0    0  0.41613427927E-01  0.17435603443E-01 -0.61294251207E-01  0.76111260686E-01  0.51100000000E-03 0. -1.
</event>
<event>
 8    1  0.1123361E+005  0.1043930E+01  0.7957747E-01            NaN
         13   -1    0    0    0    0  0.00000000000E+00  0.00000000000E+00  0.74505805969E-08  0.10566000000E+00  0.10566000000E+00 0. -1.
     999900   -1    0    0    0    0 -0.00000000000E+00 -0.00000000000E+00 -0.74505805969E-08  0.93827000000E+00  0.93827000000E+00 0. -1.
     999902    2    1    2    0    0 -0.21244686394E-01 -0.13511219593E-01 -0.40278997841E-03  0.10187496109E+01  0.10184383721E+01 0.  0.
     999903    2    3    3    0    0  0.11892176968E-01  0.12407921005E+00 -0.16034883698E-01  0.12730497416E+00  0.20306765160E-01 0.  0.
         14    1    1    2    0    0  0.21244686394E-01  0.13511219593E-01  0.40278997841E-03  0.25180389088E-01  0.00000000000E+00 0.  1.
     999901    1    3    3    0    0 -0.33136863362E-01 -0.13759042964E+00  0.15632093719E-01  0.89144463675E+00  0.88000000000E+00 0. -1.
        -11    1    4    4    0    0  0.99326117218E-02  0.10551903262E+00 -0.20862729635E-01  0.10802054263E+00  0.51100000000E-03 0. -1.
         11    1    4    4    0    0  0.19595652458E-02  0.18560177425E-01  0.48278459371E-02  0.19284431529E-01  0.51100000000E-03 0.  1.
</event>
<event>
 8    1  0.1123361E+005  0.1043930E+01  0.7957747E-01            NaN
         13   -1    0    0    0    0  0.00000000000E+00  0.00000000000E+00  0.74505805969E-08  0.10566000000E+00  0.10566000000E+00 0.  1.
     999900   -1    0    0    0    0 -0.00000000000E+00 -0.00000000000E+00 -0.74505805969E-08  0.93827000000E+00  0.93827000000E+00 0.  1.
     999902    2    1    2    0    0 -0.32964455344E-03  0.72383300410E-02  0.22422658263E-01  0.10203656691E+01  0.10200935354E+01 0.  0.
     999903    2    3    3    0    0 -0.61805488228E-02  0.24043719551E-02 -0.12618230352E+00  0.12787419300E+00  0.19643200512E-01 0.  0.
         14    1    1    2    0    0  0.32964455344E-03 -0.72383300410E-02 -0.22422658263E-01  0.23564330903E-01  0.00000000000E+00 0. -1.
     999901    1    3    3    0    0  0.58509042694E-02  0.48339580860E-02  0.14860496178E+00  0.89249147609E+00  0.88000000000E+00 0. -1.
        -11    1    4    4    0    0  0.18238444003E-02  0.51876690042E-02 -0.10362592191E+00  0.10377297881E+00  0.51100000000E-03 0.  1.
         11    1    4    4    0    0 -0.80043932231E-02 -0.27832970491E-02 -0.22556381614E-01  0.24101214199E-01  0.51100000000E-03 0. -1.
</event>
<event>
 8    1  0.1123361E+005  0.1043930E+01  0.7957747E-01            NaN
         13   -1    0    0    0    0  0.00000000000E+00  0.00000000000E+00  0.74505805969E-08  0.10566000000E+00  0.10566000000E+00 0. -1.
     999900   -1    0    0    0    0 -0.00000000000E+00 -0.00000000000E+00 -0.74505805969E-08  0.93827000000E+00  0.93827000000E+00 0.  1.
     999902    2    1    2    0    0 -0.21913558294E-01 -0.77534746246E-02 -0.10820894013E-01  0.10182899502E+01  0.10179670970E+01 0.  0.
     999903    2    3    3    0    0  0.12220545317E+00  0.42849456313E-02 -0.24271798181E-01  0.12638404719E+00  0.20767129141E-01 0.  0.
         14    1    1    2    0    0  0.21913558294E-01  0.77534746246E-02  0.10820894013E-01  0.25640049787E-01  0.00000000000E+00 0.  1.
     999901    1    3    3    0    0 -0.14411901147E+00 -0.12038420256E-01  0.13450904167E-01  0.89190590303E+00  0.88000000000E+00 0. -1.
        -11    1    4    4    0    0  0.10626576107E+00 -0.24350814472E-02 -0.24478042532E-01  0.10907693287E+00  0.51100000000E-03 0.  1.
         11    1    4    4    0    0  0.15939692101E-01  0.67200270785E-02  0.20624435176E-03  0.17307114316E-01  0.51100000000E-03 0. -1.
</event>
<event>
 8    1  0.1123361E+005  0.1043930E+01  0.7957747E-01            NaN
         13   -1    0    0    0    0  0.00000000000E+00  0.00000000000E+00  0.74505805969E-08  0.10566000000E+00  0.10566000000E+00 0. -1.
     999900   -1    0    0    0    0 -0.00000000000E+00 -0.00000000000E+00 -0.74505805969E-08  0.93827000000E+00  0.93827000000E+00 0. -1.
     999902    2    1    2    0    0 -0.17169969577E-01 -0.47810722725E-03  0.15431290967E-01  0.10208397167E+01  0.10205785448E+01 0.  0.
     999903    2    3    3    0    0  0.81674329436E-02  0.33556044480E-01  0.12674270712E+00  0.13281351280E+00  0.19570393298E-01 0.  0.
         14    1    1    2    0    0  0.17169969577E-01  0.47810722725E-03 -0.15431290967E-01  0.23090283297E-01  0.00000000000E+00 0.  1.
     999901    1    3    3    0    0 -0.25337402521E-01 -0.34034151707E-01 -0.11131141615E+00  0.88802620390E+00  0.88000000000E+00 0. -1.
        -11    1    4    4    0    0  0.99434731262E-02  0.33373920342E-01  0.97886962741E-01  0.10389807415E+00  0.51100000000E-03 0.  1.
         11    1    4    4    0    0 -0.17760401825E-02  0.18212413832E-03  0.28855744375E-01  0.28915438651E-01  0.51100000000E-03 0. -1.
</event>
<event>
 8    1  0.1123361E+005  0.1043930E+01  0.7957747E-01            NaN
         13   -1    0    0    0    0  0.00000000000E+00  0.00000000000E+00  0.74505805969E-08  0.10566000000E+00  0.10566000000E+00 0. -1.
     999900   -1    0    0    0    0 -0.00000000000E+00 -0.00000000000E+00 -0.74505805969E-08  0.93827000000E+00  0.93827000000E+00 0.  1.
     999902    2    1    2    0    0 -0.21474005482E-01 -0.89044909592E-02 -0.74554893824E-03  0.10206710509E+01  0.10204060052E+01 0.  0.
     999903    2    3    3    0    0 -0.93527957016E-01 -0.38714735555E-01  0.84192900924E-01  0.13314924108E+00  0.19848585381E-01 0.  0.
         14    1    1    2    0    0  0.21474005482E-01  0.89044909592E-02  0.74554893824E-03  0.23258949115E-01  0.00000000000E+00 0. -1.
     999901    1    3    3    0    0  0.72053951534E-01  0.29810244596E-01 -0.84938449862E-01  0.88752180980E+00  0.88000000000E+00 0.  1.
        -11    1    4    4    0    0 -0.29355555295E-01 -0.60061635367E-02  0.34192445559E-01  0.45466549038E-01  0.51100000000E-03 0. -1.
         11    1    4    4    0    0 -0.64172401721E-01 -0.32708572019E-01  0.50000455365E-01  0.87682692042E-01  0.51100000000E-03 0.  1.
</event>
<event>
 8    1  0.1123361E+005  0.1043930E+01  0.7957747E-01            NaN
         13   -1    0    0    0    0  0.00000000000E+00  0.00000000000E+00  0.74505805969E-08  0.10566000000E+00  0.10566000000E+00 0.  1.
     999900   -1    0    0    0    0 -0.00000000000E+00 -0.00000000000E+00 -0.74505805969E-08  0.93827000000E+00  0.93827000000E+00 0.  1.
     999902    2    1    2    0    0 -0.13685721331E-01  0.16173543487E-01  0.10440549801E-01  0.10203103565E+01  0.10200369288E+01 0.  0.
     999903    2    3    3    0    0  0.55996471142E-02 -0.78200200986E-01  0.10192646369E+00  0.13033956964E+00  0.21278438198E-01 0.  0.
         14    1    1    2    0    0  0.13685721331E-01 -0.16173543487E-01 -0.10440549801E-01  0.23619643465E-01  0.00000000000E+00 0. -1.
     999901    1    3    3    0    0 -0.19285368445E-01  0.94373744473E-01 -0.91485913890E-01  0.88997078689E+00  0.88000000000E+00 0. -1.
        -11    1    4    4    0    0  0.46662499629E-02 -0.53797951762E-01  0.84699430432E-01  0.10045022717E+00  0.51100000000E-03 0. -1.
         11    1    4    4    0    0  0.93339715136E-03 -0.24402249223E-01  0.17227033259E-01  0.29889342470E-01  0.51100000000E-03 0.  1.
</event>
<event>
 8    1  0.1123361E+005  0.1043930E+01  0.7957747E-01            NaN
         13   -1    0    0    0    0  0.00000000000E+00  0.00000000000E+00  0.74505805969E-08  0.10566000000E+00  0.10566000000E+00 0.  1.
     999900   -1    0    0    0    0 -0.00000000000E+00 -0.00000000000E+00 -0.74505805969E-08  0.93827000000E+00  0.93827000000E+00 0.  1.
     999902    2    1    2    0    0  0.83192327630E-02 -0.10009066410E-01 -0.20296018305E-01  0.10198194338E+01  0.10195343830E+01 0.  0.
     999903    2    3    3    0    0 -0.10122124979E+00  0.28615393946E-02 -0.80599671120E-01  0.13088675897E+00  0.19521958694E-01 0.  0.
         14    1    1    2    0    0 -0.83192327630E-02  0.10009066410E-01  0.20296018305E-01  0.24110566215E-01  0.00000000000E+00 0.  1.
     999901    1    3    3    0    0  0.10954048256E+00 -0.12870605805E-01  0.60303652815E-01  0.88893267482E+00  0.88000000000E+00 0. -1.
        -11    1    4    4    0    0 -0.75175944369E-01  0.43353867867E-02 -0.48712099864E-01  0.89684714330E-01  0.51100000000E-03 0. -1.
         11    1    4    4    0    0 -0.26045305425E-01 -0.14738473921E-02 -0.31887571256E-01  0.41202044639E-01  0.51100000000E-03 0.  1.
</event>
<event>
 8    1  0.1123361E+005  0.1043930E+01  0.7957747E-01            NaN
         13   -1    0    0    0    0  0.00000000000E+00  0.00000000000E+00  0.74505805969E-08  0.10566000000E+00  0.10566000000E+00 0. -1.
     999900   -1    0    0    0    0 -0.00000000000E+00 -0.00000000000E+00 -0.74505805969E-08  0.93827000000E+00  0.93827000000E+00 0.  1.
     999902    2    1    2    0    0  0.18081710041E-01 -0.13772126704E-01  0.91016478866E-02  0.10194461338E+01  0.10191520789E+01 0.  0.
     999903    2    3    3    0    0 -0.37635323711E-01  0.18800278192E-01 -0.11903667525E+00  0.12782694415E+00  0.20003238396E-01 0.  0.
         14    1    1    2    0    0 -0.18081710041E-01  0.13772126704E-01 -0.91016478866E-02  0.24483866243E-01  0.00000000000E+00 0.  1.
     999901    1    3    3    0    0  0.55717033752E-01 -0.32572404896E-01  0.12813832314E+00  0.89161918960E+00  0.88000000000E+00 0. -1.
        -11    1    4    4    0    0 -0.27364566322E-01  0.22376138962E-01 -0.97140290680E-01  0.10337315067E+00  0.51100000000E-03 0.  1.
         11    1    4    4    0    0 -0.10270757388E-01 -0.35758607700E-02 -0.21896384570E-01  0.24453793486E-01  0.51100000000E-03 0. -1.
</event>
<event>
 8    1  0.1123361E+005  0.1043930E+01  0.7957747E-01            NaN
         13   -1    0    0    0    0  0.00000000000E+00  0.00000000000E+00  0.74505805969E-08  0.10566000000E+00  0.10566000000E+00 0.  1.
     999900   -1    0    0    0    0 -0.00000000000E+00 -0.00000000000E+00 -0.74505805969E-08  0.93827000000E+00  0.93827000000E+00 0.  1.
     999902    2    1    2    0    0 -0.12453556238E-01  0.19661025924E-01 -0.59260736066E-02  0.10199140605E+01  0.10196312693E+01 0.  0.
     999903    2    3    3    0    0  0.51002705316E-01  0.69863764444E-01 -0.97085227749E-01  0.13151268526E+00  0.19693232461E-01 0.  0.
         14    1    1    2    0    0  0.12453556238E-01 -0.19661025924E-01  0.59260736066E-02  0.24015939536E-01  0.00000000000E+00 0.  1.
     999901    1    3    3    0    0 -0.63456261554E-01 -0.50202738520E-01  0.91159154143E-01  0.88840137521E+00  0.88000000000E+00 0. -1.
        -11    1    4    4    0    0  0.51486190445E-01  0.62165734147E-01 -0.85484375399E-01  0.11757230059E+00  0.51100000000E-03 0.  1.
         11    1    4    4    0    0 -0.48348512919E-03  0.76980302972E-02 -0.11600852350E-01  0.13940384664E-01  0.51100000000E-03 0. -1.
</event>
<event>
 7    1  0.1284229E+005  0.1043930E+01  0.7957747E-01            NaN
         13   -1    0    0    0    0  0.00000000000E+00  0.00000000000E+00  0.74505805969E-08  0.10566000000E+00  0.10566000000E+00 0. -1.
     999900   -1    0    0    0    0 -0.00000000000E+00 -0.00000000000E+00 -0.74505805969E-08  0.93827000000E+00  0.93827000000E+00 0. -1.
     999903    2    1    2    0    0 -0.56419242167E-02  0.99311731063E-01 -0.34300907017E-01  0.10723288588E+00  0.20680627554E-01 0.  0.
         14    1    1    2    0    0 -0.37374018234E-01  0.23426687109E-01 -0.12688491746E-01  0.45897981771E-01  0.00000000000E+00 0. -1.
     999901    1    1    2    0    0  0.43015942450E-01 -0.12273841817E+00  0.46989398763E-01  0.89079913235E+00  0.88000000000E+00 0.  1.
        -11    1    3    3    0    0  0.41264980799E-02  0.69844285685E-01 -0.18387216615E-01  0.72343645782E-01  0.51100000000E-03 0.  1.
         11    1    3    3    0    0 -0.97684222966E-02  0.29467445379E-01 -0.15913690402E-01  0.34889240097E-01  0.51100000000E-03 0. -1.
</event>
<event>
 8    1  0.1123361E+005  0.1043930E+01  0.7957747E-01            NaN
         13   -1    0    0    0    0  0.00000000000E+00  0.00000000000E+00  0.74505805969E-08  0.10566000000E+00  0.10566000000E+00 0. -1.
     999900   -1    0    0    0    0 -0.00000000000E+00 -0.00000000000E+00 -0.74505805969E-08  0.93827000000E+00  0.93827000000E+00 0. -1.
     999902    2    1    2    0    0 -0.74081966202E-02  0.22208012799E-02 -0.25821665628E-01  0.10169750051E+01  0.10166177203E+01 0.  0.
     999903    2    3    3    0    0  0.11173530962E-01  0.54096622042E-01 -0.11627053520E+00  0.13062440888E+00  0.22194741020E-01 0.  0.
         14    1    1    2    0    0  0.74081966202E-02 -0.22208012799E-02  0.25821665628E-01  0.26954994923E-01  0.00000000000E+00 0. -1.
     999901    1    3    3    0    0 -0.18581727583E-01 -0.51875820762E-01  0.90448869568E-01  0.88635059620E+00  0.88000000000E+00 0.  1.
        -11    1    4    4    0    0 -0.18754070382E-02 -0.11886560345E-02 -0.84840368326E-02  0.87846489232E-02  0.51100000000E-03 0. -1.
         11    1    4    4    0    0  0.13048938001E-01  0.55285278076E-01 -0.10778649836E+00  0.12183975995E+00  0.51100000000E-03 0.  1.
</event>
<event>
 8    1  0.1123361E+005  0.1043930E+01  0.7957747E-01            NaN
         13   -1    0    0    0    0  0.00000000000E+00  0.00000000000E+00  0.74505805969E-08  0.10566000000E+00  0.10566000000E+00 0. -1.
     999900   -1    0    0    0    0 -0.00000000000E+00 -0.00000000000E+00 -0.74505805969E-08  0.93827000000E+00  0.93827000000E+00 0. -1.
     999902    2    1    2    0    0  0.16341214182E-01  0.16819489752E-01  0.35540867501E-02  0.10202116095E+01  0.10199358637E+01 0.  0.
     999903    2    3    3    0    0 -0.15808933277E-01 -0.15448068094E-01 -0.12609455439E+00  0.12954691532E+00  0.19849469604E-01 0.  0.
         14    1    1    2    0    0 -0.16341214182E-01 -0.16819489752E-01 -0.35540867501E-02  0.23718390525E-01  0.00000000000E+00 0.  1.
     999901    1    3    3    0    0  0.32150147458E-01  0.32267557846E-01  0.12964864114E+00  0.89066469416E+00  0.88000000000E+00 0.  1.
        -11    1    4    4    0    0 -0.71746312027E-02 -0.18689343388E-01 -0.96013506435E-01  0.98079668781E-01  0.51100000000E-03 0.  1.
         11    1    4    4    0    0 -0.86343020741E-02  0.32412752944E-02 -0.30081047950E-01  0.31467246537E-01  0.51100000000E-03 0. -1.
</event>
<event>
 8    1  0.1123361E+005  0.1043930E+01  0.7957747E-01            NaN
         13   -1    0    0    0    0  0.00000000000E+00  0.00000000000E+00  0.74505805969E-08  0.10566000000E+00  0.10566000000E+00 0.  1.
     999900   -1    0    0    0    0 -0.00000000000E+00 -0.00000000000E+00 -0.74505805969E-08  0.93827000000E+00  0.93827000000E+00 0.  1.
     999902    2    1    2    0    0  0.19186767034E-01  0.44650753799E-02 -0.13182234315E-01  0.10202268308E+01  0.10199514430E+01 0.  0.
     999903    2    3    3    0    0  0.54722651946E-01 -0.24948947139E-01  0.11331344942E+00  0.12998577255E+00  0.20960549798E-01 0.  0.
         14    1    1    2    0    0 -0.19186767034E-01 -0.44650753799E-02  0.13182234315E-01  0.23703169174E-01  0.00000000000E+00 0.  1.
     999901    1    3    3    0    0 -0.35535884913E-01  0.29414022519E-01 -0.12649568373E+00  0.89024105828E+00  0.88000000000E+00 0.  1.
        -11    1    4    4    0    0  0.41622002187E-01 -0.28077258845E-01  0.89696292557E-01  0.10279304232E+00  0.51100000000E-03 0. -1.
         11    1    4    4    0    0  0.13100649759E-01  0.31283117053E-02  0.23617156858E-01  0.27192730229E-01  0.51100000000E-03 0.  1.
</event>
<event>
 8    1  0.1123361E+005  0.1043930E+01  0.7957747E-01            NaN
         13   -1    0    0    0    0  0.00000000000E+00  0.00000000000E+00  0.74505805969E-08  0.10566000000E+00  0.10566000000E+00 0. -1.
     999900   -1    0    0    0    0 -0.00000000000E+00 -0.00000000000E+00 -0.74505805969E-08  0.93827000000E+00  0.93827000000E+00 0. -1.
     999902    2    1    2    0    0  0.21280308258E-01  0.10451684747E-01  0.45067702331E-02  0.10197970306E+01  0.10195114435E+01 0.  0.
     999903    2    3    3    0    0 -0.90881120421E-01 -0.63955448308E-01  0.60020125464E-01  0.12783383622E+00  0.19733139776E-01 0.  0.
         14    1    1    2    0    0 -0.21280308258E-01 -0.10451684747E-01 -0.45067702331E-02  0.24132969389E-01  0.00000000000E+00 0.  1.
     999901    1    3    3    0    0  0.11216142868E+00  0.74407133055E-01 -0.55513355231E-01  0.89196319439E+00  0.88000000000E+00 0. -1.
        -11    1    4    4    0    0 -0.28894744322E-01 -0.29125576218E-01  0.29080674091E-01  0.50290676731E-01  0.51100000000E-03 0. -1.
         11    1    4    4    0    0 -0.61986376099E-01 -0.34829872091E-01  0.30939451373E-01  0.77543159492E-01  0.51100000000E-03 0.  1.
</event>
<event>
 8    1  0.1123361E+005  0.1043930E+01  0.7957747E-01            NaN
         13   -1    0    0    0    0  0.00000000000E+00  0.00000000000E+00  0.74505805969E-08  0.10566000000E+00  0.10566000000E+00 0. -1.
     999900   -1    0    0    0    0 -0.00000000000E+00 -0.00000000000E+00 -0.74505805969E-08  0.93827000000E+00  0.93827000000E+00 0. -1.
     999902    2    1    2    0    0  0.20923324482E-01 -0.37376499937E-02 -0.89299727654E-02  0.10208757174E+01  0.10206153685E+01 0.  0.
     999903    2    3    3    0    0 -0.11884092563E+00 -0.22610030364E-01  0.38413998466E-01  0.12838949115E+00  0.19335125618E-01 0.  0.
         14    1    1    2    0    0 -0.20923324482E-01  0.37376499937E-02  0.89299727654E-02  0.23054282649E-01  0.00000000000E+00 0. -1.
     999901    1    3    3    0    0  0.13976425011E+00  0.18872380370E-01 -0.47343971232E-01  0.89248622620E+00  0.88000000000E+00 0. -1.
        -11    1    4    4    0    0 -0.10319301226E+00 -0.18998160344E-01  0.26045208192E-01  0.10811263509E+00  0.51100000000E-03 0.  1.
         11    1    4    4    0    0 -0.15647913371E-01 -0.36118700199E-02  0.12368790274E-01  0.20276856062E-01  0.51100000000E-03 0. -1.
</event>
<event>
 8    1  0.1123361E+005  0.1043930E+01  0.7957747E-01            NaN
         13   -1    0    0    0    0  0.00000000000E+00  0.00000000000E+00  0.74505805969E-08  0.10566000000E+00  0.10566000000E+00 0.  1.
     999900   -1    0    0    0    0 -0.00000000000E+00 -0.00000000000E+00 -0.74505805969E-08  0.93827000000E+00  0.93827000000E+00 0.  1.
     999902    2    1    2    0    0  0.59897322279E-03  0.15865001282E-01  0.17082663833E-01  0.10206088843E+01  0.10203424034E+01 0.  0.
     999903    2    3    3    0    0  0.40777707388E-01  0.10728937391E+00 -0.60847060125E-01  0.13153870232E+00  0.20645442768E-01 0.  0.
         14    1    1    2    0    0 -0.59897322279E-03 -0.15865001282E-01 -0.17082663833E-01  0.23321115716E-01  0.00000000000E+00 0. -1.
     999901    1    3    3    0    0 -0.40178734165E-01 -0.91424372629E-01  0.77929723959E-01  0.88907018197E+00  0.88000000000E+00 0. -1.
        -11    1    4    4    0    0  0.25764780854E-01  0.86207567957E-01 -0.53282865395E-01  0.10457004146E+00  0.51100000000E-03 0. -1.
         11    1    4    4    0    0  0.15012926534E-01  0.21081805953E-01 -0.75641947306E-02  0.26968660854E-01  0.51100000000E-03 0.  1.
</event>
<event>
 8    1  0.1123361E+005  0.1043930E+01  0.7957747E-01            NaN
         13   -1    0    0    0    0  0.00000000000E+00  0.00000000000E+00  0.74505805969E-08  0.10566000000E+00  0.10566000000E+00 0.  1.
     999900   -1    0    0    0    0 -0.00000000000E+00 -0.00000000000E+00 -0.74505805969E-08  0.93827000000E+00  0.93827000000E+00 0. -1.
     999902    2    1    2    0    0  0.20116341656E-01  0.59976099691E-02  0.10301195959E-01  0.10205472464E+01  0.10202793387E+01 0.  0.
     999903    2    3    3    0    0 -0.23289661436E-01  0.45180222987E-01  0.11999933630E+00  0.13181047984E+00  0.19761098274E-01 0.  0.
         14    1    1    2    0    0 -0.20116341656E-01 -0.59976099691E-02 -0.10301195959E-01  0.23382753584E-01  0.00000000000E+00 0. -1.
     999901    1    3    3    0    0  0.43406003092E-01 -0.39182613018E-01 -0.10969814034E+00  0.88873676657E+00  0.88000000000E+00 0. -1.
        -11    1    4    4    0    0 -0.25026152492E-01  0.30400797838E-01  0.81001799973E-01  0.90067028027E-01  0.51100000000E-03 0. -1.
         11    1    4    4    0    0  0.17364910562E-02  0.14779425149E-01  0.38997536325E-01  0.41743451814E-01  0.51100000000E-03 0.  1.
</event>
<event>
 8    1  0.1123361E+005  0.1043930E+01  0.7957747E-01            NaN
         13   -1    0    0    0    0  0.00000000000E+00  0.00000000000E+00  0.74505805969E-08  0.10566000000E+00  0.10566000000E+00 0.  1.
     999900   -1    0    0    0    0 -0.00000000000E+00 -0.00000000000E+00 -0.74505805969E-08  0.93827000000E+00  0.93827000000E+00 0. -1.
     999902    2    1    2    0    0  0.94423836161E-02 -0.15457706547E-02  0.22459434945E-01  0.10195174165E+01  0.10192250921E+01 0.  0.
     999903    2    3    3    0    0  0.97862824512E-01  0.58659186089E-01  0.63370496375E-01  0.13209613766E+00  0.20384730555E-01 0.  0.
         14    1    1    2    0    0 -0.94423836161E-02  0.15457706547E-02 -0.22459434945E-01  0.24412583503E-01  0.00000000000E+00 0. -1.
     999901    1    3    3    0    0 -0.88420440896E-01 -0.60204956744E-01 -0.40911061431E-01  0.88742127884E+00  0.88000000000E+00 0.  1.
        -11    1    4    4    0    0  0.30217731967E-01  0.27861488377E-01  0.28334543357E-01  0.49924756665E-01  0.51100000000E-03 0. -1.
         11    1    4    4    0    0  0.67645092544E-01  0.30797697712E-01  0.35035953018E-01  0.82171380995E-01  0.51100000000E-03 0.  1.
</event>
<event>
 8    1  0.1123361E+005  0.1043930E+01  0.7957747E-01            NaN
         13   -1    0    0    0    0  0.00000000000E+00  0.00000000000E+00  0.74505805969E-08  0.10566000000E+00  0.10566000000E+00 0. -1.
     999900   -1    0    0    0    0 -0.00000000000E+00 -0.00000000000E+00 -0.74505805969E-08  0.93827000000E+00  0.93827000000E+00 0. -1.
     999902    2    1    2    0    0 -0.24364175456E-01 -0.17001288484E-02  0.90019996981E-03  0.10194899950E+01  0.10191970055E+01 0.  0.
     999903    2    3    3    0    0  0.52348341362E-01  0.80015818231E-01  0.83486670390E-01  0.12854508575E+00  0.20271529976E-01 0.  0.
         14    1    1    2    0    0  0.24364175456E-01  0.17001288484E-02 -0.90019996981E-03  0.24440004986E-01  0.00000000000E+00 0.  1.
     999901    1    3    3    0    0 -0.76712516818E-01 -0.81715947080E-01 -0.82586470420E-01  0.89094490926E+00  0.88000000000E+00 0. -1.
        -11    1    4    4    0    0  0.12748238207E-01  0.31181714568E-01  0.19934550668E-01  0.39146702698E-01  0.51100000000E-03 0. -1.
         11    1    4    4    0    0  0.39600103156E-01  0.48834103663E-01  0.63552119722E-01  0.89398383054E-01  0.51100000000E-03 0.  1.
</event>
<event>
 8    1  0.1123361E+005  0.1043930E+01  0.7957747E-01            NaN
         13   -1    0    0    0    0  0.00000000000E+00  0.00000000000E+00  0.74505805969E-08  0.10566000000E+00  0.10566000000E+00 0.  1.
     999900   -1    0    0    0    0 -0.00000000000E+00 -0.00000000000E+00 -0.74505805969E-08  0.93827000000E+00  0.93827000000E+00 0.  1.
     999902    2    1    2    0    0  0.52083994275E-02 -0.48479857792E-02  0.21044325642E-01  0.10217152744E+01  0.10214737432E+01 0.  0.
     999903    2    3    3    0    0  0.80305006468E-01 -0.10489811715E-01 -0.99990220296E-01  0.13024419138E+00  0.20163705517E-01 0.  0.
         14    1    1    2    0    0 -0.52083994275E-02  0.48479857792E-02 -0.21044325642E-01  0.22214725577E-01  0.00000000000E+00 0. -1.
     999901    1    3    3    0    0 -0.75096607040E-01  0.56418259357E-02  0.12103454594E+00  0.89147108304E+00  0.88000000000E+00 0. -1.
        -11    1    4    4    0    0  0.40666296162E-01 -0.11420192629E-01 -0.38974501519E-01  0.57475571618E-01  0.51100000000E-03 0.  1.
         11    1    4    4    0    0  0.39638710306E-01  0.93038091403E-03 -0.61015718777E-01  0.72768619764E-01  0.51100000000E-03 0. -1.
</event>
<event>
 8    1  0.1123361E+005  0.1043930E+01  0.7957747E-01            NaN
         13   -1    0    0    0    0  0.00000000000E+00  0.00000000000E+00  0.74505805969E-08  0.10566000000E+00  0.10566000000E+00 0.  1.
     999900   -1    0    0    0    0 -0.00000000000E+00 -0.00000000000E+00 -0.74505805969E-08  0.93827000000E+00  0.93827000000E+00 0. -1.
     999902    2    1    2    0    0 -0.78212666111E-02 -0.47065356921E-02 -0.22092491407E-01  0.10200259864E+01  0.10197458561E+01 0.  0.
     999903    2    3    3    0    0  0.45774696717E-01  0.10568137040E+00 -0.58605319920E-01  0.13076156918E+00  0.20003238285E-01 0.  0.
         14    1    1    2    0    0  0.78212666111E-02  0.47065356921E-02  0.22092491407E-01  0.23904013600E-01  0.00000000000E+00 0.  1.
     999901    1    3    3    0    0 -0.53595963328E-01 -0.11038790609E+00  0.36512828513E-01  0.88926441722E+00  0.88000000000E+00 0.  1.
        -11    1    4    4    0    0  0.31759871600E-01  0.48218549449E-01 -0.28472810586E-01  0.64379189329E-01  0.51100000000E-03 0.  1.
         11    1    4    4    0    0  0.14014825118E-01  0.57462820948E-01 -0.30132509334E-01  0.66382379847E-01  0.51100000000E-03 0. -1.
</event>
<event>
 8    1  0.1123361E+005  0.1043930E+01  0.7957747E-01            NaN
         13   -1    0    0    0    0  0.00000000000E+00  0.00000000000E+00  0.74505805969E-08  0.10566000000E+00  0.10566000000E+00 0.  1.
     999900   -1    0    0    0    0 -0.00000000000E+00 -0.00000000000E+00 -0.74505805969E-08  0.93827000000E+00  0.93827000000E+00 0.  1.
     999902    2    1    2    0    0 -0.11278726368E-01  0.20578687234E-01 -0.16993577526E-02  0.10204017223E+01  0.10201304304E+01 0.  0.
     999903    2    3    3    0    0  0.12387053528E+00 -0.25141468969E-01  0.14125200871E-01  0.12877059210E+00  0.20157904593E-01 0.  0.
         14    1    1    2    0    0  0.11278726368E-01 -0.20578687234E-01  0.16993577526E-02  0.23528277742E-01  0.00000000000E+00 0.  1.
     999901    1    3    3    0    0 -0.13514926165E+00  0.45720156203E-01 -0.15824558623E-01  0.89163113016E+00  0.88000000000E+00 0.  1.
        -11    1    4    4    0    0  0.85523168163E-01 -0.84178337002E-02  0.59733084740E-02  0.86145306035E-01  0.51100000000E-03 0. -1.
         11    1    4    4    0    0  0.38347367120E-01 -0.16723635269E-01  0.81518923968E-02  0.42625286066E-01  0.51100000000E-03 0.  1.
</event>
<event>
 8    1  0.1123361E+005  0.1043930E+01  0.7957747E-01            NaN
         13   -1    0    0    0    0  0.00000000000E+00  0.00000000000E+00  0.74505805969E-08  0.10566000000E+00  0.10566000000E+00 0. -1.
     999900   -1    0    0    0    0 -0.00000000000E+00 -0.00000000000E+00 -0.74505805969E-08  0.93827000000E+00  0.93827000000E+00 0. -1.
     999902    2    1    2    0    0 -0.24605428102E-02  0.18780642697E-01 -0.51434615318E-02  0.10243029267E+01  0.10241148683E+01 0.  0.
     999903    2    3    3    0    0 -0.93921624152E-01  0.96333188991E-01  0.47215877639E-02  0.13611553313E+00  0.20094531214E-01 0.  0.
         14    1    1    2    0    0  0.24605428102E-02 -0.18780642697E-01  0.51434615318E-02  0.19627073331E-01  0.00000000000E+00 0. -1.
     999901    1    3    3    0    0  0.91461081342E-01 -0.77552546294E-01 -0.98650492957E-02  0.88818739354E+00  0.88000000000E+00 0.  1.
        -11    1    4    4    0    0 -0.48666705032E-01  0.37506091807E-01 -0.28358954953E-02  0.61509824626E-01  0.51100000000E-03 0. -1.
         11    1    4    4    0    0 -0.45254919121E-01  0.58827097184E-01  0.75574832592E-02  0.74605708507E-01  0.51100000000E-03 0.  1.
</event>
<event>
 8    1  0.1123361E+005  0.1043930E+01  0.7957747E-01            NaN
         13   -1    0    0    0    0  0.00000000000E+00  0.00000000000E+00  0.74505805969E-08  0.10566000000E+00  0.10566000000E+00 0.  1.
     999900   -1    0    0    0    0 -0.00000000000E+00 -0.00000000000E+00 -0.74505805969E-08  0.93827000000E+00  0.93827000000E+00 0. -1.
     999902    2    1    2    0    0 -0.19285582772E-01  0.13620969772E-01  0.72422636189E-02  0.10192335447E+01  0.10189342981E+01 0.  0.
     999903    2    3    3    0    0  0.11255115621E+00 -0.44074969648E-01 -0.32453048332E-01  0.12666115834E+00  0.19480322687E-01 0.  0.
         14    1    1    2    0    0  0.19285582772E-01 -0.13620969772E-01 -0.72422636189E-02  0.24696455266E-01  0.00000000000E+00 0. -1.
     999901    1    3    3    0    0 -0.13183673898E+00  0.57695939420E-01  0.39695311951E-01  0.89257238640E+00  0.88000000000E+00 0.  1.
        -11    1    4    4    0    0  0.56275225658E-01 -0.19747904388E-01 -0.25824994352E-01  0.64992862723E-01  0.51100000000E-03 0. -1.
         11    1    4    4    0    0  0.56275930548E-01 -0.24327065260E-01 -0.66280539801E-02  0.61668295613E-01  0.51100000000E-03 0.  1.
</event>
<event>
 8    1  0.1123361E+005  0.1043930E+01  0.7957747E-01            NaN
         13   -1    0    0    0    0  0.00000000000E+00  0.00000000000E+00  0.74505805969E-08  0.10566000000E+00  0.10566000000E+00 0. -1.
     999900   -1    0    0    0    0 -0.00000000000E+00 -0.00000000000E+00 -0.74505805969E-08  0.93827000000E+00  0.93827000000E+00 0. -1.
     999902    2    1    2    0    0 -0.53626492689E-02  0.13914730229E-01  0.18440568574E-01  0.10202143450E+01  0.10199386635E+01 0.  0.
     999903    2    3    3    0    0 -0.21457670815E-01 -0.11565735445E+00  0.52167330070E-01  0.12994165118E+00  0.18065079861E-01 0.  0.
         14    1    1    2    0    0  0.53626492689E-02 -0.13914730229E-01 -0.18440568574E-01  0.23715655037E-01  0.00000000000E+00 0.  1.
     999901    1    3    3    0    0  0.16095021546E-01  0.12957208468E+00 -0.33726761496E-01  0.89027269378E+00  0.88000000000E+00 0.  1.
        -11    1    4    4    0    0 -0.13091568222E-01 -0.97191546650E-01  0.48211670746E-01  0.10928042924E+00  0.51100000000E-03 0. -1.
         11    1    4    4    0    0 -0.83661025930E-02 -0.18465807802E-01  0.39556593232E-02  0.20661221940E-01  0.51100000000E-03 0.  1.
</event>
<event>
 8    1  0.1123361E+005  0.1043930E+01  0.7957747E-01            NaN
         13   -1    0    0    0    0  0.00000000000E+00  0.00000000000E+00  0.74505805969E-08  0.10566000000E+00  0.10566000000E+00 0.  1.
     999900   -1    0    0    0    0 -0.00000000000E+00 -0.00000000000E+00 -0.74505805969E-08  0.93827000000E+00  0.93827000000E+00 0.  1.
     999902    2    1    2    0    0 -0.17886857118E-01  0.11404294135E-01 -0.66032898847E-02  0.10217128665E+01  0.10214712823E+01 0.  0.
     999903    2    3    3    0    0  0.10296121127E+00 -0.22188055950E-01 -0.73856433472E-01  0.13027824361E+00  0.20599202447E-01 0.  0.
         14    1    1    2    0    0  0.17886857118E-01 -0.11404294135E-01  0.66032898847E-02  0.22217133469E-01  0.00000000000E+00 0.  1.
     999901    1    3    3    0    0 -0.12084806838E+00  0.33592350085E-01  0.67253143587E-01  0.89143462292E+00  0.88000000000E+00 0. -1.
        -11    1    4    4    0    0  0.39703198104E-01 -0.46844838014E-02 -0.17022251463E-01  0.43454648704E-01  0.51100000000E-03 0.  1.
         11    1    4    4    0    0  0.63258013162E-01 -0.17503572149E-01 -0.56834182009E-01  0.86823594908E-01  0.51100000000E-03 0. -1.
</event>
<event>
 8    1  0.1123361E+005  0.1043930E+01  0.7957747E-01            NaN
         13   -1    0    0    0    0  0.00000000000E+00  0.00000000000E+00  0.74505805969E-08  0.10566000000E+00  0.10566000000E+00 0. -1.
     999900   -1    0    0    0    0 -0.00000000000E+00 -0.00000000000E+00 -0.74505805969E-08  0.93827000000E+00  0.93827000000E+00 0.  1.
     999902    2    1    2    0    0  0.21116822439E-01 -0.19714512720E-02 -0.11212361698E-01  0.10199399215E+01  0.10196577463E+01 0.  0.
     999903    2    3    3    0    0  0.12670238223E+00 -0.26112411378E-01  0.22014695335E-01  0.13267720187E+00  0.19576552161E-01 0.  0.
         14    1    1    2    0    0 -0.21116822439E-01  0.19714512720E-02  0.11212361698E-01  0.23990078467E-01  0.00000000000E+00 0. -1.
     999901    1    3    3    0    0 -0.10558555979E+00  0.24140960106E-01 -0.33227057033E-01  0.88726271967E+00  0.88000000000E+00 0. -1.
        -11    1    4    4    0    0  0.25888777060E-01 -0.15194116418E-04  0.10358872639E-01  0.27889000913E-01  0.51100000000E-03 0.  1.
         11    1    4    4    0    0  0.10081360517E+00 -0.26097217262E-01  0.11655822696E-01  0.10478820095E+00  0.51100000000E-03 0. -1.
</event>
<event>
 8    1  0.1123361E+005  0.1043930E+01  0.7957747E-01            NaN
         13   -1    0    0    0    0  0.00000000000E+00  0.00000000000E+00  0.74505805969E-08  0.10566000000E+00  0.10566000000E+00 0. -1.
     999900   -1    0    0    0    0 -0.00000000000E+00 -0.00000000000E+00 -0.74505805969E-08  0.93827000000E+00  0.93827000000E+00 0.  1.
     999902    2    1    2    0    0 -0.17664957697E-01 -0.82318050372E-02 -0.14444163507E-01  0.10196720693E+01  0.10193834811E+01 0.  0.
     999903    2    3    3    0    0 -0.59761857847E-02  0.19148194304E-01  0.12517212851E+00  0.12816828309E+00  0.18885944274E-01 0.  0.
         14    1    1    2    0    0  0.17664957697E-01  0.82318050372E-02  0.14444163507E-01  0.24257930745E-01  0.00000000000E+00 0. -1.
     999901    1    3    3    0    0 -0.11688771912E-01 -0.27379999341E-01 -0.13961629202E+00  0.89150378617E+00  0.88000000000E+00 0.  1.
        -11    1    4    4    0    0  0.64244806241E-02  0.32334223266E-02  0.27236506588E-01  0.28174765010E-01  0.51100000000E-03 0. -1.
         11    1    4    4    0    0 -0.12400666409E-01  0.15914771977E-01  0.97935621926E-01  0.99993518078E-01  0.51100000000E-03 0.  1.
</event>
<event>
 8    1  0.1123361E+005  0.1043930E+01  0.7957747E-01            NaN
         13   -1    0    0    0    0  0.00000000000E+00  0.00000000000E+00  0.74505805969E-08  0.10566000000E+00  0.10566000000E+00 0.  1.
     999900   -1    0    0    0    0 -0.00000000000E+00 -0.00000000000E+00 -0.74505805969E-08  0.93827000000E+00  0.93827000000E+00 0.  1.
     999902    2    1    2    0    0 -0.13566472392E-01  0.18244431102E-01 -0.70030436463E-02  0.10201402741E+01  0.10198628475E+01 0.  0.
     999903    2    3    3    0    0 -0.13126065119E+00  0.50819438844E-02 -0.32457675057E-02  0.13219923554E+00  0.14523021883E-01 0.  0.
         14    1    1    2    0    0  0.13566472392E-01 -0.18244431102E-01  0.70030436463E-02  0.23789725927E-01  0.00000000000E+00 0.  1.
     999901    1    3    3    0    0  0.11769417880E+00  0.13162487217E-01 -0.37572761406E-02  0.88794103854E+00  0.88000000000E+00 0.  1.
        -11    1    4    4    0    0 -0.30965831519E-01  0.73720846739E-02 -0.10719115009E-02  0.31853421627E-01  0.51100000000E-03 0. -1.
         11    1    4    4    0    0 -0.10029481967E+00 -0.22901407896E-02 -0.21738560048E-02  0.10034581391E+00  0.51100000000E-03 0.  1.
</event>
<event>
 8    1  0.1123361E+005  0.1043930E+01  0.7957747E-01            NaN
         13   -1    0    0    0    0  0.00000000000E+00  0.00000000000E+00  0.74505805969E-08  0.10566000000E+00  0.10566000000E+00 0.  1.
     999900   -1    0    0    0    0 -0.00000000000E+00 -0.00000000000E+00 -0.74505805969E-08  0.93827000000E+00  0.93827000000E+00 0.  1.
     999902    2    1    2    0    0 -0.11894267579E-02  0.22677427389E-01 -0.79862175680E-02  0.10198580221E+01  0.10195738939E+01 0.  0.
     999903    2    3    3    0    0  0.24234815849E-01  0.97531060896E-01 -0.84855670302E-01  0.13297676098E+00  0.19562720659E-01 0.  0.
         14    1    1    2    0    0  0.11894267579E-02 -0.22677427389E-01  0.79862175680E-02  0.24071977900E-01  0.00000000000E+00 0. -1.
     999901    1    3    3    0    0 -0.25424242607E-01 -0.74853633507E-01  0.76869452734E-01  0.88688126112E+00  0.88000000000E+00 0.  1.
        -11    1    4    4    0    0  0.89578889245E-02  0.57144679534E-01 -0.37748407657E-01  0.69072147604E-01  0.51100000000E-03 0. -1.
         11    1    4    4    0    0  0.15276926924E-01  0.40386381361E-01 -0.47107262646E-01  0.63904613376E-01  0.51100000000E-03 0.  1.
</event>
<event>
 8    1  0.1123361E+005  0.1043930E+01  0.7957747E-01            NaN
         13   -1    0    0    0    0  0.00000000000E+00  0.00000000000E+00  0.74505805969E-08  0.10566000000E+00  0.10566000000E+00 0. -1.
     999900   -1    0    0    0    0 -0.00000000000E+00 -0.00000000000E+00 -0.74505805969E-08  0.93827000000E+00  0.93827000000E+00 0.  1.
     999902    2    1    2    0    0 -0.19915504740E-01  0.28619288630E-02  0.12685316985E-01  0.10201448106E+01  0.10198674911E+01 0.  0.
     999903    2    3    3    0    0 -0.76843575750E-01  0.96852386824E-01  0.43902731479E-01  0.13276127551E+00  0.20317147333E-01 0.  0.
         14    1    1    2    0    0  0.19915504740E-01 -0.28619288630E-02 -0.12685316985E-01  0.23785189359E-01  0.00000000000E+00 0.  1.
     999901    1    3    3    0    0  0.56928071011E-01 -0.93990457961E-01 -0.31217414494E-01  0.88738353513E+00  0.88000000000E+00 0. -1.
        -11    1    4    4    0    0 -0.17116715523E-01  0.36758588030E-01  0.13335341252E-01  0.42688033354E-01  0.51100000000E-03 0.  1.
         11    1    4    4    0    0 -0.59726860227E-01  0.60093798793E-01  0.30567390227E-01  0.90073242155E-01  0.51100000000E-03 0. -1.
</event>
<event>
 8    1  0.1123361E+005  0.1043930E+01  0.7957747E-01            NaN
         13   -1    0    0    0    0  0.00000000000E+00  0.00000000000E+00  0.74505805969E-08  0.10566000000E+00  0.10566000000E+00 0. -1.
     999900   -1    0    0    0    0 -0.00000000000E+00 -0.00000000000E+00 -0.74505805969E-08  0.93827000000E+00  0.93827000000E+00 0. -1.
     999902    2    1    2    0    0 -0.17030769853E-01 -0.11322749576E-01  0.11768251999E-01  0.10203345866E+01  0.10200617261E+01 0.  0.
     999903    2    3    3    0    0  0.11775611431E+00  0.45068830652E-01  0.13185631914E-01  0.12828664872E+00  0.19644373156E-01 0.  0.
         14    1    1    2    0    0  0.17030769853E-01  0.11322749576E-01 -0.11768251999E-01  0.23595413428E-01  0.00000000000E+00 0. -1.
     999901    1    3    3    0    0 -0.13478688416E+00 -0.56391580228E-01 -0.14173799159E-02  0.89204793785E+00  0.88000000000E+00 0. -1.
        -11    1    4    4    0    0  0.90258236833E-01  0.28637836336E-01  0.32704824171E-02  0.94750367611E-01  0.51100000000E-03 0. -1.
         11    1    4    4    0    0  0.27497877477E-01  0.16430994316E-01  0.99151494974E-02  0.33536281107E-01  0.51100000000E-03 0.  1.
</event>
<event>
 8    1  0.1123361E+005  0.1043930E+01  0.7957747E-01            NaN
         13   -1    0    0    0    0  0.00000000000E+00  0.00000000000E+00  0.74505805969E-08  0.10566000000E+00  0.10566000000E+00 0. -1.
     999900   -1    0    0    0    0 -0.00000000000E+00 -0.00000000000E+00 -0.74505805969E-08  0.93827000000E+00  0.93827000000E+00 0. -1.
     999902    2    1    2    0    0 -0.12346620371E-01  0.67184657741E-02  0.19380765507E-01  0.10199885947E+01  0.10197075769E+01 0.  0.
     999903    2    3    3    0    0  0.16635750776E-01 -0.94120495151E-01 -0.82219443649E-01  0.12795099661E+00  0.21817534402E-01 0.  0.
         14    1    1    2    0    0  0.12346620371E-01 -0.67184657741E-02 -0.19380765507E-01  0.23941405318E-01  0.00000000000E+00 0.  1.
     999901    1    3    3    0    0 -0.28982371147E-01  0.10083896093E+00  0.10160020916E+00  0.89203759807E+00  0.88000000000E+00 0.  1.
        -11    1    4    4    0    0  0.43915215481E-02 -0.70075056517E-01 -0.51601749017E-01  0.87136677869E-01  0.51100000000E-03 0.  1.
         11    1    4    4    0    0  0.12244229228E-01 -0.24045438635E-01 -0.30617694632E-01  0.40814318739E-01  0.51100000000E-03 0. -1.
</event>
<event>
 8    1  0.1123361E+005  0.1043930E+01  0.7957747E-01            NaN
         13   -1    0    0    0    0  0.00000000000E+00  0.00000000000E+00  0.74505805969E-08  0.10566000000E+00  0.10566000000E+00 0. -1.
     999900   -1    0    0    0    0 -0.00000000000E+00 -0.00000000000E+00 -0.74505805969E-08  0.93827000000E+00  0.93827000000E+00 0. -1.
     999902    2    1    2    0    0  0.17588401068E-01 -0.29727674717E-03 -0.12214510384E-01  0.10225142467E+01  0.10222899541E+01 0.  0.
     999903    2    3    3    0    0  0.56543819891E-01 -0.16234244378E-01  0.11651197308E+00  0.13215363485E+00  0.20707222752E-01 0.  0.
         14    1    1    2    0    0 -0.17588401068E-01  0.29727674717E-03  0.12214510384E-01  0.21415753303E-01  0.00000000000E+00 0. -1.
     999901    1    3    3    0    0 -0.38955418823E-01  0.15936967631E-01 -0.12872648346E+00  0.89036061185E+00  0.88000000000E+00 0. -1.
        -11    1    4    4    0    0  0.40526337402E-01 -0.11110798948E-01  0.60458843219E-01  0.73629930876E-01  0.51100000000E-03 0. -1.
         11    1    4    4    0    0  0.16017482489E-01 -0.51234454301E-02  0.56053129858E-01  0.58523703969E-01  0.51100000000E-03 0.  1.
</event>
<event>
 8    1  0.1123361E+005  0.1043930E+01  0.7957747E-01            NaN
         13   -1    0    0    0    0  0.00000000000E+00  0.00000000000E+00  0.74505805969E-08  0.10566000000E+00  0.10566000000E+00 0.  1.
     999900   -1    0    0    0    0 -0.00000000000E+00 -0.00000000000E+00 -0.74505805969E-08  0.93827000000E+00  0.93827000000E+00 0. -1.
     999902    2    1    2    0    0 -0.15278215808E-02 -0.91445915059E-02  0.21896998882E-01  0.10201510944E+01  0.10198739231E+01 0.  0.
     999903    2    3    3    0    0  0.19282328137E-01 -0.43507899739E-01  0.12313793157E+00  0.13343601853E+00  0.19428724396E-01 0.  0.
         14    1    1    2    0    0  0.15278215808E-02  0.91445915059E-02 -0.21896998882E-01  0.23778905623E-01  0.00000000000E+00 0. -1.
     999901    1    3    3    0    0 -0.20810149718E-01  0.34363308233E-01 -0.10124093269E+00  0.88671507585E+00  0.88000000000E+00 0. -1.
        -11    1    4    4    0    0  0.14548267617E-01 -0.34606048070E-01  0.70849362196E-01  0.80181817754E-01  0.51100000000E-03 0. -1.
         11    1    4    4    0    0  0.47340605201E-02 -0.89018516689E-02  0.52288569373E-01  0.53254200776E-01  0.51100000000E-03 0.  1.
</event>
<event>
 8    1  0.1123361E+005  0.1043930E+01  0.7957747E-01            NaN
         13   -1    0    0    0    0  0.00000000000E+00  0.00000000000E+00  0.74505805969E-08  0.10566000000E+00  0.10566000000E+00 0. -1.
     999900   -1    0    0    0    0 -0.00000000000E+00 -0.00000000000E+00 -0.74505805969E-08  0.93827000000E+00  0.93827000000E+00 0.  1.
     999902    2    1    2    0    0 -0.84191249495E-02  0.44652100057E-03 -0.15845700766E-01  0.10259809811E+01  0.10258239646E+01 0.  0.
     999903    2    3    3    0    0 -0.84416920602E-01 -0.10190164208E+00 -0.27622753661E-01  0.13671751600E+00  0.20457309642E-01 0.  0.
         14    1    1    2    0    0  0.84191249495E-02 -0.44652100057E-03  0.15845700766E-01  0.17949018878E-01  0.00000000000E+00 0. -1.
     999901    1    3    3    0    0  0.75997795653E-01  0.10234816308E+00  0.11777052895E-01  0.88926346512E+00  0.88000000000E+00 0.  1.
        -11    1    4    4    0    0 -0.47964831319E-01 -0.44646648816E-01 -0.77179909652E-02  0.65983155422E-01  0.51100000000E-03 0.  1.
         11    1    4    4    0    0 -0.36452089283E-01 -0.57254993266E-01 -0.19904762696E-01  0.70734360575E-01  0.51100000000E-03 0. -1.
</event>
<event>
 8    1  0.1123361E+005  0.1043930E+01  0.7957747E-01            NaN
         13   -1    0    0    0    0  0.00000000000E+00  0.00000000000E+00  0.74505805969E-08  0.10566000000E+00  0.10566000000E+00 0.  1.
     999900   -1    0    0    0    0 -0.00000000000E+00 -0.00000000000E+00 -0.74505805969E-08  0.93827000000E+00  0.93827000000E+00 0. -1.
     999902    2    1    2    0    0 -0.94582257388E-03  0.24948301642E-01  0.90701168481E-02  0.10173672563E+01  0.10170204299E+01 0.  0.
     999903    2    3    3    0    0  0.69971921071E-01  0.93355533597E-01  0.55044508831E-01  0.13067535912E+00  0.20852485135E-01 0.  0.
         14    1    1    2    0    0  0.94582257388E-03 -0.24948301642E-01 -0.90701168481E-02  0.26562743736E-01  0.00000000000E+00 0. -1.
     999901    1    3    3    0    0 -0.70917743645E-01 -0.68407231956E-01 -0.45974391983E-01  0.88669189715E+00  0.88000000000E+00 0. -1.
        -11    1    4    4    0    0  0.45412571182E-01  0.73342141790E-01  0.34473714566E-01  0.92898167370E-01  0.51100000000E-03 0.  1.
         11    1    4    4    0    0  0.24559349889E-01  0.20013391807E-01  0.20570794265E-01  0.37777191747E-01  0.51100000000E-03 0. -1.
</event>
<event>
 8    1  0.1123361E+005  0.1043930E+01  0.7957747E-01            NaN
         13   -1    0    0    0    0  0.00000000000E+00  0.00000000000E+00  0.74505805969E-08  0.10566000000E+00  0.10566000000E+00 0. -1.
     999900   -1    0    0    0    0 -0.00000000000E+00 -0.00000000000E+00 -0.74505805969E-08  0.93827000000E+00  0.93827000000E+00 0. -1.
     999902    2    1    2    0    0  0.23444449169E-01  0.55748586365E-02  0.87457313370E-02  0.10182939109E+01  0.10179711587E+01 0.  0.
     999903    2    3    3    0    0  0.81033002206E-01  0.38556307275E-01  0.94374322984E-01  0.13165053669E+00  0.19298048994E-01 0.  0.
         14    1    1    2    0    0 -0.23444449169E-01 -0.55748586365E-02 -0.87457313370E-02  0.25636089059E-01  0.00000000000E+00 0.  1.
     999901    1    3    3    0    0 -0.57588553037E-01 -0.32981448639E-01 -0.85628591647E-01  0.88664337425E+00  0.88000000000E+00 0. -1.
        -11    1    4    4    0    0  0.69160775003E-01  0.29951795070E-01  0.68203831567E-01  0.10164815093E+00  0.51100000000E-03 0. -1.
         11    1    4    4    0    0  0.11872227202E-01  0.86045122046E-02  0.26170491417E-01  0.30002385756E-01  0.51100000000E-03 0.  1.
</event>
<event>
 8    1  0.1123361E+005  0.1043930E+01  0.7957747E-01            NaN
         13   -1    0    0    0    0  0.00000000000E+00  0.00000000000E+00  0.74505805969E-08  0.10566000000E+00  0.10566000000E+00 0.  1.
     999900   -1    0    0    0    0 -0.00000000000E+00 -0.00000000000E+00 -0.74505805969E-08  0.93827000000E+00  0.93827000000E+00 0.  1.
     999902    2    1    2    0    0 -0.22487563141E-01 -0.79861841978E-02 -0.88481047418E-03  0.10200500393E+01  0.10197704791E+01 0.  0.
     999903    2    3    3    0    0 -0.10747339243E+00  0.18562019081E-01  0.71929728638E-01  0.13256519131E+00  0.22462534422E-01 0.  0.
         14    1    1    2    0    0  0.22487563141E-01  0.79861841978E-02  0.88481047418E-03  0.23879960713E-01  0.00000000000E+00 0. -1.
     999901    1    3    3    0    0  0.84985829291E-01 -0.26548203279E-01 -0.72814539112E-01  0.88748484797E+00  0.88000000000E+00 0.  1.
        -11    1    4    4    0    0 -0.21146293401E-01  0.12220778454E-01  0.11521974931E-01  0.27009816326E-01  0.51100000000E-03 0. -1.
         11    1    4    4    0    0 -0.86327099031E-01  0.63412406270E-02  0.60407753707E-01  0.10555537499E+00  0.51100000000E-03 0.  1.
</event>
<event>
 8    1  0.1123361E+005  0.1043930E+01  0.7957747E-01            NaN
         13   -1    0    0    0    0  0.00000000000E+00  0.00000000000E+00  0.74505805969E-08  0.10566000000E+00  0.10566000000E+00 0. -1.
     999900   -1    0    0    0    0 -0.00000000000E+00 -0.00000000000E+00 -0.74505805969E-08  0.93827000000E+00  0.93827000000E+00 0. -1.
     999902    2    1    2    0    0 -0.14894898448E-02 -0.18991046034E-01 -0.13777212770E-01  0.10204206401E+01  0.10201497894E+01 0.  0.
     999903    2    3    3    0    0 -0.29767522693E-01 -0.12820402871E+00 -0.42549145046E-02  0.13316769036E+00  0.19828037534E-01 0.  0.
         14    1    1    2    0    0  0.14894898448E-02  0.18991046034E-01  0.13777212770E-01  0.23509359863E-01  0.00000000000E+00 0.  1.
     999901    1    3    3    0    0  0.28278032848E-01  0.10921298268E+00 -0.95222982653E-02  0.88725294978E+00  0.88000000000E+00 0. -1.
        -11    1    4    4    0    0 -0.19044163333E-01 -0.11178202345E+00 -0.19257222911E-02  0.11341018671E+00  0.51100000000E-03 0.  1.
         11    1    4    4    0    0 -0.10723359361E-01 -0.16422005266E-01 -0.23291922135E-02  0.19757503645E-01  0.51100000000E-03 0. -1.
</event>
<event>
 8    1  0.1123361E+005  0.1043930E+01  0.7957747E-01            NaN
         13   -1    0    0    0    0  0.00000000000E+00  0.00000000000E+00  0.74505805969E-08  0.10566000000E+00  0.10566000000E+00 0.  1.
     999900   -1    0    0    0    0 -0.00000000000E+00 -0.00000000000E+00 -0.74505805969E-08  0.93827000000E+00  0.93827000000E+00 0. -1.
     999902    2    1    2    0    0 -0.96649858445E-02 -0.20619714046E-01 -0.69658131482E-02  0.10201159892E+01  0.10198379892E+01 0.  0.
     999903    2    3    3    0    0 -0.10628970510E+00 -0.54092561542E-01  0.52494056508E-01  0.13220144149E+00  0.22317897283E-01 0.  0.
         14    1    1    2    0    0  0.96649858445E-02  0.20619714046E-01  0.69658131482E-02  0.23814010824E-01  0.00000000000E+00 0.  1.
     999901    1    3    3    0    0  0.96624719256E-01  0.33472847496E-01 -0.59459869656E-01  0.88791454768E+00  0.88000000000E+00 0. -1.
        -11    1    4    4    0    0 -0.30259152702E-01 -0.47209420502E-02  0.14872041215E-01  0.34049116684E-01  0.51100000000E-03 0. -1.
         11    1    4    4    0    0 -0.76030552399E-01 -0.49371619492E-01  0.37622015293E-01  0.98152324807E-01  0.51100000000E-03 0.  1.
</event>
<event>
 8    1  0.1123361E+005  0.1043930E+01  0.7957747E-01            NaN
         13   -1    0    0    0    0  0.00000000000E+00  0.00000000000E+00  0.74505805969E-08  0.10566000000E+00  0.10566000000E+00 0.  1.
     999900   -1    0    0    0    0 -0.00000000000E+00 -0.00000000000E+00 -0.74505805969E-08  0.93827000000E+00  0.93827000000E+00 0. -1.
     999902    2    1    2    0    0 -0.14778141278E-01  0.14059110334E-01  0.14820937483E-01  0.10187166656E+01  0.10184046016E+01 0.  0.
     999903    2    3    3    0    0 -0.12564278157E+00  0.24689566893E-01 -0.18906066997E-01  0.13105598387E+00  0.20555978826E-01 0.  0.
         14    1    1    2    0    0  0.14778141278E-01 -0.14059110334E-01 -0.14820937483E-01  0.25213334387E-01  0.00000000000E+00 0. -1.
     999901    1    3    3    0    0  0.11086464029E+00 -0.10630456559E-01  0.33727004481E-01  0.88766068174E+00  0.88000000000E+00 0.  1.
        -11    1    4    4    0    0 -0.73417565065E-01  0.44724327357E-02 -0.13586952550E-01  0.74799785530E-01  0.51100000000E-03 0. -1.
         11    1    4    4    0    0 -0.52225216506E-01  0.20217134158E-01 -0.53191144474E-02  0.56256198344E-01  0.51100000000E-03 0.  1.
</event>
<event>
 8    1  0.1123361E+005  0.1043930E+01  0.7957747E-01            NaN
         13   -1    0    0    0    0  0.00000000000E+00  0.00000000000E+00  0.74505805969E-08  0.10566000000E+00  0.10566000000E+00 0.  1.
     999900   -1    0    0    0    0 -0.00000000000E+00 -0.00000000000E+00 -0.74505805969E-08  0.93827000000E+00  0.93827000000E+00 0.  1.
     999902    2    1    2    0    0  0.21230652345E-01  0.90807136794E-02 -0.36963557562E-02  0.10205448978E+01  0.10202769356E+01 0.  0.
     999903    2    3    3    0    0 -0.11985385054E-01  0.12276339529E+00 -0.41758460200E-01  0.13179533742E+00  0.20291409253E-01 0.  0.
         14    1    1    2    0    0 -0.21230652345E-01 -0.90807136794E-02  0.36963557562E-02  0.23385102219E-01  0.00000000000E+00 0.  1.
     999901    1    3    3    0    0  0.33216037399E-01 -0.11368268161E+00  0.38062104443E-01  0.88874956036E+00  0.88000000000E+00 0. -1.
        -11    1    4    4    0    0 -0.80168581619E-02  0.63130672768E-01 -0.11018338227E-01  0.64586506000E-01  0.51100000000E-03 0.  1.
         11    1    4    4    0    0 -0.39685268920E-02  0.59632722526E-01 -0.30740121973E-01  0.67208831425E-01  0.51100000000E-03 0. -1.
</event>
<event>
 8    1  0.1123361E+005  0.1043930E+01  0.7957747E-01            NaN
         13   -1    0    0    0    0  0.00000000000E+00  0.00000000000E+00  0.74505805969E-08  0.10566000000E+00  0.10566000000E+00 0.  1.
     999900   -1    0    0    0    0 -0.00000000000E+00 -0.00000000000E+00 -0.74505805969E-08  0.93827000000E+00  0.93827000000E+00 0. -1.
     999902    2    1    2    0    0  0.18062521195E-01  0.17930037799E-01  0.12228881075E-01  0.10156937386E+01  0.10153011790E+01 0.  0.
     999903    2    3    3    0    0 -0.10594263953E-01  0.12672106043E+00  0.28112180137E-02  0.12848159352E+00  0.18142528557E-01 0.  0.
         14    1    1    2    0    0 -0.18062521195E-01 -0.17930037799E-01 -0.12228881075E-01  0.28236261434E-01  0.00000000000E+00 0. -1.
     999901    1    3    3    0    0  0.28656785148E-01 -0.10879102263E+00  0.94176630611E-02  0.88721214505E+00  0.88000000000E+00 0. -1.
        -11    1    4    4    0    0 -0.62530395184E-02  0.12123113508E-01  0.20099241788E-02  0.13797510665E-01  0.51100000000E-03 0.  1.
         11    1    4    4    0    0 -0.43412244343E-02  0.11459794692E+00  0.80129383497E-03  0.11468408286E+00  0.51100000000E-03 0. -1.
</event>
<event>
 8    1  0.1123361E+005  0.1043930E+01  0.7957747E-01            NaN
         13   -1    0    0    0    0  0.00000000000E+00  0.00000000000E+00  0.74505805969E-08  0.10566000000E+00  0.10566000000E+00 0.  1.
     999900   -1    0    0    0    0 -0.00000000000E+00 -0.00000000000E+00 -0.74505805969E-08  0.93827000000E+00  0.93827000000E+00 0.  1.
     999902    2    1    2    0    0 -0.11008312288E-01  0.85299141692E-03  0.21395953004E-01  0.10198530953E+01  0.10195688494E+01 0.  0.
     999903    2    3    3    0    0 -0.14775632076E-01 -0.12431365091E+00  0.33513528285E-01  0.13090556218E+00  0.18463654194E-01 0.  0.
         14    1    1    2    0    0  0.11008312288E-01 -0.85299141692E-03 -0.21395953004E-01  0.24076904675E-01  0.00000000000E+00 0. -1.
     999901    1    3    3    0    0  0.37673197881E-02  0.12516664233E+00 -0.12117575281E-01  0.88894753314E+00  0.88000000000E+00 0. -1.
        -11    1    4    4    0    0 -0.93816479643E-04 -0.64320055507E-01  0.11551590134E-01  0.65351195074E-01  0.51100000000E-03 0. -1.
         11    1    4    4    0    0 -0.14681815596E-01 -0.59993595404E-01  0.21961938151E-01  0.65554367108E-01  0.51100000000E-03 0.  1.
</event>
<event>
 8    1  0.1123361E+005  0.1043930E+01  0.7957747E-01            NaN
         13   -1    0    0    0    0  0.00000000000E+00  0.00000000000E+00  0.74505805969E-08  0.10566000000E+00  0.10566000000E+00 0.  1.
     999900   -1    0    0    0    0 -0.00000000000E+00 -0.00000000000E+00 -0.74505805969E-08  0.93827000000E+00  0.93827000000E+00 0.  1.
     999902    2    1    2    0    0  0.13728475316E-01 -0.93643234677E-02  0.12922869984E-01  0.10228785830E+01  0.10226619351E+01 0.  0.
     999903    2    3    3    0    0  0.12092628404E+00  0.28058464631E-01  0.48948661583E-01  0.13485285539E+00  0.19464776586E-01 0.  0.
         14    1    1    2    0    0 -0.13728475316E-01  0.93643234677E-02 -0.12922869984E-01  0.21051416987E-01  0.00000000000E+00 0. -1.
     999901    1    3    3    0    0 -0.10719780872E+00 -0.37422788099E-01 -0.36025791599E-01  0.88802572762E+00  0.88000000000E+00 0. -1.
        -11    1    4    4    0    0  0.10635688846E-01  0.49629434678E-02 -0.58516295139E-03  0.11762322125E-01  0.51100000000E-03 0. -1.
         11    1    4    4    0    0  0.11029059519E+00  0.23095521163E-01  0.49533824535E-01  0.12309053326E+00  0.51100000000E-03 0.  1.
</event>
<event>
 8    1  0.1123361E+005  0.1043930E+01  0.7957747E-01            NaN
         13   -1    0    0    0    0  0.00000000000E+00  0.00000000000E+00  0.74505805969E-08  0.10566000000E+00  0.10566000000E+00 0. -1.
     999900   -1    0    0    0    0 -0.00000000000E+00 -0.00000000000E+00 -0.74505805969E-08  0.93827000000E+00  0.93827000000E+00 0. -1.
     999902    2    1    2    0    0  0.17157865564E-01 -0.26882511540E-02 -0.18582125769E-01  0.10184954872E+01  0.10181778543E+01 0.  0.
     999903    2    3    3    0    0  0.47201556994E-01  0.13735895051E-01  0.11602345376E+00  0.12760209399E+00  0.20104496316E-01 0.  0.
         14    1    1    2    0    0 -0.17157865564E-01  0.26882511540E-02  0.18582125769E-01  0.25434512833E-01  0.00000000000E+00 0.  1.
     999901    1    3    3    0    0 -0.30043691431E-01 -0.16424146205E-01 -0.13460557953E+00  0.89089339318E+00  0.88000000000E+00 0. -1.
        -11    1    4    4    0    0  0.29624821553E-01  0.17599161816E-01  0.66335520145E-01  0.74753079552E-01  0.51100000000E-03 0.  1.
         11    1    4    4    0    0  0.17576735442E-01 -0.38632667649E-02  0.49687933613E-01  0.52849014434E-01  0.51100000000E-03 0. -1.
</event>
<event>
 8    1  0.1123361E+005  0.1043930E+01  0.7957747E-01            NaN
         13   -1    0    0    0    0  0.00000000000E+00  0.00000000000E+00  0.74505805969E-08  0.10566000000E+00  0.10566000000E+00 0.  1.
     999900   -1    0    0    0    0 -0.00000000000E+00 -0.00000000000E+00 -0.74505805969E-08  0.93827000000E+00  0.93827000000E+00 0. -1.
     999902    2    1    2    0    0 -0.15200964764E-01 -0.18253369487E-01  0.15589988492E-02  0.10201248471E+01  0.10198470564E+01 0.  0.
     999903    2    3    3    0    0  0.43612727485E-01  0.10661505549E+00 -0.51639632223E-01  0.12777891177E+00  0.19797944860E-01 0.  0.
         14    1    1    2    0    0  0.15200964764E-01  0.18253369487E-01 -0.15589988492E-02  0.23805152905E-01  0.00000000000E+00 0. -1.
     999901    1    3    3    0    0 -0.58813692249E-01 -0.12486842497E+00  0.53198631072E-01  0.89234593533E+00  0.88000000000E+00 0.  1.
        -11    1    4    4    0    0  0.33854673904E-01  0.98549554946E-01 -0.46426281751E-01  0.11407810694E+00  0.51100000000E-03 0. -1.
         11    1    4    4    0    0  0.97580535815E-02  0.80655005408E-02 -0.52133504721E-02  0.13700804824E-01  0.51100000000E-03 0.  1.
</event>
<event>
 8    1  0.1123361E+005  0.1043930E+01  0.7957747E-01            NaN
         13   -1    0    0    0    0  0.00000000000E+00  0.00000000000E+00  0.74505805969E-08  0.10566000000E+00  0.10566000000E+00 0.  1.
     999900   -1    0    0    0    0 -0.00000000000E+00 -0.00000000000E+00 -0.74505805969E-08  0.93827000000E+00  0.93827000000E+00 0. -1.
     999902    2    1    2    0    0 -0.13304275301E-01  0.29670103352E-01 -0.12756835746E-01  0.10090007052E+01  0.10083959379E+01 0.  0.
     999903    2    3    3    0    0  0.10392980319E+00  0.39704208256E-01  0.39747796477E-01  0.11961819539E+00  0.18729580850E-01 0.  0.
         14    1    1    2    0    0  0.13304275301E-01 -0.29670103352E-01  0.12756835746E-01  0.34929294760E-01  0.00000000000E+00 0. -1.
     999901    1    3    3    0    0 -0.11723407849E+00 -0.10034104904E-01 -0.52504632223E-01  0.88938250985E+00  0.88000000000E+00 0. -1.
        -11    1    4    4    0    0  0.60045654794E-01  0.20818255377E-01  0.32205192531E-01  0.71248269899E-01  0.51100000000E-03 0. -1.
         11    1    4    4    0    0  0.43884148398E-01  0.18885952879E-01  0.75426039461E-02  0.48369925491E-01  0.51100000000E-03 0.  1.
</event>
<event>
 8    1  0.1123361E+005  0.1043930E+01  0.7957747E-01            NaN
         13   -1    0    0    0    0  0.00000000000E+00  0.00000000000E+00  0.74505805969E-08  0.10566000000E+00  0.10566000000E+00 0. -1.
     999900   -1    0    0    0    0 -0.00000000000E+00 -0.00000000000E+00 -0.74505805969E-08  0.93827000000E+00  0.93827000000E+00 0.  1.
     999902    2    1    2    0    0 -0.76034627115E-02 -0.97758566406E-02 -0.20010257557E-01  0.10203972478E+01  0.10201258515E+01 0.  0.
     999903    2    3    3    0    0  0.58184948096E-01  0.97541433678E-01 -0.60814203098E-01  0.13050395209E+00  0.20810928443E-01 0.  0.
         14    1    1    2    0    0  0.76034627115E-02  0.97758566406E-02  0.20010257557E-01  0.23532752192E-01  0.00000000000E+00 0. -1.
     999901    1    3    3    0    0 -0.65788410808E-01 -0.10731729032E+00  0.40803945542E-01  0.88989329572E+00  0.88000000000E+00 0.  1.
        -11    1    4    4    0    0  0.23924173075E-01  0.59638488997E-01 -0.31002672240E-01  0.71348035952E-01  0.51100000000E-03 0. -1.
         11    1    4    4    0    0  0.34260775022E-01  0.37902944681E-01 -0.29811530859E-01  0.59155916135E-01  0.51100000000E-03 0.  1.
</event>
<event>
 8    1  0.1123361E+005  0.1043930E+01  0.7957747E-01            NaN
         13   -1    0    0    0    0  0.00000000000E+00  0.00000000000E+00  0.74505805969E-08  0.10566000000E+00  0.10566000000E+00 0.  1.
     999900   -1    0    0    0    0 -0.00000000000E+00 -0.00000000000E+00 -0.74505805969E-08  0.93827000000E+00  0.93827000000E+00 0.  1.
     999902    2    1    2    0    0  0.19157236921E-01 -0.10677245395E-01  0.97253865039E-02  0.10199386174E+01  0.10196564112E+01 0.  0.
     999903    2    3    3    0    0  0.81867572296E-01 -0.70876885217E-01  0.74965078712E-01  0.13325220146E+00  0.20262130102E-01 0.  0.
         14    1    1    2    0    0 -0.19157236921E-01  0.10677245395E-01 -0.97253865039E-02  0.23991382585E-01  0.00000000000E+00 0. -1.
     999901    1    3    3    0    0 -0.62710335376E-01  0.60199639822E-01 -0.65239692208E-01  0.88668641595E+00  0.88000000000E+00 0.  1.
        -11    1    4    4    0    0  0.51595499529E-01 -0.31360364087E-01  0.40608040366E-01  0.72765665466E-01  0.51100000000E-03 0.  1.
         11    1    4    4    0    0  0.30272072767E-01 -0.39516521130E-01  0.34357038346E-01  0.60486535996E-01  0.51100000000E-03 0. -1.
</event>
<event>
 8    1  0.1123361E+005  0.1043930E+01  0.7957747E-01            NaN
         13   -1    0    0    0    0  0.00000000000E+00  0.00000000000E+00  0.74505805969E-08  0.10566000000E+00  0.10566000000E+00 0.  1.
     999900   -1    0    0    0    0 -0.00000000000E+00 -0.00000000000E+00 -0.74505805969E-08  0.93827000000E+00  0.93827000000E+00 0. -1.
     999902    2    1    2    0    0  0.11580689793E-01 -0.49123063755E-03 -0.20883434533E-01  0.10200454543E+01  0.10197657856E+01 0.  0.
     999903    2    3    3    0    0  0.87559775155E-01 -0.59404974292E-01  0.72271445524E-01  0.12992103479E+00  0.21462717583E-01 0.  0.
         14    1    1    2    0    0 -0.11580689793E-01  0.49123063755E-03  0.20883434533E-01  0.23884545662E-01  0.00000000000E+00 0.  1.
     999901    1    3    3    0    0 -0.75979085362E-01  0.58913743655E-01 -0.93154880056E-01  0.89012441955E+00  0.88000000000E+00 0. -1.
        -11    1    4    4    0    0  0.14121919871E-01 -0.20358028694E-01  0.17249811835E-01  0.30194288905E-01  0.51100000000E-03 0. -1.
         11    1    4    4    0    0  0.73437855284E-01 -0.39046945598E-01  0.55021633689E-01  0.99726745881E-01  0.51100000000E-03 0.  1.
</event>
<event>
 8    1  0.1123361E+005  0.1043930E+01  0.7957747E-01            NaN
         13   -1    0    0    0    0  0.00000000000E+00  0.00000000000E+00  0.74505805969E-08  0.10566000000E+00  0.10566000000E+00 0. -1.
     999900   -1    0    0    0    0 -0.00000000000E+00 -0.00000000000E+00 -0.74505805969E-08  0.93827000000E+00  0.93827000000E+00 0. -1.
     999902    2    1    2    0    0  0.11377753447E-01 -0.14608201706E-01 -0.14694561605E-01  0.10202914093E+01  0.10200175375E+01 0.  0.
     999903    2    3    3    0    0  0.90958188576E-01 -0.29166902331E-01  0.87298879838E-01  0.13071417063E+00  0.18466177795E-01 0.  0.
         14    1    1    2    0    0 -0.11377753447E-01  0.14608201706E-01  0.14694561605E-01  0.23638590722E-01  0.00000000000E+00 0. -1.
     999901    1    3    3    0    0 -0.79580435130E-01  0.14558700625E-01 -0.10199344144E+00  0.88957723865E+00  0.88000000000E+00 0.  1.
        -11    1    4    4    0    0  0.58111722611E-01 -0.96796934434E-02  0.49060982850E-01  0.76667528518E-01  0.51100000000E-03 0.  1.
         11    1    4    4    0    0  0.32846465966E-01 -0.19487208888E-01  0.38237896988E-01  0.54046642114E-01  0.51100000000E-03 0. -1.
</event>
<event>
 8    1  0.1123361E+005  0.1043930E+01  0.7957747E-01            NaN
         13   -1    0    0    0    0  0.00000000000E+00  0.00000000000E+00  0.74505805969E-08  0.10566000000E+00  0.10566000000E+00 0. -1.
     999900   -1    0    0    0    0 -0.00000000000E+00 -0.00000000000E+00 -0.74505805969E-08  0.93827000000E+00  0.93827000000E+00 0. -1.
     999902    2    1    2    0    0  0.73463884206E-02 -0.10066580363E-01  0.18867381525E-01  0.10213184200E+01  0.10210680837E+01 0.  0.
     999903    2    3    3    0    0 -0.62659825196E-01 -0.25611489795E-01 -0.10829332895E+00  0.12929131257E+00  0.20164233385E-01 0.  0.
         14    1    1    2    0    0 -0.73463884206E-02  0.10066580363E-01 -0.18867381525E-01  0.22611579968E-01  0.00000000000E+00 0.  1.
     999901    1    3    3    0    0  0.70006213617E-01  0.15544909432E-01  0.12716071048E+00  0.89202710746E+00  0.88000000000E+00 0.  1.
        -11    1    4    4    0    0 -0.16984907096E-01 -0.11869842414E-01 -0.19307116310E-01  0.28326773363E-01  0.51100000000E-03 0. -1.
         11    1    4    4    0    0 -0.45674918100E-01 -0.13741647381E-01 -0.88986212643E-01  0.10096453921E+00  0.51100000000E-03 0.  1.
</event>
<event>
 8    1  0.1123361E+005  0.1043930E+01  0.7957747E-01            NaN
         13   -1    0    0    0    0  0.00000000000E+00  0.00000000000E+00  0.74505805969E-08  0.10566000000E+00  0.10566000000E+00 0. -1.
     999900   -1    0    0    0    0 -0.00000000000E+00 -0.00000000000E+00 -0.74505805969E-08  0.93827000000E+00  0.93827000000E+00 0.  1.
     999902    2    1    2    0    0 -0.16010130649E-01  0.27028989600E-02  0.16996677027E-01  0.10204243203E+01  0.10201535554E+01 0.  0.
     999903    2    3    3    0    0  0.40782845353E-01 -0.36854128103E-01  0.11817991664E+00  0.13192657218E+00  0.20412263852E-01 0.  0.
         14    1    1    2    0    0  0.16010130649E-01 -0.27028989600E-02 -0.16996677027E-01  0.23505679658E-01  0.00000000000E+00 0.  1.
     999901    1    3    3    0    0 -0.56792976002E-01  0.39557027063E-01 -0.10118323962E+00  0.88849774816E+00  0.88000000000E+00 0.  1.
        -11    1    4    4    0    0  0.27983309111E-01 -0.21002972655E-01  0.51981478792E-01  0.62661995719E-01  0.51100000000E-03 0.  1.
         11    1    4    4    0    0  0.12799536242E-01 -0.15851155447E-01  0.66198437852E-01  0.69264576459E-01  0.51100000000E-03 0. -1.
</event>
<event>
 8    1  0.1123361E+005  0.1043930E+01  0.7957747E-01            NaN
         13   -1    0    0    0    0  0.00000000000E+00  0.00000000000E+00  0.74505805969E-08  0.10566000000E+00  0.10566000000E+00 0. -1.
     999900   -1    0    0    0    0 -0.00000000000E+00 -0.00000000000E+00 -0.74505805969E-08  0.93827000000E+00  0.93827000000E+00 0. -1.
     999902    2    1    2    0    0 -0.16885842418E-01 -0.15768773021E-01  0.47370788256E-02  0.10203455604E+01  0.10200729566E+01 0.  0.
     999903    2    3    3    0    0  0.11992178594E+00 -0.43009854564E-01 -0.23052320918E-02  0.12933041020E+00  0.22135007875E-01 0.  0.
         14    1    1    2    0    0  0.16885842418E-01  0.15768773021E-01 -0.47370788256E-02  0.23584439628E-01  0.00000000000E+00 0. -1.
     999901    1    3    3    0    0 -0.13680762836E+00  0.27241081543E-01  0.70423109174E-02  0.89101515018E+00  0.88000000000E+00 0. -1.
        -11    1    4    4    0    0  0.80346064990E-01 -0.34939808855E-01  0.69473399258E-02  0.87890881525E-01  0.51100000000E-03 0. -1.
         11    1    4    4    0    0  0.39575720951E-01 -0.80700457081E-02 -0.92525720176E-02  0.41439528671E-01  0.51100000000E-03 0.  1.
</event>
<event>
 8    1  0.1123361E+005  0.1043930E+01  0.7957747E-01            NaN
         13   -1    0    0    0    0  0.00000000000E+00  0.00000000000E+00  0.74505805969E-08  0.10566000000E+00  0.10566000000E+00 0. -1.
     999900   -1    0    0    0    0 -0.00000000000E+00 -0.00000000000E+00 -0.74505805969E-08  0.93827000000E+00  0.93827000000E+00 0.  1.
     999902    2    1    2    0    0 -0.14864557354E-01 -0.12934169851E-01 -0.15980412791E-01  0.10185603053E+01  0.10182443097E+01 0.  0.
     999903    2    3    3    0    0 -0.30369145980E-01  0.55631174545E-01 -0.11235248966E+00  0.13051234720E+00  0.19831243769E-01 0.  0.
         14    1    1    2    0    0  0.14864557354E-01  0.12934169851E-01  0.15980412791E-01  0.25369694678E-01  0.00000000000E+00 0. -1.
     999901    1    3    3    0    0  0.15504588626E-01 -0.68565344396E-01  0.96372076874E-01  0.88804795812E+00  0.88000000000E+00 0. -1.
        -11    1    4    4    0    0 -0.28532258547E-01  0.46105248754E-01 -0.79326460659E-01  0.96087107471E-01  0.51100000000E-03 0.  1.
         11    1    4    4    0    0 -0.18368874326E-02  0.95259257907E-02 -0.33026029006E-01  0.34425239731E-01  0.51100000000E-03 0. -1.
</event>
<event>
 8    1  0.1123361E+005  0.1043930E+01  0.7957747E-01            NaN
         13   -1    0    0    0    0  0.00000000000E+00  0.00000000000E+00  0.74505805969E-08  0.10566000000E+00  0.10566000000E+00 0.  1.
     999900   -1    0    0    0    0 -0.00000000000E+00 -0.00000000000E+00 -0.74505805969E-08  0.93827000000E+00  0.93827000000E+00 0. -1.
     999902    2    1    2    0    0  0.51312182486E-02  0.61513520708E-02 -0.21992069894E-01  0.10205244521E+01  0.10202560158E+01 0.  0.
     999903    2    3    3    0    0  0.39318064476E-01 -0.10801169273E+00  0.53650256414E-01  0.12927605646E+00  0.24930158412E-01 0.  0.
         14    1    1    2    0    0 -0.51312182486E-02 -0.61513520708E-02  0.21992069894E-01  0.23405547873E-01  0.00000000000E+00 0.  1.
     999901    1    3    3    0    0 -0.34186846227E-01  0.11416304480E+00 -0.75642326308E-01  0.89124839567E+00  0.88000000000E+00 0. -1.
        -11    1    4    4    0    0  0.27340375122E-01 -0.40650471181E-01  0.26173880165E-01  0.55545387233E-01  0.51100000000E-03 0.  1.
         11    1    4    4    0    0  0.11977689354E-01 -0.67361221553E-01  0.27476376249E-01  0.73730669224E-01  0.51100000000E-03 0. -1.
</event>
<event>
 8    1  0.1123361E+005  0.1043930E+01  0.7957747E-01            NaN
         13   -1    0    0    0    0  0.00000000000E+00  0.00000000000E+00  0.74505805969E-08  0.10566000000E+00  0.10566000000E+00 0. -1.
     999900   -1    0    0    0    0 -0.00000000000E+00 -0.00000000000E+00 -0.74505805969E-08  0.93827000000E+00  0.93827000000E+00 0.  1.
     999902    2    1    2    0    0  0.14334449562E-01  0.12908765570E-01  0.13304953423E-01  0.10204963819E+01  0.10202272938E+01 0.  0.
     999903    2    3    3    0    0 -0.63375080603E-02 -0.11279692301E-01  0.12922620994E+00  0.13232401739E+00  0.25354225975E-01 0.  0.
         14    1    1    2    0    0 -0.14334449562E-01 -0.12908765570E-01 -0.13304953423E-01  0.23433618124E-01  0.00000000000E+00 0.  1.
     999901    1    3    3    0    0  0.20671957622E-01  0.24188457871E-01 -0.11592125652E+00  0.88817236449E+00  0.88000000000E+00 0.  1.
        -11    1    4    4    0    0 -0.14208196650E-01 -0.75133225796E-02  0.47849999482E-01  0.50479762674E-01  0.51100000000E-03 0. -1.
         11    1    4    4    0    0  0.78706885895E-02 -0.37663697212E-02  0.81376210461E-01  0.81844254714E-01  0.51100000000E-03 0.  1.
</event>
<event>
 8    1  0.1123361E+005  0.1043930E+01  0.7957747E-01            NaN
         13   -1    0    0    0    0  0.00000000000E+00  0.00000000000E+00  0.74505805969E-08  0.10566000000E+00  0.10566000000E+00 0.  1.
     999900   -1    0    0    0    0 -0.00000000000E+00 -0.00000000000E+00 -0.74505805969E-08  0.93827000000E+00  0.93827000000E+00 0.  1.
     999902    2    1    2    0    0 -0.96131407999E-02 -0.17505746997E-01 -0.35304604553E-02  0.10236487820E+01  0.10234478497E+01 0.  0.
     999903    2    3    3    0    0 -0.85861021043E-01 -0.94860285056E-01 -0.41894362581E-01  0.13614145648E+00  0.20218059786E-01 0.  0.
         14    1    1    2    0    0  0.96131407999E-02  0.17505746997E-01  0.35304604553E-02  0.20281218035E-01  0.00000000000E+00 0. -1.
     999901    1    3    3    0    0  0.76247880243E-01  0.77354538059E-01  0.38363902125E-01  0.88750732548E+00  0.88000000000E+00 0. -1.
        -11    1    4    4    0    0 -0.22067233309E-01 -0.35574238803E-01 -0.76429338666E-02  0.42557782031E-01  0.51100000000E-03 0.  1.
         11    1    4    4    0    0 -0.63793787733E-01 -0.59286046253E-01 -0.34251428714E-01  0.93583674450E-01  0.51100000000E-03 0. -1.
</event>
<event>
 8    1  0.1123361E+005  0.1043930E+01  0.7957747E-01            NaN
         13   -1    0    0    0    0  0.00000000000E+00  0.00000000000E+00  0.74505805969E-08  0.10566000000E+00  0.10566000000E+00 0. -1.
     999900   -1    0    0    0    0 -0.00000000000E+00 -0.00000000000E+00 -0.74505805969E-08  0.93827000000E+00  0.93827000000E+00 0. -1.
     999902    2    1    2    0    0 -0.18247869633E-01  0.12056532910E-01 -0.24105037217E-02  0.10219264716E+01  0.10216895606E+01 0.  0.
     999903    2    3    3    0    0 -0.98935046287E-01 -0.38655148385E-01 -0.78474073627E-01  0.13351904160E+00  0.19666986467E-01 0.  0.
         14    1    1    2    0    0  0.18247869633E-01 -0.12056532910E-01  0.24105037217E-02  0.22003528357E-01  0.00000000000E+00 0. -1.
     999901    1    3    3    0    0  0.80687176654E-01  0.50711681294E-01  0.76063569906E-01  0.88840743005E+00  0.88000000000E+00 0.  1.
        -11    1    4    4    0    0 -0.41094208739E-01 -0.58234297814E-02 -0.30761224336E-01  0.51663917486E-01  0.51100000000E-03 0.  1.
         11    1    4    4    0    0 -0.57840837548E-01 -0.32831718603E-01 -0.47712849291E-01  0.81855124111E-01  0.51100000000E-03 0. -1.
</event>
<event>
 7    1  0.1123361E+005  0.1043930E+01  0.7957747E-01            NaN
         13   -1    0    0    0    0  0.00000000000E+00  0.00000000000E+00  0.74505805969E-08  0.10566000000E+00  0.10566000000E+00 0. -1.
     999900   -1    0    0    0    0 -0.00000000000E+00 -0.00000000000E+00 -0.74505805969E-08  0.93827000000E+00  0.93827000000E+00 0.  1.
     999902    2    1    2    0    0  0.41003156311E-02 -0.23296251750E-01 -0.54264405030E-02  0.10196612095E+01  0.10193723599E+01 0.  0.
         14    1    1    2    0    0 -0.41003156311E-02  0.23296251750E-01  0.54264405030E-02  0.24268790461E-01  0.00000000000E+00 0.  1.
     999901    1    3    3    0    0 -0.10629414251E+00 -0.12109917432E-01  0.53845551301E-01  0.88811285219E+00  0.88000000000E+00 0.  1.
        -11    1    3    3    0    0  0.67224275667E-01 -0.32177264696E-02 -0.55946976253E-01  0.87520182103E-01  0.51100000000E-03 0. -1.
         11    1    3    3    0    0  0.43170182475E-01 -0.79686078489E-02 -0.33250155517E-02  0.44028175245E-01  0.51100000000E-03 0.  1.
</event>
<event>
 8    1  0.1123361E+005  0.1043930E+01  0.7957747E-01            NaN
         13   -1    0    0    0    0  0.00000000000E+00  0.00000000000E+00  0.74505805969E-08  0.10566000000E+00  0.10566000000E+00 0.  1.
     999900   -1    0    0    0    0 -0.00000000000E+00 -0.00000000000E+00 -0.74505805969E-08  0.93827000000E+00  0.93827000000E+00 0.  1.
     999902    2    1    2    0    0 -0.78820288620E-02  0.12121143536E-01  0.19580423444E-01  0.10195898792E+01  0.10192993085E+01 0.  0.
     999903    2    3    3    0    0 -0.79060633296E-01 -0.35428545209E-01 -0.92553597900E-01  0.12835399268E+00  0.20070211758E-01 0.  0.
         14    1    1    2    0    0  0.78820288620E-02 -0.12121143536E-01 -0.19580423444E-01  0.24340120827E-01  0.00000000000E+00 0.  1.
     999901    1    3    3    0    0  0.71178604434E-01  0.47549688746E-01  0.11213402134E+00  0.89123588649E+00  0.88000000000E+00 0. -1.
        -11    1    4    4    0    0 -0.43999198388E-01 -0.18371045062E-01 -0.64969887890E-01  0.80590149578E-01  0.51100000000E-03 0. -1.
         11    1    4    4    0    0 -0.35061434908E-01 -0.17057500147E-01 -0.27583710010E-01  0.47763843103E-01  0.51100000000E-03 0.  1.
</event>
<event>
 8    1  0.1123361E+005  0.1043930E+01  0.7957747E-01            NaN
         13   -1    0    0    0    0  0.00000000000E+00  0.00000000000E+00  0.74505805969E-08  0.10566000000E+00  0.10566000000E+00 0.  1.
     999900   -1    0    0    0    0 -0.00000000000E+00 -0.00000000000E+00 -0.74505805969E-08  0.93827000000E+00  0.93827000000E+00 0.  1.
     999902    2    1    2    0    0  0.14382004179E-01  0.16043923742E-01 -0.70194258173E-02  0.10212689790E+01  0.10210175344E+01 0.  0.
     999903    2    3    3    0    0 -0.70414105625E-01  0.18843342955E-01 -0.10761169772E+00  0.13148416112E+00  0.19864271827E-01 0.  0.
         14    1    1    2    0    0 -0.14382004179E-01 -0.16043923742E-01  0.70194258173E-02  0.22661020984E-01  0.00000000000E+00 0.  1.
     999901    1    3    3    0    0  0.84796109804E-01 -0.27994192132E-02  0.10059227190E+00  0.88978481789E+00  0.88000000000E+00 0. -1.
        -11    1    4    4    0    0 -0.52486136719E-01  0.17455948971E-01 -0.65765414881E-01  0.85935182653E-01  0.51100000000E-03 0. -1.
         11    1    4    4    0    0 -0.17927968906E-01  0.13873939841E-02 -0.41846282839E-01  0.45548978470E-01  0.51100000000E-03 0.  1.
</event>
<event>
 8    1  0.1123361E+005  0.1043930E+01  0.7957747E-01            NaN
         13   -1    0    0    0    0  0.00000000000E+00  0.00000000000E+00  0.74505805969E-08  0.10566000000E+00  0.10566000000E+00 0.  1.
     999900   -1    0    0    0    0 -0.00000000000E+00 -0.00000000000E+00 -0.74505805969E-08  0.93827000000E+00  0.93827000000E+00 0.  1.
     999902    2    1    2    0    0  0.10449155356E-02  0.22059940454E-01  0.61877888364E-02  0.10209948403E+01  0.10207372053E+01 0.  0.
     999903    2    3    3    0    0 -0.27298810621E-01 -0.12405324894E+00 -0.14404110645E-02  0.12846438120E+00  0.19146509347E-01 0.  0.
         14    1    1    2    0    0 -0.10449155356E-02 -0.22059940454E-01 -0.61877888364E-02  0.22935159733E-01  0.00000000000E+00 0. -1.
     999901    1    3    3    0    0  0.28343726156E-01  0.14611318939E+00  0.76281999009E-02  0.89253045907E+00  0.88000000000E+00 0.  1.
        -11    1    4    4    0    0  0.46770043829E-03 -0.33481519656E-01  0.30282384185E-02  0.33625321576E-01  0.51100000000E-03 0. -1.
         11    1    4    4    0    0 -0.27766511059E-01 -0.90571729281E-01 -0.44686494829E-02  0.94839059625E-01  0.51100000000E-03 0.  1.
</event>
<event>
 8    1  0.1123361E+005  0.1043930E+01  0.7957747E-01            NaN
         13   -1    0    0    0    0  0.00000000000E+00  0.00000000000E+00  0.74505805969E-08  0.10566000000E+00  0.10566000000E+00 0. -1.
     999900   -1    0    0    0    0 -0.00000000000E+00 -0.00000000000E+00 -0.74505805969E-08  0.93827000000E+00  0.93827000000E+00 0. -1.
     999902    2    1    2    0    0  0.14631727979E-01 -0.12786456253E-01 -0.12797020236E-01  0.10206631856E+01  0.10203979585E+01 0.  0.
     999903    2    3    3    0    0  0.67794338797E-01  0.42970510503E-01 -0.10421930173E+00  0.13257921651E+00  0.16524183821E-01 0.  0.
         14    1    1    2    0    0 -0.14631727979E-01  0.12786456253E-01  0.12797020236E-01  0.23266814438E-01  0.00000000000E+00 0. -1.
     999901    1    3    3    0    0 -0.53162610818E-01 -0.55756966756E-01  0.91422281499E-01  0.88808396905E+00  0.88000000000E+00 0.  1.
        -11    1    4    4    0    0  0.24934850942E-01  0.73921000063E-02 -0.37922089096E-01  0.45986257691E-01  0.51100000000E-03 0.  1.
         11    1    4    4    0    0  0.42859487855E-01  0.35578410497E-01 -0.66297212639E-01  0.86592958821E-01  0.51100000000E-03 0. -1.
</event>
<event>
 8    1  0.1123361E+005  0.1043930E+01  0.7957747E-01            NaN
         13   -1    0    0    0    0  0.00000000000E+00  0.00000000000E+00  0.74505805969E-08  0.10566000000E+00  0.10566000000E+00 0. -1.
     999900   -1    0    0    0    0 -0.00000000000E+00 -0.00000000000E+00 -0.74505805969E-08  0.93827000000E+00  0.93827000000E+00 0.  1.
     999902    2    1    2    0    0 -0.81620629756E-02  0.19023052118E-01 -0.14423633252E-01  0.10187003155E+01  0.10183878415E+01 0.  0.
     999903    2    3    3    0    0  0.11937837081E+00 -0.39041664190E-01  0.53101851071E-02  0.12739369199E+00  0.20627838774E-01 0.  0.
         14    1    1    2    0    0  0.81620629756E-02 -0.19023052118E-01  0.14423633252E-01  0.25229684502E-01  0.00000000000E+00 0. -1.
     999901    1    3    3    0    0 -0.12754043378E+00  0.58064716308E-01 -0.19733818359E-01  0.89130662351E+00  0.88000000000E+00 0.  1.
        -11    1    4    4    0    0  0.85215958965E-01 -0.31264706082E-01  0.12485670954E-01  0.91626385987E-01  0.51100000000E-03 0. -1.
         11    1    4    4    0    0  0.34162411842E-01 -0.77769581078E-02 -0.71754858472E-02  0.35767305999E-01  0.51100000000E-03 0.  1.
</event>
<event>
 8    1  0.1123361E+005  0.1043930E+01  0.7957747E-01            NaN
         13   -1    0    0    0    0  0.00000000000E+00  0.00000000000E+00  0.74505805969E-08  0.10566000000E+00  0.10566000000E+00 0.  1.
     999900   -1    0    0    0    0 -0.00000000000E+00 -0.00000000000E+00 -0.74505805969E-08  0.93827000000E+00  0.93827000000E+00 0. -1.
     999902    2    1    2    0    0  0.76816526306E-02 -0.15437297909E-01  0.16760957927E-01  0.10198832192E+01  0.10195996926E+01 0.  0.
     999903    2    3    3    0    0 -0.80692161826E-01 -0.80046053755E-01  0.63718010473E-01  0.13185777637E+00  0.20196351875E-01 0.  0.
         14    1    1    2    0    0 -0.76816526306E-02  0.15437297909E-01 -0.16760957927E-01  0.24046780751E-01  0.00000000000E+00 0. -1.
     999901    1    3    3    0    0  0.88373814457E-01  0.64608755846E-01 -0.46957052545E-01  0.88802544288E+00  0.88000000000E+00 0. -1.
        -11    1    4    4    0    0 -0.15093541289E-01 -0.24090220813E-01  0.93770287385E-02  0.29938996584E-01  0.51100000000E-03 0.  1.
         11    1    4    4    0    0 -0.65598620537E-01 -0.55955832942E-01  0.54340981734E-01  0.10191877979E+00  0.51100000000E-03 0. -1.
</event>
<event>
 8    1  0.1123361E+005  0.1043930E+01  0.7957747E-01            NaN
         13   -1    0    0    0    0  0.00000000000E+00  0.00000000000E+00  0.74505805969E-08  0.10566000000E+00  0.10566000000E+00 0.  1.
     999900   -1    0    0    0    0 -0.00000000000E+00 -0.00000000000E+00 -0.74505805969E-08  0.93827000000E+00  0.93827000000E+00 0.  1.
     999902    2    1    2    0    0 -0.22265531429E-01 -0.29877972836E-02  0.74219697347E-02  0.10202706159E+01  0.10199962564E+01 0.  0.
     999903    2    3    3    0    0  0.86564849766E-01  0.35370979696E-01 -0.84926619302E-01  0.12794572575E+00  0.20322368259E-01 0.  0.
         14    1    1    2    0    0  0.22265531429E-01  0.29877972836E-02 -0.74219697347E-02  0.23659384125E-01  0.00000000000E+00 0.  1.
     999901    1    3    3    0    0 -0.10883038119E+00 -0.38358776980E-01  0.92348589037E-01  0.89232489013E+00  0.88000000000E+00 0. -1.
        -11    1    4    4    0    0  0.63936144530E-01  0.18059471761E-01 -0.51780858806E-01  0.84234752670E-01  0.51100000000E-03 0.  1.
         11    1    4    4    0    0  0.22628705235E-01  0.17311507935E-01 -0.33145760496E-01  0.43710973079E-01  0.51100000000E-03 0. -1.
</event>
<event>
 8    1  0.1123361E+005  0.1043930E+01  0.7957747E-01            NaN
         13   -1    0    0    0    0  0.00000000000E+00  0.00000000000E+00  0.74505805969E-08  0.10566000000E+00  0.10566000000E+00 0. -1.
     999900   -1    0    0    0    0 -0.00000000000E+00 -0.00000000000E+00 -0.74505805969E-08  0.93827000000E+00  0.93827000000E+00 0. -1.
     999902    2    1    2    0    0 -0.33890035437E-02 -0.36360490871E-03 -0.23214361149E-01  0.10204667496E+01  0.10201969727E+01 0.  0.
     999903    2    3    3    0    0 -0.96628470578E-01 -0.37111813558E-01  0.75230656075E-01  0.12932397182E+00  0.18726720027E-01 0.  0.
         14    1    1    2    0    0  0.33890035437E-02  0.36360490871E-03  0.23214361149E-01  0.23463250352E-01  0.00000000000E+00 0. -1.
     999901    1    3    3    0    0  0.93239467035E-01  0.36748208649E-01 -0.98445017224E-01  0.89114277782E+00  0.88000000000E+00 0. -1.
        -11    1    4    4    0    0 -0.51455217279E-01 -0.28872467351E-01  0.46830941306E-01  0.75330318868E-01  0.51100000000E-03 0.  1.
         11    1    4    4    0    0 -0.45173253299E-01 -0.82393462068E-02  0.28399714769E-01  0.53993652956E-01  0.51100000000E-03 0. -1.
</event>
<event>
 8    1  0.1123361E+005  0.1043930E+01  0.7957747E-01            NaN
         13   -1    0    0    0    0  0.00000000000E+00  0.00000000000E+00  0.74505805969E-08  0.10566000000E+00  0.10566000000E+00 0.  1.
     999900   -1    0    0    0    0 -0.00000000000E+00 -0.00000000000E+00 -0.74505805969E-08  0.93827000000E+00  0.93827000000E+00 0. -1.
     999902    2    1    2    0    0 -0.17188881827E-01 -0.64275238664E-02 -0.15475778480E-01  0.10199243665E+01  0.10196418209E+01 0.  0.
     999903    2    3    3    0    0 -0.79911923921E-01 -0.10415321373E+00 -0.96308052054E-02  0.13227654544E+00  0.13058504859E-01 0.  0.
         14    1    1    2    0    0  0.17188881827E-01  0.64275238664E-02  0.15475778480E-01  0.24005633528E-01  0.00000000000E+00 0.  1.
     999901    1    3    3    0    0  0.62723042094E-01  0.97725689866E-01 -0.58449732743E-02  0.88764782103E+00  0.88000000000E+00 0.  1.
        -11    1    4    4    0    0 -0.58546285796E-01 -0.78061275616E-01 -0.12739057221E-01  0.98406173745E-01  0.51100000000E-03 0.  1.
         11    1    4    4    0    0 -0.21365638126E-01 -0.26091938116E-01  0.31082520159E-02  0.33870371695E-01  0.51100000000E-03 0. -1.
</event>
<event>
 8    1  0.1123361E+005  0.1043930E+01  0.7957747E-01            NaN
         13   -1    0    0    0    0  0.00000000000E+00  0.00000000000E+00  0.74505805969E-08  0.10566000000E+00  0.10566000000E+00 0. -1.
     999900   -1    0    0    0    0 -0.00000000000E+00 -0.00000000000E+00 -0.74505805969E-08  0.93827000000E+00  0.93827000000E+00 0.  1.
     999902    2    1    2    0    0 -0.20328515546E-01 -0.11603644819E-01 -0.60667296464E-03  0.10205150225E+01  0.10202463673E+01 0.  0.
     999903    2    3    3    0    0  0.47802671013E-01  0.21587765960E-01 -0.11694006676E+00  0.12962951539E+00  0.19434635382E-01 0.  0.
         14    1    1    2    0    0  0.20328515546E-01  0.11603644819E-01  0.60667296464E-03  0.23414977460E-01  0.00000000000E+00 0. -1.
     999901    1    3    3    0    0 -0.68131186558E-01 -0.33191410779E-01  0.11633339379E+00  0.89088550715E+00  0.88000000000E+00 0. -1.
        -11    1    4    4    0    0  0.33292259286E-01  0.46776243140E-02 -0.68432196319E-01  0.76246188834E-01  0.51100000000E-03 0. -1.
         11    1    4    4    0    0  0.14510411727E-01  0.16910141646E-01 -0.48507870440E-01  0.53383326560E-01  0.51100000000E-03 0.  1.
</event>
<event>
 8    1  0.1123361E+005  0.1043930E+01  0.7957747E-01            NaN
         13   -1    0    0    0    0  0.00000000000E+00  0.00000000000E+00  0.74505805969E-08  0.10566000000E+00  0.10566000000E+00 0. -1.
     999900   -1    0    0    0    0 -0.00000000000E+00 -0.00000000000E+00 -0.74505805969E-08  0.93827000000E+00  0.93827000000E+00 0.  1.
     999902    2    1    2    0    0  0.17785056740E-02 -0.89636403451E-02 -0.22466859654E-01  0.10196757279E+01  0.10193872279E+01 0.  0.
     999903    2    3    3    0    0 -0.83350809715E-01  0.49497470810E-01 -0.86260284343E-01  0.13134341236E+00  0.20319897138E-01 0.  0.
         14    1    1    2    0    0 -0.17785056740E-02  0.89636403451E-02  0.22466859654E-01  0.24254272064E-01  0.00000000000E+00 0. -1.
     999901    1    3    3    0    0  0.85129315389E-01 -0.58461111155E-01  0.63793424689E-01  0.88833231557E+00  0.88000000000E+00 0. -1.
        -11    1    4    4    0    0 -0.22297189452E-01  0.20242294306E-01 -0.36491486978E-01  0.47316010812E-01  0.51100000000E-03 0.  1.
         11    1    4    4    0    0 -0.61053620263E-01  0.29255176504E-01 -0.49768797364E-01  0.84027401552E-01  0.51100000000E-03 0. -1.
</event>
<event>
 8    1  0.1123361E+005  0.1043930E+01  0.7957747E-01            NaN
         13   -1    0    0    0    0  0.00000000000E+00  0.00000000000E+00  0.74505805969E-08  0.10566000000E+00  0.10566000000E+00 0.  1.
     999900   -1    0    0    0    0 -0.00000000000E+00 -0.00000000000E+00 -0.74505805969E-08  0.93827000000E+00  0.93827000000E+00 0.  1.
     999902    2    1    2    0    0  0.21059608200E-01  0.61458071771E-02 -0.90828860139E-02  0.10201860142E+01  0.10199096660E+01 0.  0.
     999903    2    3    3    0    0  0.79808287714E-01 -0.54307669044E-01 -0.88657946461E-01  0.13258350160E+00  0.19986688574E-01 0.  0.
         14    1    1    2    0    0 -0.21059608200E-01 -0.61458071771E-02  0.90828860139E-02  0.23743985801E-01  0.00000000000E+00 0. -1.
     999901    1    3    3    0    0 -0.58748679514E-01  0.60453476221E-01  0.79575060448E-01  0.88760251260E+00  0.88000000000E+00 0. -1.
        -11    1    4    4    0    0  0.42545080712E-01 -0.36443012848E-01 -0.40524985196E-01  0.69142697549E-01  0.51100000000E-03 0. -1.
         11    1    4    4    0    0  0.37263207002E-01 -0.17864656196E-01 -0.48132961266E-01  0.63440804049E-01  0.51100000000E-03 0.  1.
</event>
<event>
 8    1  0.1123361E+005  0.1043930E+01  0.7957747E-01            NaN
         13   -1    0    0    0    0  0.00000000000E+00  0.00000000000E+00  0.74505805969E-08  0.10566000000E+00  0.10566000000E+00 0. -1.
     999900   -1    0    0    0    0 -0.00000000000E+00 -0.00000000000E+00 -0.74505805969E-08  0.93827000000E+00  0.93827000000E+00 0. -1.
     999902    2    1    2    0    0 -0.14195797969E-01 -0.17336498577E-01  0.56675892124E-02  0.10208173102E+01  0.10205556253E+01 0.  0.
     999903    2    3    3    0    0 -0.52978460091E-01  0.15713527710E-02 -0.11854760643E+00  0.13104710584E+00  0.17624487939E-01 0.  0.
         14    1    1    2    0    0  0.14195797969E-01  0.17336498577E-01 -0.56675892124E-02  0.23112689813E-01  0.00000000000E+00 0.  1.
     999901    1    3    3    0    0  0.38782662122E-01 -0.18907851348E-01  0.12421519564E+00  0.88977020435E+00  0.88000000000E+00 0.  1.
        -11    1    4    4    0    0 -0.46612432481E-01  0.42939071308E-02 -0.87528381142E-01  0.99260440894E-01  0.51100000000E-03 0. -1.
         11    1    4    4    0    0 -0.63660276097E-02 -0.27225543598E-02 -0.31019225285E-01  0.31786664941E-01  0.51100000000E-03 0.  1.
</event>
<event>
 8    1  0.1123361E+005  0.1043930E+01  0.7957747E-01            NaN
         13   -1    0    0    0    0  0.00000000000E+00  0.00000000000E+00  0.74505805969E-08  0.10566000000E+00  0.10566000000E+00 0.  1.
     999900   -1    0    0    0    0 -0.00000000000E+00 -0.00000000000E+00 -0.74505805969E-08  0.93827000000E+00  0.93827000000E+00 0.  1.
     999902    2    1    2    0    0 -0.18234417651E-01 -0.15024426146E-01 -0.36126632966E-03  0.10203004024E+01  0.10200267415E+01 0.  0.
     999903    2    3    3    0    0 -0.63828896871E-02 -0.12444173783E+00  0.40282992339E-01  0.13251407533E+00  0.20267542878E-01 0.  0.
         14    1    1    2    0    0  0.18234417651E-01  0.15024426146E-01  0.36126632966E-03  0.23629597573E-01  0.00000000000E+00 0. -1.
     999901    1    3    3    0    0 -0.11851527964E-01  0.10941731169E+00 -0.40644258669E-01  0.88778632709E+00  0.88000000000E+00 0.  1.
        -11    1    4    4    0    0 -0.13753128766E-01 -0.77470616336E-01  0.24272603390E-01  0.82342366632E-01  0.51100000000E-03 0. -1.
         11    1    4    4    0    0  0.73702390790E-02 -0.46971121496E-01  0.16010388949E-01  0.50171708701E-01  0.51100000000E-03 0.  1.
</event>
<event>
 8    1  0.1123361E+005  0.1043930E+01  0.7957747E-01            NaN
         13   -1    0    0    0    0  0.00000000000E+00  0.00000000000E+00  0.74505805969E-08  0.10566000000E+00  0.10566000000E+00 0. -1.
     999900   -1    0    0    0    0 -0.00000000000E+00 -0.00000000000E+00 -0.74505805969E-08  0.93827000000E+00  0.93827000000E+00 0.  1.
     999902    2    1    2    0    0 -0.17497954187E-01 -0.60412625486E-04 -0.18367327430E-01  0.10185618947E+01  0.10182459391E+01 0.  0.
     999903    2    3    3    0    0  0.46757253486E-01 -0.11738202322E+00 -0.10600608394E-01  0.12841953868E+00  0.20357428318E-01 0.  0.
         14    1    1    2    0    0  0.17497954187E-01  0.60412625486E-04  0.18367327430E-01  0.25368105316E-01  0.00000000000E+00 0. -1.
     999901    1    3    3    0    0 -0.64255207673E-01  0.11732161060E+00 -0.77667190358E-02  0.89014235600E+00  0.88000000000E+00 0.  1.
        -11    1    4    4    0    0  0.30199763434E-01 -0.49142068834E-01 -0.70020647003E-02  0.58105582106E-01  0.51100000000E-03 0.  1.
         11    1    4    4    0    0  0.16557490051E-01 -0.68239954387E-01 -0.35985436935E-02  0.70313956575E-01  0.51100000000E-03 0. -1.
</event>
<event>
 8    1  0.1123361E+005  0.1043930E+01  0.7957747E-01            NaN
         13   -1    0    0    0    0  0.00000000000E+00  0.00000000000E+00  0.74505805969E-08  0.10566000000E+00  0.10566000000E+00 0.  1.
     999900   -1    0    0    0    0 -0.00000000000E+00 -0.00000000000E+00 -0.74505805969E-08  0.93827000000E+00  0.93827000000E+00 0.  1.
     999902    2    1    2    0    0 -0.10623048835E-01  0.17261391986E-01  0.12571096697E-01  0.10200796899E+01  0.10198008318E+01 0.  0.
     999903    2    3    3    0    0 -0.35831206440E-01 -0.90308023631E-01 -0.81247988668E-01  0.12822283414E+00  0.20011123025E-01 0.  0.
         14    1    1    2    0    0  0.10623048835E-01 -0.17261391986E-01 -0.12571096697E-01  0.23850310103E-01  0.00000000000E+00 0. -1.
     999901    1    3    3    0    0  0.25208157605E-01  0.10756941562E+00  0.93819085365E-01  0.89185685576E+00  0.88000000000E+00 0. -1.
        -11    1    4    4    0    0 -0.54553504863E-02 -0.22433020464E-01 -0.30229126690E-01  0.38040274414E-01  0.51100000000E-03 0. -1.
         11    1    4    4    0    0 -0.30375855954E-01 -0.67875003166E-01 -0.51018861978E-01  0.90182559723E-01  0.51100000000E-03 0.  1.
</event>
<event>
 8    1  0.1123361E+005  0.1043930E+01  0.7957747E-01            NaN
         13   -1    0    0    0    0  0.00000000000E+00  0.00000000000E+00  0.74505805969E-08  0.10566000000E+00  0.10566000000E+00 0.  1.
     999900   -1    0    0    0    0 -0.00000000000E+00 -0.00000000000E+00 -0.74505805969E-08  0.93827000000E+00  0.93827000000E+00 0. -1.
     999902    2    1    2    0    0 -0.78472951299E-02 -0.21233436109E-01 -0.73081688069E-02  0.10201424364E+01  0.10198650609E+01 0.  0.
     999903    2    3    3    0    0 -0.11562359796E+00  0.17861136722E-01 -0.56378116964E-01  0.13135001021E+00  0.19659514241E-01 0.  0.
         14    1    1    2    0    0  0.78472951299E-02  0.21233436109E-01  0.73081688069E-02  0.23787563582E-01  0.00000000000E+00 0.  1.
     999901    1    3    3    0    0  0.10777630283E+00 -0.39094572831E-01  0.49069948157E-01  0.88879242621E+00  0.88000000000E+00 0.  1.
        -11    1    4    4    0    0 -0.91177070531E-01  0.15766384022E-01 -0.35426103074E-01  0.99081314867E-01  0.51100000000E-03 0. -1.
         11    1    4    4    0    0 -0.24446527424E-01  0.20947526995E-02 -0.20952013890E-01  0.32268695341E-01  0.51100000000E-03 0.  1.
</event>
<event>
 7    1  0.1123361E+005  0.1043930E+01  0.7957747E-01            NaN
         13   -1    0    0    0    0  0.00000000000E+00  0.00000000000E+00  0.74505805969E-08  0.10566000000E+00  0.10566000000E+00 0. -1.
     999900   -1    0    0    0    0 -0.00000000000E+00 -0.00000000000E+00 -0.74505805969E-08  0.93827000000E+00  0.93827000000E+00 0. -1.
     999903    2    1    2    0    0 -0.56322365535E-02 -0.98727979348E-01 -0.30138623327E-01  0.10533342822E+00  0.20195506649E-01 0.  0.
         14    1    1    2    0    0 -0.50546831993E-01  0.92260457755E-02 -0.46515120431E-02  0.51592041145E-01  0.00000000000E+00 0. -1.
     999901    1    1    2    0    0  0.56179068547E-01  0.89501933573E-01  0.34790135370E-01  0.88700453064E+00  0.88000000000E+00 0. -1.
        -11    1    3    3    0    0 -0.22657289641E-02 -0.16198778452E-01 -0.13177655111E-01  0.21010608423E-01  0.51100000000E-03 0.  1.
         11    1    3    3    0    0 -0.33665075894E-02 -0.82529200897E-01 -0.16960968216E-01  0.84322819793E-01  0.51100000000E-03 0. -1.
</event>
<event>
 8    1  0.1123361E+005  0.1043930E+01  0.7957747E-01            NaN
         13   -1    0    0    0    0  0.00000000000E+00  0.00000000000E+00  0.74505805969E-08  0.10566000000E+00  0.10566000000E+00 0.  1.
     999900   -1    0    0    0    0 -0.00000000000E+00 -0.00000000000E+00 -0.74505805969E-08  0.93827000000E+00  0.93827000000E+00 0.  1.
     999902    2    1    2    0    0  0.10352473914E-01  0.18535341899E-01  0.67738827406E-02  0.10216450701E+01  0.10214019929E+01 0.  0.
     999903    2    3    3    0    0  0.13009628155E+00 -0.81647610057E-02 -0.17169670674E-01  0.13281169494E+00  0.18773463360E-01 0.  0.
         14    1    1    2    0    0 -0.10352473914E-01 -0.18535341899E-01 -0.67738827406E-02  0.22284929949E-01  0.00000000000E+00 0. -1.
     999901    1    3    3    0    0 -0.11974380763E+00  0.26700102904E-01  0.23943553415E-01  0.88883337511E+00  0.88000000000E+00 0.  1.
        -11    1    4    4    0    0  0.77380615418E-01  0.19841450975E-02 -0.38789742887E-02  0.77504864601E-01  0.51100000000E-03 0. -1.
         11    1    4    4    0    0  0.52715666131E-01 -0.10148906103E-01 -0.13290696385E-01  0.55306830339E-01  0.51100000000E-03 0.  1.
</event>
<event>
 8    1  0.1123361E+005  0.1043930E+01  0.7957747E-01            NaN
         13   -1    0    0    0    0  0.00000000000E+00  0.00000000000E+00  0.74505805969E-08  0.10566000000E+00  0.10566000000E+00 0. -1.
     999900   -1    0    0    0    0 -0.00000000000E+00 -0.00000000000E+00 -0.74505805969E-08  0.93827000000E+00  0.93827000000E+00 0.  1.
     999902    2    1    2    0    0  0.13714537198E-01  0.16535971311E-01 -0.10100397442E-01  0.10201908992E+01  0.10199146660E+01 0.  0.
     999903    2    3    3    0    0  0.94027145411E-01 -0.23084663620E-01  0.85723605066E-01  0.13047063463E+00  0.17321785894E-01 0.  0.
         14    1    1    2    0    0 -0.13714537198E-01 -0.16535971311E-01  0.10100397442E-01  0.23739100788E-01  0.00000000000E+00 0. -1.
     999901    1    3    3    0    0 -0.80312608213E-01  0.39620634931E-01 -0.95824002508E-01  0.88972026458E+00  0.88000000000E+00 0. -1.
        -11    1    4    4    0    0  0.36430411834E-01 -0.16360161910E-01  0.29053915231E-01  0.49388469458E-01  0.51100000000E-03 0.  1.
         11    1    4    4    0    0  0.57596733577E-01 -0.67245017104E-02  0.56669689835E-01  0.81082165172E-01  0.51100000000E-03 0. -1.
</event>
<event>
 8    1  0.1123361E+005  0.1043930E+01  0.7957747E-01            NaN
         13   -1    0    0    0    0  0.00000000000E+00  0.00000000000E+00  0.74505805969E-08  0.10566000000E+00  0.10566000000E+00 0.  1.
     999900   -1    0    0    0    0 -0.00000000000E+00 -0.00000000000E+00 -0.74505805969E-08  0.93827000000E+00  0.93827000000E+00 0. -1.
     999902    2    1    2    0    0 -0.12672955034E-01 -0.14250325030E-01 -0.17202383527E-01  0.10182473687E+01  0.10179234285E+01 0.  0.
     999903    2    3    3    0    0  0.11824521828E+00  0.71878082533E-02 -0.45333725202E-01  0.12785951271E+00  0.16103170971E-01 0.  0.
         14    1    1    2    0    0  0.12672955034E-01  0.14250325030E-01  0.17202383527E-01  0.25682631325E-01  0.00000000000E+00 0.  1.
     999901    1    3    3    0    0 -0.13091817332E+00 -0.21438133284E-01  0.28131341675E-01  0.89038785596E+00  0.88000000000E+00 0.  1.
        -11    1    4    4    0    0  0.73210341476E-01 -0.19770610794E-03 -0.34591657049E-01  0.80973063702E-01  0.51100000000E-03 0. -1.
         11    1    4    4    0    0  0.45034876808E-01  0.73855143613E-02 -0.10742068152E-01  0.46886449009E-01  0.51100000000E-03 0.  1.
</event>
<event>
 8    1  0.1123361E+005  0.1043930E+01  0.7957747E-01            NaN
         13   -1    0    0    0    0  0.00000000000E+00  0.00000000000E+00  0.74505805969E-08  0.10566000000E+00  0.10566000000E+00 0.  1.
     999900   -1    0    0    0    0 -0.00000000000E+00 -0.00000000000E+00 -0.74505805969E-08  0.93827000000E+00  0.93827000000E+00 0.  1.
     999902    2    1    2    0    0 -0.17111870353E-01  0.15972984816E-01  0.41224506647E-02  0.10201613873E+01  0.10198844587E+01 0.  0.
     999903    2    3    3    0    0  0.69143251508E-01  0.41616880081E-01  0.10007138537E+00  0.13038402554E+00  0.21747597757E-01 0.  0.
         14    1    1    2    0    0  0.17111870353E-01 -0.15972984816E-01 -0.41224506647E-02  0.23768612715E-01  0.00000000000E+00 0.  1.
     999901    1    3    3    0    0 -0.86255121861E-01 -0.25643895265E-01 -0.95948934705E-01  0.88977736175E+00  0.88000000000E+00 0.  1.
        -11    1    4    4    0    0  0.15137650060E-01  0.16568744901E-01  0.39629826203E-01  0.45546196360E-01  0.51100000000E-03 0.  1.
         11    1    4    4    0    0  0.54005601448E-01  0.25048135181E-01  0.60441559166E-01  0.84837829176E-01  0.51100000000E-03 0. -1.
</event>
<event>
 8    1  0.1123361E+005  0.1043930E+01  0.7957747E-01            NaN
         13   -1    0    0    0    0  0.00000000000E+00  0.00000000000E+00  0.74505805969E-08  0.10566000000E+00  0.10566000000E+00 0. -1.
     999900   -1    0    0    0    0 -0.00000000000E+00 -0.00000000000E+00 -0.74505805969E-08  0.93827000000E+00  0.93827000000E+00 0. -1.
     999902    2    1    2    0    0  0.11941191956E-01  0.31844422198E-03  0.20100588104E-01  0.10205478035E+01  0.10202799087E+01 0.  0.
     999903    2    3    3    0    0  0.49537940385E-01 -0.10101828489E+00 -0.62217640337E-01  0.13012153540E+00  0.20046889678E-01 0.  0.
         14    1    1    2    0    0 -0.11941191956E-01 -0.31844422198E-03 -0.20100588104E-01  0.23382196522E-01  0.00000000000E+00 0.  1.
     999901    1    3    3    0    0 -0.37596748429E-01  0.10133672911E+00  0.82318228440E-01  0.89042626808E+00  0.88000000000E+00 0. -1.
        -11    1    4    4    0    0  0.27426470248E-01 -0.71861245481E-01 -0.34968090949E-01  0.84494250562E-01  0.51100000000E-03 0. -1.
         11    1    4    4    0    0  0.22111470137E-01 -0.29157039404E-01 -0.27249549388E-01  0.45627284834E-01  0.51100000000E-03 0.  1.
</event>
<event>
 8    1  0.1123361E+005  0.1043930E+01  0.7957747E-01            NaN
         13   -1    0    0    0    0  0.00000000000E+00  0.00000000000E+00  0.74505805969E-08  0.10566000000E+00  0.10566000000E+00 0.  1.
     999900   -1    0    0    0    0 -0.00000000000E+00 -0.00000000000E+00 -0.74505805969E-08  0.93827000000E+00  0.93827000000E+00 0.  1.
     999902    2    1    2    0    0  0.23253970407E-01 -0.49977823282E-02  0.61456103892E-02  0.10193638954E+01  0.10190678377E+01 0.  0.
     999903    2    3    3    0    0 -0.34039225984E-01  0.55344169999E-01 -0.10827900783E+00  0.12806335416E+00  0.21312744647E-01 0.  0.
         14    1    1    2    0    0 -0.23253970407E-01  0.49977823282E-02 -0.61456103892E-02  0.24566104595E-01  0.00000000000E+00 0. -1.
     999901    1    3    3    0    0  0.57293196391E-01 -0.60341952327E-01  0.11442461822E+00  0.89130054124E+00  0.88000000000E+00 0. -1.
        -11    1    4    4    0    0 -0.31461778076E-01  0.41329462614E-01 -0.96401315196E-01  0.10950544577E+00  0.51100000000E-03 0.  1.
         11    1    4    4    0    0 -0.25774479075E-02  0.14014707385E-01 -0.11877692634E-01  0.18557908398E-01  0.51100000000E-03 0. -1.
</event>
<event>
 8    1  0.1123361E+005  0.1043930E+01  0.7957747E-01            NaN
         13   -1    0    0    0    0  0.00000000000E+00  0.00000000000E+00  0.74505805969E-08  0.10566000000E+00  0.10566000000E+00 0. -1.
     999900   -1    0    0    0    0 -0.00000000000E+00 -0.00000000000E+00 -0.74505805969E-08  0.93827000000E+00  0.93827000000E+00 0.  1.
     999902    2    1    2    0    0  0.34434735743E-02 -0.16951475819E-01 -0.15669594827E-01  0.10205902004E+01  0.10203232875E+01 0.  0.
     999903    2    3    3    0    0 -0.27648313363E-01  0.74924663049E-01  0.97793478891E-01  0.12801987086E+00  0.21151559176E-01 0.  0.
         14    1    1    2    0    0 -0.34434735743E-02  0.16951475819E-01  0.15669594827E-01  0.23339799587E-01  0.00000000000E+00 0. -1.
     999901    1    3    3    0    0  0.31091786937E-01 -0.91876138868E-01 -0.11346307372E+00  0.89257032956E+00  0.88000000000E+00 0.  1.
        -11    1    4    4    0    0 -0.92179947331E-02  0.51670760192E-01  0.55902424067E-01  0.76682338405E-01  0.51100000000E-03 0.  1.
         11    1    4    4    0    0 -0.18430318630E-01  0.23253902857E-01  0.41891054825E-01  0.51337532452E-01  0.51100000000E-03 0. -1.
</event>
<event>
 8    1  0.1123361E+005  0.1043930E+01  0.7957747E-01            NaN
         13   -1    0    0    0    0  0.00000000000E+00  0.00000000000E+00  0.74505805969E-08  0.10566000000E+00  0.10566000000E+00 0.  1.
     999900   -1    0    0    0    0 -0.00000000000E+00 -0.00000000000E+00 -0.74505805969E-08  0.93827000000E+00  0.93827000000E+00 0. -1.
     999902    2    1    2    0    0 -0.40429654322E-02 -0.17944840863E-01  0.14575001174E-01  0.10204610089E+01  0.10201910984E+01 0.  0.
     999903    2    3    3    0    0 -0.40384921006E-01 -0.58404386097E-01 -0.10776111985E+00  0.13033526553E+00  0.18243035095E-01 0.  0.
         14    1    1    2    0    0  0.40429654322E-02  0.17944840863E-01 -0.14575001174E-01  0.23468991080E-01  0.00000000000E+00 0.  1.
     999901    1    3    3    0    0  0.36341955574E-01  0.40459545234E-01  0.12233612103E+00  0.89012574339E+00  0.88000000000E+00 0.  1.
        -11    1    4    4    0    0 -0.17242270325E-01 -0.32503705453E-01 -0.41096933924E-01  0.55163446711E-01  0.51100000000E-03 0. -1.
         11    1    4    4    0    0 -0.23142650681E-01 -0.25900680645E-01 -0.66664185927E-01  0.75171818820E-01  0.51100000000E-03 0.  1.
</event>
<event>
 8    1  0.1123361E+005  0.1043930E+01  0.7957747E-01            NaN
         13   -1    0    0    0    0  0.00000000000E+00  0.00000000000E+00  0.74505805969E-08  0.10566000000E+00  0.10566000000E+00 0. -1.
     999900   -1    0    0    0    0 -0.00000000000E+00 -0.00000000000E+00 -0.74505805969E-08  0.93827000000E+00  0.93827000000E+00 0.  1.
     999902    2    1    2    0    0  0.14500893007E-01  0.14831739703E-01  0.11419616422E-01  0.10202516546E+01  0.10199768501E+01 0.  0.
     999903    2    3    3    0    0 -0.81847459059E-01 -0.92443846787E-01  0.27213433652E-01  0.12837694309E+00  0.22253026389E-01 0.  0.
         14    1    1    2    0    0 -0.14500893007E-01 -0.14831739703E-01 -0.11419616422E-01  0.23678345378E-01  0.00000000000E+00 0.  1.
     999901    1    3    3    0    0  0.96348352066E-01  0.10727558649E+00 -0.15793817230E-01  0.89187471153E+00  0.88000000000E+00 0.  1.
        -11    1    4    4    0    0 -0.38451458130E-01 -0.57021420479E-01  0.84267853226E-02  0.69290900252E-01  0.51100000000E-03 0. -1.
         11    1    4    4    0    0 -0.43396000929E-01 -0.35422426308E-01  0.18786648330E-01  0.59086042841E-01  0.51100000000E-03 0.  1.
</event>
<event>
 8    1  0.1123361E+005  0.1043930E+01  0.7957747E-01            NaN
         13   -1    0    0    0    0  0.00000000000E+00  0.00000000000E+00  0.74505805969E-08  0.10566000000E+00  0.10566000000E+00 0. -1.
     999900   -1    0    0    0    0 -0.00000000000E+00 -0.00000000000E+00 -0.74505805969E-08  0.93827000000E+00  0.93827000000E+00 0. -1.
     999902    2    1    2    0    0 -0.13658611837E-01 -0.17079557007E-01  0.85757278990E-02  0.10204393199E+01  0.10201689044E+01 0.  0.
     999903    2    3    3    0    0 -0.43528224503E-01  0.57754798977E-01  0.10773797446E+00  0.13121183167E+00  0.19461513184E-01 0.  0.
         14    1    1    2    0    0  0.13658611837E-01  0.17079557007E-01 -0.85757278990E-02  0.23490680149E-01  0.00000000000E+00 0.  1.
     999901    1    3    3    0    0  0.29869612666E-01 -0.74834355984E-01 -0.99162246562E-01  0.88922748818E+00  0.88000000000E+00 0. -1.
        -11    1    4    4    0    0 -0.32447395964E-01  0.53521624123E-01  0.84976696095E-01  0.10554002915E+00  0.51100000000E-03 0. -1.
         11    1    4    4    0    0 -0.11080828539E-01  0.42331748540E-02  0.22761278366E-01  0.25671802514E-01  0.51100000000E-03 0.  1.
</event>
<event>
 8    1  0.1123361E+005  0.1043930E+01  0.7957747E-01            NaN
         13   -1    0    0    0    0  0.00000000000E+00  0.00000000000E+00  0.74505805969E-08  0.10566000000E+00  0.10566000000E+00 0.  1.
     999900   -1    0    0    0    0 -0.00000000000E+00 -0.00000000000E+00 -0.74505805969E-08  0.93827000000E+00  0.93827000000E+00 0. -1.
     999902    2    1    2    0    0 -0.20291015056E-01 -0.74855561512E-02  0.95971115353E-02  0.10202685674E+01  0.10199941599E+01 0.  0.
     999903    2    3    3    0    0  0.53876558986E-01  0.10295300669E+00 -0.50864366816E-01  0.12821862734E+00  0.18730386832E-01 0.  0.
         14    1    1    2    0    0  0.20291015056E-01  0.74855561512E-02 -0.95971115353E-02  0.23661432600E-01  0.00000000000E+00 0.  1.
     999901    1    3    3    0    0 -0.74167574042E-01 -0.11043856284E+00  0.60461478351E-01  0.89204994006E+00  0.88000000000E+00 0. -1.
        -11    1    4    4    0    0 -0.33716477718E-03  0.28911526720E-02 -0.43838354445E-02  0.52869251995E-02  0.51100000000E-03 0. -1.
         11    1    4    4    0    0  0.54213723764E-01  0.10006185401E+00 -0.46480531371E-01  0.12293170214E+00  0.51100000000E-03 0.  1.
</event>
<event>
 8    1  0.1123361E+005  0.1043930E+01  0.7957747E-01            NaN
         13   -1    0    0    0    0  0.00000000000E+00  0.00000000000E+00  0.74505805969E-08  0.10566000000E+00  0.10566000000E+00 0. -1.
     999900   -1    0    0    0    0 -0.00000000000E+00 -0.00000000000E+00 -0.74505805969E-08  0.93827000000E+00  0.93827000000E+00 0. -1.
     999902    2    1    2    0    0  0.11576267753E-01 -0.77840247829E-02 -0.19710808169E-01  0.10197821849E+01  0.10194962421E+01 0.  0.
     999903    2    3    3    0    0 -0.33061328014E-01  0.10641432126E+00  0.59419705095E-01  0.12776457556E+00  0.19391395909E-01 0.  0.
         14    1    1    2    0    0 -0.11576267753E-01  0.77840247829E-02  0.19710808169E-01  0.24147815131E-01  0.00000000000E+00 0. -1.
     999901    1    3    3    0    0  0.44637595767E-01 -0.11419834604E+00 -0.79130513264E-01  0.89201760931E+00  0.88000000000E+00 0. -1.
        -11    1    4    4    0    0  0.30097851913E-03  0.26251856290E-01  0.12821826834E-01  0.29221754073E-01  0.51100000000E-03 0. -1.
         11    1    4    4    0    0 -0.33362306533E-01  0.80162464965E-01  0.46597878261E-01  0.98542821484E-01  0.51100000000E-03 0.  1.
</event>
<event>
 8    1  0.1123361E+005  0.1043930E+01  0.7957747E-01            NaN
         13   -1    0    0    0    0  0.00000000000E+00  0.00000000000E+00  0.74505805969E-08  0.10566000000E+00  0.10566000000E+00 0.  1.
     999900   -1    0    0    0    0 -0.00000000000E+00 -0.00000000000E+00 -0.74505805969E-08  0.93827000000E+00  0.93827000000E+00 0.  1.
     999902    2    1    2    0    0 -0.55475943433E-02  0.75447566079E-03  0.22632490978E-01  0.10206153118E+01  0.10203489795E+01 0.  0.
     999903    2    3    3    0    0 -0.11470318668E-01 -0.37574376672E-01  0.12655675457E+00  0.13365170934E+00  0.17400152016E-01 0.  0.
         14    1    1    2    0    0  0.55475943433E-02 -0.75447566079E-03 -0.22632490978E-01  0.23314688168E-01  0.00000000000E+00 0. -1.
     999901    1    3    3    0    0  0.59227243250E-02  0.38328852333E-01 -0.10392426359E+00  0.88696360249E+00  0.88000000000E+00 0.  1.
        -11    1    4    4    0    0 -0.31983560568E-03 -0.10341957810E-01  0.59863036175E-01  0.60752799172E-01  0.51100000000E-03 0. -1.
         11    1    4    4    0    0 -0.11150483063E-01 -0.27232418863E-01  0.66693718391E-01  0.72898910167E-01  0.51100000000E-03 0.  1.
</event>
<event>
 8    1  0.1123361E+005  0.1043930E+01  0.7957747E-01            NaN
         13   -1    0    0    0    0  0.00000000000E+00  0.00000000000E+00  0.74505805969E-08  0.10566000000E+00  0.10566000000E+00 0.  1.
     999900   -1    0    0    0    0 -0.00000000000E+00 -0.00000000000E+00 -0.74505805969E-08  0.93827000000E+00  0.93827000000E+00 0. -1.
     999902    2    1    2    0    0  0.14427421202E-01  0.38898388358E-02  0.61578087456E-02  0.10277683189E+01  0.10276412396E+01 0.  0.
     999903    2    3    3    0    0  0.10846998771E+00  0.56040986316E-01  0.64076721762E-01  0.13933241966E+00  0.20034133792E-01 0.  0.
         14    1    1    2    0    0 -0.14427421202E-01 -0.38898388358E-02 -0.61578087456E-02  0.16161681140E-01  0.00000000000E+00 0. -1.
     999901    1    3    3    0    0 -0.94042566504E-01 -0.52151147481E-01 -0.57918913016E-01  0.88843589920E+00  0.88000000000E+00 0.  1.
        -11    1    4    4    0    0  0.59500843419E-01  0.40903257568E-01  0.41903197679E-01  0.83483926261E-01  0.51100000000E-03 0. -1.
         11    1    4    4    0    0  0.48969144288E-01  0.15137728748E-01  0.22173524083E-01  0.55848493401E-01  0.51100000000E-03 0.  1.
</event>
<event>
 8    1  0.1123361E+005  0.1043930E+01  0.7957747E-01            NaN
         13   -1    0    0    0    0  0.00000000000E+00  0.00000000000E+00  0.74505805969E-08  0.10566000000E+00  0.10566000000E+00 0. -1.
     999900   -1    0    0    0    0 -0.00000000000E+00 -0.00000000000E+00 -0.74505805969E-08  0.93827000000E+00  0.93827000000E+00 0. -1.
     999902    2    1    2    0    0  0.17842668014E-01  0.14730655928E-01  0.21840400898E-02  0.10206894523E+01  0.10204248306E+01 0.  0.
     999903    2    3    3    0    0  0.69773368622E-01  0.15971219951E-01 -0.10945884809E+00  0.13211617387E+00  0.18709386347E-01 0.  0.
         14    1    1    2    0    0 -0.17842668014E-01 -0.14730655928E-01 -0.21840400898E-02  0.23240547692E-01  0.00000000000E+00 0.  1.
     999901    1    3    3    0    0 -0.51930700608E-01 -0.12405640227E-02  0.11164288818E+00  0.88857327843E+00  0.88000000000E+00 0.  1.
        -11    1    4    4    0    0  0.46291825940E-01  0.95493016464E-02 -0.86894074752E-01  0.98918975221E-01  0.51100000000E-03 0.  1.
         11    1    4    4    0    0  0.23481542682E-01  0.64219183044E-02 -0.22564773342E-01  0.33197198653E-01  0.51100000000E-03 0. -1.
</event>
<event>
 8    1  0.1123361E+005  0.1043930E+01  0.7957747E-01            NaN
         13   -1    0    0    0    0  0.00000000000E+00  0.00000000000E+00  0.74505805969E-08  0.10566000000E+00  0.10566000000E+00 0. -1.
     999900   -1    0    0    0    0 -0.00000000000E+00 -0.00000000000E+00 -0.74505805969E-08  0.93827000000E+00  0.93827000000E+00 0.  1.
     999902    2    1    2    0    0  0.96301263287E-02 -0.14855412553E-01 -0.16634177501E-01  0.10196376457E+01  0.10193482281E+01 0.  0.
     999903    2    3    3    0    0 -0.24872921802E-01  0.12471189903E-01 -0.12679134918E+00  0.13167829643E+00  0.22111868012E-01 0.  0.
         14    1    1    2    0    0 -0.96301263287E-02  0.14855412553E-01  0.16634177501E-01  0.24292354277E-01  0.00000000000E+00 0. -1.
     999901    1    3    3    0    0  0.34503048131E-01 -0.27326602455E-01  0.11015717168E+00  0.88795934930E+00  0.88000000000E+00 0. -1.
        -11    1    4    4    0    0 -0.20241754489E-01  0.11004915912E-01 -0.53856081793E-01  0.58579650615E-01  0.51100000000E-03 0. -1.
         11    1    4    4    0    0 -0.46311673133E-02  0.14662739904E-02 -0.72935267383E-01  0.73098645811E-01  0.51100000000E-03 0.  1.
</event>
<event>
 8    1  0.1123361E+005  0.1043930E+01  0.7957747E-01            NaN
         13   -1    0    0    0    0  0.00000000000E+00  0.00000000000E+00  0.74505805969E-08  0.10566000000E+00  0.10566000000E+00 0. -1.
     999900   -1    0    0    0    0 -0.00000000000E+00 -0.00000000000E+00 -0.74505805969E-08  0.93827000000E+00  0.93827000000E+00 0. -1.
     999902    2    1    2    0    0 -0.17820391979E-01 -0.83694891298E-02  0.14903203972E-01  0.10192374868E+01  0.10189383369E+01 0.  0.
     999903    2    3    3    0    0 -0.98803417251E-01  0.37881990733E-01  0.76632794700E-01  0.13215914071E+00  0.19907103404E-01 0.  0.
         14    1    1    2    0    0  0.17820391979E-01  0.83694891298E-02 -0.14903203972E-01  0.24692513181E-01  0.00000000000E+00 0. -1.
     999901    1    3    3    0    0  0.80983025273E-01 -0.46251479863E-01 -0.61729590727E-01  0.88707834611E+00  0.88000000000E+00 0.  1.
        -11    1    4    4    0    0 -0.96448971264E-01  0.37618025769E-01  0.69670006545E-01  0.12478658122E+00  0.51100000000E-03 0. -1.
         11    1    4    4    0    0 -0.23544459877E-02  0.26396496411E-03  0.69627881553E-02  0.73725594814E-02  0.51100000000E-03 0.  1.
</event>
<event>
 8    1  0.1123361E+005  0.1043930E+01  0.7957747E-01            NaN
         13   -1    0    0    0    0  0.00000000000E+00  0.00000000000E+00  0.74505805969E-08  0.10566000000E+00  0.10566000000E+00 0.  1.
     999900   -1    0    0    0    0 -0.00000000000E+00 -0.00000000000E+00 -0.74505805969E-08  0.93827000000E+00  0.93827000000E+00 0. -1.
     999902    2    1    2    0    0 -0.11986134902E-01  0.19169305203E-01 -0.27465410222E-02  0.10211556025E+01  0.10209016071E+01 0.  0.
     999903    2    3    3    0    0 -0.11242432245E+00  0.47383021129E-01 -0.51300509191E-01  0.13366400759E+00  0.18706836031E-01 0.  0.
         14    1    1    2    0    0  0.11986134902E-01 -0.19169305203E-01  0.27465410222E-02  0.22774397455E-01  0.00000000000E+00 0. -1.
     999901    1    3    3    0    0  0.10043818754E+00 -0.28213715926E-01  0.48553968168E-01  0.88749159495E+00  0.88000000000E+00 0. -1.
        -11    1    4    4    0    0 -0.10997348072E+00  0.44554402288E-01 -0.52425533939E-01  0.12972262314E+00  0.51100000000E-03 0.  1.
         11    1    4    4    0    0 -0.24508417218E-02  0.28286188413E-02  0.11250247485E-02  0.39413844496E-02  0.51100000000E-03 0. -1.
</event>
<event>
 7    1  0.1123361E+005  0.1043930E+01  0.7957747E-01            NaN
         13   -1    0    0    0    0  0.00000000000E+00  0.00000000000E+00  0.74505805969E-08  0.10566000000E+00  0.10566000000E+00 0.  1.
     999900   -1    0    0    0    0 -0.00000000000E+00 -0.00000000000E+00 -0.74505805969E-08  0.93827000000E+00  0.93827000000E+00 0. -1.
     999902    2    1    2    0    0  0.20955564548E-01 -0.98974699605E-02 -0.50373001350E-02  0.10202135502E+01  0.10199378501E+01 0.  0.
         14    1    1    2    0    0 -0.20955564548E-01  0.98974699605E-02  0.50373001350E-02  0.23716449772E-01  0.00000000000E+00 0. -1.
     999901    1    3    3    0    0 -0.57814689848E-01 -0.10851764479E+00  0.30258580111E-01  0.88906366435E+00  0.88000000000E+00 0.  1.
        -11    1    3    3    0    0  0.52637158144E-01  0.62288130908E-01 -0.22463664110E-01  0.84589355097E-01  0.51100000000E-03 0. -1.
         11    1    3    3    0    0  0.26133096252E-01  0.36332043917E-01 -0.12832216136E-01  0.46560530784E-01  0.51100000000E-03 0.  1.
</event>
<event>
 8    1  0.1123361E+005  0.1043930E+01  0.7957747E-01            NaN
         13   -1    0    0    0    0  0.00000000000E+00  0.00000000000E+00  0.74505805969E-08  0.10566000000E+00  0.10566000000E+00 0. -1.
     999900   -1    0    0    0    0 -0.00000000000E+00 -0.00000000000E+00 -0.74505805969E-08  0.93827000000E+00  0.93827000000E+00 0. -1.
     999902    2    1    2    0    0 -0.10466955430E-01 -0.19148527900E-01 -0.91593512240E-02  0.10202632091E+01  0.10199886758E+01 0.  0.
     999903    2    3    3    0    0 -0.22200983991E-01 -0.12648836386E+00 -0.29505612680E-01  0.13342979849E+00  0.20993810174E-01 0.  0.
         14    1    1    2    0    0  0.10466955430E-01  0.19148527900E-01  0.91593512240E-02  0.23666790901E-01  0.00000000000E+00 0. -1.
     999901    1    3    3    0    0  0.11734028562E-01  0.10733983596E+00  0.20346261456E-01  0.88683341060E+00  0.88000000000E+00 0.  1.
        -11    1    4    4    0    0 -0.15062372858E-01 -0.11692900713E+00 -0.24160020908E-01  0.12034631493E+00  0.51100000000E-03 0.  1.
         11    1    4    4    0    0 -0.71386111334E-02 -0.95593567212E-02 -0.53455917716E-02  0.13083483566E-01  0.51100000000E-03 0. -1.
</event>
<event>
 8    1  0.1536734E+005  0.1043930E+01  0.7957747E-01            NaN
         13   -1    0    0    0    0  0.00000000000E+00  0.00000000000E+00  0.74505805969E-08  0.10566000000E+00  0.10566000000E+00 0.  1.
     999900   -1    0    0    0    0 -0.00000000000E+00 -0.00000000000E+00 -0.74505805969E-08  0.93827000000E+00  0.93827000000E+00 0. -1.
     999902    2    1    2    0    0  0.22412171161E-01 -0.69049275020E-02 -0.70910204126E-02  0.10194296733E+01  0.10191352181E+01 0.  0.
     999903    2    3    3    0    0  0.69303373867E-02 -0.57083474789E-01 -0.11661017192E+00  0.13108738656E+00  0.16715802371E-01 0.  0.
         14    1    1    2    0    0 -0.22412171161E-01  0.69049275020E-02  0.70910204126E-02  0.24500326742E-01  0.00000000000E+00 0. -1.
     999901    1    3    3    0    0  0.15481833775E-01  0.50178547287E-01  0.10951915151E+00  0.88834228670E+00  0.88000000000E+00 0.  1.
        -11    1    4    4    0    0  0.10026777988E-01 -0.26067429256E-01 -0.65683304414E-01  0.71376499946E-01  0.51100000000E-03 0.  1.
         11    1    4    4    0    0 -0.30964406014E-02 -0.31016045533E-01 -0.50926867511E-01  0.59710886615E-01  0.51100000000E-03 0. -1.
</event>
<event>
 8    1  0.1123361E+005  0.1043930E+01  0.7957747E-01            NaN
         13   -1    0    0    0    0  0.00000000000E+00  0.00000000000E+00  0.74505805969E-08  0.10566000000E+00  0.10566000000E+00 0.  1.
     999900   -1    0    0    0    0 -0.00000000000E+00 -0.00000000000E+00 -0.74505805969E-08  0.93827000000E+00  0.93827000000E+00 0. -1.
     999902    2    1    2    0    0  0.28339137417E-01  0.84477143425E-02  0.64189735552E-02  0.10136698974E+01  0.10132181340E+01 0.  0.
     999903    2    3    3    0    0 -0.54086894899E-01  0.10216070876E+00 -0.39305962554E-01  0.12368846732E+00  0.19790796911E-01 0.  0.
         14    1    1    2    0    0 -0.28339137417E-01 -0.84477143425E-02 -0.64189735552E-02  0.30260102589E-01  0.00000000000E+00 0. -1.
     999901    1    3    3    0    0  0.82426032316E-01 -0.93712994414E-01  0.45724936109E-01  0.88998143009E+00  0.88000000000E+00 0. -1.
        -11    1    4    4    0    0 -0.13350486462E-01  0.43679140837E-01 -0.10868986064E-01  0.46952090604E-01  0.51100000000E-03 0.  1.
         11    1    4    4    0    0 -0.40736408437E-01  0.58481567919E-01 -0.28436976490E-01  0.76736376716E-01  0.51100000000E-03 0. -1.
</event>
<event>
 8    1  0.1123361E+005  0.1043930E+01  0.7957747E-01            NaN
         13   -1    0    0    0    0  0.00000000000E+00  0.00000000000E+00  0.74505805969E-08  0.10566000000E+00  0.10566000000E+00 0. -1.
     999900   -1    0    0    0    0 -0.00000000000E+00 -0.00000000000E+00 -0.74505805969E-08  0.93827000000E+00  0.93827000000E+00 0. -1.
     999902    2    1    2    0    0 -0.49476811518E-03 -0.23879076434E-01 -0.67601831104E-02  0.10191075271E+01  0.10188051809E+01 0.  0.
     999903    2    3    3    0    0  0.75034789422E-01 -0.82495142484E-01 -0.67638191509E-01  0.13183829557E+00  0.19254689563E-01 0.  0.
         14    1    1    2    0    0  0.49476811518E-03  0.23879076434E-01  0.67601831104E-02  0.24822472933E-01  0.00000000000E+00 0.  1.
     999901    1    3    3    0    0 -0.75529557537E-01  0.58616066050E-01  0.60878008399E-01  0.88726923150E+00  0.88000000000E+00 0.  1.
        -11    1    4    4    0    0  0.38222039930E-01 -0.33853393435E-01 -0.21741214637E-01  0.55497009995E-01  0.51100000000E-03 0. -1.
         11    1    4    4    0    0  0.36812749492E-01 -0.48641749049E-01 -0.45896976872E-01  0.76341285571E-01  0.51100000000E-03 0.  1.
</event>
<event>
 8    1  0.1123361E+005  0.1043930E+01  0.7957747E-01            NaN
         13   -1    0    0    0    0  0.00000000000E+00  0.00000000000E+00  0.74505805969E-08  0.10566000000E+00  0.10566000000E+00 0.  1.
     999900   -1    0    0    0    0 -0.00000000000E+00 -0.00000000000E+00 -0.74505805969E-08  0.93827000000E+00  0.93827000000E+00 0. -1.
     999902    2    1    2    0    0 -0.20664408748E-01 -0.27369117215E-03 -0.10886219893E-01  0.10205718648E+01  0.10203045275E+01 0.  0.
     999903    2    3    3    0    0 -0.98417198713E-01  0.80001886876E-02 -0.88203516246E-01  0.13372806924E+00  0.18798622372E-01 0.  0.
         14    1    1    2    0    0  0.20664408748E-01  0.27369117215E-03  0.10886219893E-01  0.23358135185E-01  0.00000000000E+00 0.  1.
     999901    1    3    3    0    0  0.77752789965E-01 -0.82738798598E-02  0.77317296353E-01  0.88684379558E+00  0.88000000000E+00 0.  1.
        -11    1    4    4    0    0 -0.12849075432E-02  0.25233423919E-02 -0.90934788564E-03  0.30176611471E-02  0.51100000000E-03 0. -1.
         11    1    4    4    0    0 -0.97132291169E-01  0.54768462957E-02 -0.87294168360E-01  0.13071040809E+00  0.51100000000E-03 0.  1.
</event>
<event>
 8    1  0.1123361E+005  0.1043930E+01  0.7957747E-01            NaN
         13   -1    0    0    0    0  0.00000000000E+00  0.00000000000E+00  0.74505805969E-08  0.10566000000E+00  0.10566000000E+00 0.  1.
     999900   -1    0    0    0    0 -0.00000000000E+00 -0.00000000000E+00 -0.74505805969E-08  0.93827000000E+00  0.93827000000E+00 0.  1.
     999902    2    1    2    0    0 -0.27466005481E-01 -0.21479972079E-03 -0.42368471486E-02  0.10161383021E+01  0.10157581753E+01 0.  0.
     999903    2    3    3    0    0 -0.77127993619E-01  0.99140864852E-01 -0.26935184656E-01  0.12886547168E+00  0.10157122435E-01 0.  0.
         14    1    1    2    0    0  0.27466005481E-01  0.21479972079E-03  0.42368471486E-02  0.27791697857E-01  0.00000000000E+00 0.  1.
     999901    1    3    3    0    0  0.49661988137E-01 -0.99355664573E-01  0.22698337507E-01  0.88727283046E+00  0.88000000000E+00 0. -1.
        -11    1    4    4    0    0 -0.64669105602E-01  0.80107714184E-01 -0.18529706231E-01  0.10460855713E+00  0.51100000000E-03 0. -1.
         11    1    4    4    0    0 -0.12458888017E-01  0.19033150667E-01 -0.84054784247E-02  0.24256914550E-01  0.51100000000E-03 0.  1.
</event>
<event>
 8    1  0.1123361E+005  0.1043930E+01  0.7957747E-01            NaN
         13   -1    0    0    0    0  0.00000000000E+00  0.00000000000E+00  0.74505805969E-08  0.10566000000E+00  0.10566000000E+00 0.  1.
     999900   -1    0    0    0    0 -0.00000000000E+00 -0.00000000000E+00 -0.74505805969E-08  0.93827000000E+00  0.93827000000E+00 0. -1.
     999902    2    1    2    0    0 -0.13895639393E-01 -0.11449019674E-02 -0.17818030492E-01  0.10213051949E+01  0.10210545624E+01 0.  0.
     999903    2    3    3    0    0  0.53316204503E-01 -0.11026308645E+00  0.39590403760E-01  0.13017112056E+00  0.19405016403E-01 0.  0.
         14    1    1    2    0    0  0.13895639393E-01  0.11449019674E-02  0.17818030492E-01  0.22624805088E-01  0.00000000000E+00 0. -1.
     999901    1    3    3    0    0 -0.67211843896E-01  0.10911818449E+00 -0.57408434251E-01  0.89113407435E+00  0.88000000000E+00 0. -1.
        -11    1    4    4    0    0  0.39401393539E-01 -0.71048947553E-01  0.17694313598E-01  0.83149098708E-01  0.51100000000E-03 0.  1.
         11    1    4    4    0    0  0.13914810965E-01 -0.39214138900E-01  0.21896090162E-01  0.47022021854E-01  0.51100000000E-03 0. -1.
</event>
<event>
 8    1  0.1123361E+005  0.1043930E+01  0.7957747E-01            NaN
         13   -1    0    0    0    0  0.00000000000E+00  0.00000000000E+00  0.74505805969E-08  0.10566000000E+00  0.10566000000E+00 0. -1.
     999900   -1    0    0    0    0 -0.00000000000E+00 -0.00000000000E+00 -0.74505805969E-08  0.93827000000E+00  0.93827000000E+00 0. -1.
     999902    2    1    2    0    0  0.14864250044E-01  0.19573218706E-01  0.70078535845E-02  0.10183728712E+01  0.10180521293E+01 0.  0.
     999903    2    3    3    0    0  0.91124940707E-01  0.84294493283E-01  0.40414777865E-01  0.13207689418E+00  0.20040840521E-01 0.  0.
         14    1    1    2    0    0 -0.14864250044E-01 -0.19573218706E-01 -0.70078535845E-02  0.25557128785E-01  0.00000000000E+00 0. -1.
     999901    1    3    3    0    0 -0.76260690664E-01 -0.64721274577E-01 -0.33406924281E-01  0.88629597704E+00  0.88000000000E+00 0. -1.
        -11    1    4    4    0    0  0.10726108201E-01  0.20359452804E-01  0.71678482268E-02  0.24108004580E-01  0.51100000000E-03 0. -1.
         11    1    4    4    0    0  0.80398832506E-01  0.63935040479E-01  0.33246929638E-01  0.10796888960E+00  0.51100000000E-03 0.  1.
</event>
<event>
 8    1  0.1123361E+005  0.1043930E+01  0.7957747E-01            NaN
         13   -1    0    0    0    0  0.00000000000E+00  0.00000000000E+00  0.74505805969E-08  0.10566000000E+00  0.10566000000E+00 0. -1.
     999900   -1    0    0    0    0 -0.00000000000E+00 -0.00000000000E+00 -0.74505805969E-08  0.93827000000E+00  0.93827000000E+00 0.  1.
     999902    2    1    2    0    0 -0.14246565989E-01  0.87336831710E-02 -0.15664161526E-01  0.10210256812E+01  0.10207687465E+01 0.  0.
     999903    2    3    3    0    0  0.46391735737E-01 -0.63795288210E-01  0.96853203257E-01  0.12883869814E+00  0.31572697311E-01 0.  0.
         14    1    1    2    0    0  0.14246565989E-01 -0.87336831710E-02  0.15664161526E-01  0.22904318818E-01  0.00000000000E+00 0. -1.
     999901    1    3    3    0    0 -0.60638301726E-01  0.72528971381E-01 -0.11251736478E+00  0.89218698304E+00  0.88000000000E+00 0.  1.
        -11    1    4    4    0    0  0.14733856810E-01 -0.45127006892E-01  0.62864734619E-01  0.78776705106E-01  0.51100000000E-03 0.  1.
         11    1    4    4    0    0  0.31657878927E-01 -0.18668281318E-01  0.33988468638E-01  0.50061993038E-01  0.51100000000E-03 0. -1.
</event>
<event>
 8    1  0.1123361E+005  0.1043930E+01  0.7957747E-01            NaN
         13   -1    0    0    0    0  0.00000000000E+00  0.00000000000E+00  0.74505805969E-08  0.10566000000E+00  0.10566000000E+00 0. -1.
     999900   -1    0    0    0    0 -0.00000000000E+00 -0.00000000000E+00 -0.74505805969E-08  0.93827000000E+00  0.93827000000E+00 0.  1.
     999902    2    1    2    0    0 -0.20197676597E-01  0.11613756190E-01  0.27985604949E-02  0.10204639093E+01  0.10201940662E+01 0.  0.
     999903    2    3    3    0    0 -0.71621590376E-02  0.21328628733E-01 -0.12807945427E+00  0.13063619662E+00  0.12460430803E-01 0.  0.
         14    1    1    2    0    0  0.20197676597E-01 -0.11613756190E-01 -0.27985604949E-02  0.23466090718E-01  0.00000000000E+00 0. -1.
     999901    1    3    3    0    0 -0.13035517559E-01 -0.97148725431E-02  0.13087801477E+00  0.88982771266E+00  0.88000000000E+00 0. -1.
        -11    1    4    4    0    0 -0.34064935122E-02 -0.55837170325E-03 -0.19063748738E-01  0.19380495709E-01  0.51100000000E-03 0.  1.
         11    1    4    4    0    0 -0.37556655253E-02  0.21887000436E-01 -0.10901570553E+00  0.11125570091E+00  0.51100000000E-03 0. -1.
</event>
<event>
 8    1  0.1123361E+005  0.1043930E+01  0.7957747E-01            NaN
         13   -1    0    0    0    0  0.00000000000E+00  0.00000000000E+00  0.74505805969E-08  0.10566000000E+00  0.10566000000E+00 0.  1.
     999900   -1    0    0    0    0 -0.00000000000E+00 -0.00000000000E+00 -0.74505805969E-08  0.93827000000E+00  0.93827000000E+00 0. -1.
     999902    2    1    2    0    0  0.34853383909E-02 -0.57150258724E-02 -0.22811855806E-01  0.10201562777E+01  0.10198792287E+01 0.  0.
     999903    2    3    3    0    0 -0.28704658563E-01 -0.98695150428E-01  0.75455399937E-01  0.12923655464E+00  0.21068448804E-01 0.  0.
         14    1    1    2    0    0 -0.34853383909E-02  0.57150258724E-02  0.22811855806E-01  0.23773722253E-01  0.00000000000E+00 0. -1.
     999901    1    3    3    0    0  0.32189996954E-01  0.92980124556E-01 -0.98267255743E-01  0.89091972311E+00  0.88000000000E+00 0. -1.
        -11    1    4    4    0    0 -0.66270679150E-02 -0.53845845812E-01  0.46566920729E-01  0.71498478079E-01  0.51100000000E-03 0.  1.
         11    1    4    4    0    0 -0.22077590648E-01 -0.44849304616E-01  0.28888479208E-01  0.57738076564E-01  0.51100000000E-03 0. -1.
</event>
<event>
 8    1  0.1123361E+005  0.1043930E+01  0.7957747E-01            NaN
         13   -1    0    0    0    0  0.00000000000E+00  0.00000000000E+00  0.74505805969E-08  0.10566000000E+00  0.10566000000E+00 0.  1.
     999900   -1    0    0    0    0 -0.00000000000E+00 -0.00000000000E+00 -0.74505805969E-08  0.93827000000E+00  0.93827000000E+00 0. -1.
     999902    2    1    2    0    0  0.43878863227E-02 -0.22576162644E-01 -0.52498539615E-02  0.10203397980E+01  0.10200670594E+01 0.  0.
     999903    2    3    3    0    0  0.49909460385E-01  0.81200742085E-01  0.83693711949E-01  0.12862638122E+00  0.21344642773E-01 0.  0.
         14    1    1    2    0    0 -0.43878863227E-02  0.22576162644E-01  0.52498539615E-02  0.23590202049E-01  0.00000000000E+00 0. -1.
     999901    1    3    3    0    0 -0.45521574062E-01 -0.10377690473E+00 -0.88943565910E-01  0.89171341673E+00  0.88000000000E+00 0. -1.
        -11    1    4    4    0    0  0.27913854320E-01  0.57377769197E-01  0.65497517143E-01  0.91441661916E-01  0.51100000000E-03 0. -1.
         11    1    4    4    0    0  0.21995606065E-01  0.23822972888E-01  0.18196194806E-01  0.37184719305E-01  0.51100000000E-03 0.  1.
</event>
<event>
 8    1  0.1123361E+005  0.1043930E+01  0.7957747E-01            NaN
         13   -1    0    0    0    0  0.00000000000E+00  0.00000000000E+00  0.74505805969E-08  0.10566000000E+00  0.10566000000E+00 0. -1.
     999900   -1    0    0    0    0 -0.00000000000E+00 -0.00000000000E+00 -0.74505805969E-08  0.93827000000E+00  0.93827000000E+00 0.  1.
     999902    2    1    2    0    0  0.14462425569E-01 -0.18100426123E-01  0.26298396264E-02  0.10206125551E+01  0.10203461591E+01 0.  0.
     999903    2    3    3    0    0  0.11634554433E-01  0.11382351344E+00 -0.55823556310E-01  0.12885657831E+00  0.19914649554E-01 0.  0.
         14    1    1    2    0    0 -0.14462425569E-01  0.18100426123E-01 -0.26298396264E-02  0.23317444878E-01  0.00000000000E+00 0.  1.
     999901    1    3    3    0    0  0.28278711360E-02 -0.13192393956E+00  0.58453395936E-01  0.89175597681E+00  0.88000000000E+00 0.  1.
        -11    1    4    4    0    0  0.11272025277E-01  0.10594717949E+00 -0.57053257906E-01  0.12086024472E+00  0.51100000000E-03 0. -1.
         11    1    4    4    0    0  0.36252915630E-03  0.78763339479E-02  0.12297015961E-02  0.79963335888E-02  0.51100000000E-03 0.  1.
</event>
<event>
 8    1  0.1123361E+005  0.1043930E+01  0.7957747E-01            NaN
         13   -1    0    0    0    0  0.00000000000E+00  0.00000000000E+00  0.74505805969E-08  0.10566000000E+00  0.10566000000E+00 0.  1.
     999900   -1    0    0    0    0 -0.00000000000E+00 -0.00000000000E+00 -0.74505805969E-08  0.93827000000E+00  0.93827000000E+00 0. -1.
     999902    2    1    2    0    0  0.54477927854E-02 -0.18170327611E-01  0.19270262169E-01  0.10168896181E+01  0.10165300355E+01 0.  0.
     999903    2    3    3    0    0 -0.34842653155E-01  0.95041006564E-01 -0.69413541208E-01  0.12430632043E+00  0.19672777839E-01 0.  0.
         14    1    1    2    0    0 -0.54477927854E-02  0.18170327611E-01 -0.19270262169E-01  0.27040381945E-01  0.00000000000E+00 0. -1.
     999901    1    3    3    0    0  0.40290445940E-01 -0.11321133417E+00  0.88683803376E-01  0.89258329763E+00  0.88000000000E+00 0.  1.
        -11    1    4    4    0    0 -0.14706276882E-01  0.63423138226E-01 -0.49981954404E-01  0.82080606292E-01  0.51100000000E-03 0.  1.
         11    1    4    4    0    0 -0.20136376273E-01  0.31617868338E-01 -0.19431586804E-01  0.42225714137E-01  0.51100000000E-03 0. -1.
</event>
<event>
 8    1  0.1123361E+005  0.1043930E+01  0.7957747E-01            NaN
         13   -1    0    0    0    0  0.00000000000E+00  0.00000000000E+00  0.74505805969E-08  0.10566000000E+00  0.10566000000E+00 0. -1.
     999900   -1    0    0    0    0 -0.00000000000E+00 -0.00000000000E+00 -0.74505805969E-08  0.93827000000E+00  0.93827000000E+00 0.  1.
     999902    2    1    2    0    0 -0.10220068608E-02  0.42183316389E-02  0.22896785839E-01  0.10206254592E+01  0.10203593614E+01 0.  0.
     999903    2    3    3    0    0 -0.83504349744E-01 -0.94984447112E-01  0.28960717594E-01  0.13119794700E+00  0.19471941724E-01 0.  0.
         14    1    1    2    0    0  0.10220068608E-02 -0.42183316389E-02 -0.22896785839E-01  0.23304540793E-01  0.00000000000E+00 0.  1.
     999901    1    3    3    0    0  0.82482342883E-01  0.99202778751E-01 -0.60639317550E-02  0.88942751221E+00  0.88000000000E+00 0. -1.
        -11    1    4    4    0    0 -0.24793480404E-01 -0.21909924814E-01  0.15345105125E-04  0.33091129210E-01  0.51100000000E-03 0.  1.
         11    1    4    4    0    0 -0.58710869340E-01 -0.73074522298E-01  0.28945372489E-01  0.98106817792E-01  0.51100000000E-03 0. -1.
</event>
<event>
 8    1  0.1123361E+005  0.1043930E+01  0.7957747E-01            NaN
         13   -1    0    0    0    0  0.00000000000E+00  0.00000000000E+00  0.74505805969E-08  0.10566000000E+00  0.10566000000E+00 0. -1.
     999900   -1    0    0    0    0 -0.00000000000E+00 -0.00000000000E+00 -0.74505805969E-08  0.93827000000E+00  0.93827000000E+00 0. -1.
     999902    2    1    2    0    0  0.14075644606E-01 -0.18128422933E-01  0.18321547436E-01  0.10145626271E+01  0.10141375063E+01 0.  0.
     999903    2    3    3    0    0 -0.19545662502E-01  0.98604717198E-01  0.71122254659E-01  0.12464974769E+00  0.19345834582E-01 0.  0.
         14    1    1    2    0    0 -0.14075644606E-01  0.18128422933E-01 -0.18321547436E-01  0.29367372875E-01  0.00000000000E+00 0. -1.
     999901    1    3    3    0    0  0.33621307108E-01 -0.11673314013E+00 -0.52800707223E-01  0.88991287943E+00  0.88000000000E+00 0. -1.
        -11    1    4    4    0    0 -0.10500349764E-03  0.33866376202E-01  0.16157133018E-01  0.37526744211E-01  0.51100000000E-03 0.  1.
         11    1    4    4    0    0 -0.19440659004E-01  0.64738340996E-01  0.54965121642E-01  0.87123003481E-01  0.51100000000E-03 0. -1.
</event>
<event>
 8    1  0.1123361E+005  0.1043930E+01  0.7957747E-01            NaN
         13   -1    0    0    0    0  0.00000000000E+00  0.00000000000E+00  0.74505805969E-08  0.10566000000E+00  0.10566000000E+00 0. -1.
     999900   -1    0    0    0    0 -0.00000000000E+00 -0.00000000000E+00 -0.74505805969E-08  0.93827000000E+00  0.93827000000E+00 0.  1.
     999902    2    1    2    0    0 -0.10852688875E-02  0.94035788032E-02  0.21698124412E-01  0.10202569413E+01  0.10199822610E+01 0.  0.
     999903    2    3    3    0    0  0.47706329411E-02 -0.28260385643E-01  0.12828160595E+00  0.13300674871E+00  0.20327725903E-01 0.  0.
         14    1    1    2    0    0  0.10852688875E-02 -0.94035788032E-02 -0.21698124412E-01  0.23673058650E-01  0.00000000000E+00 0.  1.
     999901    1    3    3    0    0 -0.58559018287E-02  0.37663964446E-01 -0.10658348154E+00  0.88725019264E+00  0.88000000000E+00 0.  1.
        -11    1    4    4    0    0  0.77675148511E-02 -0.26730169166E-01  0.81943766700E-01  0.86544082713E-01  0.51100000000E-03 0.  1.
         11    1    4    4    0    0 -0.29968819100E-02 -0.15302164766E-02  0.46337839255E-01  0.46462665996E-01  0.51100000000E-03 0. -1.
</event>
<event>
 8    1  0.1123361E+005  0.1043930E+01  0.7957747E-01            NaN
         13   -1    0    0    0    0  0.00000000000E+00  0.00000000000E+00  0.74505805969E-08  0.10566000000E+00  0.10566000000E+00 0.  1.
     999900   -1    0    0    0    0 -0.00000000000E+00 -0.00000000000E+00 -0.74505805969E-08  0.93827000000E+00  0.93827000000E+00 0. -1.
     999902    2    1    2    0    0 -0.14398701084E-01  0.72137093212E-02 -0.17284252297E-01  0.10203057419E+01  0.10200322060E+01 0.  0.
     999903    2    3    3    0    0 -0.59999680579E-01 -0.46511170394E-01 -0.10730227029E+00  0.13291120977E+00  0.19706898050E-01 0.  0.
         14    1    1    2    0    0  0.14398701084E-01 -0.72137093212E-02  0.17284252297E-01  0.23624258138E-01  0.00000000000E+00 0.  1.
     999901    1    3    3    0    0  0.45600979494E-01  0.53724879715E-01  0.90018017994E-01  0.88739453210E+00  0.88000000000E+00 0.  1.
        -11    1    4    4    0    0 -0.50949212626E-02 -0.12832364933E-01 -0.15480900466E-01  0.20749631627E-01  0.51100000000E-03 0.  1.
         11    1    4    4    0    0 -0.54904759316E-01 -0.33678805461E-01 -0.91821369826E-01  0.11216157814E+00  0.51100000000E-03 0. -1.
</event>
<event>
 8    1  0.1123361E+005  0.1043930E+01  0.7957747E-01            NaN
         13   -1    0    0    0    0  0.00000000000E+00  0.00000000000E+00  0.74505805969E-08  0.10566000000E+00  0.10566000000E+00 0.  1.
     999900   -1    0    0    0    0 -0.00000000000E+00 -0.00000000000E+00 -0.74505805969E-08  0.93827000000E+00  0.93827000000E+00 0. -1.
     999902    2    1    2    0    0  0.11121752185E-01 -0.14948535808E-01  0.12214085872E-01  0.10216514007E+01  0.10214084631E+01 0.  0.
     999903    2    3    3    0    0 -0.46940281413E-01  0.54025411316E-01 -0.10567953928E+00  0.12922352572E+00  0.20209391138E-01 0.  0.
         14    1    1    2    0    0 -0.11121752185E-01  0.14948535808E-01 -0.12214085872E-01  0.22278599331E-01  0.00000000000E+00 0. -1.
     999901    1    3    3    0    0  0.58062033598E-01 -0.68973947124E-01  0.11789362516E+00  0.89242787495E+00  0.88000000000E+00 0.  1.
        -11    1    4    4    0    0 -0.38624435889E-01  0.31241315852E-01 -0.64294107968E-01  0.81251832621E-01  0.51100000000E-03 0. -1.
         11    1    4    4    0    0 -0.83158455239E-02  0.22784095464E-01 -0.41385431316E-01  0.47971693102E-01  0.51100000000E-03 0.  1.
</event>
<event>
 8    1  0.1229577E+005  0.1043930E+01  0.7957747E-01            NaN
         13   -1    0    0    0    0  0.00000000000E+00  0.00000000000E+00  0.74505805969E-08  0.10566000000E+00  0.10566000000E+00 0.  1.
     999900   -1    0    0    0    0 -0.00000000000E+00 -0.00000000000E+00 -0.74505805969E-08  0.93827000000E+00  0.93827000000E+00 0. -1.
     999902    2    1    2    0    0  0.20434406183E-01  0.64563963165E-02  0.78913942390E-02  0.10210930976E+01  0.10208376902E+01 0.  0.
     999903    2    3    3    0    0  0.24673801968E-02  0.22806554799E-01 -0.12699767305E+00  0.13048364210E+00  0.19270313641E-01 0.  0.
         14    1    1    2    0    0 -0.20434406183E-01 -0.64563963165E-02 -0.78913942390E-02  0.22836902428E-01  0.00000000000E+00 0. -1.
     999901    1    3    3    0    0  0.17967025986E-01 -0.16350158482E-01  0.13488906729E+00  0.89060945547E+00  0.88000000000E+00 0.  1.
        -11    1    4    4    0    0  0.38593695960E-02  0.24512197456E-02 -0.66040718453E-01  0.66200761526E-01  0.51100000000E-03 0. -1.
         11    1    4    4    0    0 -0.13919893992E-02  0.20355335053E-01 -0.60956954599E-01  0.64282880572E-01  0.51100000000E-03 0.  1.
</event>
<event>
 8    1  0.1123361E+005  0.1043930E+01  0.7957747E-01            NaN
         13   -1    0    0    0    0  0.00000000000E+00  0.00000000000E+00  0.74505805969E-08  0.10566000000E+00  0.10566000000E+00 0. -1.
     999900   -1    0    0    0    0 -0.00000000000E+00 -0.00000000000E+00 -0.74505805969E-08  0.93827000000E+00  0.93827000000E+00 0.  1.
     999902    2    1    2    0    0 -0.42566707259E-02 -0.87224107323E-02  0.11698399541E-01  0.10287295972E+01  0.10286172912E+01 0.  0.
     999903    2    3    3    0    0 -0.87554366369E-01 -0.80647141781E-01  0.70817708879E-01  0.13990634939E+00  0.19720805306E-01 0.  0.
         14    1    1    2    0    0  0.42566707259E-02  0.87224107323E-02 -0.11698399541E-01  0.15200402840E-01  0.00000000000E+00 0.  1.
     999901    1    3    3    0    0  0.83297695643E-01  0.71924731049E-01 -0.59119309338E-01  0.88882324777E+00  0.88000000000E+00 0.  1.
        -11    1    4    4    0    0 -0.54922263728E-01 -0.45789911732E-01  0.31882189111E-01  0.78293717327E-01  0.51100000000E-03 0. -1.
         11    1    4    4    0    0 -0.32632102641E-01 -0.34857230049E-01  0.38935519768E-01  0.61612632066E-01  0.51100000000E-03 0.  1.
</event>
<event>
 8    1  0.1123361E+005  0.1043930E+01  0.7957747E-01            NaN
         13   -1    0    0    0    0  0.00000000000E+00  0.00000000000E+00  0.74505805969E-08  0.10566000000E+00  0.10566000000E+00 0. -1.
     999900   -1    0    0    0    0 -0.00000000000E+00 -0.00000000000E+00 -0.74505805969E-08  0.93827000000E+00  0.93827000000E+00 0. -1.
     999902    2    1    2    0    0  0.21689194502E-01 -0.57026218372E-02 -0.36657796413E-02  0.10212060260E+01  0.10209531667E+01 0.  0.
     999903    2    3    3    0    0 -0.11185448771E+00 -0.32019613441E-01  0.52079142668E-01  0.12899865354E+00  0.19792257271E-01 0.  0.
         14    1    1    2    0    0 -0.21689194502E-01  0.57026218372E-02  0.36657796413E-02  0.22723973999E-01  0.00000000000E+00 0. -1.
     999901    1    3    3    0    0  0.13354368222E+00  0.26316991604E-01 -0.55744922309E-01  0.89220737246E+00  0.88000000000E+00 0.  1.
        -11    1    4    4    0    0 -0.60442027393E-01 -0.18217563813E-01  0.38913294360E-01  0.74159449200E-01  0.51100000000E-03 0. -1.
         11    1    4    4    0    0 -0.51412460321E-01 -0.13802049628E-01  0.13165848308E-01  0.54839204342E-01  0.51100000000E-03 0.  1.
</event>
<event>
 8    1  0.1123361E+005  0.1043930E+01  0.7957747E-01            NaN
         13   -1    0    0    0    0  0.00000000000E+00  0.00000000000E+00  0.74505805969E-08  0.10566000000E+00  0.10566000000E+00 0.  1.
     999900   -1    0    0    0    0 -0.00000000000E+00 -0.00000000000E+00 -0.74505805969E-08  0.93827000000E+00  0.93827000000E+00 0. -1.
     999902    2    1    2    0    0 -0.11272596891E-01  0.18138354474E-01 -0.10253538987E-01  0.10202402046E+01  0.10199651311E+01 0.  0.
     999903    2    3    3    0    0  0.11208809844E+00 -0.57729411712E-01 -0.13109599130E-01  0.12839832615E+00  0.20441178572E-01 0.  0.
         14    1    1    2    0    0  0.11272596891E-01 -0.18138354474E-01  0.10253538987E-01  0.23689795387E-01  0.00000000000E+00 0.  1.
     999901    1    3    3    0    0 -0.12336069533E+00  0.75867766187E-01  0.28560601427E-02  0.89184187846E+00  0.88000000000E+00 0.  1.
        -11    1    4    4    0    0  0.29825856689E-01 -0.80710983928E-02 -0.91409252555E-02  0.32226417611E-01  0.51100000000E-03 0. -1.
         11    1    4    4    0    0  0.82262241748E-01 -0.49658313319E-01 -0.39686738740E-02  0.96171908541E-01  0.51100000000E-03 0.  1.
</event>
<event>
 8    1  0.1123361E+005  0.1043930E+01  0.7957747E-01            NaN
         13   -1    0    0    0    0  0.00000000000E+00  0.00000000000E+00  0.74505805969E-08  0.10566000000E+00  0.10566000000E+00 0.  1.
     999900   -1    0    0    0    0 -0.00000000000E+00 -0.00000000000E+00 -0.74505805969E-08  0.93827000000E+00  0.93827000000E+00 0. -1.
     999902    2    1    2    0    0 -0.59541951589E-02 -0.28461151395E-01 -0.42314243477E-02  0.10145464241E+01  0.10141208272E+01 0.  0.
     999903    2    3    3    0    0 -0.12452871049E+00  0.75338011540E-03  0.48694753823E-03  0.12610077719E+00  0.19829310904E-01 0.  0.
         14    1    1    2    0    0  0.59541951589E-02  0.28461151395E-01  0.42314243477E-02  0.29383575867E-01  0.00000000000E+00 0.  1.
     999901    1    3    3    0    0  0.11857451534E+00 -0.29214531511E-01 -0.47183718859E-02  0.88844564694E+00  0.88000000000E+00 0.  1.
        -11    1    4    4    0    0 -0.83640299093E-01 -0.54755390892E-02  0.74663744530E-02  0.84152771963E-01  0.51100000000E-03 0. -1.
         11    1    4    4    0    0 -0.40888411402E-01  0.62289192046E-02 -0.69794269148E-02  0.41948005227E-01  0.51100000000E-03 0.  1.
</event>
<event>
 8    1  0.1123361E+005  0.1043930E+01  0.7957747E-01            NaN
         13   -1    0    0    0    0  0.00000000000E+00  0.00000000000E+00  0.74505805969E-08  0.10566000000E+00  0.10566000000E+00 0. -1.
     999900   -1    0    0    0    0 -0.00000000000E+00 -0.00000000000E+00 -0.74505805969E-08  0.93827000000E+00  0.93827000000E+00 0.  1.
     999902    2    1    2    0    0  0.33823620671E-02 -0.12755076741E-01 -0.20051651586E-01  0.10199258110E+01  0.10196432999E+01 0.  0.
     999903    2    3    3    0    0 -0.26211990519E-02 -0.89578680474E-01 -0.96384358408E-01  0.13326658059E+00  0.20948180718E-01 0.  0.
         14    1    1    2    0    0 -0.33823620671E-02  0.12755076741E-01  0.20051651586E-01  0.24004188950E-01  0.00000000000E+00 0. -1.
     999901    1    3    3    0    0  0.60035611190E-02  0.76823603733E-01  0.76332706822E-01  0.88665923046E+00  0.88000000000E+00 0. -1.
        -11    1    4    4    0    0  0.54677223232E-02 -0.61385990107E-01 -0.74381795395E-01  0.96597351807E-01  0.51100000000E-03 0.  1.
         11    1    4    4    0    0 -0.80889213751E-02 -0.28192690367E-01 -0.22002563013E-01  0.36669228779E-01  0.51100000000E-03 0. -1.
</event>
<event>
 8    1  0.1123361E+005  0.1043930E+01  0.7957747E-01            NaN
         13   -1    0    0    0    0  0.00000000000E+00  0.00000000000E+00  0.74505805969E-08  0.10566000000E+00  0.10566000000E+00 0.  1.
     999900   -1    0    0    0    0 -0.00000000000E+00 -0.00000000000E+00 -0.74505805969E-08  0.93827000000E+00  0.93827000000E+00 0. -1.
     999902    2    1    2    0    0 -0.16555387770E-01 -0.11409421591E-01  0.13089330962E-01  0.10199386192E+01  0.10196564131E+01 0.  0.
     999903    2    3    3    0    0 -0.12843369546E+00 -0.24614088231E-01  0.13855403249E-01  0.13275672932E+00  0.18201909600E-01 0.  0.
         14    1    1    2    0    0  0.16555387770E-01  0.11409421591E-01 -0.13089330962E-01  0.23991380750E-01  0.00000000000E+00 0. -1.
     999901    1    3    3    0    0  0.11187830768E+00  0.13204666639E-01 -0.76607228705E-03  0.88718188993E+00  0.88000000000E+00 0.  1.
        -11    1    4    4    0    0 -0.41105811814E-01 -0.10487269673E-01 -0.36301038205E-02  0.42580621940E-01  0.51100000000E-03 0. -1.
         11    1    4    4    0    0 -0.87327883641E-01 -0.14126818558E-01  0.17485507070E-01  0.90176107380E-01  0.51100000000E-03 0.  1.
</event>
<event>
 8    1  0.1123361E+005  0.1043930E+01  0.7957747E-01            NaN
         13   -1    0    0    0    0  0.00000000000E+00  0.00000000000E+00  0.74505805969E-08  0.10566000000E+00  0.10566000000E+00 0.  1.
     999900   -1    0    0    0    0 -0.00000000000E+00 -0.00000000000E+00 -0.74505805969E-08  0.93827000000E+00  0.93827000000E+00 0.  1.
     999902    2    1    2    0    0 -0.15144937305E-01  0.14645991943E-02 -0.52772465560E-02  0.10278252334E+01  0.10276990546E+01 0.  0.
     999903    2    3    3    0    0  0.31404982669E-01 -0.12262674822E+00  0.46629012657E-01  0.13638829377E+00  0.20097500843E-01 0.  0.
         14    1    1    2    0    0  0.15144937305E-01 -0.14645991943E-02  0.52772465560E-02  0.16104766623E-01  0.00000000000E+00 0.  1.
     999901    1    3    3    0    0 -0.46549919974E-01  0.12409134742E+00 -0.51906259213E-01  0.89143693961E+00  0.88000000000E+00 0.  1.
        -11    1    4    4    0    0  0.40992936148E-02 -0.50667887620E-01  0.23621129794E-01  0.56055846597E-01  0.51100000000E-03 0.  1.
         11    1    4    4    0    0  0.27305689054E-01 -0.71958860601E-01  0.23007882863E-01  0.80332447172E-01  0.51100000000E-03 0. -1.
</event>
<event>
 8    1  0.1123361E+005  0.1043930E+01  0.7957747E-01            NaN
         13   -1    0    0    0    0  0.00000000000E+00  0.00000000000E+00  0.74505805969E-08  0.10566000000E+00  0.10566000000E+00 0. -1.
     999900   -1    0    0    0    0 -0.00000000000E+00 -0.00000000000E+00 -0.74505805969E-08  0.93827000000E+00  0.93827000000E+00 0.  1.
     999902    2    1    2    0    0  0.85261581213E-03  0.18024407426E-01  0.16078817694E-01  0.10197611234E+01  0.10194746756E+01 0.  0.
     999903    2    3    3    0    0 -0.23525191391E-01 -0.12315726154E+00  0.18851314045E-01  0.12817028235E+00  0.18737756984E-01 0.  0.
         14    1    1    2    0    0 -0.85261581213E-03 -0.18024407426E-01 -0.16078817694E-01  0.24168876582E-01  0.00000000000E+00 0.  1.
     999901    1    3    3    0    0  0.24377807203E-01  0.14118166897E+00 -0.27724963502E-02  0.89159084107E+00  0.88000000000E+00 0. -1.
        -11    1    4    4    0    0 -0.49754512142E-02 -0.72266317881E-01  0.75133834584E-02  0.72827795977E-01  0.51100000000E-03 0.  1.
         11    1    4    4    0    0 -0.18549740177E-01 -0.50890943660E-01  0.11337930586E-01  0.55342486375E-01  0.51100000000E-03 0. -1.
</event>
<event>
 8    1  0.1123361E+005  0.1043930E+01  0.7957747E-01            NaN
         13   -1    0    0    0    0  0.00000000000E+00  0.00000000000E+00  0.74505805969E-08  0.10566000000E+00  0.10566000000E+00 0. -1.
     999900   -1    0    0    0    0 -0.00000000000E+00 -0.00000000000E+00 -0.74505805969E-08  0.93827000000E+00  0.93827000000E+00 0.  1.
     999902    2    1    2    0    0  0.22226839274E-01  0.74090421133E-02  0.64278310984E-04  0.10205007358E+01  0.10202317488E+01 0.  0.
     999903    2    3    3    0    0  0.29369851614E-01  0.11556172857E+00  0.54419757250E-01  0.13218629581E+00  0.17164076652E-01 0.  0.
         14    1    1    2    0    0 -0.22226839274E-01 -0.74090421133E-02 -0.64278310984E-04  0.23429264198E-01  0.00000000000E+00 0. -1.
     999901    1    3    3    0    0 -0.71430123392E-02 -0.10815268645E+00 -0.54355478939E-01  0.88831443999E+00  0.88000000000E+00 0.  1.
        -11    1    4    4    0    0  0.25101142682E-01  0.68458255843E-01  0.28838490206E-01  0.78412497699E-01  0.51100000000E-03 0. -1.
         11    1    4    4    0    0  0.42687089316E-02  0.47103472722E-01  0.25581267044E-01  0.53773798108E-01  0.51100000000E-03 0.  1.
</event>
<event>
 8    1  0.1123361E+005  0.1043930E+01  0.7957747E-01            NaN
         13   -1    0    0    0    0  0.00000000000E+00  0.00000000000E+00  0.74505805969E-08  0.10566000000E+00  0.10566000000E+00 0.  1.
     999900   -1    0    0    0    0 -0.00000000000E+00 -0.00000000000E+00 -0.74505805969E-08  0.93827000000E+00  0.93827000000E+00 0. -1.
     999902    2    1    2    0    0 -0.19577383309E-01 -0.13800088578E-01 -0.20095211587E-02  0.10198934745E+01  0.10196101926E+01 0.  0.
     999903    2    3    3    0    0 -0.12507054531E+00  0.36872208112E-01  0.30043946967E-02  0.13213132831E+00  0.21153262144E-01 0.  0.
         14    1    1    2    0    0  0.19577383309E-01  0.13800088578E-01  0.20095211587E-02  0.24036525482E-01  0.00000000000E+00 0.  1.
     999901    1    3    3    0    0  0.10549316200E+00 -0.50672296689E-01 -0.50139158553E-02  0.88776214620E+00  0.88000000000E+00 0.  1.
        -11    1    4    4    0    0 -0.10684840709E+00  0.33927675244E-01  0.96144681650E-02  0.11251830235E+00  0.51100000000E-03 0. -1.
         11    1    4    4    0    0 -0.18222138222E-01  0.29445328675E-02 -0.66100734683E-02  0.19613025964E-01  0.51100000000E-03 0.  1.
</event>
<event>
 8    1  0.1123361E+005  0.1043930E+01  0.7957747E-01            NaN
         13   -1    0    0    0    0  0.00000000000E+00  0.00000000000E+00  0.74505805969E-08  0.10566000000E+00  0.10566000000E+00 0.  1.
     999900   -1    0    0    0    0 -0.00000000000E+00 -0.00000000000E+00 -0.74505805969E-08  0.93827000000E+00  0.93827000000E+00 0. -1.
     999902    2    1    2    0    0  0.14119112543E-01  0.18297388191E-01  0.52649516967E-02  0.10202263406E+01  0.10199509412E+01 0.  0.
     999903    2    3    3    0    0 -0.78284787067E-01 -0.24191181348E-01 -0.96852868947E-01  0.12850227536E+00  0.20460581787E-01 0.  0.
         14    1    1    2    0    0 -0.14119112543E-01 -0.18297388191E-01 -0.52649516967E-02  0.23703659422E-01  0.00000000000E+00 0.  1.
     999901    1    3    3    0    0  0.92403899611E-01  0.42488569538E-01  0.10211782064E+00  0.89172406522E+00  0.88000000000E+00 0. -1.
        -11    1    4    4    0    0 -0.22350467470E-01 -0.17825647895E-02 -0.38879645527E-01  0.44884394735E-01  0.51100000000E-03 0.  1.
         11    1    4    4    0    0 -0.55934319597E-01 -0.22408616558E-01 -0.57973223420E-01  0.83617880621E-01  0.51100000000E-03 0. -1.
</event>
<event>
 8    1  0.1123361E+005  0.1043930E+01  0.7957747E-01            NaN
         13   -1    0    0    0    0  0.00000000000E+00  0.00000000000E+00  0.74505805969E-08  0.10566000000E+00  0.10566000000E+00 0. -1.
     999900   -1    0    0    0    0 -0.00000000000E+00 -0.00000000000E+00 -0.74505805969E-08  0.93827000000E+00  0.93827000000E+00 0. -1.
     999902    2    1    2    0    0  0.97487426802E-02  0.14520950144E-01 -0.10323890239E-01  0.10236204287E+01  0.10234189286E+01 0.  0.
     999903    2    3    3    0    0  0.44116993930E-01  0.80116680665E-01  0.96083134369E-01  0.13412257516E+00  0.19796585137E-01 0.  0.
         14    1    1    2    0    0 -0.97487426802E-02 -0.14520950144E-01  0.10323890239E-01  0.20309571305E-01  0.00000000000E+00 0. -1.
     999901    1    3    3    0    0 -0.34368251250E-01 -0.65595730521E-01 -0.10640702461E+00  0.88949785353E+00  0.88000000000E+00 0. -1.
        -11    1    4    4    0    0  0.19635980103E-01  0.31914954914E-01  0.53410538521E-01  0.65246324094E-01  0.51100000000E-03 0.  1.
         11    1    4    4    0    0  0.24481013827E-01  0.48201725751E-01  0.42672595849E-01  0.68876251066E-01  0.51100000000E-03 0. -1.
</event>
<event>
 8    1  0.1123361E+005  0.1043930E+01  0.7957747E-01            NaN
         13   -1    0    0    0    0  0.00000000000E+00  0.00000000000E+00  0.74505805969E-08  0.10566000000E+00  0.10566000000E+00 0. -1.
     999900   -1    0    0    0    0 -0.00000000000E+00 -0.00000000000E+00 -0.74505805969E-08  0.93827000000E+00  0.93827000000E+00 0. -1.
     999902    2    1    2    0    0 -0.98008090609E-03 -0.13148957931E-01  0.19231169733E-01  0.10206127630E+01  0.10203463718E+01 0.  0.
     999903    2    3    3    0    0 -0.55565437360E-01  0.10027127045E+00  0.59484483834E-01  0.13074533541E+00  0.20349285178E-01 0.  0.
         14    1    1    2    0    0  0.98008090609E-03  0.13148957931E-01 -0.19231169733E-01  0.23317237027E-01  0.00000000000E+00 0.  1.
     999901    1    3    3    0    0  0.54585356453E-01 -0.11342022838E+00 -0.40253314101E-01  0.88986742757E+00  0.88000000000E+00 0. -1.
        -11    1    4    4    0    0  0.42599986216E-03  0.10114139190E-01  0.32931197961E-02  0.10657534726E-01  0.51100000000E-03 0. -1.
         11    1    4    4    0    0 -0.55991437222E-01  0.90157131260E-01  0.56191364038E-01  0.12008780068E+00  0.51100000000E-03 0.  1.
</event>
<event>
 8    1  0.1123361E+005  0.1043930E+01  0.7957747E-01            NaN
         13   -1    0    0    0    0  0.00000000000E+00  0.00000000000E+00  0.74505805969E-08  0.10566000000E+00  0.10566000000E+00 0.  1.
     999900   -1    0    0    0    0 -0.00000000000E+00 -0.00000000000E+00 -0.74505805969E-08  0.93827000000E+00  0.93827000000E+00 0. -1.
     999902    2    1    2    0    0 -0.77150565766E-02 -0.19937984928E-01  0.10454875437E-01  0.10201318958E+01  0.10198542715E+01 0.  0.
     999903    2    3    3    0    0 -0.15940011773E-01  0.71613726393E-01 -0.10312957256E+00  0.12808324663E+00  0.19672304106E-01 0.  0.
         14    1    1    2    0    0  0.77150565766E-02  0.19937984928E-01 -0.10454875437E-01  0.23798104155E-01  0.00000000000E+00 0. -1.
     999901    1    3    3    0    0  0.82249551967E-02 -0.91551711321E-01  0.11358444800E+00  0.89204864921E+00  0.88000000000E+00 0.  1.
        -11    1    4    4    0    0 -0.17351193777E-01  0.58904251563E-01 -0.94310261235E-01  0.11254093154E+00  0.51100000000E-03 0.  1.
         11    1    4    4    0    0  0.14111820038E-02  0.12709474830E-01 -0.88193113237E-02  0.15542315089E-01  0.51100000000E-03 0. -1.
</event>
<event>
 8    1  0.1458418E+005  0.1043930E+01  0.7957747E-01            NaN
         13   -1    0    0    0    0  0.00000000000E+00  0.00000000000E+00  0.74505805969E-08  0.10566000000E+00  0.10566000000E+00 0.  1.
     999900   -1    0    0    0    0 -0.00000000000E+00 -0.00000000000E+00 -0.74505805969E-08  0.93827000000E+00  0.93827000000E+00 0.  1.
     999902    2    1    2    0    0  0.58836917266E-02 -0.29960631929E-01 -0.36200294462E-02  0.10131832618E+01  0.10127166238E+01 0.  0.
     999903    2    3    3    0    0 -0.48362267176E-01  0.21738654773E-01 -0.10981478897E+00  0.12363687899E+00  0.20379204415E-01 0.  0.
         14    1    1    2    0    0 -0.58836917266E-02  0.29960631929E-01  0.36200294462E-02  0.30746738154E-01  0.00000000000E+00 0. -1.
     999901    1    3    3    0    0  0.54245958903E-01 -0.51699286702E-01  0.10619475952E+00  0.88954638286E+00  0.88000000000E+00 0. -1.
        -11    1    4    4    0    0 -0.25472008730E-01  0.22362989789E-01 -0.65835924977E-01  0.74051041043E-01  0.51100000000E-03 0.  1.
         11    1    4    4    0    0 -0.22890258446E-01 -0.62433501557E-03 -0.43978863991E-01  0.49585837947E-01  0.51100000000E-03 0. -1.
</event>
<event>
 8    1  0.1123361E+005  0.1043930E+01  0.7957747E-01            NaN
         13   -1    0    0    0    0  0.00000000000E+00  0.00000000000E+00  0.74505805969E-08  0.10566000000E+00  0.10566000000E+00 0. -1.
     999900   -1    0    0    0    0 -0.00000000000E+00 -0.00000000000E+00 -0.74505805969E-08  0.93827000000E+00  0.93827000000E+00 0.  1.
     999902    2    1    2    0    0 -0.74789689560E-02  0.16522434878E-01  0.13174004108E-01  0.10215139295E+01  0.10212679511E+01 0.  0.
     999903    2    3    3    0    0  0.11713467624E+00  0.53067740304E-01  0.21684255720E-01  0.13194294063E+00  0.20050316647E-01 0.  0.
         14    1    1    2    0    0  0.74789689560E-02 -0.16522434878E-01 -0.13174004108E-01  0.22416070467E-01  0.00000000000E+00 0.  1.
     999901    1    3    3    0    0 -0.12461364519E+00 -0.36545305426E-01 -0.85102516128E-02  0.88957098890E+00  0.88000000000E+00 0.  1.
        -11    1    4    4    0    0  0.89495857263E-01  0.47581774460E-01  0.22170572046E-01  0.10375610398E+00  0.51100000000E-03 0.  1.
         11    1    4    4    0    0  0.27638818974E-01  0.54859658431E-02 -0.48631632506E-03  0.28186836645E-01  0.51100000000E-03 0. -1.
</event>
<event>
 8    1  0.1123361E+005  0.1043930E+01  0.7957747E-01            NaN
         13   -1    0    0    0    0  0.00000000000E+00  0.00000000000E+00  0.74505805969E-08  0.10566000000E+00  0.10566000000E+00 0.  1.
     999900   -1    0    0    0    0 -0.00000000000E+00 -0.00000000000E+00 -0.74505805969E-08  0.93827000000E+00  0.93827000000E+00 0. -1.
     999902    2    1    2    0    0  0.92794463478E-02 -0.17587563375E-01  0.12363867577E-01  0.10205142845E+01  0.10202456122E+01 0.  0.
     999903    2    3    3    0    0 -0.10073626041E+00  0.56655421790E-01  0.54940718363E-01  0.12954387828E+00  0.20137102175E-01 0.  0.
         14    1    1    2    0    0 -0.92794463478E-02  0.17587563375E-01 -0.12363867577E-01  0.23415715480E-01  0.00000000000E+00 0.  1.
     999901    1    3    3    0    0  0.11001570676E+00 -0.74242985164E-01 -0.42576850786E-01  0.89097040624E+00  0.88000000000E+00 0. -1.
        -11    1    4    4    0    0 -0.12869233762E-01  0.13167007687E-01  0.14699196041E-01  0.23565117320E-01  0.51100000000E-03 0.  1.
         11    1    4    4    0    0 -0.87867026653E-01  0.43488414103E-01  0.40241522321E-01  0.10597876096E+00  0.51100000000E-03 0. -1.
</event>
<event>
 8    1  0.1123361E+005  0.1043930E+01  0.7957747E-01            NaN
         13   -1    0    0    0    0  0.00000000000E+00  0.00000000000E+00  0.74505805969E-08  0.10566000000E+00  0.10566000000E+00 0.  1.
     999900   -1    0    0    0    0 -0.00000000000E+00 -0.00000000000E+00 -0.74505805969E-08  0.93827000000E+00  0.93827000000E+00 0.  1.
     999902    2    1    2    0    0  0.15003588006E-01  0.62380753112E-02 -0.16959347911E-01  0.10204429670E+01  0.10201726365E+01 0.  0.
     999903    2    3    3    0    0 -0.52641637136E-01 -0.41777944399E-01  0.10701306658E+00  0.12789012590E+00  0.19686271531E-01 0.  0.
         14    1    1    2    0    0 -0.15003588006E-01 -0.62380753112E-02  0.16959347911E-01  0.23487032980E-01  0.00000000000E+00 0. -1.
     999901    1    3    3    0    0  0.67645225142E-01  0.48016019710E-01 -0.12397241449E+00  0.89255284112E+00  0.88000000000E+00 0.  1.
        -11    1    4    4    0    0 -0.37600065833E-02 -0.98986327873E-02  0.94369342501E-02  0.14192865447E-01  0.51100000000E-03 0.  1.
         11    1    4    4    0    0 -0.48881630553E-01 -0.31879311612E-01  0.97576132325E-01  0.11369726045E+00  0.51100000000E-03 0. -1.
</event>
<event>
 8    1  0.1123361E+005  0.1043930E+01  0.7957747E-01            NaN
         13   -1    0    0    0    0  0.00000000000E+00  0.00000000000E+00  0.74505805969E-08  0.10566000000E+00  0.10566000000E+00 0.  1.
     999900   -1    0    0    0    0 -0.00000000000E+00 -0.00000000000E+00 -0.74505805969E-08  0.93827000000E+00  0.93827000000E+00 0.  1.
     999902    2    1    2    0    0 -0.14609445509E-01 -0.87069091128E-02  0.18677940976E-01  0.10186691282E+01  0.10183558716E+01 0.  0.
     999903    2    3    3    0    0  0.56849196049E-02  0.49317135747E-01 -0.11410928504E+00  0.12658667775E+00  0.23211201200E-01 0.  0.
         14    1    1    2    0    0  0.14609445509E-01  0.87069091128E-02 -0.18677940976E-01  0.25260871788E-01  0.00000000000E+00 0. -1.
     999901    1    3    3    0    0 -0.20294365114E-01 -0.58024044859E-01  0.13278722602E+00  0.89208245047E+00  0.88000000000E+00 0. -1.
        -11    1    4    4    0    0 -0.16233298325E-02  0.47065779406E-01 -0.96372213136E-01  0.10726456720E+00  0.51100000000E-03 0.  1.
         11    1    4    4    0    0  0.73082494373E-02  0.22513563404E-02 -0.17737071904E-01  0.19322110546E-01  0.51100000000E-03 0. -1.
</event>
<event>
 8    1  0.1123361E+005  0.1043930E+01  0.7957747E-01            NaN
         13   -1    0    0    0    0  0.00000000000E+00  0.00000000000E+00  0.74505805969E-08  0.10566000000E+00  0.10566000000E+00 0. -1.
     999900   -1    0    0    0    0 -0.00000000000E+00 -0.00000000000E+00 -0.74505805969E-08  0.93827000000E+00  0.93827000000E+00 0. -1.
     999902    2    1    2    0    0  0.22045748194E-01  0.69728688126E-02  0.63295700622E-02  0.10199571118E+01  0.10196753456E+01 0.  0.
     999903    2    3    3    0    0 -0.41236361639E-01  0.86802216320E-01  0.85934768475E-01  0.13051102697E+00  0.20329324857E-01 0.  0.
         14    1    1    2    0    0 -0.22045748194E-01 -0.69728688126E-02 -0.63295700622E-02  0.23972888230E-01  0.00000000000E+00 0.  1.
     999901    1    3    3    0    0  0.63282109833E-01 -0.79829347507E-01 -0.79605198413E-01  0.88944608480E+00  0.88000000000E+00 0. -1.
        -11    1    4    4    0    0 -0.82849155565E-02  0.26090323987E-01  0.13896633633E-01  0.30703784439E-01  0.51100000000E-03 0.  1.
         11    1    4    4    0    0 -0.32951446082E-01  0.60711892333E-01  0.72038134842E-01  0.99807242533E-01  0.51100000000E-03 0. -1.
</event>
<event>
 8    1  0.1123361E+005  0.1043930E+01  0.7957747E-01            NaN
         13   -1    0    0    0    0  0.00000000000E+00  0.00000000000E+00  0.74505805969E-08  0.10566000000E+00  0.10566000000E+00 0. -1.
     999900   -1    0    0    0    0 -0.00000000000E+00 -0.00000000000E+00 -0.74505805969E-08  0.93827000000E+00  0.93827000000E+00 0. -1.
     999902    2    1    2    0    0  0.20268633398E-01  0.12168456902E-01 -0.40549980317E-02  0.10199439238E+01  0.10196618439E+01 0.  0.
     999903    2    3    3    0    0 -0.12425492182E+00 -0.18597398765E-01  0.22849013668E-02  0.12760217859E+00  0.22179864048E-01 0.  0.
         14    1    1    2    0    0 -0.20268633398E-01 -0.12168456902E-01  0.40549980317E-02  0.23986076216E-01  0.00000000000E+00 0.  1.
     999901    1    3    3    0    0  0.14452355522E+00  0.30765855668E-01 -0.63398993985E-02  0.89234174519E+00  0.88000000000E+00 0. -1.
        -11    1    4    4    0    0 -0.17631291234E-01 -0.82020951990E-02  0.61517765452E-02  0.20402016369E-01  0.51100000000E-03 0.  1.
         11    1    4    4    0    0 -0.10662363059E+00 -0.10395303566E-01 -0.38668751784E-02  0.10720016222E+00  0.51100000000E-03 0. -1.
</event>
<event>
 8    1  0.1123361E+005  0.1043930E+01  0.7957747E-01            NaN
         13   -1    0    0    0    0  0.00000000000E+00  0.00000000000E+00  0.74505805969E-08  0.10566000000E+00  0.10566000000E+00 0.  1.
     999900   -1    0    0    0    0 -0.00000000000E+00 -0.00000000000E+00 -0.74505805969E-08  0.93827000000E+00  0.93827000000E+00 0.  1.
     999902    2    1    2    0    0  0.12221944117E-01  0.46123362151E-02 -0.20305759347E-01  0.10197851574E+01  0.10194992858E+01 0.  0.
     999903    2    3    3    0    0 -0.78366918055E-01 -0.57992644397E-01 -0.84685173063E-01  0.13058864676E+00  0.19424095282E-01 0.  0.
         14    1    1    2    0    0 -0.12221944117E-01 -0.46123362151E-02  0.20305759347E-01  0.24144842638E-01  0.00000000000E+00 0.  1.
     999901    1    3    3    0    0  0.90588862173E-01  0.62604980612E-01  0.64379413716E-01  0.88919651060E+00  0.88000000000E+00 0. -1.
        -11    1    4    4    0    0 -0.16550399281E-01 -0.18818298163E-01 -0.30769972882E-01  0.39687484353E-01  0.51100000000E-03 0. -1.
         11    1    4    4    0    0 -0.61816518775E-01 -0.39174346233E-01 -0.53915200181E-01  0.90901162412E-01  0.51100000000E-03 0.  1.
</event>
<event>
 8    1  0.1123361E+005  0.1043930E+01  0.7957747E-01            NaN
         13   -1    0    0    0    0  0.00000000000E+00  0.00000000000E+00  0.74505805969E-08  0.10566000000E+00  0.10566000000E+00 0. -1.
     999900   -1    0    0    0    0 -0.00000000000E+00 -0.00000000000E+00 -0.74505805969E-08  0.93827000000E+00  0.93827000000E+00 0.  1.
     999902    2    1    2    0    0 -0.79987904457E-02 -0.71858866798E-02 -0.21446030729E-01  0.10199393800E+01  0.10196571919E+01 0.  0.
     999903    2    3    3    0    0  0.39498968946E-01 -0.27755364623E-01  0.11703107731E+00  0.12760813540E+00  0.16032290814E-01 0.  0.
         14    1    1    2    0    0  0.79987904457E-02  0.71858866798E-02  0.21446030729E-01  0.23990620042E-01  0.00000000000E+00 0. -1.
     999901    1    3    3    0    0 -0.47497759391E-01  0.20569477943E-01 -0.13847710804E+00  0.89233124456E+00  0.88000000000E+00 0.  1.
        -11    1    4    4    0    0  0.40601813636E-02 -0.36896727146E-02  0.31163479391E-01  0.31646837539E-01  0.51100000000E-03 0. -1.
         11    1    4    4    0    0  0.35438787582E-01 -0.24065691908E-01  0.85867597922E-01  0.95961297856E-01  0.51100000000E-03 0.  1.
</event>
<event>
 8    1  0.1123361E+005  0.1043930E+01  0.7957747E-01            NaN
         13   -1    0    0    0    0  0.00000000000E+00  0.00000000000E+00  0.74505805969E-08  0.10566000000E+00  0.10566000000E+00 0. -1.
     999900   -1    0    0    0    0 -0.00000000000E+00 -0.00000000000E+00 -0.74505805969E-08  0.93827000000E+00  0.93827000000E+00 0. -1.
     999902    2    1    2    0    0 -0.17854076468E-01  0.13123361345E-01  0.13917779245E-02  0.10217280247E+01  0.10214867737E+01 0.  0.
     999903    2    3    3    0    0 -0.11773371967E+00 -0.48452694199E-01  0.34186575676E-01  0.13333450130E+00  0.20011870377E-01 0.  0.
         14    1    1    2    0    0  0.17854076468E-01 -0.13123361345E-01 -0.13917779245E-02  0.22201975257E-01  0.00000000000E+00 0.  1.
     999901    1    3    3    0    0  0.99879643206E-01  0.61576055545E-01 -0.32794797752E-01  0.88839352345E+00  0.88000000000E+00 0.  1.
        -11    1    4    4    0    0 -0.82591739759E-01 -0.38481933943E-01  0.32576253480E-01  0.96766358453E-01  0.51100000000E-03 0. -1.
         11    1    4    4    0    0 -0.35141979915E-01 -0.99707602560E-02  0.16103221961E-02  0.36568142843E-01  0.51100000000E-03 0.  1.
</event>
<event>
 8    1  0.1123361E+005  0.1043930E+01  0.7957747E-01            NaN
         13   -1    0    0    0    0  0.00000000000E+00  0.00000000000E+00  0.74505805969E-08  0.10566000000E+00  0.10566000000E+00 0.  1.
     999900   -1    0    0    0    0 -0.00000000000E+00 -0.00000000000E+00 -0.74505805969E-08  0.93827000000E+00  0.93827000000E+00 0. -1.
     999902    2    1    2    0    0  0.78530555219E-04 -0.16462748479E-01  0.17098361234E-01  0.10201943262E+01  0.10199181737E+01 0.  0.
     999903    2    3    3    0    0 -0.11796744726E+00  0.49650100997E-01  0.12977275488E-01  0.12984453813E+00  0.17599524483E-01 0.  0.
         14    1    1    2    0    0 -0.78530555219E-04  0.16462748479E-01 -0.17098361234E-01  0.23735673815E-01  0.00000000000E+00 0. -1.
     999901    1    3    3    0    0  0.11804597781E+00 -0.66112849476E-01  0.41210857463E-02  0.89034978806E+00  0.88000000000E+00 0.  1.
        -11    1    4    4    0    0 -0.16374540596E-01  0.71549402078E-02 -0.42668328133E-02  0.18378948076E-01  0.51100000000E-03 0. -1.
         11    1    4    4    0    0 -0.10159290666E+00  0.42495160790E-01  0.17244108301E-01  0.11146559005E+00  0.51100000000E-03 0.  1.
</event>
<event>
 8    1  0.1123361E+005  0.1043930E+01  0.7957747E-01            NaN
         13   -1    0    0    0    0  0.00000000000E+00  0.00000000000E+00  0.74505805969E-08  0.10566000000E+00  0.10566000000E+00 0. -1.
     999900   -1    0    0    0    0 -0.00000000000E+00 -0.00000000000E+00 -0.74505805969E-08  0.93827000000E+00  0.93827000000E+00 0. -1.
     999902    2    1    2    0    0  0.31491492808E-02  0.36817744022E-02 -0.23474318233E-01  0.10199609320E+01  0.10196792567E+01 0.  0.
     999903    2    3    3    0    0 -0.92540153933E-01  0.77157265100E-01 -0.48001084787E-01  0.13139092758E+00  0.21036826350E-01 0.  0.
         14    1    1    2    0    0 -0.31491492808E-02 -0.36817744022E-02  0.23474318233E-01  0.23969067993E-01  0.00000000000E+00 0. -1.
     999901    1    3    3    0    0  0.95689303214E-01 -0.73475490698E-01  0.24526766554E-01  0.88857000442E+00  0.88000000000E+00 0.  1.
        -11    1    4    4    0    0 -0.73087502406E-01  0.48822300878E-01 -0.36004442909E-01  0.94984109730E-01  0.51100000000E-03 0.  1.
         11    1    4    4    0    0 -0.19452651527E-01  0.28334964222E-01 -0.11996641878E-01  0.36406817854E-01  0.51100000000E-03 0. -1.
</event>
<event>
 8    1  0.1123361E+005  0.1043930E+01  0.7957747E-01            NaN
         13   -1    0    0    0    0  0.00000000000E+00  0.00000000000E+00  0.74505805969E-08  0.10566000000E+00  0.10566000000E+00 0. -1.
     999900   -1    0    0    0    0 -0.00000000000E+00 -0.00000000000E+00 -0.74505805969E-08  0.93827000000E+00  0.93827000000E+00 0.  1.
     999902    2    1    2    0    0 -0.10743050735E-01  0.14479799327E-01 -0.14134813379E-01  0.10210199438E+01  0.10207628789E+01 0.  0.
     999903    2    3    3    0    0 -0.10213239280E+00 -0.22336279903E-01  0.76171853628E-01  0.13092852731E+00  0.20253219993E-01 0.  0.
         14    1    1    2    0    0  0.10743050735E-01 -0.14479799327E-01  0.14134813379E-01  0.22910056240E-01  0.00000000000E+00 0. -1.
     999901    1    3    3    0    0  0.91389342063E-01  0.36816079230E-01 -0.90306667007E-01  0.89009141645E+00  0.88000000000E+00 0. -1.
        -11    1    4    4    0    0 -0.61426081315E-01 -0.33867480334E-02  0.46280304572E-01  0.76985461226E-01  0.51100000000E-03 0.  1.
         11    1    4    4    0    0 -0.40706311483E-01 -0.18949531869E-01  0.29891549056E-01  0.53943066084E-01  0.51100000000E-03 0. -1.
</event>
<event>
 8    1  0.1123361E+005  0.1043930E+01  0.7957747E-01            NaN
         13   -1    0    0    0    0  0.00000000000E+00  0.00000000000E+00  0.74505805969E-08  0.10566000000E+00  0.10566000000E+00 0.  1.
     999900   -1    0    0    0    0 -0.00000000000E+00 -0.00000000000E+00 -0.74505805969E-08  0.93827000000E+00  0.93827000000E+00 0. -1.
     999902    2    1    2    0    0 -0.71356732958E-02 -0.22486628599E-01 -0.36953913513E-02  0.10200506739E+01  0.10197711288E+01 0.  0.
     999903    2    3    3    0    0 -0.97178640207E-01  0.74603715424E-01 -0.36963253413E-01  0.12952216706E+00  0.20007678280E-01 0.  0.
         14    1    1    2    0    0  0.71356732958E-02  0.22486628599E-01  0.36953913513E-02  0.23879326129E-01  0.00000000000E+00 0.  1.
     999901    1    3    3    0    0  0.90042966911E-01 -0.97090344023E-01  0.33267862061E-01  0.89052850681E+00  0.88000000000E+00 0.  1.
        -11    1    4    4    0    0 -0.67870917576E-01  0.61138255753E-01 -0.21985085112E-01  0.93957186301E-01  0.51100000000E-03 0.  1.
         11    1    4    4    0    0 -0.29307722631E-01  0.13465459671E-01 -0.14978168300E-01  0.35564980762E-01  0.51100000000E-03 0. -1.
</event>
<event>
 8    1  0.1123361E+005  0.1043930E+01  0.7957747E-01            NaN
         13   -1    0    0    0    0  0.00000000000E+00  0.00000000000E+00  0.74505805969E-08  0.10566000000E+00  0.10566000000E+00 0. -1.
     999900   -1    0    0    0    0 -0.00000000000E+00 -0.00000000000E+00 -0.74505805969E-08  0.93827000000E+00  0.93827000000E+00 0.  1.
     999902    2    1    2    0    0 -0.83622670069E-02  0.91893660573E-02 -0.12440017430E-01  0.10263480208E+01  0.10261974147E+01 0.  0.
     999903    2    3    3    0    0  0.10565153392E+00 -0.41353090978E-01  0.68429940007E-01  0.13388309895E+00  0.19227655653E-01 0.  0.
         14    1    1    2    0    0  0.83622670069E-02 -0.91893660573E-02  0.12440017430E-01  0.17581979175E-01  0.00000000000E+00 0. -1.
     999901    1    3    3    0    0 -0.11401380093E+00  0.50542457035E-01 -0.80869957437E-01  0.89246492188E+00  0.88000000000E+00 0.  1.
        -11    1    4    4    0    0  0.50228161968E-01 -0.19066558825E-01  0.43588297875E-01  0.69185278440E-01  0.51100000000E-03 0. -1.
         11    1    4    4    0    0  0.55423371951E-01 -0.22286532153E-01  0.24841642132E-01  0.64697820509E-01  0.51100000000E-03 0.  1.
</event>
<event>
 8    1  0.1123361E+005  0.1043930E+01  0.7957747E-01            NaN
         13   -1    0    0    0    0  0.00000000000E+00  0.00000000000E+00  0.74505805969E-08  0.10566000000E+00  0.10566000000E+00 0.  1.
     999900   -1    0    0    0    0 -0.00000000000E+00 -0.00000000000E+00 -0.74505805969E-08  0.93827000000E+00  0.93827000000E+00 0.  1.
     999902    2    1    2    0    0  0.11492466119E-01 -0.66817119215E-02  0.17285613646E-01  0.10221237052E+01  0.10218910677E+01 0.  0.
     999903    2    3    3    0    0  0.17249998668E-01 -0.12242155749E+00  0.47549559052E-01  0.13401066772E+00  0.20329739436E-01 0.  0.
         14    1    1    2    0    0 -0.11492466119E-01  0.66817119215E-02 -0.17285613646E-01  0.21806294752E-01  0.00000000000E+00 0. -1.
     999901    1    3    3    0    0 -0.57575325491E-02  0.11573984557E+00 -0.30263945407E-01  0.88811303753E+00  0.88000000000E+00 0. -1.
        -11    1    4    4    0    0  0.13815366106E-01 -0.10039331266E+00  0.30165293453E-01  0.10573498767E+00  0.51100000000E-03 0.  1.
         11    1    4    4    0    0  0.34346325617E-02 -0.22028244831E-01  0.17384265599E-01  0.28275680055E-01  0.51100000000E-03 0. -1.
</event>
<event>
 8    1  0.1123361E+005  0.1043930E+01  0.7957747E-01            NaN
         13   -1    0    0    0    0  0.00000000000E+00  0.00000000000E+00  0.74505805969E-08  0.10566000000E+00  0.10566000000E+00 0.  1.
     999900   -1    0    0    0    0 -0.00000000000E+00 -0.00000000000E+00 -0.74505805969E-08  0.93827000000E+00  0.93827000000E+00 0. -1.
     999902    2    1    2    0    0  0.58931587869E-02 -0.13914333330E-01 -0.15905489443E-01  0.10219909347E+01  0.10217554247E+01 0.  0.
     999903    2    3    3    0    0 -0.11929220193E+00  0.24870646756E-01 -0.41154045447E-01  0.13192737583E+00  0.29359811383E-01 0.  0.
         14    1    1    2    0    0 -0.58931587869E-02  0.13914333330E-01  0.15905489443E-01  0.21939065315E-01  0.00000000000E+00 0.  1.
     999901    1    3    3    0    0  0.12518536072E+00 -0.38784980086E-01  0.25248556005E-01  0.89006355885E+00  0.88000000000E+00 0. -1.
        -11    1    4    4    0    0 -0.61022980765E-01  0.13095375749E-01 -0.36482690429E-01  0.72294819104E-01  0.51100000000E-03 0.  1.
         11    1    4    4    0    0 -0.58269221170E-01  0.11775271007E-01 -0.46713550188E-02  0.59632556727E-01  0.51100000000E-03 0. -1.
</event>
<event>
 8    1  0.1123361E+005  0.1043930E+01  0.7957747E-01            NaN
         13   -1    0    0    0    0  0.00000000000E+00  0.00000000000E+00  0.74505805969E-08  0.10566000000E+00  0.10566000000E+00 0. -1.
     999900   -1    0    0    0    0 -0.00000000000E+00 -0.00000000000E+00 -0.74505805969E-08  0.93827000000E+00  0.93827000000E+00 0.  1.
     999902    2    1    2    0    0 -0.95161041169E-02 -0.20509824893E-01 -0.50999942299E-02  0.10207520127E+01  0.10204888301E+01 0.  0.
     999903    2    3    3    0    0  0.81245291772E-01  0.77742427923E-01 -0.59102827740E-01  0.12900796746E+00  0.22477297155E-01 0.  0.
         14    1    1    2    0    0  0.95161041169E-02  0.20509824893E-01  0.50999942299E-02  0.23177987312E-01  0.00000000000E+00 0. -1.
     999901    1    3    3    0    0 -0.90761395889E-01 -0.98252252816E-01  0.54002833510E-01  0.89174404523E+00  0.88000000000E+00 0. -1.
        -11    1    4    4    0    0  0.31804897332E-01  0.29533459229E-01 -0.35356691732E-01  0.55983332158E-01  0.51100000000E-03 0.  1.
         11    1    4    4    0    0  0.49440394440E-01  0.48208968694E-01 -0.23746136008E-01  0.73024635304E-01  0.51100000000E-03 0. -1.
</event>
<event>
 8    1  0.1123361E+005  0.1043930E+01  0.7957747E-01            NaN
         13   -1    0    0    0    0  0.00000000000E+00  0.00000000000E+00  0.74505805969E-08  0.10566000000E+00  0.10566000000E+00 0.  1.
     999900   -1    0    0    0    0 -0.00000000000E+00 -0.00000000000E+00 -0.74505805969E-08  0.93827000000E+00  0.93827000000E+00 0.  1.
     999902    2    1    2    0    0  0.18554654580E-01  0.12793896252E-01  0.46058808767E-02  0.10209262367E+01  0.10206670405E+01 0.  0.
     999903    2    3    3    0    0 -0.40776208666E-01 -0.45577420783E-02  0.12267429906E+00  0.13089175305E+00  0.20004878453E-01 0.  0.
         14    1    1    2    0    0 -0.18554654580E-01 -0.12793896252E-01 -0.46058808767E-02  0.23003763312E-01  0.00000000000E+00 0. -1.
     999901    1    3    3    0    0  0.59330863245E-01  0.17351638330E-01 -0.11806841818E+00  0.89003448363E+00  0.88000000000E+00 0.  1.
        -11    1    4    4    0    0 -0.24147197507E-01 -0.48037172742E-02  0.43488246400E-01  0.49976509913E-01  0.51100000000E-03 0.  1.
         11    1    4    4    0    0 -0.16629011159E-01  0.24597519590E-03  0.79186052658E-01  0.80915243141E-01  0.51100000000E-03 0. -1.
</event>
<event>
 8    1  0.1123361E+005  0.1043930E+01  0.7957747E-01            NaN
         13   -1    0    0    0    0  0.00000000000E+00  0.00000000000E+00  0.74505805969E-08  0.10566000000E+00  0.10566000000E+00 0. -1.
     999900   -1    0    0    0    0 -0.00000000000E+00 -0.00000000000E+00 -0.74505805969E-08  0.93827000000E+00  0.93827000000E+00 0.  1.
     999902    2    1    2    0    0  0.15837478369E-02  0.16507883471E-01 -0.14434475643E-01  0.10219442646E+01  0.10217077407E+01 0.  0.
     999903    2    3    3    0    0 -0.29318154355E-01  0.11924364284E+00  0.47712912472E-01  0.13325316998E+00  0.20032093263E-01 0.  0.
         14    1    1    2    0    0 -0.15837478369E-02 -0.16507883471E-01  0.14434475643E-01  0.21985735398E-01  0.00000000000E+00 0. -1.
     999901    1    3    3    0    0  0.30901902192E-01 -0.10273575937E+00 -0.62147388115E-01  0.88869109462E+00  0.88000000000E+00 0.  1.
        -11    1    4    4    0    0 -0.99972190061E-02  0.15251390677E-01  0.33240635510E-02  0.18543457739E-01  0.51100000000E-03 0.  1.
         11    1    4    4    0    0 -0.19320935348E-01  0.10399225216E+00  0.44388848921E-01  0.11470971224E+00  0.51100000000E-03 0. -1.
</event>
<event>
 8    1  0.1123361E+005  0.1043930E+01  0.7957747E-01            NaN
         13   -1    0    0    0    0  0.00000000000E+00  0.00000000000E+00  0.74505805969E-08  0.10566000000E+00  0.10566000000E+00 0. -1.
     999900   -1    0    0    0    0 -0.00000000000E+00 -0.00000000000E+00 -0.74505805969E-08  0.93827000000E+00  0.93827000000E+00 0.  1.
     999902    2    1    2    0    0 -0.22380134794E-01  0.40975783093E-02  0.81648323409E-02  0.10197571833E+01  0.10194706410E+01 0.  0.
     999903    2    3    3    0    0 -0.13748863196E-01  0.49614814967E-01  0.11940449940E+00  0.13154516961E+00  0.19900654979E-01 0.  0.
         14    1    1    2    0    0  0.22380134794E-01 -0.40975783093E-02 -0.81648323409E-02  0.24172816728E-01  0.00000000000E+00 0.  1.
     999901    1    3    3    0    0 -0.86312715983E-02 -0.45517236657E-01 -0.11123966706E+00  0.88821201366E+00  0.88000000000E+00 0.  1.
        -11    1    4    4    0    0 -0.54567117336E-02  0.40762628061E-01  0.10462446014E+00  0.11241844301E+00  0.51100000000E-03 0.  1.
         11    1    4    4    0    0 -0.82921514620E-02  0.88521869057E-02  0.14780039260E-01  0.19126726600E-01  0.51100000000E-03 0. -1.
</event>
<event>
 8    1  0.1123361E+005  0.1043930E+01  0.7957747E-01            NaN
         13   -1    0    0    0    0  0.00000000000E+00  0.00000000000E+00  0.74505805969E-08  0.10566000000E+00  0.10566000000E+00 0. -1.
     999900   -1    0    0    0    0 -0.00000000000E+00 -0.00000000000E+00 -0.74505805969E-08  0.93827000000E+00  0.93827000000E+00 0. -1.
     999902    2    1    2    0    0 -0.22922453778E-01  0.79497895768E-02  0.84019743279E-03  0.10196535923E+01  0.10193645590E+01 0.  0.
     999903    2    3    3    0    0  0.73397956042E-01  0.10223953933E+00 -0.20913589568E-01  0.12912486980E+00  0.19891465980E-01 0.  0.
         14    1    1    2    0    0  0.22922453778E-01 -0.79497895768E-02 -0.84019743279E-03  0.24276407750E-01  0.00000000000E+00 0.  1.
     999901    1    3    3    0    0 -0.96320409820E-01 -0.94289749755E-01  0.21753787000E-01  0.89052872245E+00  0.88000000000E+00 0.  1.
        -11    1    4    4    0    0  0.33779995575E-02  0.58696674317E-02  0.33241390694E-02  0.75614084880E-02  0.51100000000E-03 0.  1.
         11    1    4    4    0    0  0.70019956485E-01  0.96369871900E-01 -0.24237728637E-01  0.12156346131E+00  0.51100000000E-03 0. -1.
</event>
<event>
 8    1  0.1123361E+005  0.1043930E+01  0.7957747E-01            NaN
         13   -1    0    0    0    0  0.00000000000E+00  0.00000000000E+00  0.74505805969E-08  0.10566000000E+00  0.10566000000E+00 0. -1.
     999900   -1    0    0    0    0 -0.00000000000E+00 -0.00000000000E+00 -0.74505805969E-08  0.93827000000E+00  0.93827000000E+00 0.  1.
     999902    2    1    2    0    0 -0.15880511060E-01  0.55631378868E-03  0.17487622598E-01  0.10203012662E+01  0.10200276255E+01 0.  0.
     999903    2    3    3    0    0 -0.12320697100E+00  0.43669853579E-01 -0.71862311824E-02  0.13238992751E+00  0.19708809528E-01 0.  0.
         14    1    1    2    0    0  0.15880511060E-01 -0.55631378868E-03 -0.17487622598E-01  0.23628733794E-01  0.00000000000E+00 0. -1.
     999901    1    3    3    0    0  0.10732645994E+00 -0.43113539790E-01  0.24673853780E-01  0.88791133869E+00  0.88000000000E+00 0. -1.
        -11    1    4    4    0    0 -0.77712271175E-01  0.24031506036E-01  0.45228905309E-02  0.81470412012E-01  0.51100000000E-03 0. -1.
         11    1    4    4    0    0 -0.45494699829E-01  0.19638347543E-01 -0.11709121713E-01  0.50919515503E-01  0.51100000000E-03 0.  1.
</event>
<event>
 8    1  0.1123361E+005  0.1043930E+01  0.7957747E-01            NaN
         13   -1    0    0    0    0  0.00000000000E+00  0.00000000000E+00  0.74505805969E-08  0.10566000000E+00  0.10566000000E+00 0.  1.
     999900   -1    0    0    0    0 -0.00000000000E+00 -0.00000000000E+00 -0.74505805969E-08  0.93827000000E+00  0.93827000000E+00 0. -1.
     999902    2    1    2    0    0 -0.15632536472E-01 -0.87155755621E-02  0.10869688529E-01  0.10229899049E+01  0.10227755658E+01 0.  0.
     999903    2    3    3    0    0  0.10561092948E+00  0.28125533081E-01  0.70732765674E-01  0.13190021619E+00  0.21209169148E-01 0.  0.
         14    1    1    2    0    0  0.15632536472E-01  0.87155755621E-02 -0.10869688529E-01  0.20940095096E-01  0.00000000000E+00 0.  1.
     999901    1    3    3    0    0 -0.12124346595E+00 -0.36841108643E-01 -0.59863077145E-01  0.89108968871E+00  0.88000000000E+00 0. -1.
        -11    1    4    4    0    0  0.27546919075E-01  0.14707029325E-01  0.27752277464E-01  0.41780132689E-01  0.51100000000E-03 0.  1.
         11    1    4    4    0    0  0.78064010401E-01  0.13418503756E-01  0.42980488210E-01  0.90120083504E-01  0.51100000000E-03 0. -1.
</event>
<event>
 8    1  0.1123361E+005  0.1043930E+01  0.7957747E-01            NaN
         13   -1    0    0    0    0  0.00000000000E+00  0.00000000000E+00  0.74505805969E-08  0.10566000000E+00  0.10566000000E+00 0.  1.
     999900   -1    0    0    0    0 -0.00000000000E+00 -0.00000000000E+00 -0.74505805969E-08  0.93827000000E+00  0.93827000000E+00 0. -1.
     999902    2    1    2    0    0  0.94399498941E-02  0.21318113883E-01  0.40076428938E-02  0.10202733765E+01  0.10199990818E+01 0.  0.
     999903    2    3    3    0    0 -0.11449535489E+00 -0.38539962522E-01  0.38537850491E-01  0.12890628921E+00  0.23176506939E-01 0.  0.
         14    1    1    2    0    0 -0.94399498941E-02 -0.21318113883E-01 -0.40076428938E-02  0.23656623493E-01  0.00000000000E+00 0. -1.
     999901    1    3    3    0    0  0.12393530479E+00  0.59858076404E-01 -0.34530207597E-01  0.89136708730E+00  0.88000000000E+00 0. -1.
        -11    1    4    4    0    0 -0.81897722460E-01 -0.20895936872E-01  0.17613844401E-01  0.86338784781E-01  0.51100000000E-03 0.  1.
         11    1    4    4    0    0 -0.32597632432E-01 -0.17644025649E-01  0.20924006089E-01  0.42567504427E-01  0.51100000000E-03 0. -1.
</event>
<event>
 8    1  0.1123361E+005  0.1043930E+01  0.7957747E-01            NaN
         13   -1    0    0    0    0  0.00000000000E+00  0.00000000000E+00  0.74505805969E-08  0.10566000000E+00  0.10566000000E+00 0.  1.
     999900   -1    0    0    0    0 -0.00000000000E+00 -0.00000000000E+00 -0.74505805969E-08  0.93827000000E+00  0.93827000000E+00 0. -1.
     999902    2    1    2    0    0  0.12591009678E-01 -0.34716705609E-02  0.19181174769E-01  0.10207243221E+01  0.10204605030E+01 0.  0.
     999903    2    3    3    0    0 -0.58020266677E-01 -0.64849153121E-01  0.97259553480E-01  0.13232723693E+00  0.21893215508E-01 0.  0.
         14    1    1    2    0    0 -0.12591009678E-01  0.34716705609E-02 -0.19181174769E-01  0.23205677898E-01  0.00000000000E+00 0. -1.
     999901    1    3    3    0    0  0.70611276356E-01  0.61377482561E-01 -0.78078378711E-01  0.88839708517E+00  0.88000000000E+00 0. -1.
        -11    1    4    4    0    0 -0.18804848135E-01 -0.33408213068E-01  0.52583553212E-01  0.65077048206E-01  0.51100000000E-03 0. -1.
         11    1    4    4    0    0 -0.39215418542E-01 -0.31440940053E-01  0.44676000268E-01  0.67250188727E-01  0.51100000000E-03 0.  1.
</event>
<event>
 8    1  0.1123361E+005  0.1043930E+01  0.7957747E-01            NaN
         13   -1    0    0    0    0  0.00000000000E+00  0.00000000000E+00  0.74505805969E-08  0.10566000000E+00  0.10566000000E+00 0.  1.
     999900   -1    0    0    0    0 -0.00000000000E+00 -0.00000000000E+00 -0.74505805969E-08  0.93827000000E+00  0.93827000000E+00 0. -1.
     999902    2    1    2    0    0 -0.11177503697E-02  0.22438847298E-02  0.24157741411E-01  0.10196425371E+01  0.10193532374E+01 0.  0.
     999903    2    3    3    0    0 -0.63363965768E-01  0.87483983031E-01 -0.67135162151E-01  0.12864598270E+00  0.19344751835E-01 0.  0.
         14    1    1    2    0    0  0.11177503697E-02 -0.22438847298E-02 -0.24157741411E-01  0.24287462911E-01  0.00000000000E+00 0. -1.
     999901    1    3    3    0    0  0.62246215398E-01 -0.85240098301E-01  0.91292903561E-01  0.89099655439E+00  0.88000000000E+00 0.  1.
        -11    1    4    4    0    0 -0.42204368436E-01  0.69867893158E-01 -0.44307681850E-01  0.92877139283E-01  0.51100000000E-03 0.  1.
         11    1    4    4    0    0 -0.21159597332E-01  0.17616089872E-01 -0.22827480300E-01  0.35768843419E-01  0.51100000000E-03 0. -1.
</event>
<event>
 8    1  0.1123361E+005  0.1043930E+01  0.7957747E-01            NaN
         13   -1    0    0    0    0  0.00000000000E+00  0.00000000000E+00  0.74505805969E-08  0.10566000000E+00  0.10566000000E+00 0.  1.
     999900   -1    0    0    0    0 -0.00000000000E+00 -0.00000000000E+00 -0.74505805969E-08  0.93827000000E+00  0.93827000000E+00 0.  1.
     999902    2    1    2    0    0 -0.11520721662E-02 -0.10812150541E-02  0.26471829998E-01  0.10174110619E+01  0.10170653935E+01 0.  0.
     999903    2    3    3    0    0  0.81910750723E-01 -0.47287106157E-01  0.87268975623E-01  0.13020719024E+00  0.19814055380E-01 0.  0.
         14    1    1    2    0    0  0.11520721662E-02  0.10812150541E-02 -0.26471829998E-01  0.26518938133E-01  0.00000000000E+00 0. -1.
     999901    1    3    3    0    0 -0.83062822889E-01  0.46205891103E-01 -0.60797145625E-01  0.88720387163E+00  0.88000000000E+00 0.  1.
        -11    1    4    4    0    0  0.47257523541E-01 -0.22481645199E-01  0.59967423256E-01  0.79593032830E-01  0.51100000000E-03 0.  1.
         11    1    4    4    0    0  0.34653227181E-01 -0.24805460958E-01  0.27301552366E-01  0.50614157407E-01  0.51100000000E-03 0. -1.
</event>
<event>
 8    1  0.1123361E+005  0.1043930E+01  0.7957747E-01            NaN
         13   -1    0    0    0    0  0.00000000000E+00  0.00000000000E+00  0.74505805969E-08  0.10566000000E+00  0.10566000000E+00 0.  1.
     999900   -1    0    0    0    0 -0.00000000000E+00 -0.00000000000E+00 -0.74505805969E-08  0.93827000000E+00  0.93827000000E+00 0. -1.
     999902    2    1    2    0    0 -0.20280407070E-01  0.10386774149E-01  0.88573986353E-03  0.10211272694E+01  0.10208726345E+01 0.  0.
     999903    2    3    3    0    0  0.18559940100E-01 -0.10826905063E+00  0.66453582902E-01  0.12989950986E+00  0.19777393129E-01 0.  0.
         14    1    1    2    0    0  0.20280407070E-01 -0.10386774149E-01 -0.88573986353E-03  0.22802730610E-01  0.00000000000E+00 0. -1.
     999901    1    3    3    0    0 -0.38840347170E-01  0.11865582478E+00 -0.65567843039E-01  0.89122775953E+00  0.88000000000E+00 0.  1.
        -11    1    4    4    0    0  0.69485939585E-03 -0.47647066879E-01  0.21147001165E-01  0.52136192717E-01  0.51100000000E-03 0. -1.
         11    1    4    4    0    0  0.17865080705E-01 -0.60621983754E-01  0.45306581738E-01  0.77763317140E-01  0.51100000000E-03 0.  1.
</event>
<event>
 8    1  0.1123361E+005  0.1043930E+01  0.7957747E-01            NaN
         13   -1    0    0    0    0  0.00000000000E+00  0.00000000000E+00  0.74505805969E-08  0.10566000000E+00  0.10566000000E+00 0. -1.
     999900   -1    0    0    0    0 -0.00000000000E+00 -0.00000000000E+00 -0.74505805969E-08  0.93827000000E+00  0.93827000000E+00 0.  1.
     999902    2    1    2    0    0  0.45124521171E-02  0.33548587299E-02  0.22652444358E-01  0.10205901085E+01  0.10203231934E+01 0.  0.
     999903    2    3    3    0    0  0.67548517936E-02  0.47203749399E-01 -0.11752495512E+00  0.12841442124E+00  0.20107872243E-01 0.  0.
         14    1    1    2    0    0 -0.45124521171E-02 -0.33548587299E-02 -0.22652444358E-01  0.23339891529E-01  0.00000000000E+00 0.  1.
     999901    1    3    3    0    0 -0.22423996766E-02 -0.43848890669E-01  0.14017739947E+00  0.89217568723E+00  0.88000000000E+00 0. -1.
        -11    1    4    4    0    0 -0.51022724657E-02  0.23811278829E-01 -0.43157320246E-01  0.49556287145E-01  0.51100000000E-03 0.  1.
         11    1    4    4    0    0  0.11857124259E-01  0.23392470571E-01 -0.74367634871E-01  0.78858134091E-01  0.51100000000E-03 0. -1.
</event>
<event>
 8    1  0.1123361E+005  0.1043930E+01  0.7957747E-01            NaN
         13   -1    0    0    0    0  0.00000000000E+00  0.00000000000E+00  0.74505805969E-08  0.10566000000E+00  0.10566000000E+00 0. -1.
     999900   -1    0    0    0    0 -0.00000000000E+00 -0.00000000000E+00 -0.74505805969E-08  0.93827000000E+00  0.93827000000E+00 0.  1.
     999902    2    1    2    0    0 -0.10751564196E-01  0.57154474533E-03 -0.19514973658E-01  0.10216419540E+01  0.10213988081E+01 0.  0.
     999903    2    3    3    0    0  0.10610534395E+00  0.59988128378E-01 -0.45603705431E-01  0.13154842563E+00  0.19192987660E-01 0.  0.
         14    1    1    2    0    0  0.10751564196E-01 -0.57154474533E-03  0.19514973658E-01  0.22288045964E-01  0.00000000000E+00 0. -1.
     999901    1    3    3    0    0 -0.11685690814E+00 -0.59416583633E-01  0.26088731773E-01  0.89009352841E+00  0.88000000000E+00 0.  1.
        -11    1    4    4    0    0  0.79963589549E-01  0.43272869409E-01 -0.24996157716E-01  0.94296266638E-01  0.51100000000E-03 0. -1.
         11    1    4    4    0    0  0.26141754398E-01  0.16715258969E-01 -0.20607547715E-01  0.37252158987E-01  0.51100000000E-03 0.  1.
</event>
<event>
 8    1  0.1123361E+005  0.1043930E+01  0.7957747E-01            NaN
         13   -1    0    0    0    0  0.00000000000E+00  0.00000000000E+00  0.74505805969E-08  0.10566000000E+00  0.10566000000E+00 0. -1.
     999900   -1    0    0    0    0 -0.00000000000E+00 -0.00000000000E+00 -0.74505805969E-08  0.93827000000E+00  0.93827000000E+00 0. -1.
     999902    2    1    2    0    0 -0.82228688339E-02  0.24805305430E-01  0.48849615025E-02  0.10173446356E+01  0.10169972105E+01 0.  0.
     999903    2    3    3    0    0  0.12017487559E+00  0.32334608715E-01 -0.20230983110E-01  0.12764048152E+00  0.19881453731E-01 0.  0.
         14    1    1    2    0    0  0.82228688339E-02 -0.24805305430E-01 -0.48849615025E-02  0.26585364361E-01  0.00000000000E+00 0.  1.
     999901    1    3    3    0    0 -0.12839774442E+00 -0.75293032853E-02  0.25115944613E-01  0.88970415412E+00  0.88000000000E+00 0.  1.
        -11    1    4    4    0    0  0.37334910844E-01  0.13208212711E-01 -0.15361074789E-01  0.42480303559E-01  0.51100000000E-03 0. -1.
         11    1    4    4    0    0  0.82839964742E-01  0.19126396005E-01 -0.48699083206E-02  0.85160177963E-01  0.51100000000E-03 0.  1.
</event>
<event>
 8    1  0.1123361E+005  0.1043930E+01  0.7957747E-01            NaN
         13   -1    0    0    0    0  0.00000000000E+00  0.00000000000E+00  0.74505805969E-08  0.10566000000E+00  0.10566000000E+00 0.  1.
     999900   -1    0    0    0    0 -0.00000000000E+00 -0.00000000000E+00 -0.74505805969E-08  0.93827000000E+00  0.93827000000E+00 0.  1.
     999902    2    1    2    0    0  0.38638041499E-02  0.14431979251E-01 -0.11340586997E-01  0.10251731367E+01  0.10250015318E+01 0.  0.
     999903    2    3    3    0    0  0.81269393156E-01  0.68343175972E-01 -0.84350551592E-01  0.13712556068E+00  0.20319937776E-01 0.  0.
         14    1    1    2    0    0 -0.38638041499E-02 -0.14431979251E-01  0.11340586997E-01  0.18756863305E-01  0.00000000000E+00 0.  1.
     999901    1    3    3    0    0 -0.77405589006E-01 -0.53911196721E-01  0.73009964595E-01  0.88804757602E+00  0.88000000000E+00 0.  1.
        -11    1    4    4    0    0  0.35746403422E-01  0.23130691954E-01 -0.44525810437E-01  0.61608791450E-01  0.51100000000E-03 0.  1.
         11    1    4    4    0    0  0.45522989735E-01  0.45212484018E-01 -0.39824741155E-01  0.75516769228E-01  0.51100000000E-03 0. -1.
</event>
<event>
 8    1  0.1123361E+005  0.1043930E+01  0.7957747E-01            NaN
         13   -1    0    0    0    0  0.00000000000E+00  0.00000000000E+00  0.74505805969E-08  0.10566000000E+00  0.10566000000E+00 0.  1.
     999900   -1    0    0    0    0 -0.00000000000E+00 -0.00000000000E+00 -0.74505805969E-08  0.93827000000E+00  0.93827000000E+00 0. -1.
     999902    2    1    2    0    0  0.10871784762E-01 -0.18532326015E-02  0.21703770085E-01  0.10195849017E+01  0.10192942107E+01 0.  0.
     999903    2    3    3    0    0  0.11600391425E+00  0.55562301400E-01  0.18619974688E-01  0.13146395387E+00  0.19798743662E-01 0.  0.
         14    1    1    2    0    0 -0.10871784762E-01  0.18532326015E-02 -0.21703770085E-01  0.24345098293E-01  0.00000000000E+00 0. -1.
     999901    1    3    3    0    0 -0.10513212949E+00 -0.57415534002E-01  0.30837953970E-02  0.88812094784E+00  0.88000000000E+00 0.  1.
        -11    1    4    4    0    0  0.15458482013E-01  0.93685131742E-02 -0.40120639923E-02  0.18522728841E-01  0.51100000000E-03 0.  1.
         11    1    4    4    0    0  0.10054543224E+00  0.46193788226E-01  0.22632038680E-01  0.11294122503E+00  0.51100000000E-03 0. -1.
</event>
<event>
 8    1  0.1123361E+005  0.1043930E+01  0.7957747E-01            NaN
         13   -1    0    0    0    0  0.00000000000E+00  0.00000000000E+00  0.74505805969E-08  0.10566000000E+00  0.10566000000E+00 0.  1.
     999900   -1    0    0    0    0 -0.00000000000E+00 -0.00000000000E+00 -0.74505805969E-08  0.93827000000E+00  0.93827000000E+00 0. -1.
     999902    2    1    2    0    0  0.74287554405E-02  0.21077859756E-01 -0.57126225885E-02  0.10208627801E+01  0.10206021355E+01 0.  0.
     999903    2    3    3    0    0 -0.22877281190E-01  0.10567449969E+00 -0.75719100871E-01  0.13352070715E+00  0.20097938249E-01 0.  0.
         14    1    1    2    0    0 -0.74287554405E-02 -0.21077859756E-01  0.57126225885E-02  0.23067219948E-01  0.00000000000E+00 0.  1.
     999901    1    3    3    0    0  0.30306036631E-01 -0.84596639932E-01  0.70006478283E-01  0.88734207290E+00  0.88000000000E+00 0.  1.
        -11    1    4    4    0    0 -0.16342327949E-01  0.70116525167E-01 -0.38559407534E-01  0.81673054397E-01  0.51100000000E-03 0. -1.
         11    1    4    4    0    0 -0.65349532410E-02  0.35557974521E-01 -0.37159693337E-01  0.51847652751E-01  0.51100000000E-03 0.  1.
</event>
<event>
 8    1  0.1123361E+005  0.1043930E+01  0.7957747E-01            NaN
         13   -1    0    0    0    0  0.00000000000E+00  0.00000000000E+00  0.74505805969E-08  0.10566000000E+00  0.10566000000E+00 0. -1.
     999900   -1    0    0    0    0 -0.00000000000E+00 -0.00000000000E+00 -0.74505805969E-08  0.93827000000E+00  0.93827000000E+00 0. -1.
     999902    2    1    2    0    0 -0.91087373259E-02  0.15613352522E-01 -0.15616647474E-01  0.10200422301E+01  0.10197624849E+01 0.  0.
     999903    2    3    3    0    0 -0.70822285056E-01 -0.10250846842E+00 -0.31717658185E-01  0.12986215331E+00  0.18286247923E-01 0.  0.
         14    1    1    2    0    0  0.91087373259E-02 -0.15613352522E-01  0.15616647474E-01  0.23887769903E-01  0.00000000000E+00 0. -1.
     999901    1    3    3    0    0  0.61713547730E-01  0.11812182095E+00  0.16101010712E-01  0.89018007678E+00  0.88000000000E+00 0.  1.
        -11    1    4    4    0    0 -0.41525283799E-01 -0.62817263442E-01 -0.28168068936E-01  0.80399371948E-01  0.51100000000E-03 0. -1.
         11    1    4    4    0    0 -0.29297001257E-01 -0.39691204982E-01 -0.35495892489E-02  0.49462781365E-01  0.51100000000E-03 0.  1.
</event>
<event>
 8    1  0.1123361E+005  0.1043930E+01  0.7957747E-01            NaN
         13   -1    0    0    0    0  0.00000000000E+00  0.00000000000E+00  0.74505805969E-08  0.10566000000E+00  0.10566000000E+00 0. -1.
     999900   -1    0    0    0    0 -0.00000000000E+00 -0.00000000000E+00 -0.74505805969E-08  0.93827000000E+00  0.93827000000E+00 0. -1.
     999902    2    1    2    0    0 -0.10202946280E-01 -0.12048267249E-01 -0.14726986029E-01  0.10223396092E+01  0.10221116043E+01 0.  0.
     999903    2    3    3    0    0 -0.57329510926E-01  0.10611671887E+00 -0.51058603435E-01  0.13244980511E+00  0.19711393688E-01 0.  0.
         14    1    1    2    0    0  0.10202946280E-01  0.12048267249E-01  0.14726986029E-01  0.21590390779E-01  0.00000000000E+00 0. -1.
     999901    1    3    3    0    0  0.47126564646E-01 -0.11816498612E+00  0.36331617406E-01  0.88988980411E+00  0.88000000000E+00 0.  1.
        -11    1    4    4    0    0 -0.23946674509E-01  0.57306360186E-01 -0.34452141429E-01  0.71025863654E-01  0.51100000000E-03 0.  1.
         11    1    4    4    0    0 -0.33382836417E-01  0.48810358686E-01 -0.16606462007E-01  0.61423941454E-01  0.51100000000E-03 0. -1.
</event>
<event>
 8    1  0.1123361E+005  0.1043930E+01  0.7957747E-01            NaN
         13   -1    0    0    0    0  0.00000000000E+00  0.00000000000E+00  0.74505805969E-08  0.10566000000E+00  0.10566000000E+00 0. -1.
     999900   -1    0    0    0    0 -0.00000000000E+00 -0.00000000000E+00 -0.74505805969E-08  0.93827000000E+00  0.93827000000E+00 0.  1.
     999902    2    1    2    0    0 -0.14650835953E-01 -0.18335496495E-01 -0.52173332219E-02  0.10198871634E+01  0.10196037309E+01 0.  0.
     999903    2    3    3    0    0  0.76990821274E-01  0.58185734422E-01 -0.82376241297E-01  0.12847974296E+00  0.20199825992E-01 0.  0.
         14    1    1    2    0    0  0.14650835953E-01  0.18335496495E-01  0.52173332219E-02  0.24042836600E-01  0.00000000000E+00 0. -1.
     999901    1    3    3    0    0 -0.91641657227E-01 -0.76521230917E-01  0.77158908075E-01  0.89140742044E+00  0.88000000000E+00 0.  1.
        -11    1    4    4    0    0  0.62646395488E-01  0.48267714681E-01 -0.76602385261E-01  0.11010236009E+00  0.51100000000E-03 0.  1.
         11    1    4    4    0    0  0.14344425786E-01  0.99180197406E-02 -0.57738560364E-02  0.18377382872E-01  0.51100000000E-03 0. -1.
</event>
<event>
 8    1  0.1123361E+005  0.1043930E+01  0.7957747E-01            NaN
         13   -1    0    0    0    0  0.00000000000E+00  0.00000000000E+00  0.74505805969E-08  0.10566000000E+00  0.10566000000E+00 0.  1.
     999900   -1    0    0    0    0 -0.00000000000E+00 -0.00000000000E+00 -0.74505805969E-08  0.93827000000E+00  0.93827000000E+00 0.  1.
     999902    2    1    2    0    0 -0.17444505023E-01  0.17491182048E-01  0.29484286770E-02  0.10190513860E+01  0.10187476536E+01 0.  0.
     999903    2    3    3    0    0  0.13116459815E-01 -0.10775983972E+00 -0.62975951483E-01  0.12721742444E+00  0.20834539635E-01 0.  0.
         14    1    1    2    0    0  0.17444505023E-01 -0.17491182048E-01 -0.29484286770E-02  0.24878614041E-01  0.00000000000E+00 0. -1.
     999901    1    3    3    0    0 -0.30560964838E-01  0.12525102176E+00  0.65924380160E-01  0.89183396152E+00  0.88000000000E+00 0.  1.
        -11    1    4    4    0    0 -0.35136851379E-02 -0.39285616020E-01 -0.29179588920E-01  0.49065416943E-01  0.51100000000E-03 0.  1.
         11    1    4    4    0    0  0.16630144953E-01 -0.68474223695E-01 -0.33796362563E-01  0.78152007494E-01  0.51100000000E-03 0. -1.
</event>
<event>
 8    1  0.1123361E+005  0.1043930E+01  0.7957747E-01            NaN
         13   -1    0    0    0    0  0.00000000000E+00  0.00000000000E+00  0.74505805969E-08  0.10566000000E+00  0.10566000000E+00 0.  1.
     999900   -1    0    0    0    0 -0.00000000000E+00 -0.00000000000E+00 -0.74505805969E-08  0.93827000000E+00  0.93827000000E+00 0.  1.
     999902    2    1    2    0    0  0.68258917398E-02 -0.20797026767E-01 -0.32061222529E-02  0.10218078767E+01  0.10215683768E+01 0.  0.
     999903    2    3    3    0    0 -0.54513379030E-01  0.66649991482E-01 -0.96047378239E-01  0.13050041797E+00  0.19782071815E-01 0.  0.
         14    1    1    2    0    0 -0.68258917398E-02  0.20797026767E-01  0.32061222529E-02  0.22122123322E-01  0.00000000000E+00 0. -1.
     999901    1    3    3    0    0  0.61339270770E-01 -0.87447018248E-01  0.92841255986E-01  0.89130745871E+00  0.88000000000E+00 0. -1.
        -11    1    4    4    0    0 -0.14207736418E-01  0.31114294715E-01 -0.43525318208E-01  0.55359493818E-01  0.51100000000E-03 0. -1.
         11    1    4    4    0    0 -0.40305642612E-01  0.35535696766E-01 -0.52522060032E-01  0.75140924149E-01  0.51100000000E-03 0.  1.
</event>
<event>
 8    1  0.1123361E+005  0.1043930E+01  0.7957747E-01            NaN
         13   -1    0    0    0    0  0.00000000000E+00  0.00000000000E+00  0.74505805969E-08  0.10566000000E+00  0.10566000000E+00 0.  1.
     999900   -1    0    0    0    0 -0.00000000000E+00 -0.00000000000E+00 -0.74505805969E-08  0.93827000000E+00  0.93827000000E+00 0. -1.
     999902    2    1    2    0    0 -0.15488403395E-02 -0.11100290924E-03  0.23137268663E-01  0.10207406829E+01  0.10204772399E+01 0.  0.
     999903    2    3    3    0    0  0.11035307737E-01 -0.71655707815E-01  0.10999308920E+00  0.13348596231E+00  0.21533786993E-01 0.  0.
         14    1    1    2    0    0  0.15488403395E-02  0.11100290924E-03 -0.23137268663E-01  0.23189317135E-01  0.00000000000E+00 0. -1.
     999901    1    3    3    0    0 -0.12584148077E-01  0.71544704906E-01 -0.86855820540E-01  0.88725472055E+00  0.88000000000E+00 0. -1.
        -11    1    4    4    0    0  0.52293499288E-02 -0.20818062234E-01  0.17166878121E-01  0.27490009845E-01  0.51100000000E-03 0. -1.
         11    1    4    4    0    0  0.58059578082E-02 -0.50837645582E-01  0.92826211082E-01  0.10599595247E+00  0.51100000000E-03 0.  1.
</event>
<event>
 8    1  0.1123361E+005  0.1043930E+01  0.7957747E-01            NaN
         13   -1    0    0    0    0  0.00000000000E+00  0.00000000000E+00  0.74505805969E-08  0.10566000000E+00  0.10566000000E+00 0.  1.
     999900   -1    0    0    0    0 -0.00000000000E+00 -0.00000000000E+00 -0.74505805969E-08  0.93827000000E+00  0.93827000000E+00 0.  1.
     999902    2    1    2    0    0 -0.83090609921E-02 -0.17171291094E-01  0.12514341234E-01  0.10211154768E+01  0.10208605754E+01 0.  0.
     999903    2    3    3    0    0 -0.34518815790E-01 -0.12302904704E+00 -0.31564185212E-01  0.13328906796E+00  0.21023386743E-01 0.  0.
         14    1    1    2    0    0  0.83090609921E-02  0.17171291094E-01 -0.12514341234E-01  0.22814523202E-01  0.00000000000E+00 0. -1.
     999901    1    3    3    0    0  0.26209754798E-01  0.10585775594E+00  0.44078526446E-01  0.88782640884E+00  0.88000000000E+00 0. -1.
        -11    1    4    4    0    0 -0.21119237155E-01 -0.66317957099E-01 -0.27618448044E-01  0.74880794635E-01  0.51100000000E-03 0.  1.
         11    1    4    4    0    0 -0.13399578635E-01 -0.56711089940E-01 -0.39457371680E-02  0.58408273323E-01  0.51100000000E-03 0. -1.
</event>
<event>
 8    1  0.1123361E+005  0.1043930E+01  0.7957747E-01            NaN
         13   -1    0    0    0    0  0.00000000000E+00  0.00000000000E+00  0.74505805969E-08  0.10566000000E+00  0.10566000000E+00 0. -1.
     999900   -1    0    0    0    0 -0.00000000000E+00 -0.00000000000E+00 -0.74505805969E-08  0.93827000000E+00  0.93827000000E+00 0. -1.
     999902    2    1    2    0    0 -0.12932415309E-01  0.11649054495E-01 -0.15944041229E-01  0.10203257570E+01  0.10200526899E+01 0.  0.
     999903    2    3    3    0    0 -0.13327182568E-01 -0.12612452448E+00  0.14237473805E-01  0.12909478877E+00  0.19435775190E-01 0.  0.
         14    1    1    2    0    0  0.12932415309E-01 -0.11649054495E-01  0.15944041229E-01  0.23604242988E-01  0.00000000000E+00 0. -1.
     999901    1    3    3    0    0  0.39476725876E-03  0.13777357897E+00 -0.30181515034E-01  0.89123096824E+00  0.88000000000E+00 0. -1.
        -11    1    4    4    0    0 -0.31554166802E-02 -0.10021538788E+00  0.14118929015E-01  0.10125554750E+00  0.51100000000E-03 0.  1.
         11    1    4    4    0    0 -0.10171765888E-01 -0.25909136600E-01  0.11854479032E-03  0.27839241270E-01  0.51100000000E-03 0. -1.
</event>
<event>
 8    1  0.1123361E+005  0.1043930E+01  0.7957747E-01            NaN
         13   -1    0    0    0    0  0.00000000000E+00  0.00000000000E+00  0.74505805969E-08  0.10566000000E+00  0.10566000000E+00 0. -1.
     999900   -1    0    0    0    0 -0.00000000000E+00 -0.00000000000E+00 -0.74505805969E-08  0.93827000000E+00  0.93827000000E+00 0.  1.
     999902    2    1    2    0    0  0.95597302569E-02  0.40686373926E-02  0.20863529264E-01  0.10206227242E+01  0.10203565632E+01 0.  0.
     999903    2    3    3    0    0 -0.75356049865E-01 -0.72495425672E-01 -0.71848561115E-01  0.12839614019E+00  0.19728965708E-01 0.  0.
         14    1    1    2    0    0 -0.95597302569E-02 -0.40686373926E-02 -0.20863529264E-01  0.23307275821E-01  0.00000000000E+00 0.  1.
     999901    1    3    3    0    0  0.84915780122E-01  0.76564063065E-01  0.92712090379E-01  0.89222658398E+00  0.88000000000E+00 0. -1.
        -11    1    4    4    0    0 -0.49711220941E-01 -0.59206323131E-01 -0.48622840326E-01  0.91329271915E-01  0.51100000000E-03 0.  1.
         11    1    4    4    0    0 -0.25644828923E-01 -0.13289102541E-01 -0.23225720790E-01  0.37066868280E-01  0.51100000000E-03 0. -1.
</event>
<event>
 8    1  0.1123361E+005  0.1043930E+01  0.7957747E-01            NaN
         13   -1    0    0    0    0  0.00000000000E+00  0.00000000000E+00  0.74505805969E-08  0.10566000000E+00  0.10566000000E+00 0.  1.
     999900   -1    0    0    0    0 -0.00000000000E+00 -0.00000000000E+00 -0.74505805969E-08  0.93827000000E+00  0.93827000000E+00 0.  1.
     999902    2    1    2    0    0 -0.15569849256E-01  0.15159403014E-01 -0.92571667877E-02  0.10203096096E+01  0.10200361644E+01 0.  0.
     999903    2    3    3    0    0  0.18830693541E-01  0.88808387964E-01 -0.94354650001E-01  0.13247564315E+00  0.20136316957E-01 0.  0.
         14    1    1    2    0    0  0.15569849256E-01 -0.15159403014E-01  0.92571667877E-02  0.23620390397E-01  0.00000000000E+00 0.  1.
     999901    1    3    3    0    0 -0.34400542797E-01 -0.73648984950E-01  0.85097483213E-01  0.88783396645E+00  0.88000000000E+00 0. -1.
        -11    1    4    4    0    0  0.18710835437E-01  0.58558729707E-01 -0.52577763580E-01  0.80894391225E-01  0.51100000000E-03 0. -1.
         11    1    4    4    0    0  0.11985810416E-03  0.30249658257E-01 -0.41776886420E-01  0.51581251930E-01  0.51100000000E-03 0.  1.
</event>
<event>
 8    1  0.1123361E+005  0.1043930E+01  0.7957747E-01            NaN
         13   -1    0    0    0    0  0.00000000000E+00  0.00000000000E+00  0.74505805969E-08  0.10566000000E+00  0.10566000000E+00 0. -1.
     999900   -1    0    0    0    0 -0.00000000000E+00 -0.00000000000E+00 -0.74505805969E-08  0.93827000000E+00  0.93827000000E+00 0.  1.
     999902    2    1    2    0    0 -0.14849909863E-01  0.15894677188E-01 -0.10580484832E-01  0.10197410098E+01  0.10194540793E+01 0.  0.
     999903    2    3    3    0    0  0.27927426210E-01  0.74375708828E-01  0.10058753847E+00  0.12979255012E+00  0.20409947888E-01 0.  0.
         14    1    1    2    0    0  0.14849909863E-01 -0.15894677188E-01  0.10580484832E-01  0.24188990164E-01  0.00000000000E+00 0. -1.
     999901    1    3    3    0    0 -0.42777336072E-01 -0.58481031639E-01 -0.11116802330E+00  0.88994845971E+00  0.88000000000E+00 0.  1.
        -11    1    4    4    0    0  0.17632408352E-01  0.32877152638E-01  0.61088651003E-01  0.71581376015E-01  0.51100000000E-03 0. -1.
         11    1    4    4    0    0  0.10295017858E-01  0.41498556190E-01  0.39498887470E-01  0.58211174107E-01  0.51100000000E-03 0.  1.
</event>
<event>
 8    1  0.1123361E+005  0.1043930E+01  0.7957747E-01            NaN
         13   -1    0    0    0    0  0.00000000000E+00  0.00000000000E+00  0.74505805969E-08  0.10566000000E+00  0.10566000000E+00 0.  1.
     999900   -1    0    0    0    0 -0.00000000000E+00 -0.00000000000E+00 -0.74505805969E-08  0.93827000000E+00  0.93827000000E+00 0. -1.
     999902    2    1    2    0    0  0.18244379670E-01 -0.47124757035E-02 -0.14094177564E-01  0.10203989427E+01  0.10201275859E+01 0.  0.
     999903    2    3    3    0    0  0.23490035021E-01  0.10079997193E+00  0.75434455674E-01  0.12957024442E+00  0.19638611165E-01 0.  0.
         14    1    1    2    0    0 -0.18244379670E-01  0.47124757035E-02  0.14094177564E-01  0.23531057307E-01  0.00000000000E+00 0.  1.
     999901    1    3    3    0    0 -0.52456553515E-02 -0.10551244763E+00 -0.89528633238E-01  0.89082869828E+00  0.88000000000E+00 0.  1.
        -11    1    4    4    0    0  0.97885617689E-02  0.55147845819E-01  0.52106927432E-01  0.76501593757E-01  0.51100000000E-03 0.  1.
         11    1    4    4    0    0  0.13701473252E-01  0.45652126112E-01  0.23327528242E-01  0.53068650658E-01  0.51100000000E-03 0. -1.
</event>
<event>
 8    1  0.1123361E+005  0.1043930E+01  0.7957747E-01            NaN
         13   -1    0    0    0    0  0.00000000000E+00  0.00000000000E+00  0.74505805969E-08  0.10566000000E+00  0.10566000000E+00 0. -1.
     999900   -1    0    0    0    0 -0.00000000000E+00 -0.00000000000E+00 -0.74505805969E-08  0.93827000000E+00  0.93827000000E+00 0.  1.
     999902    2    1    2    0    0 -0.14116329927E-01 -0.18718242284E-01  0.31980551573E-02  0.10202684083E+01  0.10199939971E+01 0.  0.
     999903    2    3    3    0    0  0.45892717279E-01  0.11644762912E+00 -0.14023605739E-01  0.12776211469E+00  0.21454710576E-01 0.  0.
         14    1    1    2    0    0  0.14116329927E-01  0.18718242284E-01 -0.31980551573E-02  0.23661591696E-01  0.00000000000E+00 0. -1.
     999901    1    3    3    0    0 -0.60009047206E-01 -0.13516587140E+00  0.17221660897E-01  0.89250629361E+00  0.88000000000E+00 0. -1.
        -11    1    4    4    0    0  0.89516454501E-02  0.32809738164E-01 -0.12735425172E-01  0.36318907610E-01  0.51100000000E-03 0.  1.
         11    1    4    4    0    0  0.36941071829E-01  0.83637890953E-01 -0.12881805672E-02  0.91443207080E-01  0.51100000000E-03 0. -1.
</event>
<event>
 8    1  0.1123361E+005  0.1043930E+01  0.7957747E-01            NaN
         13   -1    0    0    0    0  0.00000000000E+00  0.00000000000E+00  0.74505805969E-08  0.10566000000E+00  0.10566000000E+00 0.  1.
     999900   -1    0    0    0    0 -0.00000000000E+00 -0.00000000000E+00 -0.74505805969E-08  0.93827000000E+00  0.93827000000E+00 0. -1.
     999902    2    1    2    0    0 -0.22662148137E-01 -0.26041424613E-02  0.64212296368E-03  0.10211096837E+01  0.10208546514E+01 0.  0.
     999903    2    3    3    0    0 -0.40860178834E-01  0.11892321537E+00 -0.34578279248E-01  0.13187375110E+00  0.19563830489E-01 0.  0.
         14    1    1    2    0    0  0.22662148137E-01  0.26041424613E-02 -0.64212296368E-03  0.22820316344E-01  0.00000000000E+00 0. -1.
     999901    1    3    3    0    0  0.18198030697E-01 -0.12152735783E+00  0.35220402212E-01  0.88923593256E+00  0.88000000000E+00 0. -1.
        -11    1    4    4    0    0 -0.14089398857E-01  0.31060268178E-01 -0.17892587836E-01  0.38518271507E-01  0.51100000000E-03 0.  1.
         11    1    4    4    0    0 -0.26770779978E-01  0.87862947195E-01 -0.16685691412E-01  0.93355479589E-01  0.51100000000E-03 0. -1.
</event>
<event>
 8    1  0.1123361E+005  0.1043930E+01  0.7957747E-01            NaN
         13   -1    0    0    0    0  0.00000000000E+00  0.00000000000E+00  0.74505805969E-08  0.10566000000E+00  0.10566000000E+00 0.  1.
     999900   -1    0    0    0    0 -0.00000000000E+00 -0.00000000000E+00 -0.74505805969E-08  0.93827000000E+00  0.93827000000E+00 0.  1.
     999902    2    1    2    0    0  0.22622998371E-02 -0.12010696238E-02 -0.22960294832E-01  0.10208272792E+01  0.10205658226E+01 0.  0.
     999903    2    3    3    0    0 -0.11352851259E-02  0.89548004310E-01  0.90715191696E-01  0.12888050152E+00  0.18994834034E-01 0.  0.
         14    1    1    2    0    0 -0.22622998371E-02  0.12010696238E-02  0.22960294832E-01  0.23102720783E-01  0.00000000000E+00 0.  1.
     999901    1    3    3    0    0  0.33975849630E-02 -0.90749073933E-01 -0.11367548653E+00  0.89194677770E+00  0.88000000000E+00 0.  1.
        -11    1    4    4    0    0  0.59303713842E-02  0.12327945346E-01  0.17646537090E-01  0.22334030838E-01  0.51100000000E-03 0.  1.
         11    1    4    4    0    0 -0.70656565101E-02  0.77220058964E-01  0.73068654606E-01  0.10654647068E+00  0.51100000000E-03 0. -1.
</event>
<event>
 8    1  0.1123361E+005  0.1043930E+01  0.7957747E-01            NaN
         13   -1    0    0    0    0  0.00000000000E+00  0.00000000000E+00  0.74505805969E-08  0.10566000000E+00  0.10566000000E+00 0.  1.
     999900   -1    0    0    0    0 -0.00000000000E+00 -0.00000000000E+00 -0.74505805969E-08  0.93827000000E+00  0.93827000000E+00 0. -1.
     999902    2    1    2    0    0  0.16226372364E-01 -0.12135241830E-01  0.13916933090E-01  0.10193487006E+01  0.10190522720E+01 0.  0.
     999903    2    3    3    0    0 -0.49518150491E-01  0.21765386291E-01  0.11678471432E+00  0.13027425191E+00  0.20172554181E-01 0.  0.
         14    1    1    2    0    0 -0.16226372364E-01  0.12135241830E-01 -0.13916933090E-01  0.24581299416E-01  0.00000000000E+00 0. -1.
     999901    1    3    3    0    0  0.65744522854E-01 -0.33900628121E-01 -0.10286778123E+00  0.88907444868E+00  0.88000000000E+00 0. -1.
        -11    1    4    4    0    0 -0.10609820435E-01  0.12346891801E-01  0.21929135728E-01  0.27315968619E-01  0.51100000000E-03 0. -1.
         11    1    4    4    0    0 -0.38908330055E-01  0.94184944900E-02  0.94855578596E-01  0.10295828329E+00  0.51100000000E-03 0.  1.
</event>
<event>
 8    1  0.1123361E+005  0.1043930E+01  0.7957747E-01            NaN
         13   -1    0    0    0    0  0.00000000000E+00  0.00000000000E+00  0.74505805969E-08  0.10566000000E+00  0.10566000000E+00 0. -1.
     999900   -1    0    0    0    0 -0.00000000000E+00 -0.00000000000E+00 -0.74505805969E-08  0.93827000000E+00  0.93827000000E+00 0. -1.
     999902    2    1    2    0    0  0.79147557505E-02  0.13788156892E-01  0.18168141946E-01  0.10197879618E+01  0.10195021574E+01 0.  0.
     999903    2    3    3    0    0  0.46894665844E-01  0.69155532562E-01 -0.97131108951E-01  0.12968746353E+00  0.20069591460E-01 0.  0.
         14    1    1    2    0    0 -0.79147557505E-02 -0.13788156892E-01 -0.18168141946E-01  0.24142038250E-01  0.00000000000E+00 0.  1.
     999901    1    3    3    0    0 -0.38979910094E-01 -0.55367375670E-01  0.11529925090E+00  0.89010049822E+00  0.88000000000E+00 0.  1.
        -11    1    4    4    0    0  0.10053673873E-01  0.27979736017E-01 -0.43451096471E-01  0.52651694099E-01  0.51100000000E-03 0. -1.
         11    1    4    4    0    0  0.36840991971E-01  0.41175796545E-01 -0.53680012481E-01  0.77035769429E-01  0.51100000000E-03 0.  1.
</event>
<event>
 8    1  0.1123361E+005  0.1043930E+01  0.7957747E-01            NaN
         13   -1    0    0    0    0  0.00000000000E+00  0.00000000000E+00  0.74505805969E-08  0.10566000000E+00  0.10566000000E+00 0. -1.
     999900   -1    0    0    0    0 -0.00000000000E+00 -0.00000000000E+00 -0.74505805969E-08  0.93827000000E+00  0.93827000000E+00 0. -1.
     999902    2    1    2    0    0  0.18442019797E-01  0.12211919299E-01 -0.69052477510E-02  0.10207584331E+01  0.10204953979E+01 0.  0.
     999903    2    3    3    0    0  0.11165907077E+00 -0.67658054724E-01  0.60525801818E-02  0.13214347898E+00  0.19491148162E-01 0.  0.
         14    1    1    2    0    0 -0.18442019797E-01 -0.12211919299E-01  0.69052477510E-02  0.23171566923E-01  0.00000000000E+00 0. -1.
     999901    1    3    3    0    0 -0.93217050969E-01  0.79869974023E-01 -0.12957827933E-01  0.88861495410E+00  0.88000000000E+00 0.  1.
        -11    1    4    4    0    0  0.82023309348E-02 -0.35196621327E-02 -0.44093289035E-02  0.99684279940E-02  0.51100000000E-03 0. -1.
         11    1    4    4    0    0  0.10345673983E+00 -0.64138392591E-01  0.10461909085E-01  0.12217505099E+00  0.51100000000E-03 0.  1.
</event>
<event>
 8    1  0.1123361E+005  0.1043930E+01  0.7957747E-01            NaN
         13   -1    0    0    0    0  0.00000000000E+00  0.00000000000E+00  0.74505805969E-08  0.10566000000E+00  0.10566000000E+00 0.  1.
     999900   -1    0    0    0    0 -0.00000000000E+00 -0.00000000000E+00 -0.74505805969E-08  0.93827000000E+00  0.93827000000E+00 0.  1.
     999902    2    1    2    0    0  0.24796420293E-02 -0.21063471755E-01  0.97275267531E-02  0.10205966924E+01  0.10203299296E+01 0.  0.
     999903    2    3    3    0    0 -0.32147478806E-01  0.12200251669E+00 -0.94621956994E-02  0.12816453251E+00  0.20458244646E-01 0.  0.
         14    1    1    2    0    0 -0.24796420293E-02  0.21063471755E-01 -0.97275267531E-02  0.23333307603E-01  0.00000000000E+00 0.  1.
     999901    1    3    3    0    0  0.34627120836E-01 -0.14306598845E+00  0.19189722452E-01  0.89243215988E+00  0.88000000000E+00 0.  1.
        -11    1    4    4    0    0 -0.16278373969E-01  0.34265685438E-01  0.33499944453E-02  0.38086825037E-01  0.51100000000E-03 0. -1.
         11    1    4    4    0    0 -0.15869104838E-01  0.87736831254E-01 -0.12812190145E-01  0.90077707476E-01  0.51100000000E-03 0.  1.
</event>
<event>
 8    1  0.1123361E+005  0.1043930E+01  0.7957747E-01            NaN
         13   -1    0    0    0    0  0.00000000000E+00  0.00000000000E+00  0.74505805969E-08  0.10566000000E+00  0.10566000000E+00 0. -1.
     999900   -1    0    0    0    0 -0.00000000000E+00 -0.00000000000E+00 -0.74505805969E-08  0.93827000000E+00  0.93827000000E+00 0.  1.
     999902    2    1    2    0    0  0.98214544333E-03  0.62098035364E-02 -0.23257723008E-01  0.10198375126E+01  0.10195528942E+01 0.  0.
     999903    2    3    3    0    0 -0.11754399522E+00 -0.49304890278E-01  0.72594977890E-02  0.12963437398E+00  0.22467923596E-01 0.  0.
         14    1    1    2    0    0 -0.98214544333E-03 -0.62098035364E-02  0.23257723008E-01  0.24092487400E-01  0.00000000000E+00 0. -1.
     999901    1    3    3    0    0  0.11852614066E+00  0.55514693814E-01 -0.30517220797E-01  0.89020313862E+00  0.88000000000E+00 0.  1.
        -11    1    4    4    0    0 -0.87313435271E-01 -0.25641849978E-01  0.64798231803E-02  0.91232613020E-01  0.51100000000E-03 0.  1.
         11    1    4    4    0    0 -0.30230559948E-01 -0.23663040300E-01  0.77967460875E-03  0.38401760956E-01  0.51100000000E-03 0. -1.
</event>
<event>
 8    1  0.1123361E+005  0.1043930E+01  0.7957747E-01            NaN
         13   -1    0    0    0    0  0.00000000000E+00  0.00000000000E+00  0.74505805969E-08  0.10566000000E+00  0.10566000000E+00 0. -1.
     999900   -1    0    0    0    0 -0.00000000000E+00 -0.00000000000E+00 -0.74505805969E-08  0.93827000000E+00  0.93827000000E+00 0.  1.
     999902    2    1    2    0    0  0.13232787096E-02  0.21487064271E-01 -0.24912458038E-01  0.10110046972E+01  0.10104684172E+01 0.  0.
     999903    2    3    3    0    0  0.79988658347E-01  0.61679164072E-01 -0.71605949930E-01  0.12535017709E+00  0.19563999771E-01 0.  0.
         14    1    1    2    0    0 -0.13232787096E-02 -0.21487064271E-01  0.24912458038E-01  0.32925302778E-01  0.00000000000E+00 0. -1.
     999901    1    3    3    0    0 -0.78665379638E-01 -0.40192099801E-01  0.46693491892E-01  0.88565452013E+00  0.88000000000E+00 0. -1.
        -11    1    4    4    0    0  0.64009181764E-01  0.55524197982E-01 -0.52473373347E-01  0.99668590554E-01  0.51100000000E-03 0. -1.
         11    1    4    4    0    0  0.15979476584E-01  0.61549660901E-02 -0.19132576583E-01  0.25681586539E-01  0.51100000000E-03 0.  1.
</event>
<event>
 8    1  0.1243982E+005  0.1043930E+01  0.7957747E-01            NaN
         13   -1    0    0    0    0  0.00000000000E+00  0.00000000000E+00  0.74505805969E-08  0.10566000000E+00  0.10566000000E+00 0. -1.
     999900   -1    0    0    0    0 -0.00000000000E+00 -0.00000000000E+00 -0.74505805969E-08  0.93827000000E+00  0.93827000000E+00 0.  1.
     999902    2    1    2    0    0 -0.15043926207E-01 -0.16944923804E-01 -0.75374957340E-02  0.10200497990E+01  0.10197702331E+01 0.  0.
     999903    2    3    3    0    0 -0.84668879589E-01  0.75007374760E-01 -0.62464357210E-01  0.13082551937E+00  0.20459598197E-01 0.  0.
         14    1    1    2    0    0  0.15043926207E-01  0.16944923804E-01  0.75374957340E-02  0.23880201012E-01  0.00000000000E+00 0.  1.
     999901    1    3    3    0    0  0.69624953382E-01 -0.91952298564E-01  0.54926861476E-01  0.88922427961E+00  0.88000000000E+00 0. -1.
        -11    1    4    4    0    0 -0.20941119516E-01  0.30778955280E-01 -0.23368699344E-01  0.43957158742E-01  0.51100000000E-03 0. -1.
         11    1    4    4    0    0 -0.63727760074E-01  0.44228419480E-01 -0.39095657866E-01  0.86868360631E-01  0.51100000000E-03 0.  1.
</event>
<event>
 8    1  0.1123361E+005  0.1043930E+01  0.7957747E-01            NaN
         13   -1    0    0    0    0  0.00000000000E+00  0.00000000000E+00  0.74505805969E-08  0.10566000000E+00  0.10566000000E+00 0. -1.
     999900   -1    0    0    0    0 -0.00000000000E+00 -0.00000000000E+00 -0.74505805969E-08  0.93827000000E+00  0.93827000000E+00 0.  1.
     999902    2    1    2    0    0  0.93804834061E-02  0.23378234342E-01  0.61103255822E-02  0.10180095180E+01  0.10176794718E+01 0.  0.
     999903    2    3    3    0    0 -0.26467305436E-01  0.12642234089E+00 -0.31336703115E-02  0.13122397269E+00  0.22951788312E-01 0.  0.
         14    1    1    2    0    0 -0.93804834061E-02 -0.23378234342E-01 -0.61103255822E-02  0.25920482028E-01  0.00000000000E+00 0. -1.
     999901    1    3    3    0    0  0.35847788842E-01 -0.10304410655E+00  0.92439958938E-02  0.88678554528E+00  0.88000000000E+00 0.  1.
        -11    1    4    4    0    0 -0.22707555787E-01  0.95705654429E-01 -0.11836439000E-01  0.99073547371E-01  0.51100000000E-03 0.  1.
         11    1    4    4    0    0 -0.37597496488E-02  0.30716686458E-01  0.87027686884E-02  0.32150425320E-01  0.51100000000E-03 0. -1.
</event>
<event>
 8    1  0.1123361E+005  0.1043930E+01  0.7957747E-01            NaN
         13   -1    0    0    0    0  0.00000000000E+00  0.00000000000E+00  0.74505805969E-08  0.10566000000E+00  0.10566000000E+00 0. -1.
     999900   -1    0    0    0    0 -0.00000000000E+00 -0.00000000000E+00 -0.74505805969E-08  0.93827000000E+00  0.93827000000E+00 0.  1.
     999902    2    1    2    0    0  0.11885820004E-01 -0.12748208574E-01  0.14000455262E-01  0.10215737417E+01  0.10213290887E+01 0.  0.
     999903    2    3    3    0    0  0.10262642684E+00  0.78210054324E-01 -0.17110708391E-01  0.13170006085E+00  0.20078187198E-01 0.  0.
         14    1    1    2    0    0 -0.11885820004E-01  0.12748208574E-01 -0.14000455262E-01  0.22356258331E-01  0.00000000000E+00 0.  1.
     999901    1    3    3    0    0 -0.90740606839E-01 -0.90958262898E-01  0.31111163653E-01  0.88987368082E+00  0.88000000000E+00 0. -1.
        -11    1    4    4    0    0  0.75715896938E-01  0.46178420263E-01 -0.13439669558E-01  0.89700776953E-01  0.51100000000E-03 0. -1.
         11    1    4    4    0    0  0.26910529905E-01  0.32031634061E-01 -0.36710388328E-02  0.41999283893E-01  0.51100000000E-03 0.  1.
</event>
<event>
 8    1  0.1123361E+005  0.1043930E+01  0.7957747E-01            NaN
         13   -1    0    0    0    0  0.00000000000E+00  0.00000000000E+00  0.74505805969E-08  0.10566000000E+00  0.10566000000E+00 0.  1.
     999900   -1    0    0    0    0 -0.00000000000E+00 -0.00000000000E+00 -0.74505805969E-08  0.93827000000E+00  0.93827000000E+00 0. -1.
     999902    2    1    2    0    0 -0.16491450662E-01 -0.12100413900E-01  0.13873903736E-01  0.10192141515E+01  0.10189144289E+01 0.  0.
     999903    2    3    3    0    0  0.66039703030E-01  0.23987511708E-02 -0.10667958857E+00  0.12705118343E+00  0.19861324439E-01 0.  0.
         14    1    1    2    0    0  0.16491450662E-01  0.12100413900E-01 -0.13873903736E-01  0.24715848485E-01  0.00000000000E+00 0.  1.
     999901    1    3    3    0    0 -0.82531153692E-01 -0.14499165071E-01  0.12055349231E+00  0.89216296809E+00  0.88000000000E+00 0.  1.
        -11    1    4    4    0    0  0.48212961815E-01 -0.79522803653E-03 -0.59984743030E-01  0.76964619092E-01  0.51100000000E-03 0. -1.
         11    1    4    4    0    0  0.17826741215E-01  0.31939792074E-02 -0.46694845544E-01  0.50086564336E-01  0.51100000000E-03 0.  1.
</event>
<event>
 8    1  0.1123361E+005  0.1043930E+01  0.7957747E-01            NaN
         13   -1    0    0    0    0  0.00000000000E+00  0.00000000000E+00  0.74505805969E-08  0.10566000000E+00  0.10566000000E+00 0.  1.
     999900   -1    0    0    0    0 -0.00000000000E+00 -0.00000000000E+00 -0.74505805969E-08  0.93827000000E+00  0.93827000000E+00 0. -1.
     999902    2    1    2    0    0 -0.12755552195E-01  0.11142078483E-01  0.17012662289E-01  0.10199241527E+01  0.10196416020E+01 0.  0.
     999903    2    3    3    0    0 -0.37249589003E-01  0.96669213966E-01  0.80146431135E-01  0.13318815961E+00  0.24148843153E-01 0.  0.
         14    1    1    2    0    0  0.12755552195E-01 -0.11142078483E-01 -0.17012662289E-01  0.24005847265E-01  0.00000000000E+00 0. -1.
     999901    1    3    3    0    0  0.24494036808E-01 -0.85527135483E-01 -0.63133768846E-01  0.88673599313E+00  0.88000000000E+00 0. -1.
        -11    1    4    4    0    0 -0.33774672675E-02  0.17438471546E-01  0.25748802990E-01  0.31285292893E-01  0.51100000000E-03 0. -1.
         11    1    4    4    0    0 -0.33872121736E-01  0.79230742420E-01  0.54397628145E-01  0.10190286671E+00  0.51100000000E-03 0.  1.
</event>
<event>
 8    1  0.1123361E+005  0.1043930E+01  0.7957747E-01            NaN
         13   -1    0    0    0    0  0.00000000000E+00  0.00000000000E+00  0.74505805969E-08  0.10566000000E+00  0.10566000000E+00 0. -1.
     999900   -1    0    0    0    0 -0.00000000000E+00 -0.00000000000E+00 -0.74505805969E-08  0.93827000000E+00  0.93827000000E+00 0. -1.
     999902    2    1    2    0    0 -0.85823586401E-02 -0.20073325337E-01 -0.73192793047E-02  0.10209046418E+01  0.10206449532E+01 0.  0.
     999903    2    3    3    0    0 -0.18413711183E-01  0.95051400483E-01 -0.84478967813E-01  0.13000398769E+00  0.19761258057E-01 0.  0.
         14    1    1    2    0    0  0.85823586401E-02  0.20073325337E-01  0.73192793047E-02  0.23025358183E-01  0.00000000000E+00 0. -1.
     999901    1    3    3    0    0  0.98313525428E-02 -0.11512472582E+00  0.77159688508E-01  0.89090065412E+00  0.88000000000E+00 0. -1.
        -11    1    4    4    0    0 -0.91478137142E-02  0.45960635472E-01 -0.27971346520E-01  0.54577649784E-01  0.51100000000E-03 0.  1.
         11    1    4    4    0    0 -0.92658974687E-02  0.49090765011E-01 -0.56507621292E-01  0.75426337909E-01  0.51100000000E-03 0. -1.
</event>
<event>
 8    1  0.1123361E+005  0.1043930E+01  0.7957747E-01            NaN
         13   -1    0    0    0    0  0.00000000000E+00  0.00000000000E+00  0.74505805969E-08  0.10566000000E+00  0.10566000000E+00 0.  1.
     999900   -1    0    0    0    0 -0.00000000000E+00 -0.00000000000E+00 -0.74505805969E-08  0.93827000000E+00  0.93827000000E+00 0. -1.
     999902    2    1    2    0    0  0.12436060292E-01  0.15726869099E-01 -0.11631272856E-01  0.10207507741E+01  0.10204875630E+01 0.  0.
     999903    2    3    3    0    0  0.46560069078E-01  0.27105811771E-01 -0.12025196954E+00  0.13334309769E+00  0.20427443769E-01 0.  0.
         14    1    1    2    0    0 -0.12436060292E-01 -0.15726869099E-01  0.11631272856E-01  0.23179225947E-01  0.00000000000E+00 0. -1.
     999901    1    3    3    0    0 -0.34124008786E-01 -0.11378942672E-01  0.10862069669E+00  0.88740767636E+00  0.88000000000E+00 0.  1.
        -11    1    4    4    0    0  0.46096828459E-01  0.21426180634E-01 -0.98414280327E-01  0.11076836418E+00  0.51100000000E-03 0. -1.
         11    1    4    4    0    0  0.46324061953E-03  0.56796311364E-02 -0.21837689218E-01  0.22574733511E-01  0.51100000000E-03 0.  1.
</event>
<event>
 8    1  0.1123361E+005  0.1043930E+01  0.7957747E-01            NaN
         13   -1    0    0    0    0  0.00000000000E+00  0.00000000000E+00  0.74505805969E-08  0.10566000000E+00  0.10566000000E+00 0.  1.
     999900   -1    0    0    0    0 -0.00000000000E+00 -0.00000000000E+00 -0.74505805969E-08  0.93827000000E+00  0.93827000000E+00 0.  1.
     999902    2    1    2    0    0  0.96645843846E-02 -0.10361709896E-01 -0.19985864298E-01  0.10194309389E+01  0.10191365145E+01 0.  0.
     999903    2    3    3    0    0 -0.10785237913E+00  0.54208574260E-01  0.35835237275E-01  0.12752536447E+00  0.20195275315E-01 0.  0.
         14    1    1    2    0    0 -0.96645843846E-02  0.10361709896E-01  0.19985864298E-01  0.24499061105E-01  0.00000000000E+00 0. -1.
     999901    1    3    3    0    0  0.11751696352E+00 -0.64570284156E-01 -0.55821101573E-01  0.89190557443E+00  0.88000000000E+00 0.  1.
        -11    1    4    4    0    0 -0.44070852376E-02  0.72811327232E-02  0.40828700396E-03  0.85361064486E-02  0.51100000000E-03 0.  1.
         11    1    4    4    0    0 -0.10344529389E+00  0.46927441537E-01  0.35426950271E-01  0.11898925802E+00  0.51100000000E-03 0. -1.
</event>
<event>
 8    1  0.1135076E+005  0.1043930E+01  0.7957747E-01            NaN
         13   -1    0    0    0    0  0.00000000000E+00  0.00000000000E+00  0.74505805969E-08  0.10566000000E+00  0.10566000000E+00 0. -1.
     999900   -1    0    0    0    0 -0.00000000000E+00 -0.00000000000E+00 -0.74505805969E-08  0.93827000000E+00  0.93827000000E+00 0.  1.
     999902    2    1    2    0    0 -0.18461859829E-01 -0.50373196794E-02 -0.12343418940E-01  0.10211577614E+01  0.10209038147E+01 0.  0.
     999903    2    3    3    0    0  0.18408559168E-01  0.11261891932E+00 -0.61634739667E-01  0.13119593492E+00  0.19789799530E-01 0.  0.
         14    1    1    2    0    0  0.18461859829E-01  0.50373196794E-02  0.12343418940E-01  0.22772238560E-01  0.00000000000E+00 0. -1.
     999901    1    3    3    0    0 -0.36870418997E-01 -0.11765623900E+00  0.49291320726E-01  0.88996182652E+00  0.88000000000E+00 0.  1.
        -11    1    4    4    0    0  0.19722807938E-02  0.48290259829E-01 -0.17201817192E-01  0.51303047878E-01  0.51100000000E-03 0.  1.
         11    1    4    4    0    0  0.16436278375E-01  0.64328659489E-01 -0.44432922474E-01  0.79892887037E-01  0.51100000000E-03 0. -1.
</event>
<event>
 8    1  0.1123361E+005  0.1043930E+01  0.7957747E-01            NaN
         13   -1    0    0    0    0  0.00000000000E+00  0.00000000000E+00  0.74505805969E-08  0.10566000000E+00  0.10566000000E+00 0. -1.
     999900   -1    0    0    0    0 -0.00000000000E+00 -0.00000000000E+00 -0.74505805969E-08  0.93827000000E+00  0.93827000000E+00 0. -1.
     999902    2    1    2    0    0 -0.11719856959E-02 -0.62129781154E-02  0.26582456214E-01  0.10166059881E+01  0.10162387187E+01 0.  0.
     999903    2    3    3    0    0 -0.23863965354E-01  0.99432194472E-01 -0.70615541515E-01  0.12468487097E+00  0.10174094832E-01 0.  0.
         14    1    1    2    0    0  0.11719856959E-02  0.62129781154E-02 -0.26582456214E-01  0.27324011892E-01  0.00000000000E+00 0.  1.
     999901    1    3    3    0    0  0.22691979659E-01 -0.10564517259E+00  0.97197997729E-01  0.89192111714E+00  0.88000000000E+00 0.  1.
        -11    1    4    4    0    0 -0.13858467529E-01  0.72436099217E-01 -0.54337570886E-01  0.91607195803E-01  0.51100000000E-03 0.  1.
         11    1    4    4    0    0 -0.10005497826E-01  0.26996095255E-01 -0.16277970629E-01  0.33077675168E-01  0.51100000000E-03 0. -1.
</event>
<event>
 8    1  0.1123361E+005  0.1043930E+01  0.7957747E-01            NaN
         13   -1    0    0    0    0  0.00000000000E+00  0.00000000000E+00  0.74505805969E-08  0.10566000000E+00  0.10566000000E+00 0.  1.
     999900   -1    0    0    0    0 -0.00000000000E+00 -0.00000000000E+00 -0.74505805969E-08  0.93827000000E+00  0.93827000000E+00 0.  1.
     999902    2    1    2    0    0  0.10317026766E-02  0.20082430032E-01  0.11289707447E-01  0.10208686492E+01  0.10206081388E+01 0.  0.
     999903    2    3    3    0    0 -0.90519223539E-01  0.81032959574E-01  0.50638723132E-01  0.13314972737E+00  0.20112166737E-01 0.  0.
         14    1    1    2    0    0 -0.10317026766E-02 -0.20082430032E-01 -0.11289707447E-01  0.23061350799E-01  0.00000000000E+00 0. -1.
     999901    1    3    3    0    0  0.91550926216E-01 -0.60950529541E-01 -0.39349015685E-01  0.88771892183E+00  0.88000000000E+00 0.  1.
        -11    1    4    4    0    0 -0.37874916149E-01  0.46272704623E-01  0.20335102004E-01  0.63162092753E-01  0.51100000000E-03 0.  1.
         11    1    4    4    0    0 -0.52644307390E-01  0.34760254951E-01  0.30303621127E-01  0.69987634617E-01  0.51100000000E-03 0. -1.
</event>
<event>
 8    1  0.1123361E+005  0.1043930E+01  0.7957747E-01            NaN
         13   -1    0    0    0    0  0.00000000000E+00  0.00000000000E+00  0.74505805969E-08  0.10566000000E+00  0.10566000000E+00 0.  1.
     999900   -1    0    0    0    0 -0.00000000000E+00 -0.00000000000E+00 -0.74505805969E-08  0.93827000000E+00  0.93827000000E+00 0.  1.
     999902    2    1    2    0    0 -0.11075784555E-01  0.84912164501E-02  0.19161590103E-01  0.10202247201E+01  0.10199492827E+01 0.  0.
     999903    2    3    3    0    0  0.12076063489E+00 -0.26966176865E-01 -0.28005293576E-01  0.12844964579E+00  0.20117390502E-01 0.  0.
         14    1    1    2    0    0  0.11075784555E-01 -0.84912164501E-02 -0.19161590103E-01  0.23705279909E-01  0.00000000000E+00 0. -1.
     999901    1    3    3    0    0 -0.13183641945E+00  0.35457393315E-01  0.47166883679E-01  0.89177507430E+00  0.88000000000E+00 0. -1.
        -11    1    4    4    0    0  0.67932612452E-01 -0.16036939657E-01 -0.25924209508E-01  0.74460385627E-01  0.51100000000E-03 0.  1.
         11    1    4    4    0    0  0.52828022439E-01 -0.10929237207E-01 -0.20810840683E-02  0.53989260160E-01  0.51100000000E-03 0. -1.
</event>
<event>
 8    1  0.1123361E+005  0.1043930E+01  0.7957747E-01            NaN
         13   -1    0    0    0    0  0.00000000000E+00  0.00000000000E+00  0.74505805969E-08  0.10566000000E+00  0.10566000000E+00 0.  1.
     999900   -1    0    0    0    0 -0.00000000000E+00 -0.00000000000E+00 -0.74505805969E-08  0.93827000000E+00  0.93827000000E+00 0. -1.
     999902    2    1    2    0    0  0.14304087648E-01  0.20270081175E-01 -0.20470032490E-02  0.10190367612E+01  0.10187326673E+01 0.  0.
     999903    2    3    3    0    0 -0.92868695880E-01 -0.65210655513E-01  0.52791527836E-01  0.12673623654E+00  0.19952543018E-01 0.  0.
         14    1    1    2    0    0 -0.14304087648E-01 -0.20270081175E-01  0.20470032490E-02  0.24893238773E-01  0.00000000000E+00 0. -1.
     999901    1    3    3    0    0  0.10717278353E+00  0.85480736688E-01 -0.54838531085E-01  0.89230052469E+00  0.88000000000E+00 0.  1.
        -11    1    4    4    0    0 -0.82100185603E-01 -0.50851341250E-01  0.39245204200E-01  0.10424368833E+00  0.51100000000E-03 0.  1.
         11    1    4    4    0    0 -0.10768510277E-01 -0.14359314263E-01  0.13546323636E-01  0.22492548205E-01  0.51100000000E-03 0. -1.
</event>
<event>
 8    1  0.1123361E+005  0.1043930E+01  0.7957747E-01            NaN
         13   -1    0    0    0    0  0.00000000000E+00  0.00000000000E+00  0.74505805969E-08  0.10566000000E+00  0.10566000000E+00 0.  1.
     999900   -1    0    0    0    0 -0.00000000000E+00 -0.00000000000E+00 -0.74505805969E-08  0.93827000000E+00  0.93827000000E+00 0. -1.
     999902    2    1    2    0    0 -0.62473402695E-02 -0.13713963158E-01  0.18779776361E-01  0.10198513363E+01  0.10195670484E+01 0.  0.
     999903    2    3    3    0    0 -0.53271208236E-03 -0.71287377505E-01 -0.10586109133E+00  0.12918714541E+00  0.20014342574E-01 0.  0.
         14    1    1    2    0    0  0.62473402695E-02  0.13713963158E-01 -0.18779776361E-01  0.24078663711E-01  0.00000000000E+00 0. -1.
     999901    1    3    3    0    0 -0.57146281872E-02  0.57573414347E-01  0.12464086769E+00  0.89066419088E+00  0.88000000000E+00 0.  1.
        -11    1    4    4    0    0 -0.90390867831E-02 -0.28366468631E-01 -0.35567425291E-01  0.46386037719E-01  0.51100000000E-03 0. -1.
         11    1    4    4    0    0  0.85063747007E-02 -0.42920908875E-01 -0.70293666035E-01  0.82801107691E-01  0.51100000000E-03 0.  1.
</event>
<event>
 8    1  0.1123361E+005  0.1043930E+01  0.7957747E-01            NaN
         13   -1    0    0    0    0  0.00000000000E+00  0.00000000000E+00  0.74505805969E-08  0.10566000000E+00  0.10566000000E+00 0.  1.
     999900   -1    0    0    0    0 -0.00000000000E+00 -0.00000000000E+00 -0.74505805969E-08  0.93827000000E+00  0.93827000000E+00 0.  1.
     999902    2    1    2    0    0  0.15432266920E-01 -0.10011912750E-02 -0.17965113295E-01  0.10202255164E+01  0.10199500977E+01 0.  0.
     999903    2    3    3    0    0  0.10217041090E+00  0.24319365700E-01  0.75218117789E-01  0.13070443697E+00  0.19891208792E-01 0.  0.
         14    1    1    2    0    0 -0.15432266920E-01  0.10011912750E-02  0.17965113295E-01  0.23704483584E-01  0.00000000000E+00 0.  1.
     999901    1    3    3    0    0 -0.86738143983E-01 -0.25320556975E-01 -0.93183231085E-01  0.88952107945E+00  0.88000000000E+00 0.  1.
        -11    1    4    4    0    0  0.15430481818E-01 -0.33737944179E-02  0.12307844231E-01  0.20030636748E-01  0.51100000000E-03 0. -1.
         11    1    4    4    0    0  0.86739929084E-01  0.27693160118E-01  0.62910273558E-01  0.11067380022E+00  0.51100000000E-03 0.  1.
</event>
<event>
 8    1  0.1123361E+005  0.1043930E+01  0.7957747E-01            NaN
         13   -1    0    0    0    0  0.00000000000E+00  0.00000000000E+00  0.74505805969E-08  0.10566000000E+00  0.10566000000E+00 0.  1.
     999900   -1    0    0    0    0 -0.00000000000E+00 -0.00000000000E+00 -0.74505805969E-08  0.93827000000E+00  0.93827000000E+00 0. -1.
     999902    2    1    2    0    0 -0.96219449303E-02  0.47299301047E-02  0.20857115046E-01  0.10204784902E+01  0.10202089863E+01 0.  0.
     999903    2    3    3    0    0  0.14832971985E-01 -0.33943058640E-01  0.12612431730E+00  0.13302436358E+00  0.20395823159E-01 0.  0.
         14    1    1    2    0    0  0.96219449303E-02 -0.47299301047E-02 -0.20857115046E-01  0.23451509783E-01  0.00000000000E+00 0. -1.
     999901    1    3    3    0    0 -0.24454916915E-01  0.38672988744E-01 -0.10526720226E+00  0.88745412664E+00  0.88000000000E+00 0. -1.
        -11    1    4    4    0    0  0.17417353684E-01 -0.18052424980E-01  0.61459971164E-01  0.66384060086E-01  0.51100000000E-03 0. -1.
         11    1    4    4    0    0 -0.25843816993E-02 -0.15890633659E-01  0.64664346138E-01  0.66640303491E-01  0.51100000000E-03 0.  1.
</event>
<event>
 8    1  0.1123361E+005  0.1043930E+01  0.7957747E-01            NaN
         13   -1    0    0    0    0  0.00000000000E+00  0.00000000000E+00  0.74505805969E-08  0.10566000000E+00  0.10566000000E+00 0.  1.
     999900   -1    0    0    0    0 -0.00000000000E+00 -0.00000000000E+00 -0.74505805969E-08  0.93827000000E+00  0.93827000000E+00 0.  1.
     999902    2    1    2    0    0  0.21397257111E-01 -0.99077209125E-02  0.26636678078E-02  0.10202002577E+01  0.10199242448E+01 0.  0.
     999903    2    3    3    0    0  0.26027447621E-01  0.19237847855E-02 -0.12685765812E+00  0.13062890185E+00  0.17026908065E-01 0.  0.
         14    1    1    2    0    0 -0.21397257111E-01  0.99077209125E-02 -0.26636678078E-02  0.23729742345E-01  0.00000000000E+00 0.  1.
     999901    1    3    3    0    0 -0.46301905095E-02 -0.11831505698E-01  0.12952132593E+00  0.88957135580E+00  0.88000000000E+00 0. -1.
        -11    1    4    4    0    0  0.16086055521E-01 -0.38267852324E-02 -0.44550559951E-01  0.47522825888E-01  0.51100000000E-03 0. -1.
         11    1    4    4    0    0  0.99413921002E-02  0.57505700179E-02 -0.82307098170E-01  0.83106075966E-01  0.51100000000E-03 0.  1.
</event>
<event>
 8    1  0.1123361E+005  0.1043930E+01  0.7957747E-01            NaN
         13   -1    0    0    0    0  0.00000000000E+00  0.00000000000E+00  0.74505805969E-08  0.10566000000E+00  0.10566000000E+00 0.  1.
     999900   -1    0    0    0    0 -0.00000000000E+00 -0.00000000000E+00 -0.74505805969E-08  0.93827000000E+00  0.93827000000E+00 0. -1.
     999902    2    1    2    0    0 -0.71760407352E-02 -0.22063433834E-01 -0.64260022066E-02  0.10198554454E+01  0.10195712557E+01 0.  0.
     999903    2    3    3    0    0 -0.10575110314E+00 -0.56400677282E-01 -0.52735176980E-01  0.13247693043E+00  0.20119791069E-01 0.  0.
         14    1    1    2    0    0  0.71760407352E-02  0.22063433834E-01  0.64260022066E-02  0.24074554566E-01  0.00000000000E+00 0.  1.
     999901    1    3    3    0    0  0.98575062406E-01  0.34337243448E-01  0.46309174774E-01  0.88737851500E+00  0.88000000000E+00 0.  1.
        -11    1    4    4    0    0 -0.57401188344E-01 -0.39247095436E-01 -0.37246943889E-01  0.78884896358E-01  0.51100000000E-03 0.  1.
         11    1    4    4    0    0 -0.48349914798E-01 -0.17153581846E-01 -0.15488233092E-01  0.53592034076E-01  0.51100000000E-03 0. -1.
</event>
<event>
 8    1  0.1123361E+005  0.1043930E+01  0.7957747E-01            NaN
         13   -1    0    0    0    0  0.00000000000E+00  0.00000000000E+00  0.74505805969E-08  0.10566000000E+00  0.10566000000E+00 0.  1.
     999900   -1    0    0    0    0 -0.00000000000E+00 -0.00000000000E+00 -0.74505805969E-08  0.93827000000E+00  0.93827000000E+00 0.  1.
     999902    2    1    2    0    0  0.16236432334E-01 -0.17142426727E-01  0.17483626705E-02  0.10202542466E+01  0.10199795029E+01 0.  0.
     999903    2    3    3    0    0 -0.31708345404E-01  0.11058653449E+00 -0.52973425417E-01  0.12806151887E+00  0.18941173044E-01 0.  0.
         14    1    1    2    0    0 -0.16236432334E-01  0.17142426727E-01 -0.17483626705E-02  0.23675753442E-01  0.00000000000E+00 0. -1.
     999901    1    3    3    0    0  0.47944777738E-01 -0.12772896122E+00  0.54721788088E-01  0.89219272769E+00  0.88000000000E+00 0. -1.
        -11    1    4    4    0    0 -0.51974043236E-02  0.44706869364E-01 -0.26744864725E-01  0.52357101621E-01  0.51100000000E-03 0.  1.
         11    1    4    4    0    0 -0.26510941080E-01  0.65879665126E-01 -0.26228560692E-01  0.75704417249E-01  0.51100000000E-03 0. -1.
</event>
<event>
 8    1  0.1123361E+005  0.1043930E+01  0.7957747E-01            NaN
         13   -1    0    0    0    0  0.00000000000E+00  0.00000000000E+00  0.74505805969E-08  0.10566000000E+00  0.10566000000E+00 0.  1.
     999900   -1    0    0    0    0 -0.00000000000E+00 -0.00000000000E+00 -0.74505805969E-08  0.93827000000E+00  0.93827000000E+00 0.  1.
     999902    2    1    2    0    0  0.47661150982E-02  0.21444709379E-01 -0.38945541433E-02  0.10216194876E+01  0.10213758458E+01 0.  0.
     999903    2    3    3    0    0 -0.10684360805E+00 -0.50381618862E-01 -0.51324615962E-01  0.13040382202E+00  0.20422450717E-01 0.  0.
         14    1    1    2    0    0 -0.47661150982E-02 -0.21444709379E-01  0.38945541433E-02  0.22310512442E-01  0.00000000000E+00 0. -1.
     999901    1    3    3    0    0  0.11160972315E+00  0.71826328241E-01  0.47430061818E-01  0.89121566553E+00  0.88000000000E+00 0. -1.
        -11    1    4    4    0    0 -0.74326089779E-01 -0.44168685949E-01 -0.41237968413E-01  0.95791813847E-01  0.51100000000E-03 0. -1.
         11    1    4    4    0    0 -0.32517518275E-01 -0.62129329129E-02 -0.10086647549E-01  0.34612008176E-01  0.51100000000E-03 0.  1.
</event>
<event>
 8    1  0.1123361E+005  0.1043930E+01  0.7957747E-01            NaN
         13   -1    0    0    0    0  0.00000000000E+00  0.00000000000E+00  0.74505805969E-08  0.10566000000E+00  0.10566000000E+00 0. -1.
     999900   -1    0    0    0    0 -0.00000000000E+00 -0.00000000000E+00 -0.74505805969E-08  0.93827000000E+00  0.93827000000E+00 0. -1.
     999902    2    1    2    0    0  0.21363433363E-01  0.29851775865E-01 -0.86678531041E-02  0.10062118812E+01  0.10055046959E+01 0.  0.
     999903    2    3    3    0    0 -0.22145535929E-01  0.49541716442E-01  0.10231678382E+00  0.11795611073E+00  0.22363214832E-01 0.  0.
         14    1    1    2    0    0 -0.21363433363E-01 -0.29851775865E-01  0.86678531041E-02  0.37718118786E-01  0.00000000000E+00 0.  1.
     999901    1    3    3    0    0  0.43508969292E-01 -0.19689940577E-01 -0.11098463692E+00  0.88825577049E+00  0.88000000000E+00 0. -1.
        -11    1    4    4    0    0 -0.15105449646E-01  0.16109222934E-01  0.57515874940E-01  0.61611838665E-01  0.51100000000E-03 0.  1.
         11    1    4    4    0    0 -0.70400862830E-02  0.33432493508E-01  0.44800908878E-01  0.56344272063E-01  0.51100000000E-03 0. -1.
</event>
<event>
 8    1  0.1123361E+005  0.1043930E+01  0.7957747E-01            NaN
         13   -1    0    0    0    0  0.00000000000E+00  0.00000000000E+00  0.74505805969E-08  0.10566000000E+00  0.10566000000E+00 0. -1.
     999900   -1    0    0    0    0 -0.00000000000E+00 -0.00000000000E+00 -0.74505805969E-08  0.93827000000E+00  0.93827000000E+00 0.  1.
     999902    2    1    2    0    0  0.51951682197E-02 -0.17280776354E-01 -0.13514212208E-01  0.10213856230E+01  0.10211367890E+01 0.  0.
     999903    2    3    3    0    0  0.96592670097E-01  0.84844502631E-02  0.85345155326E-01  0.13077317931E+00  0.20388699704E-01 0.  0.
         14    1    1    2    0    0 -0.51951682197E-02  0.17280776354E-01  0.13514212208E-01  0.22544377034E-01  0.00000000000E+00 0. -1.
     999901    1    3    3    0    0 -0.91397501878E-01 -0.25765226618E-01 -0.98859367533E-01  0.89061244366E+00  0.88000000000E+00 0.  1.
        -11    1    4    4    0    0  0.19762851160E-01  0.30042490794E-02  0.77714593563E-02  0.21453496220E-01  0.51100000000E-03 0. -1.
         11    1    4    4    0    0  0.76829818937E-01  0.54802011837E-02  0.77573695970E-01  0.10931968309E+00  0.51100000000E-03 0.  1.
</event>
<event>
 8    1  0.1123361E+005  0.1043930E+01  0.7957747E-01            NaN
         13   -1    0    0    0    0  0.00000000000E+00  0.00000000000E+00  0.74505805969E-08  0.10566000000E+00  0.10566000000E+00 0.  1.
     999900   -1    0    0    0    0 -0.00000000000E+00 -0.00000000000E+00 -0.74505805969E-08  0.93827000000E+00  0.93827000000E+00 0.  1.
     999902    2    1    2    0    0  0.28237566498E-03 -0.13777637315E-01  0.17147685398E-01  0.10219312241E+01  0.10216944165E+01 0.  0.
     999903    2    3    3    0    0  0.85741511088E-01  0.32159370544E-02  0.10051251871E+00  0.13370729918E+00  0.20320592066E-01 0.  0.
         14    1    1    2    0    0 -0.28237566498E-03  0.13777637315E-01 -0.17147685398E-01  0.21998775887E-01  0.00000000000E+00 0. -1.
     999901    1    3    3    0    0 -0.85459135423E-01 -0.16993574369E-01 -0.83364833307E-01  0.88822392494E+00  0.88000000000E+00 0. -1.
        -11    1    4    4    0    0  0.37919759729E-01 -0.86274488241E-02  0.45523281595E-01  0.59874630180E-01  0.51100000000E-03 0. -1.
         11    1    4    4    0    0  0.47821751359E-01  0.11843385878E-01  0.54989237111E-01  0.73832668997E-01  0.51100000000E-03 0.  1.
</event>
<event>
 8    1  0.1123361E+005  0.1043930E+01  0.7957747E-01            NaN
         13   -1    0    0    0    0  0.00000000000E+00  0.00000000000E+00  0.74505805969E-08  0.10566000000E+00  0.10566000000E+00 0.  1.
     999900   -1    0    0    0    0 -0.00000000000E+00 -0.00000000000E+00 -0.74505805969E-08  0.93827000000E+00  0.93827000000E+00 0. -1.
     999902    2    1    2    0    0 -0.16939079106E-01  0.18083631737E-01  0.65298998017E-03  0.10191433799E+01  0.10188419173E+01 0.  0.
     999903    2    3    3    0    0 -0.10357567828E+00  0.22379636469E-02  0.78446759438E-01  0.13133210716E+00  0.19007858723E-01 0.  0.
         14    1    1    2    0    0  0.16939079106E-01 -0.18083631737E-01 -0.65298998017E-03  0.24786620053E-01  0.00000000000E+00 0.  1.
     999901    1    3    3    0    0  0.86636599175E-01  0.15845668090E-01 -0.77793769458E-01  0.88781127278E+00  0.88000000000E+00 0. -1.
        -11    1    4    4    0    0 -0.61434297259E-01 -0.74712902674E-02  0.50049439159E-01  0.79593973007E-01  0.51100000000E-03 0.  1.
         11    1    4    4    0    0 -0.42141381022E-01  0.97092539143E-02  0.28397320279E-01  0.51738134157E-01  0.51100000000E-03 0. -1.
</event>
<event>
 8    1  0.1123361E+005  0.1043930E+01  0.7957747E-01            NaN
         13   -1    0    0    0    0  0.00000000000E+00  0.00000000000E+00  0.74505805969E-08  0.10566000000E+00  0.10566000000E+00 0. -1.
     999900   -1    0    0    0    0 -0.00000000000E+00 -0.00000000000E+00 -0.74505805969E-08  0.93827000000E+00  0.93827000000E+00 0.  1.
     999902    2    1    2    0    0  0.69812429932E-02  0.21058779184E-01  0.25313270615E-02  0.10216002541E+01  0.10213561875E+01 0.  0.
     999903    2    3    3    0    0  0.92038483620E-01  0.81387232923E-01 -0.49350205641E-01  0.13392579242E+00  0.20142267221E-01 0.  0.
         14    1    1    2    0    0 -0.69812429932E-02 -0.21058779184E-01 -0.25313270615E-02  0.22329745882E-01  0.00000000000E+00 0.  1.
     999901    1    3    3    0    0 -0.85057240627E-01 -0.60328453738E-01  0.51881532703E-01  0.88767446170E+00  0.88000000000E+00 0.  1.
        -11    1    4    4    0    0  0.12657081446E-01  0.21899397912E-01 -0.96296873240E-02  0.27069860336E-01  0.51100000000E-03 0.  1.
         11    1    4    4    0    0  0.79381402174E-01  0.59487835011E-01 -0.39720518317E-01  0.10685593209E+00  0.51100000000E-03 0. -1.
</event>
<event>
 8    1  0.1123361E+005  0.1043930E+01  0.7957747E-01            NaN
         13   -1    0    0    0    0  0.00000000000E+00  0.00000000000E+00  0.74505805969E-08  0.10566000000E+00  0.10566000000E+00 0.  1.
     999900   -1    0    0    0    0 -0.00000000000E+00 -0.00000000000E+00 -0.74505805969E-08  0.93827000000E+00  0.93827000000E+00 0. -1.
     999902    2    1    2    0    0  0.58296487034E-02 -0.17591768416E-01 -0.14608127189E-01  0.10203322777E+01  0.10200593631E+01 0.  0.
     999903    2    3    3    0    0 -0.52599106926E-01 -0.88180027966E-03  0.11395135972E+00  0.12891728777E+00  0.29450145698E-01 0.  0.
         14    1    1    2    0    0 -0.58296487034E-02  0.17591768416E-01  0.14608127189E-01  0.23597722347E-01  0.00000000000E+00 0.  1.
     999901    1    3    3    0    0  0.58428755630E-01 -0.16709968136E-01 -0.12855948691E+00  0.89141498989E+00  0.88000000000E+00 0. -1.
        -11    1    4    4    0    0 -0.54096833139E-03 -0.30474393895E-02  0.29630600745E-01  0.29796193634E-01  0.51100000000E-03 0. -1.
         11    1    4    4    0    0 -0.52058138595E-01  0.21656391098E-02  0.84320758976E-01  0.99121094133E-01  0.51100000000E-03 0.  1.
</event>
<event>
 8    1  0.1123361E+005  0.1043930E+01  0.7957747E-01            NaN
         13   -1    0    0    0    0  0.00000000000E+00  0.00000000000E+00  0.74505805969E-08  0.10566000000E+00  0.10566000000E+00 0.  1.
     999900   -1    0    0    0    0 -0.00000000000E+00 -0.00000000000E+00 -0.74505805969E-08  0.93827000000E+00  0.93827000000E+00 0. -1.
     999902    2    1    2    0    0 -0.16243461079E-01  0.15627738960E-01  0.66415367714E-02  0.10204313561E+01  0.10201607551E+01 0.  0.
     999903    2    3    3    0    0  0.70884052915E-01  0.46484002676E-01 -0.96004156719E-01  0.12965672072E+00  0.20217706553E-01 0.  0.
         14    1    1    2    0    0  0.16243461079E-01 -0.15627738960E-01 -0.66415367714E-02  0.23498643865E-01  0.00000000000E+00 0.  1.
     999901    1    3    3    0    0 -0.87127513994E-01 -0.30856263716E-01  0.10264569349E+00  0.89077463541E+00  0.88000000000E+00 0. -1.
        -11    1    4    4    0    0  0.23497529037E-01  0.23842000033E-01 -0.47870377348E-01  0.58415828205E-01  0.51100000000E-03 0.  1.
         11    1    4    4    0    0  0.47386523877E-01  0.22642002643E-01 -0.48133779371E-01  0.71240892516E-01  0.51100000000E-03 0. -1.
</event>
<event>
 8    1  0.1123361E+005  0.1043930E+01  0.7957747E-01            NaN
         13   -1    0    0    0    0  0.00000000000E+00  0.00000000000E+00  0.74505805969E-08  0.10566000000E+00  0.10566000000E+00 0.  1.
     999900   -1    0    0    0    0 -0.00000000000E+00 -0.00000000000E+00 -0.74505805969E-08  0.93827000000E+00  0.93827000000E+00 0. -1.
     999902    2    1    2    0    0  0.19539122902E-01 -0.19060985518E-01  0.11893487271E-02  0.10166076091E+01  0.10162403839E+01 0.  0.
     999903    2    3    3    0    0 -0.41050073634E-01 -0.11804559000E+00  0.23952367582E-01  0.12869592563E+00  0.19210817167E-01 0.  0.
         14    1    1    2    0    0 -0.19539122902E-01  0.19060985518E-01 -0.11893487271E-02  0.27322390874E-01  0.00000000000E+00 0.  1.
     999901    1    3    3    0    0  0.60589196536E-01  0.98984604486E-01 -0.22763018855E-01  0.88791168350E+00  0.88000000000E+00 0.  1.
        -11    1    4    4    0    0 -0.27473911147E-01 -0.78098260036E-01  0.65377883146E-02  0.83049128903E-01  0.51100000000E-03 0.  1.
         11    1    4    4    0    0 -0.13576162486E-01 -0.39947329967E-01  0.17414579267E-01  0.45646796727E-01  0.51100000000E-03 0. -1.
</event>
<event>
 8    1  0.1123361E+005  0.1043930E+01  0.7957747E-01            NaN
         13   -1    0    0    0    0  0.00000000000E+00  0.00000000000E+00  0.74505805969E-08  0.10566000000E+00  0.10566000000E+00 0. -1.
     999900   -1    0    0    0    0 -0.00000000000E+00 -0.00000000000E+00 -0.74505805969E-08  0.93827000000E+00  0.93827000000E+00 0.  1.
     999902    2    1    2    0    0 -0.53578134183E-02  0.26272838748E-01  0.48236219326E-02  0.10166859998E+01  0.10163209073E+01 0.  0.
     999903    2    3    3    0    0  0.11496122183E+00 -0.41445094718E-01  0.23677858667E-01  0.12572142639E+00  0.17648163125E-01 0.  0.
         14    1    1    2    0    0  0.53578134183E-02 -0.26272838748E-01 -0.48236219326E-02  0.27244000240E-01  0.00000000000E+00 0.  1.
     999901    1    3    3    0    0 -0.12031903525E+00  0.67717933466E-01 -0.18854236734E-01  0.89096457337E+00  0.88000000000E+00 0. -1.
        -11    1    4    4    0    0  0.62218062695E-02 -0.10168832551E-02 -0.24841098170E-02  0.67953548394E-02  0.51100000000E-03 0.  1.
         11    1    4    4    0    0  0.10873941556E+00 -0.40428211463E-01  0.26161968484E-01  0.11892607155E+00  0.51100000000E-03 0. -1.
</event>
<event>
 8    1  0.1123361E+005  0.1043930E+01  0.7957747E-01            NaN
         13   -1    0    0    0    0  0.00000000000E+00  0.00000000000E+00  0.74505805969E-08  0.10566000000E+00  0.10566000000E+00 0.  1.
     999900   -1    0    0    0    0 -0.00000000000E+00 -0.00000000000E+00 -0.74505805969E-08  0.93827000000E+00  0.93827000000E+00 0. -1.
     999902    2    1    2    0    0 -0.11231192554E-01 -0.22074614447E-01 -0.20400727184E-02  0.10190786381E+01  0.10187755791E+01 0.  0.
     999903    2    3    3    0    0 -0.71588312518E-01  0.90642206853E-01 -0.52516931761E-01  0.12840699437E+00  0.19734029719E-01 0.  0.
         14    1    1    2    0    0  0.11231192554E-01  0.22074614447E-01  0.20400727184E-02  0.24851361851E-01  0.00000000000E+00 0. -1.
     999901    1    3    3    0    0  0.60357119964E-01 -0.11271682130E+00  0.50476859042E-01  0.89067164378E+00  0.88000000000E+00 0.  1.
        -11    1    4    4    0    0 -0.22437557074E-01  0.43991191377E-01 -0.20859690350E-01  0.53610229329E-01  0.51100000000E-03 0. -1.
         11    1    4    4    0    0 -0.49150755445E-01  0.46651015476E-01 -0.31657241411E-01  0.74796765041E-01  0.51100000000E-03 0.  1.
</event>
<event>
 8    1  0.1123361E+005  0.1043930E+01  0.7957747E-01            NaN
         13   -1    0    0    0    0  0.00000000000E+00  0.00000000000E+00  0.74505805969E-08  0.10566000000E+00  0.10566000000E+00 0. -1.
     999900   -1    0    0    0    0 -0.00000000000E+00 -0.00000000000E+00 -0.74505805969E-08  0.93827000000E+00  0.93827000000E+00 0. -1.
     999902    2    1    2    0    0 -0.21657725482E-01 -0.87038631293E-02  0.29589282351E-02  0.10204019409E+01  0.10201306541E+01 0.  0.
     999903    2    3    3    0    0 -0.11729938200E+00 -0.12119614684E-02  0.60251483756E-01  0.13333605164E+00  0.19688765922E-01 0.  0.
         14    1    1    2    0    0  0.21657725482E-01  0.87038631293E-02 -0.29589282351E-02  0.23528059052E-01  0.00000000000E+00 0. -1.
     999901    1    3    3    0    0  0.95641656522E-01 -0.74919016609E-02 -0.57292555521E-01  0.88706588931E+00  0.88000000000E+00 0. -1.
        -11    1    4    4    0    0 -0.14155570096E-01  0.50854549554E-02  0.12197701465E-01  0.19372327142E-01  0.51100000000E-03 0.  1.
         11    1    4    4    0    0 -0.10314381191E+00 -0.62974164238E-02  0.48053782291E-01  0.11396372450E+00  0.51100000000E-03 0. -1.
</event>
<event>
 8    1  0.1123361E+005  0.1043930E+01  0.7957747E-01            NaN
         13   -1    0    0    0    0  0.00000000000E+00  0.00000000000E+00  0.74505805969E-08  0.10566000000E+00  0.10566000000E+00 0. -1.
     999900   -1    0    0    0    0 -0.00000000000E+00 -0.00000000000E+00 -0.74505805969E-08  0.93827000000E+00  0.93827000000E+00 0. -1.
     999902    2    1    2    0    0 -0.17309695029E-01  0.14951574002E-01  0.45222879720E-02  0.10206142072E+01  0.10203478493E+01 0.  0.
     999903    2    3    3    0    0 -0.87080131615E-01  0.37931339237E-01  0.91366158886E-01  0.13329361045E+00  0.19941809832E-01 0.  0.
         14    1    1    2    0    0  0.17309695029E-01 -0.14951574002E-01 -0.45222879720E-02  0.23315792837E-01  0.00000000000E+00 0.  1.
     999901    1    3    3    0    0  0.69770436587E-01 -0.22979765235E-01 -0.86843870914E-01  0.88732059671E+00  0.88000000000E+00 0. -1.
        -11    1    4    4    0    0 -0.12482486612E-01  0.12180019204E-01  0.23078582236E-01  0.28931771789E-01  0.51100000000E-03 0.  1.
         11    1    4    4    0    0 -0.74597645003E-01  0.25751320033E-01  0.68287576649E-01  0.10436183866E+00  0.51100000000E-03 0. -1.
</event>
<event>
 8    1  0.1123361E+005  0.1043930E+01  0.7957747E-01            NaN
         13   -1    0    0    0    0  0.00000000000E+00  0.00000000000E+00  0.74505805969E-08  0.10566000000E+00  0.10566000000E+00 0. -1.
     999900   -1    0    0    0    0 -0.00000000000E+00 -0.00000000000E+00 -0.74505805969E-08  0.93827000000E+00  0.93827000000E+00 0. -1.
     999902    2    1    2    0    0  0.18395801233E-01  0.13811888025E-01  0.67963977352E-03  0.10209161854E+01  0.10206567601E+01 0.  0.
     999903    2    3    3    0    0  0.10648182281E+00 -0.25098368152E-01 -0.72324679134E-01  0.13265789758E+00  0.19973780471E-01 0.  0.
         14    1    1    2    0    0 -0.18395801233E-01 -0.13811888025E-01 -0.67963977352E-03  0.23013814635E-01  0.00000000000E+00 0. -1.
     999901    1    3    3    0    0 -0.88086021578E-01  0.38910256177E-01  0.73004318907E-01  0.88825828778E+00  0.88000000000E+00 0.  1.
        -11    1    4    4    0    0  0.32528138789E-01 -0.46134237249E-02 -0.11764877260E-01  0.34900386093E-01  0.51100000000E-03 0. -1.
         11    1    4    4    0    0  0.73953684023E-01 -0.20484944427E-01 -0.60559801874E-01  0.97757511490E-01  0.51100000000E-03 0.  1.
</event>
<event>
 8    1  0.1123361E+005  0.1043930E+01  0.7957747E-01            NaN
         13   -1    0    0    0    0  0.00000000000E+00  0.00000000000E+00  0.74505805969E-08  0.10566000000E+00  0.10566000000E+00 0. -1.
     999900   -1    0    0    0    0 -0.00000000000E+00 -0.00000000000E+00 -0.74505805969E-08  0.93827000000E+00  0.93827000000E+00 0.  1.
     999902    2    1    2    0    0 -0.67649617513E-02 -0.43595666260E-03 -0.22823749747E-01  0.10201207934E+01  0.10198429069E+01 0.  0.
     999903    2    3    3    0    0  0.46028419335E-01  0.11750951854E+00  0.21251144830E-01  0.12959237021E+00  0.20383054841E-01 0.  0.
         14    1    1    2    0    0  0.67649617513E-02  0.43595666260E-03  0.22823749747E-01  0.23809206585E-01  0.00000000000E+00 0. -1.
     999901    1    3    3    0    0 -0.52793381086E-01 -0.11794547521E+00 -0.44074894576E-01  0.89052842321E+00  0.88000000000E+00 0. -1.
        -11    1    4    4    0    0  0.33203920832E-01  0.10377846173E+00  0.16485366420E-01  0.11020207758E+00  0.51100000000E-03 0. -1.
         11    1    4    4    0    0  0.12824498503E-01  0.13731056817E-01  0.47657784102E-02  0.19390292623E-01  0.51100000000E-03 0.  1.
</event>
<event>
 8    1  0.1123361E+005  0.1043930E+01  0.7957747E-01            NaN
         13   -1    0    0    0    0  0.00000000000E+00  0.00000000000E+00  0.74505805969E-08  0.10566000000E+00  0.10566000000E+00 0.  1.
     999900   -1    0    0    0    0 -0.00000000000E+00 -0.00000000000E+00 -0.74505805969E-08  0.93827000000E+00  0.93827000000E+00 0. -1.
     999902    2    1    2    0    0  0.20097174464E-01 -0.79925314809E-02  0.11438486868E-01  0.10194633704E+01  0.10191697345E+01 0.  0.
     999903    2    3    3    0    0  0.60059110566E-01  0.25346798817E-01 -0.11009978820E+00  0.12958696351E+00  0.20524638273E-01 0.  0.
         14    1    1    2    0    0 -0.20097174464E-01  0.79925314809E-02 -0.11438486868E-01  0.24466629575E-01  0.00000000000E+00 0. -1.
     999901    1    3    3    0    0 -0.39961936102E-01 -0.33339330298E-01  0.12153827507E+00  0.88987640692E+00  0.88000000000E+00 0.  1.
        -11    1    4    4    0    0  0.22534567912E-01  0.68699712192E-02 -0.22827830718E-01  0.32808142767E-01  0.51100000000E-03 0.  1.
         11    1    4    4    0    0  0.37524542654E-01  0.18476827598E-01 -0.87271957485E-01  0.96778820740E-01  0.51100000000E-03 0. -1.
</event>
<event>
 8    1  0.1123361E+005  0.1043930E+01  0.7957747E-01            NaN
         13   -1    0    0    0    0  0.00000000000E+00  0.00000000000E+00  0.74505805969E-08  0.10566000000E+00  0.10566000000E+00 0.  1.
     999900   -1    0    0    0    0 -0.00000000000E+00 -0.00000000000E+00 -0.74505805969E-08  0.93827000000E+00  0.93827000000E+00 0. -1.
     999902    2    1    2    0    0 -0.28183455000E-02  0.23829057374E-01 -0.30112170525E-02  0.10197466488E+01  0.10194598537E+01 0.  0.
     999903    2    3    3    0    0  0.12646098461E+00  0.22365331480E-01 -0.82759940300E-02  0.13028444862E+00  0.20321338388E-01 0.  0.
         14    1    1    2    0    0  0.28183455000E-02 -0.23829057374E-01  0.30112170525E-02  0.24183351191E-01  0.00000000000E+00 0. -1.
     999901    1    3    3    0    0 -0.12927933011E+00  0.14637258940E-02  0.52647769775E-02  0.88946220019E+00  0.88000000000E+00 0. -1.
        -11    1    4    4    0    0  0.88533276690E-01  0.74058401777E-02 -0.90195886412E-03  0.88848535165E-01  0.51100000000E-03 0.  1.
         11    1    4    4    0    0  0.37927707922E-01  0.14959491302E-01 -0.73740351659E-02  0.41435913455E-01  0.51100000000E-03 0. -1.
</event>
<event>
 8    1  0.1123361E+005  0.1043930E+01  0.7957747E-01            NaN
         13   -1    0    0    0    0  0.00000000000E+00  0.00000000000E+00  0.74505805969E-08  0.10566000000E+00  0.10566000000E+00 0. -1.
     999900   -1    0    0    0    0 -0.00000000000E+00 -0.00000000000E+00 -0.74505805969E-08  0.93827000000E+00  0.93827000000E+00 0. -1.
     999902    2    1    2    0    0  0.15876418820E-02 -0.13330602290E-01 -0.18944386089E-01  0.10207111428E+01  0.10204470206E+01 0.  0.
     999903    2    3    3    0    0  0.11226308795E+00  0.62907825387E-01  0.10440351446E-02  0.13028377959E+00  0.20307087560E-01 0.  0.
         14    1    1    2    0    0 -0.15876418820E-02  0.13330602290E-01  0.18944386089E-01  0.23218857173E-01  0.00000000000E+00 0. -1.
     999901    1    3    3    0    0 -0.11067544606E+00 -0.76238427677E-01 -0.19988421234E-01  0.89042736324E+00  0.88000000000E+00 0. -1.
        -11    1    4    4    0    0  0.91805171326E-01  0.49822415528E-01  0.86986567287E-02  0.10481598314E+00  0.51100000000E-03 0.  1.
         11    1    4    4    0    0  0.20457916619E-01  0.13085409859E-01 -0.76546215841E-02  0.25467796453E-01  0.51100000000E-03 0. -1.
</event>
<event>
 8    1  0.1123361E+005  0.1043930E+01  0.7957747E-01            NaN
         13   -1    0    0    0    0  0.00000000000E+00  0.00000000000E+00  0.74505805969E-08  0.10566000000E+00  0.10566000000E+00 0. -1.
     999900   -1    0    0    0    0 -0.00000000000E+00 -0.00000000000E+00 -0.74505805969E-08  0.93827000000E+00  0.93827000000E+00 0. -1.
     999902    2    1    2    0    0 -0.13573598669E-01  0.12371365969E-01 -0.16510593295E-01  0.10192339888E+01  0.10189347531E+01 0.  0.
     999903    2    3    3    0    0  0.10438476642E+00  0.72071022751E-01  0.10972773016E-01  0.12893428629E+00  0.20328223058E-01 0.  0.
         14    1    1    2    0    0  0.13573598669E-01 -0.12371365969E-01  0.16510593295E-01  0.24696011170E-01  0.00000000000E+00 0. -1.
     999901    1    3    3    0    0 -0.11795836509E+00 -0.59699656782E-01 -0.27483366311E-01  0.89029970254E+00  0.88000000000E+00 0. -1.
        -11    1    4    4    0    0  0.14046510475E-01  0.16159796539E-01  0.73058705558E-02  0.22629192347E-01  0.51100000000E-03 0.  1.
         11    1    4    4    0    0  0.90338255947E-01  0.55911226212E-01  0.36669024604E-02  0.10630509394E+00  0.51100000000E-03 0. -1.
</event>
<event>
 8    1  0.1123361E+005  0.1043930E+01  0.7957747E-01            NaN
         13   -1    0    0    0    0  0.00000000000E+00  0.00000000000E+00  0.74505805969E-08  0.10566000000E+00  0.10566000000E+00 0. -1.
     999900   -1    0    0    0    0 -0.00000000000E+00 -0.00000000000E+00 -0.74505805969E-08  0.93827000000E+00  0.93827000000E+00 0. -1.
     999902    2    1    2    0    0  0.17707285449E-01  0.12687729261E-01 -0.97656501733E-02  0.10200575398E+01  0.10197781573E+01 0.  0.
     999903    2    3    3    0    0  0.43242900576E-01 -0.10449144318E+00 -0.61736385196E-01  0.13040368388E+00  0.20132793207E-01 0.  0.
         14    1    1    2    0    0 -0.17707285449E-01 -0.12687729261E-01  0.97656501733E-02  0.23872460181E-01  0.00000000000E+00 0.  1.
     999901    1    3    3    0    0 -0.25535615127E-01  0.11717917245E+00  0.51970735023E-01  0.88965385594E+00  0.88000000000E+00 0.  1.
        -11    1    4    4    0    0  0.30989818070E-01 -0.53620111199E-01 -0.40078697204E-01  0.73770239525E-01  0.51100000000E-03 0. -1.
         11    1    4    4    0    0  0.12253082506E-01 -0.50871331986E-01 -0.21657687992E-01  0.56633444351E-01  0.51100000000E-03 0.  1.
</event>
<event>
 8    1  0.1123361E+005  0.1043930E+01  0.7957747E-01            NaN
         13   -1    0    0    0    0  0.00000000000E+00  0.00000000000E+00  0.74505805969E-08  0.10566000000E+00  0.10566000000E+00 0.  1.
     999900   -1    0    0    0    0 -0.00000000000E+00 -0.00000000000E+00 -0.74505805969E-08  0.93827000000E+00  0.93827000000E+00 0. -1.
     999902    2    1    2    0    0 -0.45121416135E-02 -0.21566310145E-01 -0.16231747386E-01  0.10165633272E+01  0.10161948944E+01 0.  0.
     999903    2    3    3    0    0  0.81582552975E-01  0.21636813257E-01 -0.93953529947E-01  0.12790170333E+00  0.20191960971E-01 0.  0.
         14    1    1    2    0    0  0.45121416135E-02  0.21566310145E-01  0.16231747386E-01  0.27366672768E-01  0.00000000000E+00 0.  1.
     999901    1    3    3    0    0 -0.86094694588E-01 -0.43203123402E-01  0.77721782561E-01  0.88866162390E+00  0.88000000000E+00 0. -1.
        -11    1    4    4    0    0  0.47673943280E-01  0.22886007584E-02 -0.52616776536E-01  0.71041036418E-01  0.51100000000E-03 0.  1.
         11    1    4    4    0    0  0.33908609695E-01  0.19348212498E-01 -0.41336753411E-01  0.56860666914E-01  0.51100000000E-03 0. -1.
</event>
<event>
 8    1  0.1123361E+005  0.1043930E+01  0.7957747E-01            NaN
         13   -1    0    0    0    0  0.00000000000E+00  0.00000000000E+00  0.74505805969E-08  0.10566000000E+00  0.10566000000E+00 0. -1.
     999900   -1    0    0    0    0 -0.00000000000E+00 -0.00000000000E+00 -0.74505805969E-08  0.93827000000E+00  0.93827000000E+00 0. -1.
     999902    2    1    2    0    0 -0.14335493089E-01 -0.32984132275E-03  0.19992899926E-01  0.10193265205E+01  0.10190295502E+01 0.  0.
     999903    2    3    3    0    0  0.40547114455E-01  0.16549574739E-01  0.12243557508E+00  0.13152501282E+00  0.19758593984E-01 0.  0.
         14    1    1    2    0    0  0.14335493089E-01  0.32984132275E-03 -0.19992899926E-01  0.24603479528E-01  0.00000000000E+00 0.  1.
     999901    1    3    3    0    0 -0.54882607544E-01 -0.16879416062E-01 -0.10244267516E+00  0.88780150765E+00  0.88000000000E+00 0. -1.
        -11    1    4    4    0    0  0.21565554344E-01  0.67372956636E-02  0.89134390751E-01  0.91954690052E-01  0.51100000000E-03 0. -1.
         11    1    4    4    0    0  0.18981560111E-01  0.98122790755E-02  0.33301184334E-01  0.39570322768E-01  0.51100000000E-03 0.  1.
</event>
<event>
 8    1  0.1123361E+005  0.1043930E+01  0.7957747E-01            NaN
         13   -1    0    0    0    0  0.00000000000E+00  0.00000000000E+00  0.74505805969E-08  0.10566000000E+00  0.10566000000E+00 0. -1.
     999900   -1    0    0    0    0 -0.00000000000E+00 -0.00000000000E+00 -0.74505805969E-08  0.93827000000E+00  0.93827000000E+00 0. -1.
     999902    2    1    2    0    0  0.15113152454E-02  0.19566507997E-01 -0.93770043670E-02  0.10221800455E+01  0.10219486215E+01 0.  0.
     999903    2    3    3    0    0 -0.10161321648E+00  0.87741109719E-02 -0.82958889145E-01  0.13304257660E+00  0.20394095054E-01 0.  0.
         14    1    1    2    0    0 -0.15113152454E-02 -0.19566507997E-01  0.93770043670E-02  0.21749954480E-01  0.00000000000E+00 0. -1.
     999901    1    3    3    0    0  0.10312453172E+00  0.10792397025E-01  0.73581884778E-01  0.88913746892E+00  0.88000000000E+00 0. -1.
        -11    1    4    4    0    0 -0.63000279074E-01 -0.32782177430E-02 -0.44304179047E-01  0.77090228155E-01  0.51100000000E-03 0.  1.
         11    1    4    4    0    0 -0.38612937403E-01  0.12052328715E-01 -0.38654710098E-01  0.55952348441E-01  0.51100000000E-03 0. -1.
</event>
<event>
 8    1  0.1123361E+005  0.1043930E+01  0.7957747E-01            NaN
         13   -1    0    0    0    0  0.00000000000E+00  0.00000000000E+00  0.74505805969E-08  0.10566000000E+00  0.10566000000E+00 0. -1.
     999900   -1    0    0    0    0 -0.00000000000E+00 -0.00000000000E+00 -0.74505805969E-08  0.93827000000E+00  0.93827000000E+00 0.  1.
     999902    2    1    2    0    0  0.20328301825E-01 -0.78878060270E-02  0.81773012726E-02  0.10206421148E+01  0.10203764016E+01 0.  0.
     999903    2    3    3    0    0 -0.94980087782E-01  0.82923400183E-01 -0.13440229902E-01  0.12822404155E+00  0.19059319991E-01 0.  0.
         14    1    1    2    0    0 -0.20328301825E-01  0.78878060270E-02 -0.81773012726E-02  0.23287885157E-01  0.00000000000E+00 0.  1.
     999901    1    3    3    0    0  0.11530838961E+00 -0.90811206210E-01  0.21617531174E-01  0.89241807329E+00  0.88000000000E+00 0.  1.
        -11    1    4    4    0    0 -0.27656787042E-01  0.14616433318E-01 -0.72543186081E-02  0.32115794431E-01  0.51100000000E-03 0. -1.
         11    1    4    4    0    0 -0.67323300740E-01  0.68306966864E-01 -0.61859112936E-02  0.96108247119E-01  0.51100000000E-03 0.  1.
</event>
<event>
 8    1  0.1123361E+005  0.1043930E+01  0.7957747E-01            NaN
         13   -1    0    0    0    0  0.00000000000E+00  0.00000000000E+00  0.74505805969E-08  0.10566000000E+00  0.10566000000E+00 0.  1.
     999900   -1    0    0    0    0 -0.00000000000E+00 -0.00000000000E+00 -0.74505805969E-08  0.93827000000E+00  0.93827000000E+00 0.  1.
     999902    2    1    2    0    0 -0.13602217893E-01 -0.52740270508E-02  0.17158973891E-01  0.10214074318E+01  0.10211590844E+01 0.  0.
     999903    2    3    3    0    0  0.12538751762E+00  0.20469162726E-02  0.30038585353E-01  0.13037565506E+00  0.19216539280E-01 0.  0.
         14    1    1    2    0    0  0.13602217893E-01  0.52740270508E-02 -0.17158973891E-01  0.22522568191E-01  0.00000000000E+00 0. -1.
     999901    1    3    3    0    0 -0.13898973551E+00 -0.73209433234E-02 -0.12879611462E-01  0.89103177675E+00  0.88000000000E+00 0.  1.
        -11    1    4    4    0    0  0.26594509001E-01 -0.23221650526E-02  0.14144284682E-01  0.30215596464E-01  0.51100000000E-03 0.  1.
         11    1    4    4    0    0  0.98793008614E-01  0.43690813252E-02  0.15894300671E-01  0.10016005859E+00  0.51100000000E-03 0. -1.
</event>
<event>
 8    1  0.1123361E+005  0.1043930E+01  0.7957747E-01            NaN
         13   -1    0    0    0    0  0.00000000000E+00  0.00000000000E+00  0.74505805969E-08  0.10566000000E+00  0.10566000000E+00 0.  1.
     999900   -1    0    0    0    0 -0.00000000000E+00 -0.00000000000E+00 -0.74505805969E-08  0.93827000000E+00  0.93827000000E+00 0.  1.
     999902    2    1    2    0    0  0.17037432025E-01  0.95419366336E-02 -0.12808197062E-01  0.10205767870E+01  0.10203095636E+01 0.  0.
     999903    2    3    3    0    0 -0.40885756558E-01  0.11303317513E+00 -0.50433548179E-01  0.13182417843E+00  0.19645036698E-01 0.  0.
         14    1    1    2    0    0 -0.17037432025E-01 -0.95419366336E-02  0.12808197062E-01  0.23353212985E-01  0.00000000000E+00 0.  1.
     999901    1    3    3    0    0  0.57923188582E-01 -0.10349123850E+00  0.37625351116E-01  0.88875260859E+00  0.88000000000E+00 0.  1.
        -11    1    4    4    0    0 -0.10468336436E-01  0.39745048689E-01 -0.81273605813E-02  0.41899523554E-01  0.51100000000E-03 0. -1.
         11    1    4    4    0    0 -0.30417420121E-01  0.73288126443E-01 -0.42306187597E-01  0.89924654875E-01  0.51100000000E-03 0.  1.
</event>
<event>
 8    1  0.1123361E+005  0.1043930E+01  0.7957747E-01            NaN
         13   -1    0    0    0    0  0.00000000000E+00  0.00000000000E+00  0.74505805969E-08  0.10566000000E+00  0.10566000000E+00 0.  1.
     999900   -1    0    0    0    0 -0.00000000000E+00 -0.00000000000E+00 -0.74505805969E-08  0.93827000000E+00  0.93827000000E+00 0. -1.
     999902    2    1    2    0    0  0.14239704772E-01  0.12951481330E-01 -0.14642057834E-01  0.10197452958E+01  0.10194584682E+01 0.  0.
     999903    2    3    3    0    0  0.11963916941E+00 -0.48909101679E-01 -0.11189022445E-01  0.13129287593E+00  0.20174091398E-01 0.  0.
         14    1    1    2    0    0 -0.14239704772E-01 -0.12951481330E-01  0.14642057834E-01  0.24184704221E-01  0.00000000000E+00 0.  1.
     999901    1    3    3    0    0 -0.10539946464E+00  0.61860583009E-01 -0.34530353894E-02  0.88845241985E+00  0.88000000000E+00 0. -1.
        -11    1    4    4    0    0  0.86966502528E-01 -0.35646392654E-01  0.95539853673E-03  0.93994743356E-01  0.51100000000E-03 0. -1.
         11    1    4    4    0    0  0.32672666880E-01 -0.13262709025E-01 -0.12144420982E-01  0.37298132577E-01  0.51100000000E-03 0.  1.
</event>
<event>
 8    1  0.1123361E+005  0.1043930E+01  0.7957747E-01            NaN
         13   -1    0    0    0    0  0.00000000000E+00  0.00000000000E+00  0.74505805969E-08  0.10566000000E+00  0.10566000000E+00 0. -1.
     999900   -1    0    0    0    0 -0.00000000000E+00 -0.00000000000E+00 -0.74505805969E-08  0.93827000000E+00  0.93827000000E+00 0. -1.
     999902    2    1    2    0    0 -0.74234091270E-02  0.18736598227E-01  0.73567184065E-02  0.10224756666E+01  0.10222505565E+01 0.  0.
     999903    2    3    3    0    0 -0.12177311740E+00 -0.35407084185E-01 -0.33347112447E-01  0.13249578144E+00  0.18993379347E-01 0.  0.
         14    1    1    2    0    0  0.74234091270E-02 -0.18736598227E-01 -0.73567184065E-02  0.21454333406E-01  0.00000000000E+00 0.  1.
     999901    1    3    3    0    0  0.11434970828E+00  0.54143682412E-01  0.40703830853E-01  0.88997988515E+00  0.88000000000E+00 0.  1.
        -11    1    4    4    0    0 -0.82907571188E-01 -0.31179516002E-01 -0.17402571368E-01  0.90271469410E-01  0.51100000000E-03 0. -1.
         11    1    4    4    0    0 -0.38865546215E-01 -0.42275681836E-02 -0.15944541079E-01  0.42224312032E-01  0.51100000000E-03 0.  1.
</event>
<event>
 8    1  0.1123361E+005  0.1043930E+01  0.7957747E-01            NaN
         13   -1    0    0    0    0  0.00000000000E+00  0.00000000000E+00  0.74505805969E-08  0.10566000000E+00  0.10566000000E+00 0.  1.
     999900   -1    0    0    0    0 -0.00000000000E+00 -0.00000000000E+00 -0.74505805969E-08  0.93827000000E+00  0.93827000000E+00 0.  1.
     999902    2    1    2    0    0  0.15574713464E-01  0.18946556499E-01 -0.35644289768E-02  0.10191459556E+01  0.10188445563E+01 0.  0.
     999903    2    3    3    0    0  0.79704850480E-01 -0.13361400924E-01  0.10006115957E+00  0.13016072446E+00  0.19954656465E-01 0.  0.
         14    1    1    2    0    0 -0.15574713464E-01 -0.18946556499E-01  0.35644289768E-02  0.24784044395E-01  0.00000000000E+00 0.  1.
     999901    1    3    3    0    0 -0.64130137016E-01  0.32307957423E-01 -0.10362558854E+00  0.88898523114E+00  0.88000000000E+00 0.  1.
        -11    1    4    4    0    0  0.65533666052E-01 -0.15971377863E-01  0.90449035496E-01  0.11283189017E+00  0.51100000000E-03 0.  1.
         11    1    4    4    0    0  0.14171184428E-01  0.26099769390E-02  0.96121240693E-02  0.17328834290E-01  0.51100000000E-03 0. -1.
</event>
<event>
 8    1  0.1123361E+005  0.1043930E+01  0.7957747E-01            NaN
         13   -1    0    0    0    0  0.00000000000E+00  0.00000000000E+00  0.74505805969E-08  0.10566000000E+00  0.10566000000E+00 0.  1.
     999900   -1    0    0    0    0 -0.00000000000E+00 -0.00000000000E+00 -0.74505805969E-08  0.93827000000E+00  0.93827000000E+00 0.  1.
     999902    2    1    2    0    0 -0.22781448273E-01 -0.32022730272E-02  0.16773612965E-02  0.10208635204E+01  0.10206028929E+01 0.  0.
     999903    2    3    3    0    0 -0.18772072873E-01 -0.12823628899E+00  0.14323957238E-01  0.13192622422E+00  0.20060317832E-01 0.  0.
         14    1    1    2    0    0  0.22781448273E-01  0.32022730272E-02 -0.16773612965E-02  0.23066479551E-01  0.00000000000E+00 0. -1.
     999901    1    3    3    0    0 -0.40093754000E-02  0.12503401596E+00 -0.12646595942E-01  0.88893729623E+00  0.88000000000E+00 0.  1.
        -11    1    4    4    0    0  0.40404001593E-03 -0.66377719262E-01  0.74629665987E-02  0.66799115669E-01  0.51100000000E-03 0. -1.
         11    1    4    4    0    0 -0.19176112889E-01 -0.61858569730E-01  0.68609906394E-02  0.65127108550E-01  0.51100000000E-03 0.  1.
</event>
<event>
 8    1  0.1123361E+005  0.1043930E+01  0.7957747E-01            NaN
         13   -1    0    0    0    0  0.00000000000E+00  0.00000000000E+00  0.74505805969E-08  0.10566000000E+00  0.10566000000E+00 0. -1.
     999900   -1    0    0    0    0 -0.00000000000E+00 -0.00000000000E+00 -0.74505805969E-08  0.93827000000E+00  0.93827000000E+00 0.  1.
     999902    2    1    2    0    0 -0.19413229667E-01  0.13207449752E-01 -0.13570278636E-02  0.10204108219E+01  0.10201397422E+01 0.  0.
     999903    2    3    3    0    0  0.74191145648E-01 -0.22679235853E-01  0.10048752223E+00  0.12888295037E+00  0.22235083584E-01 0.  0.
         14    1    1    2    0    0  0.19413229667E-01 -0.13207449752E-01  0.13570278636E-02  0.23519178125E-01  0.00000000000E+00 0. -1.
     999901    1    3    3    0    0 -0.93604375315E-01  0.35886685604E-01 -0.10184455009E+00  0.89152787150E+00  0.88000000000E+00 0.  1.
        -11    1    4    4    0    0  0.56532310642E-01 -0.14780483582E-01  0.58674585965E-01  0.82809015213E-01  0.51100000000E-03 0. -1.
         11    1    4    4    0    0  0.17658835006E-01 -0.78987522707E-02  0.41812936263E-01  0.46073935160E-01  0.51100000000E-03 0.  1.
</event>
<event>
 8    1  0.1123361E+005  0.1043930E+01  0.7957747E-01            NaN
         13   -1    0    0    0    0  0.00000000000E+00  0.00000000000E+00  0.74505805969E-08  0.10566000000E+00  0.10566000000E+00 0.  1.
     999900   -1    0    0    0    0 -0.00000000000E+00 -0.00000000000E+00 -0.74505805969E-08  0.93827000000E+00  0.93827000000E+00 0. -1.
     999902    2    1    2    0    0 -0.11084303156E-01  0.20251769375E-01  0.19769583318E-02  0.10207588044E+01  0.10204957778E+01 0.  0.
     999903    2    3    3    0    0 -0.95616237110E-01  0.89614734502E-01 -0.13013306638E-01  0.13386446077E+00  0.24022536706E-01 0.  0.
         14    1    1    2    0    0  0.11084303156E-01 -0.20251769375E-01 -0.19769583318E-02  0.23171195556E-01  0.00000000000E+00 0. -1.
     999901    1    3    3    0    0  0.84531933954E-01 -0.69362965128E-01  0.14990264969E-01  0.88689434367E+00  0.88000000000E+00 0.  1.
        -11    1    4    4    0    0 -0.73405624217E-01  0.63337335854E-01  0.33562586793E-03  0.96955544171E-01  0.51100000000E-03 0.  1.
         11    1    4    4    0    0 -0.22210612893E-01  0.26277398648E-01 -0.13348932505E-01  0.36908916603E-01  0.51100000000E-03 0. -1.
</event>
<event>
 8    1  0.1123361E+005  0.1043930E+01  0.7957747E-01            NaN
         13   -1    0    0    0    0  0.00000000000E+00  0.00000000000E+00  0.74505805969E-08  0.10566000000E+00  0.10566000000E+00 0. -1.
     999900   -1    0    0    0    0 -0.00000000000E+00 -0.00000000000E+00 -0.74505805969E-08  0.93827000000E+00  0.93827000000E+00 0.  1.
     999902    2    1    2    0    0  0.14653642360E-01  0.19050830165E-02  0.18806532186E-01  0.10200125539E+01  0.10197321049E+01 0.  0.
     999903    2    3    3    0    0  0.74574538838E-02  0.69651070660E-01  0.11053755597E+00  0.13262544293E+00  0.21542320429E-01 0.  0.
         14    1    1    2    0    0 -0.14653642360E-01 -0.19050830165E-02 -0.18806532186E-01  0.23917446113E-01  0.00000000000E+00 0.  1.
     999901    1    3    3    0    0  0.71961884757E-02 -0.67745987644E-01 -0.91731023786E-01  0.88738711096E+00  0.88000000000E+00 0.  1.
        -11    1    4    4    0    0  0.86577742828E-03  0.25028495427E-01  0.22349791701E-01  0.33570067977E-01  0.51100000000E-03 0.  1.
         11    1    4    4    0    0  0.65916764556E-02  0.44622575233E-01  0.88187764270E-01  0.99055374952E-01  0.51100000000E-03 0. -1.
</event>
<event>
 8    1  0.1123361E+005  0.1043930E+01  0.7957747E-01            NaN
         13   -1    0    0    0    0  0.00000000000E+00  0.00000000000E+00  0.74505805969E-08  0.10566000000E+00  0.10566000000E+00 0. -1.
     999900   -1    0    0    0    0 -0.00000000000E+00 -0.00000000000E+00 -0.74505805969E-08  0.93827000000E+00  0.93827000000E+00 0. -1.
     999902    2    1    2    0    0 -0.23420480123E-01  0.83717551870E-02 -0.15292366567E-01  0.10147330541E+01  0.10143129248E+01 0.  0.
     999903    2    3    3    0    0  0.26377854123E-02 -0.27098049081E-01  0.11872645901E+00  0.12349897384E+00  0.20365713727E-01 0.  0.
         14    1    1    2    0    0  0.23420480123E-01 -0.83717551870E-02  0.15292366567E-01  0.29196945891E-01  0.00000000000E+00 0. -1.
     999901    1    3    3    0    0 -0.26058265536E-01  0.35469804268E-01 -0.13401882558E+00  0.89123408027E+00  0.88000000000E+00 0. -1.
        -11    1    4    4    0    0 -0.58837528447E-03 -0.10918837199E-01  0.15585303755E-01  0.19045472044E-01  0.51100000000E-03 0.  1.
         11    1    4    4    0    0  0.32261606968E-02 -0.16179211883E-01  0.10314115525E+00  0.10445350180E+00  0.51100000000E-03 0. -1.
</event>
<event>
 8    1  0.1123361E+005  0.1043930E+01  0.7957747E-01            NaN
         13   -1    0    0    0    0  0.00000000000E+00  0.00000000000E+00  0.74505805969E-08  0.10566000000E+00  0.10566000000E+00 0. -1.
     999900   -1    0    0    0    0 -0.00000000000E+00 -0.00000000000E+00 -0.74505805969E-08  0.93827000000E+00  0.93827000000E+00 0. -1.
     999902    2    1    2    0    0 -0.13482466112E-01  0.20060561858E-02  0.18843249953E-01  0.10206734047E+01  0.10204084133E+01 0.  0.
     999903    2    3    3    0    0 -0.34177276712E-01 -0.15878941653E-01 -0.12181803348E+00  0.12908283448E+00  0.20062847402E-01 0.  0.
         14    1    1    2    0    0  0.13482466112E-01 -0.20060561858E-02 -0.18843249953E-01  0.23256595251E-01  0.00000000000E+00 0.  1.
     999901    1    3    3    0    0  0.20694810600E-01  0.17884997839E-01  0.14066128343E+00  0.89159057027E+00  0.88000000000E+00 0.  1.
        -11    1    4    4    0    0 -0.29754797800E-01 -0.53519362218E-02 -0.99728808354E-01  0.10421174382E+00  0.51100000000E-03 0.  1.
         11    1    4    4    0    0 -0.44224789121E-02 -0.10527005431E-01 -0.22089225123E-01  0.24871090660E-01  0.51100000000E-03 0. -1.
</event>
<event>
 8    1  0.1123361E+005  0.1043930E+01  0.7957747E-01            NaN
         13   -1    0    0    0    0  0.00000000000E+00  0.00000000000E+00  0.74505805969E-08  0.10566000000E+00  0.10566000000E+00 0. -1.
     999900   -1    0    0    0    0 -0.00000000000E+00 -0.00000000000E+00 -0.74505805969E-08  0.93827000000E+00  0.93827000000E+00 0. -1.
     999902    2    1    2    0    0  0.97997783695E-02  0.40915020878E-02 -0.18516394893E-01  0.10225844402E+01  0.10223616309E+01 0.  0.
     999903    2    3    3    0    0  0.16586115351E-01 -0.12880115712E+00  0.11973210511E-01  0.13205868012E+00  0.20767761739E-01 0.  0.
         14    1    1    2    0    0 -0.97997783695E-02 -0.40915020878E-02  0.18516394893E-01  0.21345559849E-01  0.00000000000E+00 0. -1.
     999901    1    3    3    0    0 -0.67863369820E-02  0.13289265921E+00 -0.30489605404E-01  0.89052576003E+00  0.88000000000E+00 0. -1.
        -11    1    4    4    0    0  0.46498374429E-02 -0.63483356022E-01  0.15665180015E-01  0.65554683021E-01  0.51100000000E-03 0. -1.
         11    1    4    4    0    0  0.11936277909E-01 -0.65317801096E-01 -0.36919695040E-02  0.66503997099E-01  0.51100000000E-03 0.  1.
</event>
<event>
 8    1  0.1123361E+005  0.1043930E+01  0.7957747E-01            NaN
         13   -1    0    0    0    0  0.00000000000E+00  0.00000000000E+00  0.74505805969E-08  0.10566000000E+00  0.10566000000E+00 0.  1.
     999900   -1    0    0    0    0 -0.00000000000E+00 -0.00000000000E+00 -0.74505805969E-08  0.93827000000E+00  0.93827000000E+00 0. -1.
     999902    2    1    2    0    0  0.77873171110E-02  0.12542562206E-01  0.17385201851E-01  0.10211220317E+01  0.10208672784E+01 0.  0.
     999903    2    3    3    0    0  0.94538780367E-01 -0.32140970749E-01  0.85728486572E-01  0.13309430744E+00  0.19851908432E-01 0.  0.
         14    1    1    2    0    0 -0.77873171110E-02 -0.12542562206E-01 -0.17385201851E-01  0.22807968298E-01  0.00000000000E+00 0. -1.
     999901    1    3    3    0    0 -0.86751463256E-01  0.44683532955E-01 -0.68343284721E-01  0.88802772426E+00  0.88000000000E+00 0.  1.
        -11    1    4    4    0    0  0.60395850459E-01 -0.17649747962E-01  0.65561923283E-01  0.90872434001E-01  0.51100000000E-03 0. -1.
         11    1    4    4    0    0  0.34142929909E-01 -0.14491222787E-01  0.20166563290E-01  0.42221873437E-01  0.51100000000E-03 0.  1.
</event>
<event>
 8    1  0.1123361E+005  0.1043930E+01  0.7957747E-01            NaN
         13   -1    0    0    0    0  0.00000000000E+00  0.00000000000E+00  0.74505805969E-08  0.10566000000E+00  0.10566000000E+00 0. -1.
     999900   -1    0    0    0    0 -0.00000000000E+00 -0.00000000000E+00 -0.74505805969E-08  0.93827000000E+00  0.93827000000E+00 0. -1.
     999902    2    1    2    0    0 -0.19358006439E-01 -0.12021200660E-01 -0.40135183499E-02  0.10207923681E+01  0.10205301117E+01 0.  0.
     999903    2    3    3    0    0 -0.38554115722E-01  0.88483946647E-01 -0.86677951548E-01  0.13101532654E+00  0.18333571645E-01 0.  0.
         14    1    1    2    0    0  0.19358006439E-01  0.12021200660E-01  0.40135183499E-02  0.23137631862E-01  0.00000000000E+00 0.  1.
     999901    1    3    3    0    0  0.19196109283E-01 -0.10050514731E+00  0.82664433198E-01  0.88977704160E+00  0.88000000000E+00 0.  1.
        -11    1    4    4    0    0 -0.27404502282E-01  0.39996565027E-01 -0.43184336536E-01  0.64929808273E-01  0.51100000000E-03 0.  1.
         11    1    4    4    0    0 -0.11149613440E-01  0.48487381620E-01 -0.43493615012E-01  0.66085518263E-01  0.51100000000E-03 0. -1.
</event>
<event>
 8    1  0.1123361E+005  0.1043930E+01  0.7957747E-01            NaN
         13   -1    0    0    0    0  0.00000000000E+00  0.00000000000E+00  0.74505805969E-08  0.10566000000E+00  0.10566000000E+00 0.  1.
     999900   -1    0    0    0    0 -0.00000000000E+00 -0.00000000000E+00 -0.74505805969E-08  0.93827000000E+00  0.93827000000E+00 0.  1.
     999902    2    1    2    0    0  0.97440638297E-02 -0.20150185748E-01 -0.94740859610E-02  0.10196249579E+01  0.10193352342E+01 0.  0.
     999903    2    3    3    0    0  0.10984831697E+00  0.22573540024E-01  0.62714259838E-01  0.12998607865E+00  0.19674470906E-01 0.  0.
         14    1    1    2    0    0 -0.97440638297E-02  0.20150185748E-01  0.94740859610E-02  0.24305042078E-01  0.00000000000E+00 0.  1.
     999901    1    3    3    0    0 -0.10010425314E+00 -0.42723725772E-01 -0.72188345799E-01  0.88963887927E+00  0.88000000000E+00 0. -1.
        -11    1    4    4    0    0  0.66243557449E-01  0.40235566282E-02  0.39260279351E-01  0.77110495830E-01  0.51100000000E-03 0.  1.
         11    1    4    4    0    0  0.43604759522E-01  0.18549983396E-01  0.23453980487E-01  0.52875582821E-01  0.51100000000E-03 0. -1.
</event>
<event>
 8    1  0.1123361E+005  0.1043930E+01  0.7957747E-01            NaN
         13   -1    0    0    0    0  0.00000000000E+00  0.00000000000E+00  0.74505805969E-08  0.10566000000E+00  0.10566000000E+00 0.  1.
     999900   -1    0    0    0    0 -0.00000000000E+00 -0.00000000000E+00 -0.74505805969E-08  0.93827000000E+00  0.93827000000E+00 0. -1.
     999902    2    1    2    0    0 -0.11290988116E-01  0.93252150393E-02 -0.13264635745E-01  0.10241715433E+01  0.10239809342E+01 0.  0.
     999903    2    3    3    0    0  0.77686927342E-01  0.66334568867E-01  0.82271552942E-01  0.13271526331E+00  0.20228667379E-01 0.  0.
         14    1    1    2    0    0  0.11290988116E-01 -0.93252150393E-02  0.13264635745E-01  0.19758456661E-01  0.00000000000E+00 0.  1.
     999901    1    3    3    0    0 -0.88977915458E-01 -0.57009353828E-01 -0.95536188687E-01  0.89145628003E+00  0.88000000000E+00 0. -1.
        -11    1    4    4    0    0  0.16617498888E-01  0.26090536141E-01  0.26563108931E-01  0.40776429742E-01  0.51100000000E-03 0.  1.
         11    1    4    4    0    0  0.61069428454E-01  0.40244032726E-01  0.55708444011E-01  0.91938833563E-01  0.51100000000E-03 0. -1.
</event>
<event>
 8    1  0.1123361E+005  0.1043930E+01  0.7957747E-01            NaN
         13   -1    0    0    0    0  0.00000000000E+00  0.00000000000E+00  0.74505805969E-08  0.10566000000E+00  0.10566000000E+00 0. -1.
     999900   -1    0    0    0    0 -0.00000000000E+00 -0.00000000000E+00 -0.74505805969E-08  0.93827000000E+00  0.93827000000E+00 0. -1.
     999902    2    1    2    0    0 -0.14419410744E-01 -0.17422271877E-01 -0.12005604590E-02  0.10212827858E+01  0.10210316510E+01 0.  0.
     999903    2    3    3    0    0 -0.11173870199E+00  0.62002929617E-01  0.25658934859E-01  0.13195672665E+00  0.20598445716E-01 0.  0.
         14    1    1    2    0    0  0.14419410744E-01  0.17422271877E-01  0.12005604590E-02  0.22647214154E-01  0.00000000000E+00 0.  1.
     999901    1    3    3    0    0  0.97319291246E-01 -0.79425201494E-01 -0.26859495318E-01  0.88932605920E+00  0.88000000000E+00 0. -1.
        -11    1    4    4    0    0 -0.83960127139E-01  0.56177917353E-01  0.21168688105E-01  0.10321645133E+00  0.51100000000E-03 0. -1.
         11    1    4    4    0    0 -0.27778574850E-01  0.58250122638E-02  0.44902467537E-02  0.28740275320E-01  0.51100000000E-03 0.  1.
</event>
<event>
 8    1  0.1123361E+005  0.1043930E+01  0.7957747E-01            NaN
         13   -1    0    0    0    0  0.00000000000E+00  0.00000000000E+00  0.74505805969E-08  0.10566000000E+00  0.10566000000E+00 0. -1.
     999900   -1    0    0    0    0 -0.00000000000E+00 -0.00000000000E+00 -0.74505805969E-08  0.93827000000E+00  0.93827000000E+00 0.  1.
     999902    2    1    2    0    0  0.19926637920E-01 -0.10511967652E-01  0.92226961157E-02  0.10195859969E+01  0.10192953324E+01 0.  0.
     999903    2    3    3    0    0 -0.43268295220E-01  0.11016066097E+00  0.46072765532E-01  0.12834337535E+00  0.18487987372E-01 0.  0.
         14    1    1    2    0    0 -0.19926637920E-01  0.10511967652E-01 -0.92226961157E-02  0.24344003088E-01  0.00000000000E+00 0.  1.
     999901    1    3    3    0    0  0.63194933140E-01 -0.12067262862E+00 -0.36850069416E-01  0.89124262156E+00  0.88000000000E+00 0.  1.
        -11    1    4    4    0    0 -0.41935643167E-01  0.93120632330E-01  0.34945956400E-01  0.10794225921E+00  0.51100000000E-03 0. -1.
         11    1    4    4    0    0 -0.13326520534E-02  0.17040028636E-01  0.11126809132E-01  0.20401116142E-01  0.51100000000E-03 0.  1.
</event>
<event>
 8    1  0.1123361E+005  0.1043930E+01  0.7957747E-01            NaN
         13   -1    0    0    0    0  0.00000000000E+00  0.00000000000E+00  0.74505805969E-08  0.10566000000E+00  0.10566000000E+00 0.  1.
     999900   -1    0    0    0    0 -0.00000000000E+00 -0.00000000000E+00 -0.74505805969E-08  0.93827000000E+00  0.93827000000E+00 0. -1.
     999902    2    1    2    0    0 -0.16957793070E-01 -0.83395937176E-03 -0.16573723747E-01  0.10202034210E+01  0.10199274825E+01 0.  0.
     999903    2    3    3    0    0  0.33070216643E-01 -0.41603869437E-01 -0.11896805646E+00  0.13191878938E+00  0.20606973408E-01 0.  0.
         14    1    1    2    0    0  0.16957793070E-01  0.83395937176E-03  0.16573723747E-01  0.23726579039E-01  0.00000000000E+00 0.  1.
     999901    1    3    3    0    0 -0.50028009714E-01  0.40769910065E-01  0.10239433272E+00  0.88828463158E+00  0.88000000000E+00 0.  1.
        -11    1    4    4    0    0  0.17948897476E-01 -0.26100681286E-01 -0.46380667806E-01  0.56167926358E-01  0.51100000000E-03 0. -1.
         11    1    4    4    0    0  0.15121319167E-01 -0.15503188151E-01 -0.72587388657E-01  0.75750863027E-01  0.51100000000E-03 0.  1.
</event>
<event>
 8    1  0.1123361E+005  0.1043930E+01  0.7957747E-01            NaN
         13   -1    0    0    0    0  0.00000000000E+00  0.00000000000E+00  0.74505805969E-08  0.10566000000E+00  0.10566000000E+00 0. -1.
     999900   -1    0    0    0    0 -0.00000000000E+00 -0.00000000000E+00 -0.74505805969E-08  0.93827000000E+00  0.93827000000E+00 0.  1.
     999902    2    1    2    0    0 -0.20185851543E-01  0.85273676050E-02  0.81736949167E-02  0.10205420995E+01  0.10202740725E+01 0.  0.
     999903    2    3    3    0    0  0.79180002790E-01  0.97306157744E-01  0.29737433552E-01  0.13024987703E+00  0.18513625652E-01 0.  0.
         14    1    1    2    0    0  0.20185851543E-01 -0.85273676050E-02 -0.81736949167E-02  0.23387900491E-01  0.00000000000E+00 0. -1.
     999901    1    3    3    0    0 -0.99365854333E-01 -0.88778790139E-01 -0.21563738636E-01  0.89029222248E+00  0.88000000000E+00 0.  1.
        -11    1    4    4    0    0  0.34127182939E-01  0.28038277959E-01  0.97177256924E-02  0.45227259036E-01  0.51100000000E-03 0.  1.
         11    1    4    4    0    0  0.45052819851E-01  0.69267879785E-01  0.20019707860E-01  0.85022617993E-01  0.51100000000E-03 0. -1.
</event>
<event>
 8    1  0.1123361E+005  0.1043930E+01  0.7957747E-01            NaN
         13   -1    0    0    0    0  0.00000000000E+00  0.00000000000E+00  0.74505805969E-08  0.10566000000E+00  0.10566000000E+00 0.  1.
     999900   -1    0    0    0    0 -0.00000000000E+00 -0.00000000000E+00 -0.74505805969E-08  0.93827000000E+00  0.93827000000E+00 0. -1.
     999902    2    1    2    0    0 -0.14727788372E-01 -0.13933417686E-01  0.12894467670E-01  0.10199026161E+01  0.10196195522E+01 0.  0.
     999903    2    3    3    0    0  0.11646921139E-01 -0.24518582506E-01  0.12841219590E+00  0.13189810233E+00  0.13061610981E-01 0.  0.
         14    1    1    2    0    0  0.14727788372E-01  0.13933417686E-01 -0.12894467670E-01  0.24027383861E-01  0.00000000000E+00 0.  1.
     999901    1    3    3    0    0 -0.26374709511E-01  0.10585164821E-01 -0.11551772823E+00  0.88800451381E+00  0.88000000000E+00 0. -1.
        -11    1    4    4    0    0  0.26804602547E-02 -0.62942093741E-02  0.12880088836E-01  0.14593140451E-01  0.51100000000E-03 0. -1.
         11    1    4    4    0    0  0.89664608843E-02 -0.18224373132E-01  0.11553210706E+00  0.11730496187E+00  0.51100000000E-03 0.  1.
</event>
<event>
 8    1  0.1123361E+005  0.1043930E+01  0.7957747E-01            NaN
         13   -1    0    0    0    0  0.00000000000E+00  0.00000000000E+00  0.74505805969E-08  0.10566000000E+00  0.10566000000E+00 0.  1.
     999900   -1    0    0    0    0 -0.00000000000E+00 -0.00000000000E+00 -0.74505805969E-08  0.93827000000E+00  0.93827000000E+00 0.  1.
     999902    2    1    2    0    0 -0.14052346641E-01 -0.72047783182E-02 -0.82853383367E-02  0.10260967696E+01  0.10259417900E+01 0.  0.
     999903    2    3    3    0    0 -0.30121273832E-01 -0.10573556572E+00  0.77704787695E-01  0.13628733588E+00  0.21187328622E-01 0.  0.
         14    1    1    2    0    0  0.14052346641E-01  0.72047783182E-02  0.82853383367E-02  0.17833230444E-01  0.00000000000E+00 0.  1.
     999901    1    3    3    0    0  0.16068927192E-01  0.98530787403E-01 -0.85990126032E-01  0.88980943368E+00  0.88000000000E+00 0.  1.
        -11    1    4    4    0    0 -0.83519488414E-02 -0.73286145336E-02  0.64786083121E-02  0.12872339612E-01  0.51100000000E-03 0. -1.
         11    1    4    4    0    0 -0.21769324991E-01 -0.98406951188E-01  0.71226179383E-01  0.12341499627E+00  0.51100000000E-03 0.  1.
</event>
<event>
 8    1  0.1123361E+005  0.1043930E+01  0.7957747E-01            NaN
         13   -1    0    0    0    0  0.00000000000E+00  0.00000000000E+00  0.74505805969E-08  0.10566000000E+00  0.10566000000E+00 0. -1.
     999900   -1    0    0    0    0 -0.00000000000E+00 -0.00000000000E+00 -0.74505805969E-08  0.93827000000E+00  0.93827000000E+00 0. -1.
     999902    2    1    2    0    0  0.19417788568E-01 -0.10080909303E-01  0.88819565454E-02  0.10203171984E+01  0.10200439309E+01 0.  0.
     999903    2    3    3    0    0 -0.10370826433E+00 -0.74482933856E-01 -0.22036513357E-02  0.12934551743E+00  0.20549824184E-01 0.  0.
         14    1    1    2    0    0 -0.19417788568E-01  0.10080909303E-01 -0.88819565454E-02  0.23612801556E-01  0.00000000000E+00 0.  1.
     999901    1    3    3    0    0  0.12312605290E+00  0.64402024553E-01  0.11085607881E-01  0.89097168101E+00  0.88000000000E+00 0.  1.
        -11    1    4    4    0    0 -0.21931633615E-01 -0.62213029461E-02 -0.29725693012E-03  0.22804618963E-01  0.51100000000E-03 0.  1.
         11    1    4    4    0    0 -0.81776630714E-01 -0.68261630910E-01 -0.19063944056E-02  0.10654089847E+00  0.51100000000E-03 0. -1.
</event>
<event>
 8    1  0.1123361E+005  0.1043930E+01  0.7957747E-01            NaN
         13   -1    0    0    0    0  0.00000000000E+00  0.00000000000E+00  0.74505805969E-08  0.10566000000E+00  0.10566000000E+00 0. -1.
     999900   -1    0    0    0    0 -0.00000000000E+00 -0.00000000000E+00 -0.74505805969E-08  0.93827000000E+00  0.93827000000E+00 0.  1.
     999902    2    1    2    0    0  0.21870585780E-01  0.25838618720E-02  0.12698386407E-02  0.10218707309E+01  0.10216326048E+01 0.  0.
     999903    2    3    3    0    0  0.94682125148E-01 -0.72419304830E-01  0.57560200407E-01  0.13389798348E+00  0.20155217028E-01 0.  0.
         14    1    1    2    0    0 -0.21870585780E-01 -0.25838618720E-02 -0.12698386407E-02  0.22059269134E-01  0.00000000000E+00 0. -1.
     999901    1    3    3    0    0 -0.72811539368E-01  0.75003166702E-01 -0.56290361766E-01  0.88797274739E+00  0.88000000000E+00 0.  1.
        -11    1    4    4    0    0  0.53050330105E-01 -0.28596605777E-01  0.32369212277E-01  0.68411478647E-01  0.51100000000E-03 0. -1.
         11    1    4    4    0    0  0.41631795043E-01 -0.43822699052E-01  0.25190988130E-01  0.65486504829E-01  0.51100000000E-03 0.  1.
</event>
<event>
 8    1  0.1123361E+005  0.1043930E+01  0.7957747E-01            NaN
         13   -1    0    0    0    0  0.00000000000E+00  0.00000000000E+00  0.74505805969E-08  0.10566000000E+00  0.10566000000E+00 0. -1.
     999900   -1    0    0    0    0 -0.00000000000E+00 -0.00000000000E+00 -0.74505805969E-08  0.93827000000E+00  0.93827000000E+00 0.  1.
     999902    2    1    2    0    0  0.12539556335E-01 -0.21564819644E-01 -0.95714580771E-02  0.10172111915E+01  0.10168602231E+01 0.  0.
     999903    2    3    3    0    0 -0.43402012474E-01  0.10210626561E+00 -0.56117292077E-01  0.12558878759E+00  0.17719168513E-01 0.  0.
         14    1    1    2    0    0 -0.12539556335E-01  0.21564819644E-01  0.95714580771E-02  0.26718808527E-01  0.00000000000E+00 0. -1.
     999901    1    3    3    0    0  0.55941568809E-01 -0.12367108526E+00  0.46545834000E-01  0.89162240389E+00  0.88000000000E+00 0. -1.
        -11    1    4    4    0    0 -0.16330102714E-01  0.60829878879E-01 -0.31933576535E-01  0.70618417218E-01  0.51100000000E-03 0.  1.
         11    1    4    4    0    0 -0.27071909759E-01  0.41276386736E-01 -0.24183715542E-01  0.54970370368E-01  0.51100000000E-03 0. -1.
</event>
<event>
 8    1  0.1123361E+005  0.1043930E+01  0.7957747E-01            NaN
         13   -1    0    0    0    0  0.00000000000E+00  0.00000000000E+00  0.74505805969E-08  0.10566000000E+00  0.10566000000E+00 0. -1.
     999900   -1    0    0    0    0 -0.00000000000E+00 -0.00000000000E+00 -0.74505805969E-08  0.93827000000E+00  0.93827000000E+00 0. -1.
     999902    2    1    2    0    0 -0.83977157751E-02  0.23011964028E-01  0.31603990873E-02  0.10192306024E+01  0.10189312836E+01 0.  0.
     999903    2    3    3    0    0 -0.36316127899E-02 -0.10363502188E+00  0.71747321806E-01  0.12750960303E+00  0.18910692954E-01 0.  0.
         14    1    1    2    0    0  0.83977157751E-02 -0.23011964028E-01 -0.31603990873E-02  0.24699397585E-01  0.00000000000E+00 0.  1.
     999901    1    3    3    0    0 -0.47661029852E-02  0.12664698590E+00 -0.68586922719E-01  0.89172099938E+00  0.88000000000E+00 0. -1.
        -11    1    4    4    0    0 -0.95852602478E-02 -0.85283217175E-01  0.62098050747E-01  0.10593173922E+00  0.51100000000E-03 0.  1.
         11    1    4    4    0    0  0.59536474579E-02 -0.18351804701E-01  0.96492710597E-02  0.21577863815E-01  0.51100000000E-03 0. -1.
</event>
<event>
 8    1  0.1123361E+005  0.1043930E+01  0.7957747E-01            NaN
         13   -1    0    0    0    0  0.00000000000E+00  0.00000000000E+00  0.74505805969E-08  0.10566000000E+00  0.10566000000E+00 0. -1.
     999900   -1    0    0    0    0 -0.00000000000E+00 -0.00000000000E+00 -0.74505805969E-08  0.93827000000E+00  0.93827000000E+00 0.  1.
     999902    2    1    2    0    0 -0.14986854346E-01  0.26268007126E-01 -0.10359762852E-01  0.10119622242E+01  0.10114571689E+01 0.  0.
     999903    2    3    3    0    0 -0.11757628247E+00  0.18598618160E-01 -0.35393015481E-01  0.12561574907E+00  0.18882798292E-01 0.  0.
         14    1    1    2    0    0  0.14986854346E-01 -0.26268007126E-01  0.10359762852E-01  0.31967775774E-01  0.00000000000E+00 0. -1.
     999901    1    3    3    0    0  0.10258942813E+00  0.76693889659E-02  0.25033252628E-01  0.88634647516E+00  0.88000000000E+00 0.  1.
        -11    1    4    4    0    0 -0.37602476624E-01  0.11554687976E-01 -0.45223013801E-02  0.39600118601E-01  0.51100000000E-03 0. -1.
         11    1    4    4    0    0 -0.79973805848E-01  0.70439301848E-02 -0.30870714100E-01  0.86015630466E-01  0.51100000000E-03 0.  1.
</event>
<event>
 8    1  0.1123361E+005  0.1043930E+01  0.7957747E-01            NaN
         13   -1    0    0    0    0  0.00000000000E+00  0.00000000000E+00  0.74505805969E-08  0.10566000000E+00  0.10566000000E+00 0.  1.
     999900   -1    0    0    0    0 -0.00000000000E+00 -0.00000000000E+00 -0.74505805969E-08  0.93827000000E+00  0.93827000000E+00 0. -1.
     999902    2    1    2    0    0  0.70324280702E-02 -0.13467113548E-01  0.18830748681E-01  0.10197346433E+01  0.10194475599E+01 0.  0.
     999903    2    3    3    0    0 -0.44165884610E-01  0.10511649758E+00  0.56049889157E-01  0.12952758618E+00  0.25213133097E-01 0.  0.
         14    1    1    2    0    0 -0.70324280702E-02  0.13467113548E-01 -0.18830748681E-01  0.24195356740E-01  0.00000000000E+00 0. -1.
     999901    1    3    3    0    0  0.51198312680E-01 -0.11858361113E+00 -0.37219140476E-01  0.89020705708E+00  0.88000000000E+00 0. -1.
        -11    1    4    4    0    0 -0.34138258330E-01  0.57229718576E-01  0.23062702179E-01  0.70518158817E-01  0.51100000000E-03 0.  1.
         11    1    4    4    0    0 -0.10027626280E-01  0.47886779007E-01  0.32987186978E-01  0.59009427367E-01  0.51100000000E-03 0. -1.
</event>
<event>
 7    1  0.1123361E+005  0.1043930E+01  0.7957747E-01            NaN
         13   -1    0    0    0    0  0.00000000000E+00  0.00000000000E+00  0.74505805969E-08  0.10566000000E+00  0.10566000000E+00 0.  1.
     999900   -1    0    0    0    0 -0.00000000000E+00 -0.00000000000E+00 -0.74505805969E-08  0.93827000000E+00  0.93827000000E+00 0. -1.
     999903    2    1    2    0    0 -0.84170986188E-01  0.45114915883E-02  0.50465604706E-01  0.10017632135E+00  0.19580848510E-01 0.  0.
         14    1    1    2    0    0 -0.46233261006E-01 -0.44272514229E-02  0.21616040319E-01  0.51228587502E-01  0.00000000000E+00 0.  1.
     999901    1    1    2    0    0  0.13040424719E+00 -0.84240165410E-04 -0.72081645025E-01  0.89252509115E+00  0.88000000000E+00 0. -1.
        -11    1    3    3    0    0 -0.72209837204E-01  0.10314086936E-01  0.45521591631E-01  0.85983239088E-01  0.51100000000E-03 0.  1.
         11    1    3    3    0    0 -0.11961148984E-01 -0.58025953472E-02  0.49440130745E-02  0.14193082260E-01  0.51100000000E-03 0. -1.
</event>
<event>
 8    1  0.1123361E+005  0.1043930E+01  0.7957747E-01            NaN
         13   -1    0    0    0    0  0.00000000000E+00  0.00000000000E+00  0.74505805969E-08  0.10566000000E+00  0.10566000000E+00 0. -1.
     999900   -1    0    0    0    0 -0.00000000000E+00 -0.00000000000E+00 -0.74505805969E-08  0.93827000000E+00  0.93827000000E+00 0.  1.
     999902    2    1    2    0    0 -0.14171274705E-01  0.13129701661E-01  0.11829500038E-01  0.10212771599E+01  0.10210258989E+01 0.  0.
     999903    2    3    3    0    0  0.13021009206E-01 -0.95292163721E-01  0.86707762805E-01  0.13105164050E+00  0.20153242894E-01 0.  0.
         14    1    1    2    0    0  0.14171274705E-01 -0.13129701661E-01 -0.11829500038E-01  0.22652840079E-01  0.00000000000E+00 0.  1.
     999901    1    3    3    0    0 -0.27192283911E-01  0.10842186538E+00 -0.74878262767E-01  0.89022551942E+00  0.88000000000E+00 0.  1.
        -11    1    4    4    0    0  0.52934116157E-02 -0.62113802334E-01  0.43454495459E-01  0.75991439936E-01  0.51100000000E-03 0.  1.
         11    1    4    4    0    0  0.77275975904E-02 -0.33178361387E-01  0.43253267345E-01  0.55060200562E-01  0.51100000000E-03 0. -1.
</event>
<event>
 8    1  0.1123361E+005  0.1043930E+01  0.7957747E-01            NaN
         13   -1    0    0    0    0  0.00000000000E+00  0.00000000000E+00  0.74505805969E-08  0.10566000000E+00  0.10566000000E+00 0.  1.
     999900   -1    0    0    0    0 -0.00000000000E+00 -0.00000000000E+00 -0.74505805969E-08  0.93827000000E+00  0.93827000000E+00 0.  1.
     999902    2    1    2    0    0  0.13204351911E-01 -0.16041730638E-01 -0.11168580598E-01  0.10203412479E+01  0.10200685433E+01 0.  0.
     999903    2    3    3    0    0  0.11018526458E+00 -0.53357703130E-01  0.46220009232E-01  0.13237096157E+00  0.19948563886E-01 0.  0.
         14    1    1    2    0    0 -0.13204351911E-01  0.16041730638E-01  0.11168580598E-01  0.23588752061E-01  0.00000000000E+00 0. -1.
     999901    1    3    3    0    0 -0.96980912667E-01  0.37315972492E-01 -0.57388589830E-01  0.88797028637E+00  0.88000000000E+00 0.  1.
        -11    1    4    4    0    0  0.10106381971E+00 -0.44763393761E-01  0.36181849468E-01  0.11630582284E+00  0.51100000000E-03 0.  1.
         11    1    4    4    0    0  0.91214448717E-02 -0.85943093686E-02  0.10038159764E-01  0.16065138733E-01  0.51100000000E-03 0. -1.
</event>
<event>
 8    1  0.1123361E+005  0.1043930E+01  0.7957747E-01            NaN
         13   -1    0    0    0    0  0.00000000000E+00  0.00000000000E+00  0.74505805969E-08  0.10566000000E+00  0.10566000000E+00 0. -1.
     999900   -1    0    0    0    0 -0.00000000000E+00 -0.00000000000E+00 -0.74505805969E-08  0.93827000000E+00  0.93827000000E+00 0. -1.
     999902    2    1    2    0    0  0.15292429002E-01  0.15534405203E-01 -0.28805720867E-02  0.10219419618E+01  0.10217053878E+01 0.  0.
     999903    2    3    3    0    0  0.17328825203E-01  0.12969196934E+00 -0.23082348360E-01  0.13433607618E+00  0.19826534314E-01 0.  0.
         14    1    1    2    0    0 -0.15292429002E-01 -0.15534405203E-01  0.28805720867E-02  0.21988038233E-01  0.00000000000E+00 0. -1.
     999901    1    3    3    0    0 -0.20363962009E-02 -0.11415756414E+00  0.20201776273E-01  0.88760588558E+00  0.88000000000E+00 0. -1.
        -11    1    4    4    0    0  0.19717433869E-01  0.12630740650E+00 -0.23977128409E-01  0.13006729774E+00  0.51100000000E-03 0. -1.
         11    1    4    4    0    0 -0.23886086660E-02  0.33845628464E-02  0.89478004907E-03  0.42687784385E-02  0.51100000000E-03 0.  1.
</event>
<event>
 8    1  0.1123361E+005  0.1043930E+01  0.7957747E-01            NaN
         13   -1    0    0    0    0  0.00000000000E+00  0.00000000000E+00  0.74505805969E-08  0.10566000000E+00  0.10566000000E+00 0.  1.
     999900   -1    0    0    0    0 -0.00000000000E+00 -0.00000000000E+00 -0.74505805969E-08  0.93827000000E+00  0.93827000000E+00 0. -1.
     999902    2    1    2    0    0  0.18070806763E-01 -0.17949691519E-02 -0.16497776809E-01  0.10193952774E+01  0.10190999848E+01 0.  0.
     999903    2    3    3    0    0 -0.11119492448E-01  0.12626345054E+00 -0.17979766161E-01  0.12964630795E+00  0.20464386571E-01 0.  0.
         14    1    1    2    0    0 -0.18070806763E-01  0.17949691519E-02  0.16497776809E-01  0.24534722557E-01  0.00000000000E+00 0.  1.
     999901    1    3    3    0    0  0.29190299211E-01 -0.12805841970E+00  0.14819893527E-02  0.88974896949E+00  0.88000000000E+00 0.  1.
        -11    1    4    4    0    0 -0.15230270427E-01  0.62002918449E-01 -0.58039728535E-02  0.64111389436E-01  0.51100000000E-03 0. -1.
         11    1    4    4    0    0  0.41107779796E-02  0.64260532095E-01 -0.12175793308E-01  0.65534918513E-01  0.51100000000E-03 0.  1.
</event>
<event>
 8    1  0.1123361E+005  0.1043930E+01  0.7957747E-01            NaN
         13   -1    0    0    0    0  0.00000000000E+00  0.00000000000E+00  0.74505805969E-08  0.10566000000E+00  0.10566000000E+00 0. -1.
     999900   -1    0    0    0    0 -0.00000000000E+00 -0.00000000000E+00 -0.74505805969E-08  0.93827000000E+00  0.93827000000E+00 0. -1.
     999902    2    1    2    0    0  0.20137435826E-02  0.54111702102E-02 -0.23157802412E-01  0.10200632923E+01  0.10197840460E+01 0.  0.
     999903    2    3    3    0    0  0.75746139717E-01 -0.73720772105E-01  0.70723744709E-01  0.12848487426E+00  0.18283460459E-01 0.  0.
         14    1    1    2    0    0 -0.20137435826E-02 -0.54111702102E-02  0.23157802412E-01  0.23866707750E-01  0.00000000000E+00 0. -1.
     999901    1    3    3    0    0 -0.73732396135E-01  0.79131942315E-01 -0.93881547121E-01  0.89157841799E+00  0.88000000000E+00 0. -1.
        -11    1    4    4    0    0  0.24387840952E-01 -0.27118984408E-01  0.34659655231E-01  0.50316586961E-01  0.51100000000E-03 0. -1.
         11    1    4    4    0    0  0.51358298765E-01 -0.46601787697E-01  0.36064089478E-01  0.78168287300E-01  0.51100000000E-03 0.  1.
</event>
<event>
 8    1  0.1123361E+005  0.1043930E+01  0.7957747E-01            NaN
         13   -1    0    0    0    0  0.00000000000E+00  0.00000000000E+00  0.74505805969E-08  0.10566000000E+00  0.10566000000E+00 0.  1.
     999900   -1    0    0    0    0 -0.00000000000E+00 -0.00000000000E+00 -0.74505805969E-08  0.93827000000E+00  0.93827000000E+00 0. -1.
     999902    2    1    2    0    0 -0.17424385112E-01 -0.59235401271E-03  0.16034522488E-01  0.10202431684E+01  0.10199681645E+01 0.  0.
     999903    2    3    3    0    0 -0.33405989761E-01 -0.10805540261E+00 -0.61173611916E-01  0.13020675649E+00  0.20485567047E-01 0.  0.
         14    1    1    2    0    0  0.17424385112E-01  0.59235401271E-03 -0.16034522488E-01  0.23686831600E-01  0.00000000000E+00 0. -1.
     999901    1    3    3    0    0  0.15981604649E-01  0.10746304860E+00  0.77208134404E-01  0.89003641191E+00  0.88000000000E+00 0. -1.
        -11    1    4    4    0    0 -0.59947438855E-02 -0.10630746444E-01 -0.54398217105E-03  0.12227295769E-01  0.51100000000E-03 0.  1.
         11    1    4    4    0    0 -0.27411245875E-01 -0.97424656164E-01 -0.60629629744E-01  0.11797946073E+00  0.51100000000E-03 0. -1.
</event>
<event>
 8    1  0.1123361E+005  0.1043930E+01  0.7957747E-01            NaN
         13   -1    0    0    0    0  0.00000000000E+00  0.00000000000E+00  0.74505805969E-08  0.10566000000E+00  0.10566000000E+00 0.  1.
     999900   -1    0    0    0    0 -0.00000000000E+00 -0.00000000000E+00 -0.74505805969E-08  0.93827000000E+00  0.93827000000E+00 0. -1.
     999902    2    1    2    0    0  0.13170686920E-01 -0.37108368311E-02 -0.19450031641E-01  0.10201488933E+01  0.10198716701E+01 0.  0.
     999903    2    3    3    0    0 -0.27254727212E-01  0.12302943008E+00 -0.26732002692E-01  0.13012061486E+00  0.18376986227E-01 0.  0.
         14    1    1    2    0    0 -0.13170686920E-01  0.37108368311E-02  0.19450031641E-01  0.23781106677E-01  0.00000000000E+00 0.  1.
     999901    1    3    3    0    0  0.40425414132E-01 -0.12674026691E+00  0.72819710511E-02  0.89002827846E+00  0.88000000000E+00 0.  1.
        -11    1    4    4    0    0 -0.10026471590E-01  0.80467961713E-01 -0.12520189295E-01  0.82052661479E-01  0.51100000000E-03 0. -1.
         11    1    4    4    0    0 -0.17228255622E-01  0.42561468364E-01 -0.14211813397E-01  0.48067953379E-01  0.51100000000E-03 0.  1.
</event>
<event>
 8    1  0.1123361E+005  0.1043930E+01  0.7957747E-01            NaN
         13   -1    0    0    0    0  0.00000000000E+00  0.00000000000E+00  0.74505805969E-08  0.10566000000E+00  0.10566000000E+00 0.  1.
     999900   -1    0    0    0    0 -0.00000000000E+00 -0.00000000000E+00 -0.74505805969E-08  0.93827000000E+00  0.93827000000E+00 0. -1.
     999902    2    1    2    0    0  0.23245752158E-01  0.32552756154E-02  0.10528274680E-02  0.10204338246E+01  0.10201632811E+01 0.  0.
     999903    2    3    3    0    0 -0.89775544539E-01  0.80901250342E-01 -0.39984450988E-01  0.12886959858E+00  0.20098666942E-01 0.  0.
         14    1    1    2    0    0 -0.23245752158E-01 -0.32552756154E-02 -0.10528274680E-02  0.23496175400E-01  0.00000000000E+00 0.  1.
     999901    1    3    3    0    0  0.11302129670E+00 -0.77645974726E-01  0.41037278456E-01  0.89156422602E+00  0.88000000000E+00 0.  1.
        -11    1    4    4    0    0 -0.62323964792E-01  0.45345613268E-01 -0.19546908124E-01  0.79516312592E-01  0.51100000000E-03 0. -1.
         11    1    4    4    0    0 -0.27451579747E-01  0.35555637074E-01 -0.20437542865E-01  0.49353285987E-01  0.51100000000E-03 0.  1.
</event>
<event>
 8    1  0.1123361E+005  0.1043930E+01  0.7957747E-01            NaN
         13   -1    0    0    0    0  0.00000000000E+00  0.00000000000E+00  0.74505805969E-08  0.10566000000E+00  0.10566000000E+00 0.  1.
     999900   -1    0    0    0    0 -0.00000000000E+00 -0.00000000000E+00 -0.74505805969E-08  0.93827000000E+00  0.93827000000E+00 0.  1.
     999902    2    1    2    0    0  0.17256184960E-01  0.12210049617E-01  0.10641527300E-01  0.10202634976E+01  0.10199889712E+01 0.  0.
     999903    2    3    3    0    0  0.73615036158E-01 -0.84238724619E-01 -0.63372755353E-01  0.13011923955E+00  0.19989349824E-01 0.  0.
         14    1    1    2    0    0 -0.17256184960E-01 -0.12210049617E-01 -0.10641527300E-01  0.23666502367E-01  0.00000000000E+00 0. -1.
     999901    1    3    3    0    0 -0.56358851198E-01  0.96448774236E-01  0.74014282652E-01  0.89014425808E+00  0.88000000000E+00 0.  1.
        -11    1    4    4    0    0  0.24948051019E-02 -0.97448968071E-02 -0.21366314018E-02  0.10296279960E-01  0.51100000000E-03 0. -1.
         11    1    4    4    0    0  0.71120231056E-01 -0.74493827812E-01 -0.61236123951E-01  0.11982295959E+00  0.51100000000E-03 0.  1.
</event>
