<event>
 8    1  0.1114686E+005  0.1043930E+01  0.7957747E-01            NaN
         13   -1    0    0    0    0  0.00000000000E+00  0.00000000000E+00  0.74505805969E-08  0.10566000000E+00  0.10566000000E+00 0. -1.
     999900   -1    0    0    0    0 -0.00000000000E+00 -0.00000000000E+00 -0.74505805969E-08  0.93827000000E+00  0.93827000000E+00 0. -1.
     999902    2    1    2    0    0  0.20939084345E-01 -0.77496215951E-02  0.11064844433E-01  0.10190114794E+01  0.10187067598E+01 0.  0.
     999903    2    3    3    0    0 -0.33836143340E-01 -0.91036806060E-02  0.12357880829E+00  0.13015741311E+00  0.21011157357E-01 0.  0.
         14    1    1    2    0    0 -0.20939084345E-01  0.77496215951E-02 -0.11064844433E-01  0.24918520631E-01  0.00000000000E+00 0. -1.
     999901    1    3    3    0    0  0.54775227685E-01  0.13540590109E-02 -0.11251396385E+00  0.88885406626E+00  0.88000000000E+00 0. -1.
        -11    1    4    4    0    0 -0.25432277662E-03 -0.26493755867E-02  0.36542062662E-01  0.36642425352E-01  0.51100000000E-03 0. -1.
         11    1    4    4    0    0 -0.33581820563E-01 -0.64543050192E-02  0.87036745624E-01  0.93514987758E-01  0.51100000000E-03 0.  1.
</event>
<event>
 8    1  0.1114686E+005  0.1043930E+01  0.7957747E-01            NaN
         13   -1    0    0    0    0  0.00000000000E+00  0.00000000000E+00  0.74505805969E-08  0.10566000000E+00  0.10566000000E+00 0.  1.
     999900   -1    0    0    0    0 -0.00000000000E+00 -0.00000000000E+00 -0.74505805969E-08  0.93827000000E+00  0.93827000000E+00 0. -1.
     999902    2    1    2    0    0 -0.15130518088E-01  0.55391780977E-02 -0.16952910846E-01  0.10205416213E+01  0.10202735832E+01 0.  0.
     999903    2    3    3    0    0 -0.11373394371E+00  0.50031545014E-01 -0.45192980320E-01  0.13346794467E+00  0.18240650643E-01 0.  0.
         14    1    1    2    0    0  0.15130518088E-01 -0.55391780977E-02  0.16952910846E-01  0.23388378690E-01  0.00000000000E+00 0.  1.
     999901    1    3    3    0    0  0.98603425625E-01 -0.44492366916E-01  0.28240069474E-01  0.88707367664E+00  0.88000000000E+00 0. -1.
        -11    1    4    4    0    0 -0.63010952718E-01  0.22665626974E-01 -0.15956884432E-01  0.68840352195E-01  0.51100000000E-03 0.  1.
         11    1    4    4    0    0 -0.50722990995E-01  0.27365918039E-01 -0.29236095888E-01  0.64627592477E-01  0.51100000000E-03 0. -1.
</event>
<event>
 8    1  0.1114686E+005  0.1043930E+01  0.7957747E-01            NaN
         13   -1    0    0    0    0  0.00000000000E+00  0.00000000000E+00  0.74505805969E-08  0.10566000000E+00  0.10566000000E+00 0.  1.
     999900   -1    0    0    0    0 -0.00000000000E+00 -0.00000000000E+00 -0.74505805969E-08  0.93827000000E+00  0.93827000000E+00 0.  1.
     999902    2    1    2    0    0 -0.93220594270E-02 -0.22006078184E-01  0.25749535563E-02  0.10198925572E+01  0.10196092534E+01 0.  0.
     999903    2    3    3    0    0  0.64544572544E-01  0.36864712889E-01 -0.10298683447E+00  0.12856470484E+00  0.19939567562E-01 0.  0.
         14    1    1    2    0    0  0.93220594270E-02  0.22006078184E-01 -0.25749535563E-02  0.24037442768E-01  0.00000000000E+00 0.  1.
     999901    1    3    3    0    0 -0.73866631971E-01 -0.58870791074E-01  0.10556178803E+00  0.89132785239E+00  0.88000000000E+00 0. -1.
        -11    1    4    4    0    0  0.36891835707E-01  0.24543219102E-01 -0.45038942870E-01  0.63183420623E-01  0.51100000000E-03 0.  1.
         11    1    4    4    0    0  0.27652736837E-01  0.12321493787E-01 -0.57947891601E-01  0.65381284216E-01  0.51100000000E-03 0. -1.
</event>
<event>
 8    1  0.1114686E+005  0.1043930E+01  0.7957747E-01            NaN
         13   -1    0    0    0    0  0.00000000000E+00  0.00000000000E+00  0.74505805969E-08  0.10566000000E+00  0.10566000000E+00 0.  1.
     999900   -1    0    0    0    0 -0.00000000000E+00 -0.00000000000E+00 -0.74505805969E-08  0.93827000000E+00  0.93827000000E+00 0. -1.
     999902    2    1    2    0    0  0.15001763097E-01 -0.12060388608E-01 -0.14610734095E-01  0.10197643339E+01  0.10194779631E+01 0.  0.
     999903    2    3    3    0    0 -0.26069839402E-01 -0.98233437944E-01 -0.81899208301E-01  0.13204793222E+00  0.19993279565E-01 0.  0.
         14    1    1    2    0    0 -0.15001763097E-01  0.12060388608E-01  0.14610734095E-01  0.24165666144E-01  0.00000000000E+00 0. -1.
     999901    1    3    3    0    0  0.41071602500E-01  0.86173049337E-01  0.67288474206E-01  0.88771640163E+00  0.88000000000E+00 0.  1.
        -11    1    4    4    0    0 -0.15658459534E-01 -0.24939359380E-01 -0.20748901184E-01  0.36026893047E-01  0.51100000000E-03 0.  1.
         11    1    4    4    0    0 -0.10411379868E-01 -0.73294078564E-01 -0.61150307117E-01  0.96021039178E-01  0.51100000000E-03 0. -1.
</event>
<event>
 8    1  0.1114686E+005  0.1043930E+01  0.7957747E-01            NaN
         13   -1    0    0    0    0  0.00000000000E+00  0.00000000000E+00  0.74505805969E-08  0.10566000000E+00  0.10566000000E+00 0. -1.
     999900   -1    0    0    0    0 -0.00000000000E+00 -0.00000000000E+00 -0.74505805969E-08  0.93827000000E+00  0.93827000000E+00 0. -1.
     999902    2    1    2    0    0 -0.20687394173E-01 -0.10639532798E-01  0.60926686749E-02  0.10198823692E+01  0.10195988223E+01 0.  0.
     999903    2    3    3    0    0  0.93355709708E-01  0.74087625640E-01  0.41481599606E-01  0.12778545890E+00  0.20103123958E-01 0.  0.
         14    1    1    2    0    0  0.20687394173E-01  0.10639532798E-01 -0.60926686749E-02  0.24047630806E-01  0.00000000000E+00 0.  1.
     999901    1    3    3    0    0 -0.11404310388E+00 -0.84727158438E-01 -0.35388930931E-01  0.89209691029E+00  0.88000000000E+00 0. -1.
        -11    1    4    4    0    0  0.28951702929E-01  0.29626643504E-01  0.22950774662E-01  0.47359669407E-01  0.51100000000E-03 0.  1.
         11    1    4    4    0    0  0.64404006780E-01  0.44460982135E-01  0.18530824944E-01  0.80425789495E-01  0.51100000000E-03 0. -1.
</event>
<event>
 8    1  0.1114686E+005  0.1043930E+01  0.7957747E-01            NaN
         13   -1    0    0    0    0  0.00000000000E+00  0.00000000000E+00  0.74505805969E-08  0.10566000000E+00  0.10566000000E+00 0.  1.
     999900   -1    0    0    0    0 -0.00000000000E+00 -0.00000000000E+00 -0.74505805969E-08  0.93827000000E+00  0.93827000000E+00 0. -1.
     999902    2    1    2    0    0 -0.17131852152E-01 -0.16660701620E-01  0.46497609516E-03  0.10200282105E+01  0.10197481330E+01 0.  0.
     999903    2    3    3    0    0  0.51402073971E-01  0.20587741323E-01  0.11494207275E+00  0.12919188933E+00  0.20318363086E-01 0.  0.
         14    1    1    2    0    0  0.17131852152E-01  0.16660701620E-01 -0.46497609516E-03  0.23901789460E-01  0.00000000000E+00 0. -1.
     999901    1    3    3    0    0 -0.68533926123E-01 -0.37248442944E-01 -0.11447709666E+00  0.89083632121E+00  0.88000000000E+00 0. -1.
        -11    1    4    4    0    0  0.27666874996E-01  0.21569428269E-01  0.64178462891E-01  0.73142548684E-01  0.51100000000E-03 0.  1.
         11    1    4    4    0    0  0.23735198975E-01 -0.98168694526E-03  0.50763609860E-01  0.56049340644E-01  0.51100000000E-03 0. -1.
</event>
<event>
 8    1  0.1114686E+005  0.1043930E+01  0.7957747E-01            NaN
         13   -1    0    0    0    0  0.00000000000E+00  0.00000000000E+00  0.74505805969E-08  0.10566000000E+00  0.10566000000E+00 0.  1.
     999900   -1    0    0    0    0 -0.00000000000E+00 -0.00000000000E+00 -0.74505805969E-08  0.93827000000E+00  0.93827000000E+00 0.  1.
     999902    2    1    2    0    0  0.94542254469E-02  0.96663418208E-02  0.19608727388E-01  0.10201114624E+01  0.10198333555E+01 0.  0.
     999903    2    3    3    0    0 -0.20043315044E-02  0.82398763202E-01  0.10256214618E+00  0.13314890777E+00  0.20397654026E-01 0.  0.
         14    1    1    2    0    0 -0.94542254469E-02 -0.96663418208E-02 -0.19608727388E-01  0.23818537587E-01  0.00000000000E+00 0. -1.
     999901    1    3    3    0    0  0.11458556951E-01 -0.72732421381E-01 -0.82953418792E-01  0.88696255464E+00  0.88000000000E+00 0. -1.
        -11    1    4    4    0    0 -0.85237629327E-03  0.56338785055E-02  0.18215851515E-01  0.19093074654E-01  0.51100000000E-03 0.  1.
         11    1    4    4    0    0 -0.11519552111E-02  0.76764884697E-01  0.84346294665E-01  0.11405583312E+00  0.51100000000E-03 0. -1.
</event>
<event>
 8    1  0.1114686E+005  0.1043930E+01  0.7957747E-01            NaN
         13   -1    0    0    0    0  0.00000000000E+00  0.00000000000E+00  0.74505805969E-08  0.10566000000E+00  0.10566000000E+00 0. -1.
     999900   -1    0    0    0    0 -0.00000000000E+00 -0.00000000000E+00 -0.74505805969E-08  0.93827000000E+00  0.93827000000E+00 0. -1.
     999902    2    1    2    0    0  0.19480123112E-01 -0.15742832454E-02  0.12921843773E-01  0.10205007958E+01  0.10202318102E+01 0.  0.
     999903    2    3    3    0    0  0.39488447411E-01 -0.73615834626E-01  0.10202275227E+00  0.13284698371E+00  0.16157057724E-01 0.  0.
         14    1    1    2    0    0 -0.19480123112E-01  0.15742832454E-02 -0.12921843773E-01  0.23429204227E-01  0.00000000000E+00 0.  1.
     999901    1    3    3    0    0 -0.20008324299E-01  0.72041551381E-01 -0.89100908499E-01  0.88765381206E+00  0.88000000000E+00 0.  1.
        -11    1    4    4    0    0  0.21914404149E-01 -0.39075284659E-01  0.42084054577E-01  0.61469079633E-01  0.51100000000E-03 0. -1.
         11    1    4    4    0    0  0.17574043263E-01 -0.34540549967E-01  0.59938697695E-01  0.71377904081E-01  0.51100000000E-03 0.  1.
</event>
<event>
 8    1  0.1114686E+005  0.1043930E+01  0.7957747E-01            NaN
         13   -1    0    0    0    0  0.00000000000E+00  0.00000000000E+00  0.74505805969E-08  0.10566000000E+00  0.10566000000E+00 0. -1.
     999900   -1    0    0    0    0 -0.00000000000E+00 -0.00000000000E+00 -0.74505805969E-08  0.93827000000E+00  0.93827000000E+00 0.  1.
     999902    2    1    2    0    0  0.11202868465E-01  0.62462494536E-02  0.19706680866E-01  0.10204167449E+01  0.10201458034E+01 0.  0.
     999903    2    3    3    0    0 -0.14709210680E-01 -0.50221229599E-01 -0.11499389888E+00  0.12800189843E+00  0.20551312364E-01 0.  0.
         14    1    1    2    0    0 -0.11202868465E-01 -0.62462494536E-02 -0.19706680866E-01  0.23513255088E-01  0.00000000000E+00 0.  1.
     999901    1    3    3    0    0  0.25912079145E-01  0.56467479052E-01  0.13470057975E+00  0.89241484648E+00  0.88000000000E+00 0. -1.
        -11    1    4    4    0    0 -0.78780650167E-02 -0.64848511791E-02 -0.11190748350E-01  0.15152926214E-01  0.51100000000E-03 0.  1.
         11    1    4    4    0    0 -0.68311456629E-02 -0.43736378420E-01 -0.10380315053E+00  0.11284897222E+00  0.51100000000E-03 0. -1.
</event>
<event>
 7    1  0.1114686E+005  0.1043930E+01  0.7957747E-01            NaN
         13   -1    0    0    0    0  0.00000000000E+00  0.00000000000E+00  0.74505805969E-08  0.10566000000E+00  0.10566000000E+00 0.  1.
     999900   -1    0    0    0    0 -0.00000000000E+00 -0.00000000000E+00 -0.74505805969E-08  0.93827000000E+00  0.93827000000E+00 0. -1.
     999903    2    1    2    0    0 -0.42064518991E-01  0.30784679787E-01  0.10513680822E+00  0.11887166150E+00  0.18963206441E-01 0.  0.
         14    1    1    2    0    0  0.13010045678E-01 -0.36230495067E-01 -0.20851786661E-02  0.38552017216E-01  0.00000000000E+00 0. -1.
     999901    1    1    2    0    0  0.29054473313E-01  0.54458152807E-02 -0.10305162955E+00  0.88650632128E+00  0.88000000000E+00 0. -1.
        -11    1    3    3    0    0 -0.18939875372E-01  0.22200533543E-01  0.42553600930E-01  0.51600897684E-01  0.51100000000E-03 0.  1.
         11    1    3    3    0    0 -0.23124643618E-01  0.85841462436E-02  0.62583207286E-01  0.67270763816E-01  0.51100000000E-03 0. -1.
</event>
<event>
 8    1  0.1114686E+005  0.1043930E+01  0.7957747E-01            NaN
         13   -1    0    0    0    0  0.00000000000E+00  0.00000000000E+00  0.74505805969E-08  0.10566000000E+00  0.10566000000E+00 0. -1.
     999900   -1    0    0    0    0 -0.00000000000E+00 -0.00000000000E+00 -0.74505805969E-08  0.93827000000E+00  0.93827000000E+00 0.  1.
     999902    2    1    2    0    0  0.32866736773E-02  0.15233466481E-01 -0.17194084576E-01  0.10207244561E+01  0.10204606401E+01 0.  0.
     999903    2    3    3    0    0  0.95910470565E-01  0.58531624238E-01 -0.68875367479E-01  0.13329848551E+00  0.19997514691E-01 0.  0.
         14    1    1    2    0    0 -0.32866736773E-02 -0.15233466481E-01  0.17194084576E-01  0.23205543934E-01  0.00000000000E+00 0. -1.
     999901    1    3    3    0    0 -0.92623796888E-01 -0.43298157757E-01  0.51681282902E-01  0.88742597056E+00  0.88000000000E+00 0.  1.
        -11    1    4    4    0    0  0.29132696681E-01  0.10606849933E-01 -0.26668969961E-01  0.40898830805E-01  0.51100000000E-03 0.  1.
         11    1    4    4    0    0  0.66777773884E-01  0.47924774305E-01 -0.42206397517E-01  0.92399654704E-01  0.51100000000E-03 0. -1.
</event>
<event>
 8    1  0.1114686E+005  0.1043930E+01  0.7957747E-01            NaN
         13   -1    0    0    0    0  0.00000000000E+00  0.00000000000E+00  0.74505805969E-08  0.10566000000E+00  0.10566000000E+00 0.  1.
     999900   -1    0    0    0    0 -0.00000000000E+00 -0.00000000000E+00 -0.74505805969E-08  0.93827000000E+00  0.93827000000E+00 0. -1.
     999902    2    1    2    0    0  0.14825967797E-01  0.18086972521E-01  0.24877765318E-02  0.10204111368E+01  0.10201400644E+01 0.  0.
     999903    2    3    3    0    0  0.85115926213E-01 -0.47568695460E-01 -0.84731506229E-01  0.13088398806E+00  0.21063914619E-01 0.  0.
         14    1    1    2    0    0 -0.14825967797E-01 -0.18086972521E-01 -0.24877765318E-02  0.23518863241E-01  0.00000000000E+00 0.  1.
     999901    1    3    3    0    0 -0.70289958416E-01  0.65655667981E-01  0.87219282761E-01  0.88952714870E+00  0.88000000000E+00 0. -1.
        -11    1    4    4    0    0  0.20419145911E-02 -0.44489607888E-03 -0.82485202891E-02  0.85244680583E-02  0.51100000000E-03 0.  1.
         11    1    4    4    0    0  0.83074011622E-01 -0.47123799381E-01 -0.76482985940E-01  0.12235952000E+00  0.51100000000E-03 0. -1.
</event>
<event>
 8    1  0.1114686E+005  0.1043930E+01  0.7957747E-01            NaN
         13   -1    0    0    0    0  0.00000000000E+00  0.00000000000E+00  0.74505805969E-08  0.10566000000E+00  0.10566000000E+00 0. -1.
     999900   -1    0    0    0    0 -0.00000000000E+00 -0.00000000000E+00 -0.74505805969E-08  0.93827000000E+00  0.93827000000E+00 0.  1.
     999902    2    1    2    0    0  0.19689363011E-01  0.14498082718E-01  0.49423268935E-02  0.10189842185E+01  0.10186788236E+01 0.  0.
     999903    2    3    3    0    0 -0.37832107074E-02  0.81015078115E-01  0.10085711766E+00  0.13096669647E+00  0.20058958989E-01 0.  0.
         14    1    1    2    0    0 -0.19689363011E-01 -0.14498082718E-01 -0.49423268935E-02  0.24945781475E-01  0.00000000000E+00 0.  1.
     999901    1    3    3    0    0  0.23472573718E-01 -0.66516995397E-01 -0.95914790766E-01  0.88801752206E+00  0.88000000000E+00 0.  1.
        -11    1    4    4    0    0  0.31206366043E-02  0.44656040531E-01  0.41672120014E-01  0.61161483273E-01  0.51100000000E-03 0.  1.
         11    1    4    4    0    0 -0.69038473117E-02  0.36359037583E-01  0.59184997646E-01  0.69805213194E-01  0.51100000000E-03 0. -1.
</event>
<event>
 8    1  0.1123063E+005  0.1043930E+01  0.7957747E-01            NaN
         13   -1    0    0    0    0  0.00000000000E+00  0.00000000000E+00  0.74505805969E-08  0.10566000000E+00  0.10566000000E+00 0. -1.
     999900   -1    0    0    0    0 -0.00000000000E+00 -0.00000000000E+00 -0.74505805969E-08  0.93827000000E+00  0.93827000000E+00 0. -1.
     999902    2    1    2    0    0 -0.24031091949E-01  0.81595128741E-02  0.11317371149E-02  0.10185262235E+01  0.10182093675E+01 0.  0.
     999903    2    3    3    0    0  0.57104073861E-01  0.59674991471E-01  0.96186816750E-01  0.12820480525E+00  0.19041757114E-01 0.  0.
         14    1    1    2    0    0  0.24031091949E-01 -0.81595128741E-02 -0.11317371149E-02  0.25403776481E-01  0.00000000000E+00 0.  1.
     999901    1    3    3    0    0 -0.81135165809E-01 -0.51515478597E-01 -0.95055079635E-01  0.89032141827E+00  0.88000000000E+00 0. -1.
        -11    1    4    4    0    0  0.31895118251E-01  0.25273350323E-01  0.58650462797E-01  0.71387524905E-01  0.51100000000E-03 0. -1.
         11    1    4    4    0    0  0.25208955610E-01  0.34401641148E-01  0.37536353953E-01  0.56817280344E-01  0.51100000000E-03 0.  1.
</event>
<event>
 8    1  0.1114686E+005  0.1043930E+01  0.7957747E-01            NaN
         13   -1    0    0    0    0  0.00000000000E+00  0.00000000000E+00  0.74505805969E-08  0.10566000000E+00  0.10566000000E+00 0.  1.
     999900   -1    0    0    0    0 -0.00000000000E+00 -0.00000000000E+00 -0.74505805969E-08  0.93827000000E+00  0.93827000000E+00 0. -1.
     999902    2    1    2    0    0  0.15071721338E-01  0.91993884562E-02 -0.15641151025E-01  0.10203412074E+01  0.10200685018E+01 0.  0.
     999903    2    3    3    0    0  0.67523700803E-01 -0.31482517683E-01  0.10430602835E+00  0.12972706339E+00  0.19969084450E-01 0.  0.
         14    1    1    2    0    0 -0.15071721338E-01 -0.91993884562E-02  0.15641151025E-01  0.23588792623E-01  0.00000000000E+00 0.  1.
     999901    1    3    3    0    0 -0.52451979465E-01  0.40681906140E-01 -0.11994717938E+00  0.89061414399E+00  0.88000000000E+00 0. -1.
        -11    1    4    4    0    0  0.10711236660E-01  0.23812262762E-02  0.15436734520E-01  0.18946100470E-01  0.51100000000E-03 0.  1.
         11    1    4    4    0    0  0.56812464143E-01 -0.33863743960E-01  0.88869293834E-01  0.11078096292E+00  0.51100000000E-03 0. -1.
</event>
<event>
 8    1  0.1114686E+005  0.1043930E+01  0.7957747E-01            NaN
         13   -1    0    0    0    0  0.00000000000E+00  0.00000000000E+00  0.74505805969E-08  0.10566000000E+00  0.10566000000E+00 0.  1.
     999900   -1    0    0    0    0 -0.00000000000E+00 -0.00000000000E+00 -0.74505805969E-08  0.93827000000E+00  0.93827000000E+00 0. -1.
     999902    2    1    2    0    0  0.24195168386E-02 -0.23199217560E-01 -0.34942451770E-03  0.10206023371E+01  0.10203357049E+01 0.  0.
     999903    2    3    3    0    0  0.25028453535E-01  0.12371405527E+00 -0.53185029822E-02  0.12812300097E+00  0.21345396350E-01 0.  0.
         14    1    1    2    0    0 -0.24195168386E-02  0.23199217560E-01  0.34942451770E-03  0.23327662863E-01  0.00000000000E+00 0. -1.
     999901    1    3    3    0    0 -0.22608936696E-01 -0.14691327283E+00  0.49690784645E-02  0.89247933617E+00  0.88000000000E+00 0. -1.
        -11    1    4    4    0    0  0.44700090027E-02  0.60557905921E-01 -0.99810120858E-02  0.61539602480E-01  0.51100000000E-03 0. -1.
         11    1    4    4    0    0  0.20558444532E-01  0.63156149347E-01  0.46625091037E-02  0.66583398487E-01  0.51100000000E-03 0.  1.
</event>
<event>
 8    1  0.1114686E+005  0.1043930E+01  0.7957747E-01            NaN
         13   -1    0    0    0    0  0.00000000000E+00  0.00000000000E+00  0.74505805969E-08  0.10566000000E+00  0.10566000000E+00 0. -1.
     999900   -1    0    0    0    0 -0.00000000000E+00 -0.00000000000E+00 -0.74505805969E-08  0.93827000000E+00  0.93827000000E+00 0. -1.
     999902    2    1    2    0    0 -0.23857964789E-01  0.37949670523E-02 -0.36821646018E-03  0.10197692914E+01  0.10194830395E+01 0.  0.
     999903    2    3    3    0    0  0.21181929637E-01 -0.12458007947E+00  0.17612645357E-01  0.12913353188E+00  0.19909631779E-01 0.  0.
         14    1    1    2    0    0  0.23857964789E-01 -0.37949670523E-02  0.36821646018E-03  0.24160708643E-01  0.00000000000E+00 0.  1.
     999901    1    3    3    0    0 -0.45039894426E-01  0.12837504652E+00 -0.17980861817E-01  0.89063575947E+00  0.88000000000E+00 0.  1.
        -11    1    4    4    0    0  0.97057798301E-02 -0.16357576656E-01  0.41392368780E-02  0.19472207864E-01  0.51100000000E-03 0. -1.
         11    1    4    4    0    0  0.11476149807E-01 -0.10822250281E+00  0.13473408479E-01  0.10966132402E+00  0.51100000000E-03 0.  1.
</event>
<event>
 8    1  0.1114686E+005  0.1043930E+01  0.7957747E-01            NaN
         13   -1    0    0    0    0  0.00000000000E+00  0.00000000000E+00  0.74505805969E-08  0.10566000000E+00  0.10566000000E+00 0.  1.
     999900   -1    0    0    0    0 -0.00000000000E+00 -0.00000000000E+00 -0.74505805969E-08  0.93827000000E+00  0.93827000000E+00 0.  1.
     999902    2    1    2    0    0 -0.15458866237E-01 -0.18212678460E-01 -0.83630194788E-03  0.10200264939E+01  0.10197463757E+01 0.  0.
     999903    2    3    3    0    0 -0.50569220698E-01  0.96362749506E-01 -0.67048437656E-01  0.12943999470E+00  0.20400824991E-01 0.  0.
         14    1    1    2    0    0  0.15458866237E-01  0.18212678460E-01  0.83630194788E-03  0.23903506081E-01  0.00000000000E+00 0.  1.
     999901    1    3    3    0    0  0.35110354461E-01 -0.11457542797E+00  0.66212135708E-01  0.89058649922E+00  0.88000000000E+00 0.  1.
        -11    1    4    4    0    0 -0.38464974874E-02  0.18796562623E-01 -0.55530209485E-02  0.19980076878E-01  0.51100000000E-03 0.  1.
         11    1    4    4    0    0 -0.46722723210E-01  0.77566186882E-01 -0.61495416707E-01  0.10945991782E+00  0.51100000000E-03 0. -1.
</event>
<event>
 8    1  0.1114686E+005  0.1043930E+01  0.7957747E-01            NaN
         13   -1    0    0    0    0  0.00000000000E+00  0.00000000000E+00  0.74505805969E-08  0.10566000000E+00  0.10566000000E+00 0. -1.
     999900   -1    0    0    0    0 -0.00000000000E+00 -0.00000000000E+00 -0.74505805969E-08  0.93827000000E+00  0.93827000000E+00 0.  1.
     999902    2    1    2    0    0  0.18460924302E-01  0.16278306191E-01 -0.64209173260E-02  0.10184934680E+01  0.10181757841E+01 0.  0.
     999903    2    3    3    0    0  0.59697793471E-01 -0.61104738362E-01 -0.96633627197E-01  0.12954636727E+00  0.12107343677E-01 0.  0.
         14    1    1    2    0    0 -0.18460924302E-01 -0.16278306191E-01  0.64209173260E-02  0.25436531954E-01  0.00000000000E+00 0.  1.
     999901    1    3    3    0    0 -0.41236869169E-01  0.77383044553E-01  0.90212709871E-01  0.88894710078E+00  0.88000000000E+00 0. -1.
        -11    1    4    4    0    0  0.23037753169E-01 -0.20318359823E-01 -0.42910478405E-01  0.52774464421E-01  0.51100000000E-03 0. -1.
         11    1    4    4    0    0  0.36660040302E-01 -0.40786378539E-01 -0.53723148792E-01  0.76771902845E-01  0.51100000000E-03 0.  1.
</event>
<event>
 8    1  0.1114686E+005  0.1043930E+01  0.7957747E-01            NaN
         13   -1    0    0    0    0  0.00000000000E+00  0.00000000000E+00  0.74505805969E-08  0.10566000000E+00  0.10566000000E+00 0. -1.
     999900   -1    0    0    0    0 -0.00000000000E+00 -0.00000000000E+00 -0.74505805969E-08  0.93827000000E+00  0.93827000000E+00 0. -1.
     999902    2    1    2    0    0 -0.90283228553E-02  0.18236812870E-01 -0.11733774259E-01  0.10204401423E+01  0.10201697460E+01 0.  0.
     999903    2    3    3    0    0  0.72466215596E-01  0.10811778429E+00  0.65959133385E-02  0.13192681865E+00  0.20502968694E-01 0.  0.
         14    1    1    2    0    0  0.90283228553E-02 -0.18236812870E-01  0.11733774259E-01  0.23489857718E-01  0.00000000000E+00 0. -1.
     999901    1    3    3    0    0 -0.81494538451E-01 -0.89880971416E-01 -0.18329687598E-01  0.88851332363E+00  0.88000000000E+00 0. -1.
        -11    1    4    4    0    0  0.22941984090E-01  0.19837188227E-01  0.46202599129E-02  0.30683164658E-01  0.51100000000E-03 0.  1.
         11    1    4    4    0    0  0.49524231506E-01  0.88280596059E-01  0.19756534256E-02  0.10124365399E+00  0.51100000000E-03 0. -1.
</event>
<event>
 8    1  0.1114686E+005  0.1043930E+01  0.7957747E-01            NaN
         13   -1    0    0    0    0  0.00000000000E+00  0.00000000000E+00  0.74505805969E-08  0.10566000000E+00  0.10566000000E+00 0. -1.
     999900   -1    0    0    0    0 -0.00000000000E+00 -0.00000000000E+00 -0.74505805969E-08  0.93827000000E+00  0.93827000000E+00 0. -1.
     999902    2    1    2    0    0 -0.12024924331E-01 -0.10129633468E-01 -0.16998221374E-01  0.10207751342E+01  0.10205124824E+01 0.  0.
     999903    2    3    3    0    0  0.24620147828E-01  0.59531964178E-01  0.10900994247E+00  0.12832140609E+00  0.20808874701E-01 0.  0.
         14    1    1    2    0    0  0.12024924331E-01  0.10129633468E-01  0.16998221374E-01  0.23154865778E-01  0.00000000000E+00 0. -1.
     999901    1    3    3    0    0 -0.36645072158E-01 -0.69661597645E-01 -0.12600816384E+00  0.89245372813E+00  0.88000000000E+00 0. -1.
        -11    1    4    4    0    0  0.39452841256E-03  0.17245151468E-01  0.17130930655E-01  0.24316266324E-01  0.51100000000E-03 0.  1.
         11    1    4    4    0    0  0.24225619415E-01  0.42286812709E-01  0.91879011813E-01  0.10400513977E+00  0.51100000000E-03 0. -1.
</event>
<event>
 8    1  0.1114686E+005  0.1043930E+01  0.7957747E-01            NaN
         13   -1    0    0    0    0  0.00000000000E+00  0.00000000000E+00  0.74505805969E-08  0.10566000000E+00  0.10566000000E+00 0. -1.
     999900   -1    0    0    0    0 -0.00000000000E+00 -0.00000000000E+00 -0.74505805969E-08  0.93827000000E+00  0.93827000000E+00 0.  1.
     999902    2    1    2    0    0 -0.47849466325E-02  0.53414266351E-02 -0.22837619268E-01  0.10199929282E+01  0.10197120133E+01 0.  0.
     999903    2    3    3    0    0  0.10876190343E+00  0.68609931235E-01  0.50263824329E-02  0.13000855000E+00  0.18452215384E-01 0.  0.
         14    1    1    2    0    0  0.47849466325E-02 -0.53414266351E-02  0.22837619268E-01  0.23937071806E-01  0.00000000000E+00 0. -1.
     999901    1    3    3    0    0 -0.11354685006E+00 -0.63268504599E-01 -0.27864001701E-01  0.88998437819E+00  0.88000000000E+00 0. -1.
        -11    1    4    4    0    0  0.37214072779E-01  0.18332416704E-01 -0.58062827926E-02  0.41891989162E-01  0.51100000000E-03 0.  1.
         11    1    4    4    0    0  0.71547830648E-01  0.50277514530E-01  0.10832665226E-01  0.88116560842E-01  0.51100000000E-03 0. -1.
</event>
<event>
 8    1  0.1114686E+005  0.1043930E+01  0.7957747E-01            NaN
         13   -1    0    0    0    0  0.00000000000E+00  0.00000000000E+00  0.74505805969E-08  0.10566000000E+00  0.10566000000E+00 0. -1.
     999900   -1    0    0    0    0 -0.00000000000E+00 -0.00000000000E+00 -0.74505805969E-08  0.93827000000E+00  0.93827000000E+00 0.  1.
     999902    2    1    2    0    0 -0.19339674459E-02  0.23038264240E-01  0.64555102000E-02  0.10199263448E+01  0.10196438464E+01 0.  0.
     999903    2    3    3    0    0  0.12416267087E+00 -0.28199689448E-01  0.11310125630E-01  0.12944936176E+00  0.20435924165E-01 0.  0.
         14    1    1    2    0    0  0.19339674459E-02 -0.23038264240E-01 -0.64555102000E-02  0.24003655164E-01  0.00000000000E+00 0.  1.
     999901    1    3    3    0    0 -0.12609663832E+00  0.51237953688E-01 -0.48546154303E-02  0.89047698307E+00  0.88000000000E+00 0.  1.
        -11    1    4    4    0    0  0.68989559744E-01 -0.10826761771E-01 -0.28556682439E-02  0.69894163463E-01  0.51100000000E-03 0. -1.
         11    1    4    4    0    0  0.55173111126E-01 -0.17372927677E-01  0.14165793874E-01  0.59555198300E-01  0.51100000000E-03 0.  1.
</event>
<event>
 8    1  0.1114686E+005  0.1043930E+01  0.7957747E-01            NaN
         13   -1    0    0    0    0  0.00000000000E+00  0.00000000000E+00  0.74505805969E-08  0.10566000000E+00  0.10566000000E+00 0. -1.
     999900   -1    0    0    0    0 -0.00000000000E+00 -0.00000000000E+00 -0.74505805969E-08  0.93827000000E+00  0.93827000000E+00 0. -1.
     999902    2    1    2    0    0 -0.62767861498E-02  0.21580709633E-01 -0.91266326510E-02  0.10196726198E+01  0.10193840449E+01 0.  0.
     999903    2    3    3    0    0 -0.62968250930E-02  0.12729769370E+00 -0.32255843369E-01  0.13304358712E+00  0.20391268138E-01 0.  0.
         14    1    1    2    0    0  0.62767861498E-02 -0.21580709633E-01  0.91266326510E-02  0.24257380241E-01  0.00000000000E+00 0.  1.
     999901    1    3    3    0    0  0.20038943209E-04 -0.10571698407E+00  0.23129210718E-01  0.88662903263E+00  0.88000000000E+00 0. -1.
        -11    1    4    4    0    0 -0.11335750886E-01  0.72009630287E-01 -0.11648769351E-01  0.73823038753E-01  0.51100000000E-03 0.  1.
         11    1    4    4    0    0  0.50389257928E-02  0.55288063411E-01 -0.20607074017E-01  0.59220548372E-01  0.51100000000E-03 0. -1.
</event>
<event>
 8    1  0.1114686E+005  0.1043930E+01  0.7957747E-01            NaN
         13   -1    0    0    0    0  0.00000000000E+00  0.00000000000E+00  0.74505805969E-08  0.10566000000E+00  0.10566000000E+00 0.  1.
     999900   -1    0    0    0    0 -0.00000000000E+00 -0.00000000000E+00 -0.74505805969E-08  0.93827000000E+00  0.93827000000E+00 0.  1.
     999902    2    1    2    0    0 -0.23288481459E-01  0.14313415372E-02 -0.27436015566E-05  0.10205975737E+01  0.10203308314E+01 0.  0.
     999903    2    3    3    0    0 -0.50121497915E-01  0.25653533325E-01 -0.11748748609E+00  0.13205416453E+00  0.21557473365E-01 0.  0.
         14    1    1    2    0    0  0.23288481459E-01 -0.14313415372E-02  0.27436015566E-05  0.23332426252E-01  0.00000000000E+00 0. -1.
     999901    1    3    3    0    0  0.26833016455E-01 -0.24222191788E-01  0.11748474248E+00  0.88854340922E+00  0.88000000000E+00 0. -1.
        -11    1    4    4    0    0 -0.24451012986E-02  0.92088055443E-02 -0.14162151485E-01  0.17076541676E-01  0.51100000000E-03 0. -1.
         11    1    4    4    0    0 -0.47676396616E-01  0.16444727781E-01 -0.10332533460E+00  0.11497762286E+00  0.51100000000E-03 0.  1.
</event>
<event>
 8    1  0.1114686E+005  0.1043930E+01  0.7957747E-01            NaN
         13   -1    0    0    0    0  0.00000000000E+00  0.00000000000E+00  0.74505805969E-08  0.10566000000E+00  0.10566000000E+00 0.  1.
     999900   -1    0    0    0    0 -0.00000000000E+00 -0.00000000000E+00 -0.74505805969E-08  0.93827000000E+00  0.93827000000E+00 0.  1.
     999902    2    1    2    0    0  0.11288419608E-02 -0.23048676376E-01  0.17114524212E-02  0.10207903190E+01  0.10205280156E+01 0.  0.
     999903    2    3    3    0    0  0.75493970359E-01 -0.10395306683E+00 -0.29366749333E-01  0.13341128650E+00  0.20750559893E-01 0.  0.
         14    1    1    2    0    0 -0.11288419608E-02  0.23048676376E-01 -0.17114524212E-02  0.23139680989E-01  0.00000000000E+00 0.  1.
     999901    1    3    3    0    0 -0.74365128398E-01  0.80904390452E-01  0.31078201754E-01  0.88737903251E+00  0.88000000000E+00 0.  1.
        -11    1    4    4    0    0  0.14842545275E-01 -0.11409002340E-01  0.72975670353E-03  0.18741935612E-01  0.51100000000E-03 0.  1.
         11    1    4    4    0    0  0.60651425084E-01 -0.92544064488E-01 -0.30096506036E-01  0.11466935089E+00  0.51100000000E-03 0. -1.
</event>
<event>
 8    1  0.1114686E+005  0.1043930E+01  0.7957747E-01            NaN
         13   -1    0    0    0    0  0.00000000000E+00  0.00000000000E+00  0.74505805969E-08  0.10566000000E+00  0.10566000000E+00 0. -1.
     999900   -1    0    0    0    0 -0.00000000000E+00 -0.00000000000E+00 -0.74505805969E-08  0.93827000000E+00  0.93827000000E+00 0. -1.
     999902    2    1    2    0    0 -0.63477524824E-02  0.21332628680E-01  0.78109718515E-02  0.10203421580E+01  0.10200694747E+01 0.  0.
     999903    2    3    3    0    0  0.85689167368E-01  0.98142894120E-01  0.35913237478E-02  0.13220454654E+00  0.22146860943E-01 0.  0.
         14    1    1    2    0    0  0.63477524824E-02 -0.21332628680E-01 -0.78109718515E-02  0.23587841980E-01  0.00000000000E+00 0.  1.
     999901    1    3    3    0    0 -0.92036919850E-01 -0.76810265440E-01  0.42196481038E-02  0.88813761148E+00  0.88000000000E+00 0. -1.
        -11    1    4    4    0    0  0.53149585124E-01  0.72356353995E-01  0.94298878580E-02  0.90274604781E-01  0.51100000000E-03 0.  1.
         11    1    4    4    0    0  0.32539582244E-01  0.25786540125E-01 -0.58385641102E-02  0.41929941761E-01  0.51100000000E-03 0. -1.
</event>
<event>
 8    1  0.1114686E+005  0.1043930E+01  0.7957747E-01            NaN
         13   -1    0    0    0    0  0.00000000000E+00  0.00000000000E+00  0.74505805969E-08  0.10566000000E+00  0.10566000000E+00 0. -1.
     999900   -1    0    0    0    0 -0.00000000000E+00 -0.00000000000E+00 -0.74505805969E-08  0.93827000000E+00  0.93827000000E+00 0. -1.
     999902    2    1    2    0    0  0.43482698186E-02  0.22086086709E-01 -0.47725620583E-02  0.10209195670E+01  0.10206602188E+01 0.  0.
     999903    2    3    3    0    0  0.93339043431E-02  0.94971338457E-01  0.90276862701E-01  0.13279147401E+00  0.19416146180E-01 0.  0.
         14    1    1    2    0    0 -0.43482698186E-02 -0.22086086709E-01  0.47725620583E-02  0.23010432963E-01  0.00000000000E+00 0. -1.
     999901    1    3    3    0    0 -0.49856345245E-02 -0.72885251748E-01 -0.95049424759E-01  0.88812809303E+00  0.88000000000E+00 0. -1.
        -11    1    4    4    0    0  0.32618118430E-02  0.31813417559E-02  0.87215194257E-02  0.98532417995E-02  0.51100000000E-03 0.  1.
         11    1    4    4    0    0  0.60720925001E-02  0.91789996701E-01  0.81555343275E-01  0.12293823221E+00  0.51100000000E-03 0. -1.
</event>
<event>
 8    1  0.1114686E+005  0.1043930E+01  0.7957747E-01            NaN
         13   -1    0    0    0    0  0.00000000000E+00  0.00000000000E+00  0.74505805969E-08  0.10566000000E+00  0.10566000000E+00 0. -1.
     999900   -1    0    0    0    0 -0.00000000000E+00 -0.00000000000E+00 -0.74505805969E-08  0.93827000000E+00  0.93827000000E+00 0.  1.
     999902    2    1    2    0    0 -0.47174399209E-02  0.18418070703E-01  0.78201941215E-02  0.10233719115E+01  0.10231653992E+01 0.  0.
     999903    2    3    3    0    0  0.92415330697E-01 -0.57718508159E-03  0.94332611464E-01  0.13360790162E+00  0.20285544108E-01 0.  0.
         14    1    1    2    0    0  0.47174399209E-02 -0.18418070703E-01 -0.78201941215E-02  0.20558088528E-01  0.00000000000E+00 0.  1.
     999901    1    3    3    0    0 -0.97132770618E-01  0.18995255784E-01 -0.86512417342E-01  0.88976400985E+00  0.88000000000E+00 0.  1.
        -11    1    4    4    0    0  0.33111548115E-01  0.95207685183E-02  0.34086936973E-01  0.48468546965E-01  0.51100000000E-03 0. -1.
         11    1    4    4    0    0  0.59303782583E-01 -0.10097953600E-01  0.60245674491E-01  0.85139354657E-01  0.51100000000E-03 0.  1.
</event>
<event>
 8    1  0.1114686E+005  0.1043930E+01  0.7957747E-01            NaN
         13   -1    0    0    0    0  0.00000000000E+00  0.00000000000E+00  0.74505805969E-08  0.10566000000E+00  0.10566000000E+00 0.  1.
     999900   -1    0    0    0    0 -0.00000000000E+00 -0.00000000000E+00 -0.74505805969E-08  0.93827000000E+00  0.93827000000E+00 0.  1.
     999902    2    1    2    0    0 -0.18018651233E-01 -0.32926733531E-02  0.14817440373E-01  0.10203700758E+01  0.10200980451E+01 0.  0.
     999903    2    3    3    0    0 -0.11577243993E+00  0.29409238640E-01 -0.52424719859E-01  0.13180565697E+00  0.18873759380E-01 0.  0.
         14    1    1    2    0    0  0.18018651233E-01  0.32926733531E-02 -0.14817440373E-01  0.23559924221E-01  0.00000000000E+00 0. -1.
     999901    1    3    3    0    0  0.97753788698E-01 -0.32701911993E-01  0.67242160232E-01  0.88856441880E+00  0.88000000000E+00 0.  1.
        -11    1    4    4    0    0 -0.28594031606E-01  0.15677980748E-01 -0.12276378985E-01  0.34848074923E-01  0.51100000000E-03 0.  1.
         11    1    4    4    0    0 -0.87178408325E-01  0.13731257892E-01 -0.40148340874E-01  0.96957582052E-01  0.51100000000E-03 0. -1.
</event>
<event>
 8    1  0.1114686E+005  0.1043930E+01  0.7957747E-01            NaN
         13   -1    0    0    0    0  0.00000000000E+00  0.00000000000E+00  0.74505805969E-08  0.10566000000E+00  0.10566000000E+00 0.  1.
     999900   -1    0    0    0    0 -0.00000000000E+00 -0.00000000000E+00 -0.74505805969E-08  0.93827000000E+00  0.93827000000E+00 0. -1.
     999902    2    1    2    0    0  0.17955739800E-02 -0.95735099296E-02 -0.20946966099E-01  0.10208291003E+01  0.10205676854E+01 0.  0.
     999903    2    3    3    0    0  0.78741796588E-01 -0.60885190706E-01  0.81194456728E-01  0.13010665194E+00  0.20686326343E-01 0.  0.
         14    1    1    2    0    0 -0.17955739800E-02  0.95735099296E-02  0.20946966099E-01  0.23100899702E-01  0.00000000000E+00 0.  1.
     999901    1    3    3    0    0 -0.76946222608E-01  0.51311680777E-01 -0.10214142283E+00  0.89072244836E+00  0.88000000000E+00 0. -1.
        -11    1    4    4    0    0  0.14809633039E-01 -0.14657653729E-01  0.75147926390E-02  0.22156382218E-01  0.51100000000E-03 0. -1.
         11    1    4    4    0    0  0.63932163550E-01 -0.46227536977E-01  0.73679664089E-01  0.10795026972E+00  0.51100000000E-03 0.  1.
</event>
<event>
 8    1  0.1114686E+005  0.1043930E+01  0.7957747E-01            NaN
         13   -1    0    0    0    0  0.00000000000E+00  0.00000000000E+00  0.74505805969E-08  0.10566000000E+00  0.10566000000E+00 0. -1.
     999900   -1    0    0    0    0 -0.00000000000E+00 -0.00000000000E+00 -0.74505805969E-08  0.93827000000E+00  0.93827000000E+00 0.  1.
     999902    2    1    2    0    0 -0.49612899989E-02 -0.49658643020E-02  0.22877525691E-01  0.10199997809E+01  0.10197190287E+01 0.  0.
     999903    2    3    3    0    0 -0.49318102570E-01 -0.11437642608E+00 -0.33044669833E-01  0.13035631867E+00  0.19661574930E-01 0.  0.
         14    1    1    2    0    0  0.49612899989E-02  0.49658643020E-02 -0.22877525691E-01  0.23930219148E-01  0.00000000000E+00 0.  1.
     999901    1    3    3    0    0  0.44356812571E-01  0.10941056178E+00  0.55922195524E-01  0.88964346218E+00  0.88000000000E+00 0. -1.
        -11    1    4    4    0    0 -0.35958068242E-01 -0.69215622531E-01 -0.28481043937E-01  0.83037437694E-01  0.51100000000E-03 0.  1.
         11    1    4    4    0    0 -0.13360034328E-01 -0.45160803550E-01 -0.45636258961E-02  0.47318880976E-01  0.51100000000E-03 0. -1.
</event>
<event>
 8    1  0.1114686E+005  0.1043930E+01  0.7957747E-01            NaN
         13   -1    0    0    0    0  0.00000000000E+00  0.00000000000E+00  0.74505805969E-08  0.10566000000E+00  0.10566000000E+00 0.  1.
     999900   -1    0    0    0    0 -0.00000000000E+00 -0.00000000000E+00 -0.74505805969E-08  0.93827000000E+00  0.93827000000E+00 0.  1.
     999902    2    1    2    0    0 -0.46339651426E-02  0.22010449867E-01 -0.73115110399E-02  0.10202785364E+01  0.10200043628E+01 0.  0.
     999903    2    3    3    0    0 -0.95989064823E-01  0.53029515182E-01  0.69690754694E-01  0.13166316091E+00  0.21268676597E-01 0.  0.
         14    1    1    2    0    0  0.46339651426E-02 -0.22010449867E-01  0.73115110399E-02  0.23651463591E-01  0.00000000000E+00 0. -1.
     999901    1    3    3    0    0  0.91355099681E-01 -0.31019065314E-01 -0.77002265734E-01  0.88861537550E+00  0.88000000000E+00 0. -1.
        -11    1    4    4    0    0 -0.37773403264E-01  0.94089152083E-02  0.25730792010E-01  0.46665752518E-01  0.51100000000E-03 0. -1.
         11    1    4    4    0    0 -0.58215661559E-01  0.43620599973E-01  0.43959962683E-01  0.84997408389E-01  0.51100000000E-03 0.  1.
</event>
<event>
 8    1  0.1114686E+005  0.1043930E+01  0.7957747E-01            NaN
         13   -1    0    0    0    0  0.00000000000E+00  0.00000000000E+00  0.74505805969E-08  0.10566000000E+00  0.10566000000E+00 0. -1.
     999900   -1    0    0    0    0 -0.00000000000E+00 -0.00000000000E+00 -0.74505805969E-08  0.93827000000E+00  0.93827000000E+00 0. -1.
     999902    2    1    2    0    0 -0.31387465773E-03 -0.20743629271E-01 -0.97986305125E-02  0.10209863771E+01  0.10207285498E+01 0.  0.
     999903    2    3    3    0    0 -0.10548233655E+00 -0.65754695347E-01  0.40219860945E-01  0.13217354474E+00  0.20050073116E-01 0.  0.
         14    1    1    2    0    0  0.31387465773E-03  0.20743629271E-01  0.97986305125E-02  0.22943622917E-01  0.00000000000E+00 0.  1.
     999901    1    3    3    0    0  0.10516846189E+00  0.45011066077E-01 -0.50018491457E-01  0.88881283234E+00  0.88000000000E+00 0.  1.
        -11    1    4    4    0    0 -0.59727607733E-01 -0.41504724948E-01  0.13780192634E-01  0.74028265875E-01  0.51100000000E-03 0.  1.
         11    1    4    4    0    0 -0.45754728814E-01 -0.24249970400E-01  0.26439668311E-01  0.58145278868E-01  0.51100000000E-03 0. -1.
</event>
<event>
 8    1  0.1114686E+005  0.1043930E+01  0.7957747E-01            NaN
         13   -1    0    0    0    0  0.00000000000E+00  0.00000000000E+00  0.74505805969E-08  0.10566000000E+00  0.10566000000E+00 0.  1.
     999900   -1    0    0    0    0 -0.00000000000E+00 -0.00000000000E+00 -0.74505805969E-08  0.93827000000E+00  0.93827000000E+00 0.  1.
     999902    2    1    2    0    0  0.12277225479E-01  0.10531042546E-01 -0.17337893162E-01  0.10202184909E+01  0.10199429070E+01 0.  0.
     999903    2    3    3    0    0  0.85100884413E-01  0.22474016730E-01 -0.98083489572E-01  0.13344581924E+00  0.20980319123E-01 0.  0.
         14    1    1    2    0    0 -0.12277225479E-01 -0.10531042546E-01  0.17337893162E-01  0.23711509059E-01  0.00000000000E+00 0.  1.
     999901    1    3    3    0    0 -0.72823658934E-01 -0.11942974184E-01  0.80745596411E-01  0.88677267170E+00  0.88000000000E+00 0. -1.
        -11    1    4    4    0    0  0.24077625153E-01  0.22658265992E-02 -0.40332987378E-01  0.47030596371E-01  0.51100000000E-03 0.  1.
         11    1    4    4    0    0  0.61023259260E-01  0.20208190131E-01 -0.57750502194E-01  0.86415222870E-01  0.51100000000E-03 0. -1.
</event>
<event>
 8    1  0.1114686E+005  0.1043930E+01  0.7957747E-01            NaN
         13   -1    0    0    0    0  0.00000000000E+00  0.00000000000E+00  0.74505805969E-08  0.10566000000E+00  0.10566000000E+00 0. -1.
     999900   -1    0    0    0    0 -0.00000000000E+00 -0.00000000000E+00 -0.74505805969E-08  0.93827000000E+00  0.93827000000E+00 0. -1.
     999902    2    1    2    0    0 -0.18471442014E-01 -0.87170384119E-02 -0.57660642852E-02  0.10227067009E+01  0.10224864633E+01 0.  0.
     999903    2    3    3    0    0 -0.10330223922E+00 -0.17527665935E-01  0.81350031141E-01  0.13430189145E+00  0.20990444946E-01 0.  0.
         14    1    1    2    0    0  0.18471442014E-01  0.87170384119E-02  0.57660642852E-02  0.21223299133E-01  0.00000000000E+00 0.  1.
     999901    1    3    3    0    0  0.84830797209E-01  0.88106275235E-02 -0.87116095426E-01  0.88840480942E+00  0.88000000000E+00 0.  1.
        -11    1    4    4    0    0 -0.69913598992E-01 -0.90684008418E-02  0.66057347395E-01  0.96612532746E-01  0.51100000000E-03 0.  1.
         11    1    4    4    0    0 -0.33388640230E-01 -0.84592650937E-02  0.15292683746E-01  0.37689358704E-01  0.51100000000E-03 0. -1.
</event>
<event>
 8    1  0.1114686E+005  0.1043930E+01  0.7957747E-01            NaN
         13   -1    0    0    0    0  0.00000000000E+00  0.00000000000E+00  0.74505805969E-08  0.10566000000E+00  0.10566000000E+00 0. -1.
     999900   -1    0    0    0    0 -0.00000000000E+00 -0.00000000000E+00 -0.74505805969E-08  0.93827000000E+00  0.93827000000E+00 0. -1.
     999902    2    1    2    0    0  0.96719896772E-02  0.17530955944E-01  0.10980092853E-01  0.10210948464E+01  0.10208394786E+01 0.  0.
     999903    2    3    3    0    0  0.74654640733E-01 -0.67411906779E-01  0.82776185770E-01  0.13171713484E+00  0.19489128306E-01 0.  0.
         14    1    1    2    0    0 -0.96719896772E-02 -0.17530955944E-01 -0.10980092853E-01  0.22835153595E-01  0.00000000000E+00 0.  1.
     999901    1    3    3    0    0 -0.64982651055E-01  0.84942862724E-01 -0.71796092916E-01  0.88937771156E+00  0.88000000000E+00 0. -1.
        -11    1    4    4    0    0  0.51334183996E-01 -0.55763725465E-01  0.67521786614E-01  0.10150982373E+00  0.51100000000E-03 0.  1.
         11    1    4    4    0    0  0.23320456736E-01 -0.11648181314E-01  0.15254399155E-01  0.30207311117E-01  0.51100000000E-03 0. -1.
</event>
<event>
 8    1  0.1114686E+005  0.1043930E+01  0.7957747E-01            NaN
         13   -1    0    0    0    0  0.00000000000E+00  0.00000000000E+00  0.74505805969E-08  0.10566000000E+00  0.10566000000E+00 0. -1.
     999900   -1    0    0    0    0 -0.00000000000E+00 -0.00000000000E+00 -0.74505805969E-08  0.93827000000E+00  0.93827000000E+00 0. -1.
     999902    2    1    2    0    0 -0.22914547548E-01  0.45790900375E-02  0.22358186036E-02  0.10204556855E+01  0.10201856511E+01 0.  0.
     999903    2    3    3    0    0 -0.15508838898E-01  0.10897615653E+00 -0.69029555769E-01  0.13139306367E+00  0.19563507707E-01 0.  0.
         14    1    1    2    0    0  0.22914547548E-01 -0.45790900375E-02 -0.22358186036E-02  0.23474314468E-01  0.00000000000E+00 0.  1.
     999901    1    3    3    0    0 -0.74057086505E-02 -0.10439706649E+00  0.71265374372E-01  0.88906262187E+00  0.88000000000E+00 0.  1.
        -11    1    4    4    0    0 -0.17551093225E-01  0.57622815104E-01 -0.40787539136E-01  0.72748293201E-01  0.51100000000E-03 0. -1.
         11    1    4    4    0    0  0.20422543274E-02  0.51353341428E-01 -0.28242016633E-01  0.58644770466E-01  0.51100000000E-03 0.  1.
</event>
<event>
 8    1  0.1114686E+005  0.1043930E+01  0.7957747E-01            NaN
         13   -1    0    0    0    0  0.00000000000E+00  0.00000000000E+00  0.74505805969E-08  0.10566000000E+00  0.10566000000E+00 0. -1.
     999900   -1    0    0    0    0 -0.00000000000E+00 -0.00000000000E+00 -0.74505805969E-08  0.93827000000E+00  0.93827000000E+00 0. -1.
     999902    2    1    2    0    0  0.16585759737E-01 -0.16335134731E-01  0.79595618359E-02  0.10193275880E+01  0.10190306438E+01 0.  0.
     999903    2    3    3    0    0 -0.75192072680E-01  0.83416626989E-01  0.57471142197E-01  0.12757370877E+00  0.18972019711E-01 0.  0.
         14    1    1    2    0    0 -0.16585759737E-01  0.16335134731E-01 -0.79595618359E-02  0.24602412023E-01  0.00000000000E+00 0.  1.
     999901    1    3    3    0    0  0.91777832417E-01 -0.99751761720E-01 -0.49511580361E-01  0.89175387921E+00  0.88000000000E+00 0. -1.
        -11    1    4    4    0    0 -0.18874974406E-01  0.33167737246E-01  0.15334912375E-01  0.41131303303E-01  0.51100000000E-03 0.  1.
         11    1    4    4    0    0 -0.56317098274E-01  0.50248889743E-01  0.42136229823E-01  0.86442405468E-01  0.51100000000E-03 0. -1.
</event>
<event>
 8    1  0.1114686E+005  0.1043930E+01  0.7957747E-01            NaN
         13   -1    0    0    0    0  0.00000000000E+00  0.00000000000E+00  0.74505805969E-08  0.10566000000E+00  0.10566000000E+00 0.  1.
     999900   -1    0    0    0    0 -0.00000000000E+00 -0.00000000000E+00 -0.74505805969E-08  0.93827000000E+00  0.93827000000E+00 0.  1.
     999902    2    1    2    0    0 -0.20663350863E-01 -0.41019055791E-02  0.95872612255E-02  0.10207844761E+01  0.10205220387E+01 0.  0.
     999903    2    3    3    0    0 -0.54780197513E-02  0.11146173036E+00  0.66170108408E-01  0.13129745157E+00  0.20169568806E-01 0.  0.
         14    1    1    2    0    0  0.20663350863E-01  0.41019055791E-02 -0.95872612255E-02  0.23145523889E-01  0.00000000000E+00 0.  1.
     999901    1    3    3    0    0 -0.15185331112E-01 -0.11556363594E+00 -0.56582847183E-01  0.88948702454E+00  0.88000000000E+00 0. -1.
        -11    1    4    4    0    0 -0.10828965089E-01  0.74582828772E-01  0.51313765663E-01  0.91176907713E-01  0.51100000000E-03 0.  1.
         11    1    4    4    0    0  0.53509453372E-02  0.36878901591E-01  0.14856342745E-01  0.40120543857E-01  0.51100000000E-03 0. -1.
</event>
<event>
 8    1  0.1114686E+005  0.1043930E+01  0.7957747E-01            NaN
         13   -1    0    0    0    0  0.00000000000E+00  0.00000000000E+00  0.74505805969E-08  0.10566000000E+00  0.10566000000E+00 0. -1.
     999900   -1    0    0    0    0 -0.00000000000E+00 -0.00000000000E+00 -0.74505805969E-08  0.93827000000E+00  0.93827000000E+00 0.  1.
     999902    2    1    2    0    0  0.21796301827E-01 -0.17379028821E-03  0.95025197837E-02  0.10201517146E+01  0.10198745579E+01 0.  0.
     999903    2    3    3    0    0 -0.25271937839E-01 -0.85770104885E-01  0.93592126529E-01  0.13076248018E+00  0.18551505087E-01 0.  0.
         14    1    1    2    0    0 -0.21796301827E-01  0.17379028821E-03 -0.95025197837E-02  0.23778285444E-01  0.00000000000E+00 0.  1.
     999901    1    3    3    0    0  0.47068239666E-01  0.85596314597E-01 -0.84089606746E-01  0.88938923437E+00  0.88000000000E+00 0.  1.
        -11    1    4    4    0    0 -0.26068227236E-01 -0.58718553470E-01  0.65231273608E-01  0.91557638514E-01  0.51100000000E-03 0. -1.
         11    1    4    4    0    0  0.79628939701E-03 -0.27051551415E-01  0.28360852922E-01  0.39204841668E-01  0.51100000000E-03 0.  1.
</event>
<event>
 8    1  0.1114686E+005  0.1043930E+01  0.7957747E-01            NaN
         13   -1    0    0    0    0  0.00000000000E+00  0.00000000000E+00  0.74505805969E-08  0.10566000000E+00  0.10566000000E+00 0.  1.
     999900   -1    0    0    0    0 -0.00000000000E+00 -0.00000000000E+00 -0.74505805969E-08  0.93827000000E+00  0.93827000000E+00 0. -1.
     999902    2    1    2    0    0 -0.11334236429E-01 -0.15570188446E-01 -0.16550892346E-01  0.10185365418E+01  0.10182199464E+01 0.  0.
     999903    2    3    3    0    0  0.65417796069E-01  0.69535509289E-01 -0.83620773760E-01  0.12857461939E+00  0.20599122630E-01 0.  0.
         14    1    1    2    0    0  0.11334236429E-01  0.15570188446E-01  0.16550892346E-01  0.25393458235E-01  0.00000000000E+00 0.  1.
     999901    1    3    3    0    0 -0.76752032498E-01 -0.85105697735E-01  0.67069881413E-01  0.88996192237E+00  0.88000000000E+00 0.  1.
        -11    1    4    4    0    0  0.51141889708E-02  0.10133361104E-03 -0.80033359243E-02  0.95120820143E-02  0.51100000000E-03 0.  1.
         11    1    4    4    0    0  0.60303607099E-01  0.69434175678E-01 -0.75617437835E-01  0.11906253738E+00  0.51100000000E-03 0. -1.
</event>
<event>
 8    1  0.1114686E+005  0.1043930E+01  0.7957747E-01            NaN
         13   -1    0    0    0    0  0.00000000000E+00  0.00000000000E+00  0.74505805969E-08  0.10566000000E+00  0.10566000000E+00 0.  1.
     999900   -1    0    0    0    0 -0.00000000000E+00 -0.00000000000E+00 -0.74505805969E-08  0.93827000000E+00  0.93827000000E+00 0.  1.
     999902    2    1    2    0    0  0.11737501094E-01 -0.22668667684E-01  0.19935922382E-01  0.10115405198E+01  0.10110218320E+01 0.  0.
     999903    2    3    3    0    0  0.10850272048E+00 -0.57829214775E-01  0.15136064772E-01  0.12552538991E+00  0.20259926535E-01 0.  0.
         14    1    1    2    0    0 -0.11737501094E-01  0.22668667684E-01 -0.19935922382E-01  0.32389480202E-01  0.00000000000E+00 0. -1.
     999901    1    3    3    0    0 -0.96765219384E-01  0.35160547090E-01  0.47998576106E-02  0.88601512989E+00  0.88000000000E+00 0.  1.
        -11    1    4    4    0    0  0.10647541166E+00 -0.55379591067E-01  0.11347010721E-01  0.12055259503E+00  0.51100000000E-03 0. -1.
         11    1    4    4    0    0  0.20273088187E-02 -0.24496237072E-02  0.37890540508E-02  0.49727948834E-02  0.51100000000E-03 0.  1.
</event>
<event>
 8    1  0.1114686E+005  0.1043930E+01  0.7957747E-01            NaN
         13   -1    0    0    0    0  0.00000000000E+00  0.00000000000E+00  0.74505805969E-08  0.10566000000E+00  0.10566000000E+00 0. -1.
     999900   -1    0    0    0    0 -0.00000000000E+00 -0.00000000000E+00 -0.74505805969E-08  0.93827000000E+00  0.93827000000E+00 0. -1.
     999902    2    1    2    0    0  0.16713141927E-01  0.11938999845E-01 -0.13331887641E-01  0.10194431044E+01  0.10191489758E+01 0.  0.
     999903    2    3    3    0    0  0.41627834438E-01 -0.13206631063E-01  0.11950167350E+00  0.12877043742E+00  0.19846508022E-01 0.  0.
         14    1    1    2    0    0 -0.16713141927E-01 -0.11938999845E-01  0.13331887641E-01  0.24486895647E-01  0.00000000000E+00 0.  1.
     999901    1    3    3    0    0 -0.24914692511E-01  0.25145630908E-01 -0.13283356114E+00  0.89067266693E+00  0.88000000000E+00 0. -1.
        -11    1    4    4    0    0  0.50928424669E-02  0.45448493215E-02  0.11515578068E-01  0.13396356183E-01  0.51100000000E-03 0. -1.
         11    1    4    4    0    0  0.36534991971E-01 -0.17751480384E-01  0.10798609543E+00  0.11537408124E+00  0.51100000000E-03 0.  1.
</event>
<event>
 8    1  0.1114686E+005  0.1043930E+01  0.7957747E-01            NaN
         13   -1    0    0    0    0  0.00000000000E+00  0.00000000000E+00  0.74505805969E-08  0.10566000000E+00  0.10566000000E+00 0. -1.
     999900   -1    0    0    0    0 -0.00000000000E+00 -0.00000000000E+00 -0.74505805969E-08  0.93827000000E+00  0.93827000000E+00 0. -1.
     999902    2    1    2    0    0  0.30541053395E-02  0.23244963142E-01  0.39269453901E-02  0.10201586565E+01  0.10198816636E+01 0.  0.
     999903    2    3    3    0    0  0.22008831466E-01 -0.12423420041E+00  0.29466339147E-02  0.12768437322E+00  0.19393073488E-01 0.  0.
         14    1    1    2    0    0 -0.30541053395E-02 -0.23244963142E-01 -0.39269453901E-02  0.23771343484E-01  0.00000000000E+00 0. -1.
     999901    1    3    3    0    0 -0.18954726126E-01  0.14747916356E+00  0.98031147546E-03  0.89247428329E+00  0.88000000000E+00 0. -1.
        -11    1    4    4    0    0  0.15783217006E-01 -0.10597376903E+00  0.88329844549E-02  0.10750735973E+00  0.51100000000E-03 0.  1.
         11    1    4    4    0    0  0.62256144597E-02 -0.18260431384E-01 -0.58863505402E-02  0.20177013491E-01  0.51100000000E-03 0. -1.
</event>
<event>
 8    1  0.1114686E+005  0.1043930E+01  0.7957747E-01            NaN
         13   -1    0    0    0    0  0.00000000000E+00  0.00000000000E+00  0.74505805969E-08  0.10566000000E+00  0.10566000000E+00 0. -1.
     999900   -1    0    0    0    0 -0.00000000000E+00 -0.00000000000E+00 -0.74505805969E-08  0.93827000000E+00  0.93827000000E+00 0. -1.
     999902    2    1    2    0    0  0.73933358853E-02 -0.17857434299E-01  0.13494590619E-01  0.10203576995E+01  0.10200853795E+01 0.  0.
     999903    2    3    3    0    0  0.86118464689E-02 -0.54677009209E-01  0.11907193918E+00  0.13328174875E+00  0.22850790222E-01 0.  0.
         14    1    1    2    0    0 -0.73933358853E-02  0.17857434299E-01 -0.13494590619E-01  0.23572300507E-01  0.00000000000E+00 0. -1.
     999901    1    3    3    0    0 -0.12185105836E-02  0.36819574910E-01 -0.10557734856E+00  0.88707595075E+00  0.88000000000E+00 0. -1.
        -11    1    4    4    0    0  0.47522419261E-02 -0.82968322489E-02  0.43385480592E-01  0.44429520320E-01  0.51100000000E-03 0. -1.
         11    1    4    4    0    0  0.38596045428E-02 -0.46380176960E-01  0.75686458585E-01  0.88852228426E-01  0.51100000000E-03 0.  1.
</event>
<event>
 8    1  0.1114686E+005  0.1043930E+01  0.7957747E-01            NaN
         13   -1    0    0    0    0  0.00000000000E+00  0.00000000000E+00  0.74505805969E-08  0.10566000000E+00  0.10566000000E+00 0.  1.
     999900   -1    0    0    0    0 -0.00000000000E+00 -0.00000000000E+00 -0.74505805969E-08  0.93827000000E+00  0.93827000000E+00 0.  1.
     999902    2    1    2    0    0 -0.17857243920E-02 -0.76228780484E-02  0.21950366159E-01  0.10206251581E+01  0.10203590533E+01 0.  0.
     999903    2    3    3    0    0  0.11707587097E+00  0.19912269738E-01  0.53178371319E-01  0.13165865057E+00  0.20069953717E-01 0.  0.
         14    1    1    2    0    0  0.17857243920E-02  0.76228780484E-02 -0.21950366159E-01  0.23304841897E-01  0.00000000000E+00 0. -1.
     999901    1    3    3    0    0 -0.11886159537E+00 -0.27535147786E-01 -0.31228005160E-01  0.88896650754E+00  0.88000000000E+00 0.  1.
        -11    1    4    4    0    0  0.71508135400E-01  0.69787868713E-02  0.22783862663E-01  0.75375608876E-01  0.51100000000E-03 0.  1.
         11    1    4    4    0    0  0.45567735573E-01  0.12933482866E-01  0.30394508656E-01  0.56283041689E-01  0.51100000000E-03 0. -1.
</event>
<event>
 8    1  0.1114686E+005  0.1043930E+01  0.7957747E-01            NaN
         13   -1    0    0    0    0  0.00000000000E+00  0.00000000000E+00  0.74505805969E-08  0.10566000000E+00  0.10566000000E+00 0. -1.
     999900   -1    0    0    0    0 -0.00000000000E+00 -0.00000000000E+00 -0.74505805969E-08  0.93827000000E+00  0.93827000000E+00 0.  1.
     999902    2    1    2    0    0 -0.23737031417E-02  0.16511108587E-01 -0.16188832211E-01  0.10206850121E+01  0.10204202882E+01 0.  0.
     999903    2    3    3    0    0  0.12259051219E+00  0.39911664710E-01  0.12018309444E-01  0.13110124204E+00  0.20535852615E-01 0.  0.
         14    1    1    2    0    0  0.23737031417E-02 -0.16511108587E-01  0.16188832211E-01  0.23244987884E-01  0.00000000000E+00 0. -1.
     999901    1    3    3    0    0 -0.12496421534E+00 -0.23400556123E-01 -0.28207141655E-01  0.88958377008E+00  0.88000000000E+00 0.  1.
        -11    1    4    4    0    0  0.72058904482E-01  0.26383181725E-01  0.16843734027E-01  0.78565453541E-01  0.51100000000E-03 0. -1.
         11    1    4    4    0    0  0.50531607712E-01  0.13528482985E-01 -0.48254245833E-02  0.52535788500E-01  0.51100000000E-03 0.  1.
</event>
<event>
 7    1  0.1114686E+005  0.1043930E+01  0.7957747E-01            NaN
         13   -1    0    0    0    0  0.00000000000E+00  0.00000000000E+00  0.74505805969E-08  0.10566000000E+00  0.10566000000E+00 0.  1.
     999900   -1    0    0    0    0 -0.00000000000E+00 -0.00000000000E+00 -0.74505805969E-08  0.93827000000E+00  0.93827000000E+00 0. -1.
     999902    2    1    2    0    0 -0.95450406965E-03 -0.16689067942E-01  0.16922984125E-01  0.10201429561E+01  0.10198655928E+01 0.  0.
         14    1    1    2    0    0  0.95450406965E-03  0.16689067942E-01 -0.16922984125E-01  0.23787043920E-01  0.00000000000E+00 0. -1.
     999901    1    3    3    0    0 -0.61508281301E-02 -0.13618685090E+00 -0.58248407215E-02  0.89051592901E+00  0.88000000000E+00 0. -1.
        -11    1    3    3    0    0  0.14807403945E-01  0.10407944418E+00  0.31088140576E-01  0.10962902680E+00  0.51100000000E-03 0. -1.
         11    1    3    3    0    0 -0.96110798846E-02  0.15418338785E-01 -0.83403157295E-02  0.19998000273E-01  0.51100000000E-03 0.  1.
</event>
<event>
 8    1  0.1114686E+005  0.1043930E+01  0.7957747E-01            NaN
         13   -1    0    0    0    0  0.00000000000E+00  0.00000000000E+00  0.74505805969E-08  0.10566000000E+00  0.10566000000E+00 0.  1.
     999900   -1    0    0    0    0 -0.00000000000E+00 -0.00000000000E+00 -0.74505805969E-08  0.93827000000E+00  0.93827000000E+00 0.  1.
     999902    2    1    2    0    0 -0.13397728511E-01 -0.16750974217E-01  0.75172432642E-02  0.10212010930E+01  0.10209481227E+01 0.  0.
     999903    2    3    3    0    0  0.97058699227E-01  0.12250631323E-01  0.84159717082E-01  0.13051832999E+00  0.19537334031E-01 0.  0.
         14    1    1    2    0    0  0.13397728511E-01  0.16750974217E-01 -0.75172432642E-02  0.22728906986E-01  0.00000000000E+00 0. -1.
     999901    1    3    3    0    0 -0.11045642774E+00 -0.29001605541E-01 -0.76642473818E-01  0.89068276302E+00  0.88000000000E+00 0. -1.
        -11    1    4    4    0    0  0.39363812550E-01  0.25908621240E-02  0.22050081752E-01  0.45196122968E-01  0.51100000000E-03 0. -1.
         11    1    4    4    0    0  0.57694886677E-01  0.96597691995E-02  0.62109635330E-01  0.85322207024E-01  0.51100000000E-03 0.  1.
</event>
<event>
 8    1  0.1114686E+005  0.1043930E+01  0.7957747E-01            NaN
         13   -1    0    0    0    0  0.00000000000E+00  0.00000000000E+00  0.74505805969E-08  0.10566000000E+00  0.10566000000E+00 0.  1.
     999900   -1    0    0    0    0 -0.00000000000E+00 -0.00000000000E+00 -0.74505805969E-08  0.93827000000E+00  0.93827000000E+00 0.  1.
     999902    2    1    2    0    0 -0.14911764089E-02  0.14829580374E-01  0.17991273493E-01  0.10205670810E+01  0.10202996329E+01 0.  0.
     999903    2    3    3    0    0  0.20542836025E-01  0.10126884954E-01 -0.12504199556E+00  0.12873406465E+00  0.20307556155E-01 0.  0.
         14    1    1    2    0    0  0.14911764089E-02 -0.14829580374E-01 -0.17991273493E-01  0.23362918976E-01  0.00000000000E+00 0. -1.
     999901    1    3    3    0    0 -0.22034012434E-01  0.47026954200E-02  0.14303326905E+00  0.89183301638E+00  0.88000000000E+00 0. -1.
        -11    1    4    4    0    0  0.59136259132E-02  0.82375420504E-02 -0.17890611061E-01  0.20570929868E-01  0.51100000000E-03 0.  1.
         11    1    4    4    0    0  0.14629210111E-01  0.18893429038E-02 -0.10715138449E+00  0.10816313478E+00  0.51100000000E-03 0. -1.
</event>
<event>
 8    1  0.1114686E+005  0.1043930E+01  0.7957747E-01            NaN
         13   -1    0    0    0    0  0.00000000000E+00  0.00000000000E+00  0.74505805969E-08  0.10566000000E+00  0.10566000000E+00 0.  1.
     999900   -1    0    0    0    0 -0.00000000000E+00 -0.00000000000E+00 -0.74505805969E-08  0.93827000000E+00  0.93827000000E+00 0.  1.
     999902    2    1    2    0    0  0.61426313465E-02 -0.48099188952E-02  0.22874447931E-01  0.10197616817E+01  0.10194752473E+01 0.  0.
     999903    2    3    3    0    0  0.51768620483E-01 -0.96811395400E-01  0.71382673805E-01  0.13246294369E+00  0.19962689812E-01 0.  0.
         14    1    1    2    0    0 -0.61426313465E-02  0.48099188952E-02 -0.22874447931E-01  0.24168318266E-01  0.00000000000E+00 0. -1.
     999901    1    3    3    0    0 -0.45625989136E-01  0.92001476505E-01 -0.48508225874E-01  0.88729873805E+00  0.88000000000E+00 0. -1.
        -11    1    4    4    0    0  0.99852329563E-02 -0.37497535370E-01  0.20946402570E-01  0.44099693169E-01  0.51100000000E-03 0.  1.
         11    1    4    4    0    0  0.41783387527E-01 -0.59313860031E-01  0.50436271235E-01  0.88363250518E-01  0.51100000000E-03 0. -1.
</event>
<event>
 8    1  0.1114686E+005  0.1043930E+01  0.7957747E-01            NaN
         13   -1    0    0    0    0  0.00000000000E+00  0.00000000000E+00  0.74505805969E-08  0.10566000000E+00  0.10566000000E+00 0.  1.
     999900   -1    0    0    0    0 -0.00000000000E+00 -0.00000000000E+00 -0.74505805969E-08  0.93827000000E+00  0.93827000000E+00 0.  1.
     999902    2    1    2    0    0 -0.11216904200E-01  0.23043825928E-02 -0.20633153765E-01  0.10203322002E+01  0.10200592839E+01 0.  0.
     999903    2    3    3    0    0 -0.31052009789E-01  0.17820109938E-01  0.12188071563E+00  0.12851138182E+00  0.19454634010E-01 0.  0.
         14    1    1    2    0    0  0.11216904200E-01 -0.23043825928E-02  0.20633153765E-01  0.23597799755E-01  0.00000000000E+00 0.  1.
     999901    1    3    3    0    0  0.19835105589E-01 -0.15515727345E-01 -0.14251386939E+00  0.89182081843E+00  0.88000000000E+00 0.  1.
        -11    1    4    4    0    0 -0.14571189212E-01  0.13767211049E-01  0.91843875723E-01  0.94007522486E-01  0.51100000000E-03 0.  1.
         11    1    4    4    0    0 -0.16480820577E-01  0.40528988886E-02  0.30036839907E-01  0.34503859333E-01  0.51100000000E-03 0. -1.
</event>
<event>
 8    1  0.1114686E+005  0.1043930E+01  0.7957747E-01            NaN
         13   -1    0    0    0    0  0.00000000000E+00  0.00000000000E+00  0.74505805969E-08  0.10566000000E+00  0.10566000000E+00 0.  1.
     999900   -1    0    0    0    0 -0.00000000000E+00 -0.00000000000E+00 -0.74505805969E-08  0.93827000000E+00  0.93827000000E+00 0. -1.
     999902    2    1    2    0    0  0.18016301944E-01 -0.31090828021E-02  0.11216163805E-01  0.10224810872E+01  0.10222560921E+01 0.  0.
     999903    2    3    3    0    0  0.12372100713E+00 -0.39154872522E-01  0.31769862633E-01  0.13518449740E+00  0.20628439537E-01 0.  0.
         14    1    1    2    0    0 -0.18016301944E-01  0.31090828021E-02 -0.11216163805E-01  0.21448912842E-01  0.00000000000E+00 0. -1.
     999901    1    3    3    0    0 -0.10570470519E+00  0.36045789720E-01 -0.20553698828E-01  0.88729658976E+00  0.88000000000E+00 0. -1.
        -11    1    4    4    0    0  0.53293981168E-01 -0.27484690572E-01  0.12778811922E-01  0.61312444085E-01  0.51100000000E-03 0.  1.
         11    1    4    4    0    0  0.70427025966E-01 -0.11670181950E-01  0.18991050711E-01  0.73872053317E-01  0.51100000000E-03 0. -1.
</event>
<event>
 8    1  0.1114686E+005  0.1043930E+01  0.7957747E-01            NaN
         13   -1    0    0    0    0  0.00000000000E+00  0.00000000000E+00  0.74505805969E-08  0.10566000000E+00  0.10566000000E+00 0.  1.
     999900   -1    0    0    0    0 -0.00000000000E+00 -0.00000000000E+00 -0.74505805969E-08  0.93827000000E+00  0.93827000000E+00 0. -1.
     999902    2    1    2    0    0  0.44002487567E-02  0.12908522163E-01  0.19424476292E-01  0.10201960072E+01  0.10199198943E+01 0.  0.
     999903    2    3    3    0    0 -0.52076095830E-01 -0.11618449728E+00  0.36946507658E-02  0.12884758345E+00  0.19424009658E-01 0.  0.
         14    1    1    2    0    0 -0.44002487567E-02 -0.12908522163E-01 -0.19424476292E-01  0.23733992769E-01  0.00000000000E+00 0. -1.
     999901    1    3    3    0    0  0.56476344587E-01  0.12909301944E+00  0.15729825526E-01  0.89134842378E+00  0.88000000000E+00 0.  1.
        -11    1    4    4    0    0 -0.33654980558E-01 -0.51561679335E-01  0.62612642167E-03  0.61578548599E-01  0.51100000000E-03 0.  1.
         11    1    4    4    0    0 -0.18421115272E-01 -0.64622817946E-01  0.30685243442E-02  0.67269034851E-01  0.51100000000E-03 0. -1.
</event>
<event>
 8    1  0.1114686E+005  0.1043930E+01  0.7957747E-01            NaN
         13   -1    0    0    0    0  0.00000000000E+00  0.00000000000E+00  0.74505805969E-08  0.10566000000E+00  0.10566000000E+00 0. -1.
     999900   -1    0    0    0    0 -0.00000000000E+00 -0.00000000000E+00 -0.74505805969E-08  0.93827000000E+00  0.93827000000E+00 0.  1.
     999902    2    1    2    0    0 -0.12800913528E-01  0.18400609193E-01 -0.48042675704E-02  0.10210056288E+01  0.10207482390E+01 0.  0.
     999903    2    3    3    0    0 -0.52317755787E-02  0.11359106553E+00  0.66093009785E-01  0.13300510027E+00  0.19793158152E-01 0.  0.
         14    1    1    2    0    0  0.12800913528E-01 -0.18400609193E-01  0.48042675704E-02  0.22924371152E-01  0.00000000000E+00 0.  1.
     999901    1    3    3    0    0 -0.75691379490E-02 -0.95190456340E-01 -0.70897277355E-01  0.88800052858E+00  0.88000000000E+00 0.  1.
        -11    1    4    4    0    0 -0.11990847132E-01  0.49207502862E-01  0.30565515358E-01  0.59158013852E-01  0.51100000000E-03 0. -1.
         11    1    4    4    0    0  0.67590715532E-02  0.64383562671E-01  0.35527494426E-01  0.73847086413E-01  0.51100000000E-03 0.  1.
</event>
<event>
 7    1  0.1130109E+005  0.1043930E+01  0.7957747E-01            NaN
         13   -1    0    0    0    0  0.00000000000E+00  0.00000000000E+00  0.74505805969E-08  0.10566000000E+00  0.10566000000E+00 0.  1.
     999900   -1    0    0    0    0 -0.00000000000E+00 -0.00000000000E+00 -0.74505805969E-08  0.93827000000E+00  0.93827000000E+00 0.  1.
     999903    2    1    2    0    0 -0.91069069025E-02 -0.84186756235E-01 -0.62096097991E-01  0.10688459150E+00  0.19951061007E-01 0.  0.
         14    1    1    2    0    0  0.42671308733E-01  0.20011813456E-01 -0.17986241077E-01  0.50446190489E-01  0.00000000000E+00 0. -1.
     999901    1    1    2    0    0 -0.33564401831E-01  0.64174942779E-01  0.80082339068E-01  0.88659921801E+00  0.88000000000E+00 0. -1.
        -11    1    3    3    0    0  0.60151101345E-02 -0.15260024658E-01 -0.12571898638E-01  0.20672775790E-01  0.51100000000E-03 0.  1.
         11    1    3    3    0    0 -0.15122017037E-01 -0.68926731576E-01 -0.49524199353E-01  0.86211815708E-01  0.51100000000E-03 0. -1.
</event>
<event>
 8    1  0.1114686E+005  0.1043930E+01  0.7957747E-01            NaN
         13   -1    0    0    0    0  0.00000000000E+00  0.00000000000E+00  0.74505805969E-08  0.10566000000E+00  0.10566000000E+00 0. -1.
     999900   -1    0    0    0    0 -0.00000000000E+00 -0.00000000000E+00 -0.74505805969E-08  0.93827000000E+00  0.93827000000E+00 0. -1.
     999902    2    1    2    0    0  0.23003359780E-01  0.38251371606E-02 -0.51699689504E-02  0.10200445481E+01  0.10197648578E+01 0.  0.
     999903    2    3    3    0    0 -0.89228900941E-01  0.34311327686E-01  0.82810435603E-01  0.12804340470E+00  0.19961995718E-01 0.  0.
         14    1    1    2    0    0 -0.23003359780E-01 -0.38251371606E-02  0.51699689504E-02  0.23885451941E-01  0.00000000000E+00 0.  1.
     999901    1    3    3    0    0  0.11223226072E+00 -0.30486190525E-01 -0.87980404553E-01  0.89200114335E+00  0.88000000000E+00 0. -1.
        -11    1    4    4    0    0 -0.55862819612E-01  0.27915517356E-01  0.43630679725E-01  0.76182859349E-01  0.51100000000E-03 0.  1.
         11    1    4    4    0    0 -0.33366081329E-01  0.63958103295E-02  0.39179755878E-01  0.51860545356E-01  0.51100000000E-03 0. -1.
</event>
<event>
 8    1  0.1114686E+005  0.1043930E+01  0.7957747E-01            NaN
         13   -1    0    0    0    0  0.00000000000E+00  0.00000000000E+00  0.74505805969E-08  0.10566000000E+00  0.10566000000E+00 0.  1.
     999900   -1    0    0    0    0 -0.00000000000E+00 -0.00000000000E+00 -0.74505805969E-08  0.93827000000E+00  0.93827000000E+00 0.  1.
     999902    2    1    2    0    0  0.19175028163E-01 -0.77944659592E-02  0.13795440168E-01  0.10190553226E+01  0.10187516876E+01 0.  0.
     999903    2    3    3    0    0 -0.11471970897E+00  0.47572549074E-01 -0.10607255191E-01  0.12687327926E+00  0.23676065421E-01 0.  0.
         14    1    1    2    0    0 -0.19175028163E-01  0.77944659592E-02 -0.13795440168E-01  0.24874677366E-01  0.00000000000E+00 0. -1.
     999901    1    3    3    0    0  0.13389473714E+00 -0.55367015033E-01  0.24402695359E-01  0.89218204338E+00  0.88000000000E+00 0.  1.
        -11    1    4    4    0    0 -0.34933449536E-01  0.24677705711E-01 -0.97035704749E-02  0.43860636756E-01  0.51100000000E-03 0.  1.
         11    1    4    4    0    0 -0.79786259438E-01  0.22894843363E-01 -0.90368471615E-03  0.83012642500E-01  0.51100000000E-03 0. -1.
</event>
<event>
 8    1  0.1114686E+005  0.1043930E+01  0.7957747E-01            NaN
         13   -1    0    0    0    0  0.00000000000E+00  0.00000000000E+00  0.74505805969E-08  0.10566000000E+00  0.10566000000E+00 0. -1.
     999900   -1    0    0    0    0 -0.00000000000E+00 -0.00000000000E+00 -0.74505805969E-08  0.93827000000E+00  0.93827000000E+00 0. -1.
     999902    2    1    2    0    0 -0.15079595135E-01  0.57165199375E-02  0.87643468958E-02  0.10255755301E+01  0.10254112742E+01 0.  0.
     999903    2    3    3    0    0  0.48958341908E-01 -0.76608903780E-01 -0.94494032065E-01  0.13342048436E+00  0.24618289348E-01 0.  0.
         14    1    1    2    0    0  0.15079595135E-01 -0.57165199375E-02 -0.87643468958E-02  0.18354469923E-01  0.00000000000E+00 0.  1.
     999901    1    3    3    0    0 -0.64037937043E-01  0.82325423718E-01  0.10325837896E+00  0.89215504572E+00  0.88000000000E+00 0.  1.
        -11    1    4    4    0    0  0.36371294696E-01 -0.71565308788E-01 -0.84598341864E-01  0.11662591936E+00  0.51100000000E-03 0.  1.
         11    1    4    4    0    0  0.12587047212E-01 -0.50435949924E-02 -0.98956902006E-02  0.16794564999E-01  0.51100000000E-03 0. -1.
</event>
<event>
 8    1  0.1114686E+005  0.1043930E+01  0.7957747E-01            NaN
         13   -1    0    0    0    0  0.00000000000E+00  0.00000000000E+00  0.74505805969E-08  0.10566000000E+00  0.10566000000E+00 0.  1.
     999900   -1    0    0    0    0 -0.00000000000E+00 -0.00000000000E+00 -0.74505805969E-08  0.93827000000E+00  0.93827000000E+00 0. -1.
     999902    2    1    2    0    0  0.47285458545E-02  0.69426093256E-02 -0.22396984594E-01  0.10200096344E+01  0.10197291162E+01 0.  0.
     999903    2    3    3    0    0 -0.54643972806E-04  0.81822794564E-01 -0.10308967326E+00  0.13313803659E+00  0.20081916217E-01 0.  0.
         14    1    1    2    0    0 -0.47285458545E-02 -0.69426093256E-02  0.22396984594E-01  0.23920365571E-01  0.00000000000E+00 0.  1.
     999901    1    3    3    0    0  0.47831898273E-02 -0.74880185239E-01  0.80692688663E-01  0.88687159784E+00  0.88000000000E+00 0.  1.
        -11    1    4    4    0    0  0.77630287781E-02  0.48879504934E-01 -0.51501600731E-01  0.71429312031E-01  0.51100000000E-03 0.  1.
         11    1    4    4    0    0 -0.78176727509E-02  0.32943289631E-01 -0.51588072527E-01  0.61708724561E-01  0.51100000000E-03 0. -1.
</event>
<event>
 8    1  0.1114686E+005  0.1043930E+01  0.7957747E-01            NaN
         13   -1    0    0    0    0  0.00000000000E+00  0.00000000000E+00  0.74505805969E-08  0.10566000000E+00  0.10566000000E+00 0. -1.
     999900   -1    0    0    0    0 -0.00000000000E+00 -0.00000000000E+00 -0.74505805969E-08  0.93827000000E+00  0.93827000000E+00 0.  1.
     999902    2    1    2    0    0  0.68276301031E-02  0.22850667294E-01 -0.11937160365E-02  0.10200512545E+01  0.10197717231E+01 0.  0.
     999903    2    3    3    0    0 -0.11738210705E+00 -0.43588380353E-01 -0.21454576162E-01  0.12861830228E+00  0.20096340080E-01 0.  0.
         14    1    1    2    0    0 -0.68276301031E-02 -0.22850667294E-01  0.11937160365E-02  0.23878745498E-01  0.00000000000E+00 0. -1.
     999901    1    3    3    0    0  0.12420973716E+00  0.66439047647E-01  0.20260860125E-01  0.89143295222E+00  0.88000000000E+00 0. -1.
        -11    1    4    4    0    0 -0.14827763059E-01 -0.11266215940E-01  0.14211175618E-02  0.18683438523E-01  0.51100000000E-03 0.  1.
         11    1    4    4    0    0 -0.10255434399E+00 -0.32322164413E-01 -0.22875693724E-01  0.10993486376E+00  0.51100000000E-03 0. -1.
</event>
<event>
 8    1  0.1114686E+005  0.1043930E+01  0.7957747E-01            NaN
         13   -1    0    0    0    0  0.00000000000E+00  0.00000000000E+00  0.74505805969E-08  0.10566000000E+00  0.10566000000E+00 0.  1.
     999900   -1    0    0    0    0 -0.00000000000E+00 -0.00000000000E+00 -0.74505805969E-08  0.93827000000E+00  0.93827000000E+00 0. -1.
     999902    2    1    2    0    0  0.13376095054E-01  0.72186422193E-02  0.17849076440E-01  0.10204860617E+01  0.10202167338E+01 0.  0.
     999903    2    3    3    0    0  0.26877874428E-01 -0.12394182222E+00  0.27277542201E-01  0.13061289013E+00  0.15220621856E-01 0.  0.
         14    1    1    2    0    0 -0.13376095054E-01 -0.72186422193E-02 -0.17849076440E-01  0.23443938324E-01  0.00000000000E+00 0. -1.
     999901    1    3    3    0    0 -0.13501779374E-01  0.13116046444E+00 -0.94284657613E-02  0.88987317155E+00  0.88000000000E+00 0.  1.
        -11    1    4    4    0    0  0.16131609095E-01 -0.58958505611E-01  0.61340328733E-02  0.61434694401E-01  0.51100000000E-03 0. -1.
         11    1    4    4    0    0  0.10746265333E-01 -0.64983316609E-01  0.21143509328E-01  0.69178195725E-01  0.51100000000E-03 0.  1.
</event>
<event>
 8    1  0.1114686E+005  0.1043930E+01  0.7957747E-01            NaN
         13   -1    0    0    0    0  0.00000000000E+00  0.00000000000E+00  0.74505805969E-08  0.10566000000E+00  0.10566000000E+00 0. -1.
     999900   -1    0    0    0    0 -0.00000000000E+00 -0.00000000000E+00 -0.74505805969E-08  0.93827000000E+00  0.93827000000E+00 0. -1.
     999902    2    1    2    0    0 -0.10816546962E-01  0.25431506354E-02 -0.20774737317E-01  0.10203703944E+01  0.10200983712E+01 0.  0.
     999903    2    3    3    0    0 -0.53251247970E-01 -0.95095905038E-01  0.67154577736E-01  0.12960350379E+00  0.20209015764E-01 0.  0.
         14    1    1    2    0    0  0.10816546962E-01 -0.25431506354E-02  0.20774737317E-01  0.23559605555E-01  0.00000000000E+00 0. -1.
     999901    1    3    3    0    0  0.42434701008E-01  0.97639055673E-01 -0.87929315054E-01  0.89076689066E+00  0.88000000000E+00 0. -1.
        -11    1    4    4    0    0 -0.30176539988E-01 -0.63583342545E-01  0.33080112802E-01  0.77769016960E-01  0.51100000000E-03 0. -1.
         11    1    4    4    0    0 -0.23074707982E-01 -0.31512562492E-01  0.34074464935E-01  0.51834486829E-01  0.51100000000E-03 0.  1.
</event>
<event>
 8    1  0.1114686E+005  0.1043930E+01  0.7957747E-01            NaN
         13   -1    0    0    0    0  0.00000000000E+00  0.00000000000E+00  0.74505805969E-08  0.10566000000E+00  0.10566000000E+00 0. -1.
     999900   -1    0    0    0    0 -0.00000000000E+00 -0.00000000000E+00 -0.74505805969E-08  0.93827000000E+00  0.93827000000E+00 0. -1.
     999902    2    1    2    0    0 -0.17140394342E-01  0.14709078998E-01  0.80128706038E-02  0.10199642699E+01  0.10196826740E+01 0.  0.
     999903    2    3    3    0    0  0.43503603383E-01  0.12157306045E+00 -0.12311888539E-01  0.13119506431E+00  0.19697455805E-01 0.  0.
         14    1    1    2    0    0  0.17140394342E-01 -0.14709078998E-01 -0.80128706038E-02  0.23965730084E-01  0.00000000000E+00 0.  1.
     999901    1    3    3    0    0 -0.60643997725E-01 -0.10686398146E+00  0.20324759142E-01  0.88876920560E+00  0.88000000000E+00 0.  1.
        -11    1    4    4    0    0  0.28752503671E-01  0.66827494196E-01 -0.15575670953E-01  0.74400827244E-01  0.51100000000E-03 0. -1.
         11    1    4    4    0    0  0.14751099712E-01  0.54745566258E-01  0.32637824149E-02  0.56794237069E-01  0.51100000000E-03 0.  1.
</event>
<event>
 8    1  0.1114686E+005  0.1043930E+01  0.7957747E-01            NaN
         13   -1    0    0    0    0  0.00000000000E+00  0.00000000000E+00  0.74505805969E-08  0.10566000000E+00  0.10566000000E+00 0. -1.
     999900   -1    0    0    0    0 -0.00000000000E+00 -0.00000000000E+00 -0.74505805969E-08  0.93827000000E+00  0.93827000000E+00 0. -1.
     999902    2    1    2    0    0  0.35516465505E-02  0.27111868420E-01 -0.58867838226E-02  0.10159599834E+01  0.10155748944E+01 0.  0.
     999903    2    3    3    0    0 -0.81400119978E-02 -0.66546998180E-01  0.10243163920E+00  0.12430895365E+00  0.21580372681E-01 0.  0.
         14    1    1    2    0    0 -0.35516465505E-02 -0.27111868420E-01  0.58867838226E-02  0.27970016557E-01  0.00000000000E+00 0.  1.
     999901    1    3    3    0    0  0.11691658548E-01  0.93658866600E-01 -0.10831842302E+00  0.89165102980E+00  0.88000000000E+00 0. -1.
        -11    1    4    4    0    0 -0.83213146911E-02 -0.19646667657E-01  0.47518495687E-01  0.52091308119E-01  0.51100000000E-03 0.  1.
         11    1    4    4    0    0  0.18130269328E-03 -0.46900330523E-01  0.54913143514E-01  0.72217645527E-01  0.51100000000E-03 0. -1.
</event>
<event>
 8    1  0.1114686E+005  0.1043930E+01  0.7957747E-01            NaN
         13   -1    0    0    0    0  0.00000000000E+00  0.00000000000E+00  0.74505805969E-08  0.10566000000E+00  0.10566000000E+00 0.  1.
     999900   -1    0    0    0    0 -0.00000000000E+00 -0.00000000000E+00 -0.74505805969E-08  0.93827000000E+00  0.93827000000E+00 0. -1.
     999902    2    1    2    0    0  0.23709542867E-01 -0.16627795409E-02  0.82675685297E-03  0.10201478473E+01  0.10198705995E+01 0.  0.
     999903    2    3    3    0    0 -0.70032795274E-01  0.56290274057E-01  0.90230282038E-01  0.12877857890E+00  0.19215390184E-01 0.  0.
         14    1    1    2    0    0 -0.23709542867E-01  0.16627795409E-02 -0.82675685297E-03  0.23782152671E-01  0.00000000000E+00 0.  1.
     999901    1    3    3    0    0  0.93742338141E-01 -0.57953053598E-01 -0.89403525185E-01  0.89136926843E+00  0.88000000000E+00 0. -1.
        -11    1    4    4    0    0 -0.48883308998E-01  0.29437000364E-01  0.63575010535E-01  0.85429257135E-01  0.51100000000E-03 0. -1.
         11    1    4    4    0    0 -0.21149486276E-01  0.26853273692E-01  0.26655271503E-01  0.43349321767E-01  0.51100000000E-03 0.  1.
</event>
<event>
 8    1  0.1114686E+005  0.1043930E+01  0.7957747E-01            NaN
         13   -1    0    0    0    0  0.00000000000E+00  0.00000000000E+00  0.74505805969E-08  0.10566000000E+00  0.10566000000E+00 0. -1.
     999900   -1    0    0    0    0 -0.00000000000E+00 -0.00000000000E+00 -0.74505805969E-08  0.93827000000E+00  0.93827000000E+00 0.  1.
     999902    2    1    2    0    0  0.12682751420E-01  0.17416288625E-01 -0.78921208343E-02  0.10209851778E+01  0.10207273233E+01 0.  0.
     999903    2    3    3    0    0 -0.13117784976E-01  0.11607858252E+00  0.59472309054E-01  0.13253828447E+00  0.19573648143E-01 0.  0.
         14    1    1    2    0    0 -0.12682751420E-01 -0.17416288625E-01  0.78921208343E-02  0.22944822168E-01  0.00000000000E+00 0. -1.
     999901    1    3    3    0    0  0.25800536396E-01 -0.98662293900E-01 -0.67364429889E-01  0.88844689337E+00  0.88000000000E+00 0.  1.
        -11    1    4    4    0    0 -0.16578479222E-01  0.84533113405E-01  0.37601978074E-01  0.93993952525E-01  0.51100000000E-03 0.  1.
         11    1    4    4    0    0  0.34606942466E-02  0.31545469120E-01  0.21870330980E-01  0.38544331942E-01  0.51100000000E-03 0. -1.
</event>
<event>
 8    1  0.1114686E+005  0.1043930E+01  0.7957747E-01            NaN
         13   -1    0    0    0    0  0.00000000000E+00  0.00000000000E+00  0.74505805969E-08  0.10566000000E+00  0.10566000000E+00 0.  1.
     999900   -1    0    0    0    0 -0.00000000000E+00 -0.00000000000E+00 -0.74505805969E-08  0.93827000000E+00  0.93827000000E+00 0.  1.
     999902    2    1    2    0    0  0.79402629714E-02 -0.22103823306E-01 -0.16767698469E-01  0.10150720290E+01  0.10146617375E+01 0.  0.
     999903    2    3    3    0    0  0.56715193634E-01  0.10677207426E+00  0.17236639287E-01  0.12369989241E+00  0.19689403681E-01 0.  0.
         14    1    1    2    0    0 -0.79402629714E-02  0.22103823306E-01  0.16767698469E-01  0.28857971043E-01  0.00000000000E+00 0.  1.
     999901    1    3    3    0    0 -0.48774930662E-01 -0.12887589756E+00 -0.34004337756E-01  0.89137213655E+00  0.88000000000E+00 0.  1.
        -11    1    4    4    0    0  0.39004614506E-01  0.67634539111E-01  0.20164134353E-01  0.80638974874E-01  0.51100000000E-03 0. -1.
         11    1    4    4    0    0  0.17710579128E-01  0.39137535146E-01 -0.29274950661E-02  0.43060917532E-01  0.51100000000E-03 0.  1.
</event>
<event>
 8    1  0.1114686E+005  0.1043930E+01  0.7957747E-01            NaN
         13   -1    0    0    0    0  0.00000000000E+00  0.00000000000E+00  0.74505805969E-08  0.10566000000E+00  0.10566000000E+00 0. -1.
     999900   -1    0    0    0    0 -0.00000000000E+00 -0.00000000000E+00 -0.74505805969E-08  0.93827000000E+00  0.93827000000E+00 0. -1.
     999902    2    1    2    0    0  0.81665403971E-02  0.16071241124E-01  0.15610898315E-01  0.10200830438E+01  0.10198042650E+01 0.  0.
     999903    2    3    3    0    0  0.11413967110E+00  0.25172065130E-01  0.59436209569E-01  0.13259569892E+00  0.19683977800E-01 0.  0.
         14    1    1    2    0    0 -0.81665403971E-02 -0.16071241124E-01 -0.15610898315E-01  0.23846956190E-01  0.00000000000E+00 0.  1.
     999901    1    3    3    0    0 -0.10597313071E+00 -0.91008240054E-02 -0.43825311254E-01  0.88748734489E+00  0.88000000000E+00 0. -1.
        -11    1    4    4    0    0  0.23957037780E-01  0.13120062694E-01  0.10354214184E-01  0.29215519448E-01  0.51100000000E-03 0. -1.
         11    1    4    4    0    0  0.90182633324E-01  0.12052002436E-01  0.49081995385E-01  0.10338017947E+00  0.51100000000E-03 0.  1.
</event>
<event>
 8    1  0.1114686E+005  0.1043930E+01  0.7957747E-01            NaN
         13   -1    0    0    0    0  0.00000000000E+00  0.00000000000E+00  0.74505805969E-08  0.10566000000E+00  0.10566000000E+00 0.  1.
     999900   -1    0    0    0    0 -0.00000000000E+00 -0.00000000000E+00 -0.74505805969E-08  0.93827000000E+00  0.93827000000E+00 0.  1.
     999902    2    1    2    0    0 -0.51445030510E-02 -0.93681300611E-02  0.21375859064E-01  0.10200311481E+01  0.10197511402E+01 0.  0.
     999903    2    3    3    0    0  0.74974695881E-01  0.74716589662E-01 -0.68832914762E-01  0.12782772452E+00  0.19954528534E-01 0.  0.
         14    1    1    2    0    0  0.51445030510E-02  0.93681300611E-02 -0.21375859064E-01  0.23898851922E-01  0.00000000000E+00 0. -1.
     999901    1    3    3    0    0 -0.80119198932E-01 -0.84084719723E-01  0.90208773825E-01  0.89220342356E+00  0.88000000000E+00 0.  1.
        -11    1    4    4    0    0  0.15475463906E-01  0.13331107757E-01 -0.47265621764E-02  0.20971645814E-01  0.51100000000E-03 0.  1.
         11    1    4    4    0    0  0.59499231975E-01  0.61385481904E-01 -0.64106352585E-01  0.10685607871E+00  0.51100000000E-03 0. -1.
</event>
<event>
 8    1  0.1114686E+005  0.1043930E+01  0.7957747E-01            NaN
         13   -1    0    0    0    0  0.00000000000E+00  0.00000000000E+00  0.74505805969E-08  0.10566000000E+00  0.10566000000E+00 0.  1.
     999900   -1    0    0    0    0 -0.00000000000E+00 -0.00000000000E+00 -0.74505805969E-08  0.93827000000E+00  0.93827000000E+00 0.  1.
     999902    2    1    2    0    0  0.46269137153E-02  0.21886227539E-01 -0.80176371360E-02  0.10201666292E+01  0.10198898242E+01 0.  0.
     999903    2    3    3    0    0 -0.12762533301E+00  0.59187987021E-02 -0.13938598292E-01  0.13012130826E+00  0.20347298013E-01 0.  0.
         14    1    1    2    0    0 -0.46269137153E-02 -0.21886227539E-01  0.80176371360E-02  0.23763370797E-01  0.00000000000E+00 0.  1.
     999901    1    3    3    0    0  0.13225224673E+00  0.15967428837E-01  0.59209611558E-02  0.89004532094E+00  0.88000000000E+00 0. -1.
        -11    1    4    4    0    0 -0.10620111961E+00  0.56095569749E-02 -0.38167177809E-02  0.10641885825E+00  0.51100000000E-03 0.  1.
         11    1    4    4    0    0 -0.21424213402E-01  0.30924172715E-03 -0.10121880511E-01  0.23702450009E-01  0.51100000000E-03 0. -1.
</event>
<event>
 8    1  0.1114686E+005  0.1043930E+01  0.7957747E-01            NaN
         13   -1    0    0    0    0  0.00000000000E+00  0.00000000000E+00  0.74505805969E-08  0.10566000000E+00  0.10566000000E+00 0. -1.
     999900   -1    0    0    0    0 -0.00000000000E+00 -0.00000000000E+00 -0.74505805969E-08  0.93827000000E+00  0.93827000000E+00 0. -1.
     999902    2    1    2    0    0 -0.37667498509E-03 -0.10043769050E-01  0.24639786451E-01  0.10173191327E+01  0.10169710318E+01 0.  0.
     999903    2    3    3    0    0  0.10441865901E-01  0.48386170401E-01 -0.11269110767E+00  0.12468770087E+00  0.19936974489E-01 0.  0.
         14    1    1    2    0    0  0.37667498509E-03  0.10043769050E-01 -0.24639786451E-01  0.26610867275E-01  0.00000000000E+00 0.  1.
     999901    1    3    3    0    0 -0.10818540887E-01 -0.58429939451E-01  0.13733089412E+00  0.89263143185E+00  0.88000000000E+00 0. -1.
        -11    1    4    4    0    0  0.37545040134E-02  0.31787544094E-01 -0.49015806147E-01  0.58543613086E-01  0.51100000000E-03 0.  1.
         11    1    4    4    0    0  0.66873618880E-02  0.16598626307E-01 -0.63675301521E-01  0.66144087787E-01  0.51100000000E-03 0. -1.
</event>
<event>
 8    1  0.1114686E+005  0.1043930E+01  0.7957747E-01            NaN
         13   -1    0    0    0    0  0.00000000000E+00  0.00000000000E+00  0.74505805969E-08  0.10566000000E+00  0.10566000000E+00 0.  1.
     999900   -1    0    0    0    0 -0.00000000000E+00 -0.00000000000E+00 -0.74505805969E-08  0.93827000000E+00  0.93827000000E+00 0. -1.
     999902    2    1    2    0    0  0.14781963452E-01 -0.80962183553E-02  0.15571769552E-01  0.10209836451E+01  0.10207257557E+01 0.  0.
     999903    2    3    3    0    0 -0.46354873870E-01  0.92008629001E-01 -0.74315193958E-01  0.12866175278E+00  0.20414123393E-01 0.  0.
         14    1    1    2    0    0 -0.14781963452E-01  0.80962183553E-02 -0.15571769552E-01  0.22946354877E-01  0.00000000000E+00 0. -1.
     999901    1    3    3    0    0  0.61136837322E-01 -0.10010484736E+00  0.89886963510E-01  0.89232189234E+00  0.88000000000E+00 0.  1.
        -11    1    4    4    0    0 -0.30487382021E-01  0.55378579799E-01 -0.33409048091E-01  0.71503099083E-01  0.51100000000E-03 0.  1.
         11    1    4    4    0    0 -0.15867491849E-01  0.36630049202E-01 -0.40906145867E-01  0.57158653699E-01  0.51100000000E-03 0. -1.
</event>
<event>
 8    1  0.1114686E+005  0.1043930E+01  0.7957747E-01            NaN
         13   -1    0    0    0    0  0.00000000000E+00  0.00000000000E+00  0.74505805969E-08  0.10566000000E+00  0.10566000000E+00 0. -1.
     999900   -1    0    0    0    0 -0.00000000000E+00 -0.00000000000E+00 -0.74505805969E-08  0.93827000000E+00  0.93827000000E+00 0.  1.
     999902    2    1    2    0    0  0.67873245769E-02  0.14035810792E-01 -0.17102951554E-01  0.10207873400E+01  0.10205249682E+01 0.  0.
     999903    2    3    3    0    0 -0.34714964361E-01 -0.28518280677E-01  0.11853093534E+00  0.12841418826E+00  0.20547506695E-01 0.  0.
         14    1    1    2    0    0 -0.67873245769E-02 -0.14035810792E-01  0.17102951554E-01  0.23142659989E-01  0.00000000000E+00 0. -1.
     999901    1    3    3    0    0  0.41502288938E-01  0.42554091469E-01 -0.13563388689E+00  0.89237315175E+00  0.88000000000E+00 0.  1.
        -11    1    4    4    0    0 -0.94736223815E-02 -0.17878287171E-01  0.34151926470E-01  0.39698839729E-01  0.51100000000E-03 0.  1.
         11    1    4    4    0    0 -0.25241341980E-01 -0.10639993506E-01  0.84379008869E-01  0.88715348534E-01  0.51100000000E-03 0. -1.
</event>
<event>
 8    1  0.1114686E+005  0.1043930E+01  0.7957747E-01            NaN
         13   -1    0    0    0    0  0.00000000000E+00  0.00000000000E+00  0.74505805969E-08  0.10566000000E+00  0.10566000000E+00 0. -1.
     999900   -1    0    0    0    0 -0.00000000000E+00 -0.00000000000E+00 -0.74505805969E-08  0.93827000000E+00  0.93827000000E+00 0. -1.
     999902    2    1    2    0    0 -0.16612791040E-01  0.72861067503E-03  0.18990996639E-01  0.10186877011E+01  0.10183749107E+01 0.  0.
     999903    2    3    3    0    0 -0.29626177341E-01  0.40463144905E-02  0.12701359817E+00  0.13198073835E+00  0.19808536795E-01 0.  0.
         14    1    1    2    0    0  0.16612791040E-01 -0.72861067503E-03 -0.18990996639E-01  0.25242298885E-01  0.00000000000E+00 0.  1.
     999901    1    3    3    0    0  0.13013386301E-01 -0.33177038155E-02 -0.10802260153E+00  0.88670696277E+00  0.88000000000E+00 0. -1.
        -11    1    4    4    0    0 -0.17463261173E-01 -0.19371781277E-02  0.37144697594E-01  0.41093890425E-01  0.51100000000E-03 0. -1.
         11    1    4    4    0    0 -0.12162916167E-01  0.59834926182E-02  0.89868900575E-01  0.90886847922E-01  0.51100000000E-03 0.  1.
</event>
<event>
 8    1  0.1114686E+005  0.1043930E+01  0.7957747E-01            NaN
         13   -1    0    0    0    0  0.00000000000E+00  0.00000000000E+00  0.74505805969E-08  0.10566000000E+00  0.10566000000E+00 0.  1.
     999900   -1    0    0    0    0 -0.00000000000E+00 -0.00000000000E+00 -0.74505805969E-08  0.93827000000E+00  0.93827000000E+00 0. -1.
     999902    2    1    2    0    0  0.34427579293E-02 -0.21561907722E-01  0.60697831587E-02  0.10212670189E+01  0.10210155303E+01 0.  0.
     999903    2    3    3    0    0  0.11615664160E+00 -0.51235271623E-01 -0.33147506757E-01  0.13271599391E+00  0.19933875413E-01 0.  0.
         14    1    1    2    0    0 -0.34427579293E-02  0.21561907722E-01 -0.60697831587E-02  0.22662981144E-01  0.00000000000E+00 0.  1.
     999901    1    3    3    0    0 -0.11271388368E+00  0.29673363901E-01  0.39217289915E-01  0.88855102494E+00  0.88000000000E+00 0.  1.
        -11    1    4    4    0    0  0.71258223648E-01 -0.20722827134E-01 -0.18316652296E-01  0.76439066414E-01  0.51100000000E-03 0.  1.
         11    1    4    4    0    0  0.44898417957E-01 -0.30512444489E-01 -0.14830854460E-01  0.56276927499E-01  0.51100000000E-03 0. -1.
</event>
<event>
 8    1  0.1114686E+005  0.1043930E+01  0.7957747E-01            NaN
         13   -1    0    0    0    0  0.00000000000E+00  0.00000000000E+00  0.74505805969E-08  0.10566000000E+00  0.10566000000E+00 0.  1.
     999900   -1    0    0    0    0 -0.00000000000E+00 -0.00000000000E+00 -0.74505805969E-08  0.93827000000E+00  0.93827000000E+00 0. -1.
     999902    2    1    2    0    0 -0.51449064945E-02  0.10779873116E-01  0.20501651873E-01  0.10202025168E+01  0.10199265571E+01 0.  0.
     999903    2    3    3    0    0  0.27326377635E-01 -0.11863767782E+00 -0.35174180721E-01  0.12840484634E+00  0.20711157899E-01 0.  0.
         14    1    1    2    0    0  0.51449064945E-02 -0.10779873116E-01 -0.20501651873E-01  0.23727483153E-01  0.00000000000E+00 0. -1.
     999901    1    3    3    0    0 -0.32471284129E-01  0.12941755094E+00  0.55675832594E-01  0.89179767051E+00  0.88000000000E+00 0.  1.
        -11    1    4    4    0    0  0.68253399465E-02 -0.51815677956E-01 -0.24402066091E-01  0.57681640909E-01  0.51100000000E-03 0.  1.
         11    1    4    4    0    0  0.20501037688E-01 -0.66821999864E-01 -0.10772114630E-01  0.70723205433E-01  0.51100000000E-03 0. -1.
</event>
<event>
 8    1  0.1114686E+005  0.1043930E+01  0.7957747E-01            NaN
         13   -1    0    0    0    0  0.00000000000E+00  0.00000000000E+00  0.74505805969E-08  0.10566000000E+00  0.10566000000E+00 0. -1.
     999900   -1    0    0    0    0 -0.00000000000E+00 -0.00000000000E+00 -0.74505805969E-08  0.93827000000E+00  0.93827000000E+00 0. -1.
     999902    2    1    2    0    0 -0.12590431810E-01  0.17971038568E-01 -0.14963007285E-01  0.10173712201E+01  0.10170244986E+01 0.  0.
     999903    2    3    3    0    0  0.10224997438E+00 -0.62134404819E-01  0.30765683398E-01  0.12512892452E+00  0.19874077413E-01 0.  0.
         14    1    1    2    0    0  0.12590431810E-01 -0.17971038568E-01  0.14963007285E-01  0.26558779855E-01  0.00000000000E+00 0.  1.
     999901    1    3    3    0    0 -0.11484040619E+00  0.80105443388E-01 -0.45728690684E-01  0.89224229563E+00  0.88000000000E+00 0. -1.
        -11    1    4    4    0    0  0.24548776937E-01 -0.25234192737E-01  0.71656210308E-02  0.35930685742E-01  0.51100000000E-03 0. -1.
         11    1    4    4    0    0  0.77701197444E-01 -0.36900212083E-01  0.23600062368E-01  0.89198238776E-01  0.51100000000E-03 0.  1.
</event>
<event>
 8    1  0.1114686E+005  0.1043930E+01  0.7957747E-01            NaN
         13   -1    0    0    0    0  0.00000000000E+00  0.00000000000E+00  0.74505805969E-08  0.10566000000E+00  0.10566000000E+00 0.  1.
     999900   -1    0    0    0    0 -0.00000000000E+00 -0.00000000000E+00 -0.74505805969E-08  0.93827000000E+00  0.93827000000E+00 0.  1.
     999902    2    1    2    0    0 -0.80522945929E-02  0.56077768350E-04  0.19325798070E-01  0.10229936903E+01  0.10227794295E+01 0.  0.
     999903    2    3    3    0    0  0.64045902873E-01  0.10538739436E+00 -0.41148817767E-01  0.13173053303E+00  0.21244471414E-01 0.  0.
         14    1    1    2    0    0  0.80522945929E-02 -0.56077768350E-04 -0.19325798070E-01  0.20936309703E-01  0.00000000000E+00 0. -1.
     999901    1    3    3    0    0 -0.72098197466E-01 -0.10533131659E+00  0.60474615837E-01  0.89126315726E+00  0.88000000000E+00 0. -1.
        -11    1    4    4    0    0  0.45991228269E-01  0.56924750237E-01 -0.28078595555E-01  0.78385514712E-01  0.51100000000E-03 0. -1.
         11    1    4    4    0    0  0.18054674604E-01  0.48462644121E-01 -0.13070222212E-01  0.53345018323E-01  0.51100000000E-03 0.  1.
</event>
<event>
 8    1  0.1114686E+005  0.1043930E+01  0.7957747E-01            NaN
         13   -1    0    0    0    0  0.00000000000E+00  0.00000000000E+00  0.74505805969E-08  0.10566000000E+00  0.10566000000E+00 0. -1.
     999900   -1    0    0    0    0 -0.00000000000E+00 -0.00000000000E+00 -0.74505805969E-08  0.93827000000E+00  0.93827000000E+00 0. -1.
     999902    2    1    2    0    0  0.38810345030E-02  0.27086346296E-01 -0.41802134575E-02  0.10162495598E+01  0.10158725122E+01 0.  0.
     999903    2    3    3    0    0  0.14841982568E-01  0.33601129515E-01 -0.12133114497E+00  0.12839432074E+00  0.20360120522E-01 0.  0.
         14    1    1    2    0    0 -0.38810345030E-02 -0.27086346296E-01  0.41802134575E-02  0.27680440189E-01  0.00000000000E+00 0. -1.
     999901    1    3    3    0    0 -0.10960948065E-01 -0.65147832184E-02  0.11715093152E+00  0.88785523907E+00  0.88000000000E+00 0.  1.
        -11    1    4    4    0    0  0.18136257988E-01  0.16542246130E-01 -0.67515002752E-01  0.71840841298E-01  0.51100000000E-03 0.  1.
         11    1    4    4    0    0 -0.32942754203E-02  0.17058883385E-01 -0.53816142221E-01  0.56553479446E-01  0.51100000000E-03 0. -1.
</event>
<event>
 8    1  0.1114686E+005  0.1043930E+01  0.7957747E-01            NaN
         13   -1    0    0    0    0  0.00000000000E+00  0.00000000000E+00  0.74505805969E-08  0.10566000000E+00  0.10566000000E+00 0. -1.
     999900   -1    0    0    0    0 -0.00000000000E+00 -0.00000000000E+00 -0.74505805969E-08  0.93827000000E+00  0.93827000000E+00 0. -1.
     999902    2    1    2    0    0 -0.19468744028E-01  0.12981965321E-01 -0.92371839603E-02  0.10187727151E+01  0.10184620543E+01 0.  0.
     999903    2    3    3    0    0  0.23263709464E-01  0.11752969595E+00 -0.48171538423E-01  0.13070054766E+00  0.20191741800E-01 0.  0.
         14    1    1    2    0    0  0.19468744028E-01 -0.12981965321E-01  0.92371839603E-02  0.25157284932E-01  0.00000000000E+00 0.  1.
     999901    1    3    3    0    0 -0.42732453492E-01 -0.10454773063E+00  0.38934354463E-01  0.88807216740E+00  0.88000000000E+00 0.  1.
        -11    1    4    4    0    0  0.25702292733E-01  0.95436999686E-01 -0.43472654919E-01  0.10797667159E+00  0.51100000000E-03 0. -1.
         11    1    4    4    0    0 -0.24385832688E-02  0.22092696266E-01 -0.46988835049E-02  0.22723876074E-01  0.51100000000E-03 0.  1.
</event>
<event>
 8    1  0.1114686E+005  0.1043930E+01  0.7957747E-01            NaN
         13   -1    0    0    0    0  0.00000000000E+00  0.00000000000E+00  0.74505805969E-08  0.10566000000E+00  0.10566000000E+00 0.  1.
     999900   -1    0    0    0    0 -0.00000000000E+00 -0.00000000000E+00 -0.74505805969E-08  0.93827000000E+00  0.93827000000E+00 0. -1.
     999902    2    1    2    0    0 -0.87738445329E-02  0.10356555112E-01  0.18987446152E-01  0.10205898695E+01  0.10203229489E+01 0.  0.
     999903    2    3    3    0    0  0.30621539473E-01 -0.73318413399E-01 -0.98255785629E-01  0.12800963665E+00  0.20469470959E-01 0.  0.
         14    1    1    2    0    0  0.87738445329E-02 -0.10356555112E-01 -0.18987446152E-01  0.23340130527E-01  0.00000000000E+00 0. -1.
     999901    1    3    3    0    0 -0.39395384006E-01  0.83674968511E-01  0.11724323178E+00  0.89258023283E+00  0.88000000000E+00 0.  1.
        -11    1    4    4    0    0  0.13400832323E-01 -0.13550805166E-01 -0.16036201206E-01  0.24912396467E-01  0.51100000000E-03 0. -1.
         11    1    4    4    0    0  0.17220707150E-01 -0.59767608233E-01 -0.82219584423E-01  0.10309724018E+00  0.51100000000E-03 0.  1.
</event>
<event>
 8    1  0.1114686E+005  0.1043930E+01  0.7957747E-01            NaN
         13   -1    0    0    0    0  0.00000000000E+00  0.00000000000E+00  0.74505805969E-08  0.10566000000E+00  0.10566000000E+00 0. -1.
     999900   -1    0    0    0    0 -0.00000000000E+00 -0.00000000000E+00 -0.74505805969E-08  0.93827000000E+00  0.93827000000E+00 0.  1.
     999902    2    1    2    0    0 -0.61634450909E-02  0.14525125453E-01  0.18117484402E-01  0.10199047931E+01  0.10196217811E+01 0.  0.
     999903    2    3    3    0    0 -0.12211371248E+00 -0.29447845808E-02 -0.39682634666E-01  0.13024726573E+00  0.21661214318E-01 0.  0.
         14    1    1    2    0    0  0.61634450909E-02 -0.14525125453E-01 -0.18117484402E-01  0.24025206885E-01  0.00000000000E+00 0.  1.
     999901    1    3    3    0    0  0.11595026739E+00  0.17469910034E-01  0.57800119069E-01  0.88965752738E+00  0.88000000000E+00 0.  1.
        -11    1    4    4    0    0 -0.83424673143E-01 -0.12077875777E-01 -0.26521858993E-01  0.88369798561E-01  0.51100000000E-03 0. -1.
         11    1    4    4    0    0 -0.38689039334E-01  0.91330911966E-02 -0.13160775674E-01  0.41877467172E-01  0.51100000000E-03 0.  1.
</event>
<event>
 8    1  0.1114686E+005  0.1043930E+01  0.7957747E-01            NaN
         13   -1    0    0    0    0  0.00000000000E+00  0.00000000000E+00  0.74505805969E-08  0.10566000000E+00  0.10566000000E+00 0. -1.
     999900   -1    0    0    0    0 -0.00000000000E+00 -0.00000000000E+00 -0.74505805969E-08  0.93827000000E+00  0.93827000000E+00 0. -1.
     999902    2    1    2    0    0  0.93424826706E-02 -0.19285635362E-01  0.99083036472E-02  0.10203208451E+01  0.10200476630E+01 0.  0.
     999903    2    3    3    0    0 -0.11041458133E+00 -0.60095563460E-01  0.25256172218E-01  0.13113989519E+00  0.27512567275E-01 0.  0.
         14    1    1    2    0    0 -0.93424826706E-02  0.19285635362E-01 -0.99083036472E-02  0.23609154897E-01  0.00000000000E+00 0.  1.
     999901    1    3    3    0    0  0.11975706400E+00  0.40809928097E-01 -0.15347868570E-01  0.88918094991E+00  0.88000000000E+00 0. -1.
        -11    1    4    4    0    0 -0.92536481327E-01 -0.60569289875E-01  0.24216080533E-01  0.11321801504E+00  0.51100000000E-03 0.  1.
         11    1    4    4    0    0 -0.17878100007E-01  0.47372641492E-03  0.10400916848E-02  0.17921880155E-01  0.51100000000E-03 0. -1.
</event>
<event>
 8    1  0.1114686E+005  0.1043930E+01  0.7957747E-01            NaN
         13   -1    0    0    0    0  0.00000000000E+00  0.00000000000E+00  0.74505805969E-08  0.10566000000E+00  0.10566000000E+00 0. -1.
     999900   -1    0    0    0    0 -0.00000000000E+00 -0.00000000000E+00 -0.74505805969E-08  0.93827000000E+00  0.93827000000E+00 0. -1.
     999902    2    1    2    0    0  0.17548050503E-01  0.13273304159E-01  0.79774955244E-02  0.10205258313E+01  0.10202574269E+01 0.  0.
     999903    2    3    3    0    0  0.94280490439E-01 -0.69900681038E-02  0.91443515771E-01  0.13302087458E+00  0.19873715492E-01 0.  0.
         14    1    1    2    0    0 -0.17548050503E-01 -0.13273304159E-01 -0.79774955244E-02  0.23404168743E-01  0.00000000000E+00 0.  1.
     999901    1    3    3    0    0 -0.76732439936E-01  0.20263372262E-01 -0.83466020246E-01  0.88750495668E+00  0.88000000000E+00 0. -1.
        -11    1    4    4    0    0  0.77134389144E-01  0.15630295591E-02  0.77172666812E-01  0.10912396013E+00  0.51100000000E-03 0. -1.
         11    1    4    4    0    0  0.17146101295E-01 -0.85530976629E-02  0.14270848959E-01  0.23896914450E-01  0.51100000000E-03 0.  1.
</event>
<event>
 8    1  0.1114686E+005  0.1043930E+01  0.7957747E-01            NaN
         13   -1    0    0    0    0  0.00000000000E+00  0.00000000000E+00  0.74505805969E-08  0.10566000000E+00  0.10566000000E+00 0.  1.
     999900   -1    0    0    0    0 -0.00000000000E+00 -0.00000000000E+00 -0.74505805969E-08  0.93827000000E+00  0.93827000000E+00 0. -1.
     999902    2    1    2    0    0 -0.83230544756E-02  0.87820233349E-02 -0.21300226490E-01  0.10194331264E+01  0.10191387552E+01 0.  0.
     999903    2    3    3    0    0 -0.40707018487E-01 -0.51765943379E-01 -0.11255109831E+00  0.13205412108E+00  0.20827071739E-01 0.  0.
         14    1    1    2    0    0  0.83230544756E-02 -0.87820233349E-02  0.21300226490E-01  0.24496873641E-01  0.00000000000E+00 0.  1.
     999901    1    3    3    0    0  0.32383964011E-01  0.60547966714E-01  0.91250871815E-01  0.88737900528E+00  0.88000000000E+00 0.  1.
        -11    1    4    4    0    0 -0.34005657931E-01 -0.34069672367E-01 -0.65090451050E-01  0.80957737650E-01  0.51100000000E-03 0.  1.
         11    1    4    4    0    0 -0.67013605562E-02 -0.17696271012E-01 -0.47460647255E-01  0.51096383432E-01  0.51100000000E-03 0. -1.
</event>
<event>
 8    1  0.1114686E+005  0.1043930E+01  0.7957747E-01            NaN
         13   -1    0    0    0    0  0.00000000000E+00  0.00000000000E+00  0.74505805969E-08  0.10566000000E+00  0.10566000000E+00 0.  1.
     999900   -1    0    0    0    0 -0.00000000000E+00 -0.00000000000E+00 -0.74505805969E-08  0.93827000000E+00  0.93827000000E+00 0.  1.
     999902    2    1    2    0    0  0.47456397946E-02  0.11236450794E-02  0.22920347477E-01  0.10204965623E+01  0.10202274784E+01 0.  0.
     999903    2    3    3    0    0  0.38250346568E-01  0.17045305140E-01 -0.11960038961E+00  0.12825879960E+00  0.19809973264E-01 0.  0.
         14    1    1    2    0    0 -0.47456397946E-02 -0.11236450794E-02 -0.22920347477E-01  0.23433437729E-01  0.00000000000E+00 0. -1.
     999901    1    3    3    0    0 -0.33504706773E-01 -0.15921660061E-01  0.14252073709E+00  0.89223776267E+00  0.88000000000E+00 0. -1.
        -11    1    4    4    0    0  0.40673126952E-02  0.97675201369E-02 -0.38850746741E-01  0.40268959827E-01  0.51100000000E-03 0. -1.
         11    1    4    4    0    0  0.34183033873E-01  0.72777850035E-02 -0.80749642868E-01  0.87989839775E-01  0.51100000000E-03 0.  1.
</event>
<event>
 8    1  0.1114686E+005  0.1043930E+01  0.7957747E-01            NaN
         13   -1    0    0    0    0  0.00000000000E+00  0.00000000000E+00  0.74505805969E-08  0.10566000000E+00  0.10566000000E+00 0. -1.
     999900   -1    0    0    0    0 -0.00000000000E+00 -0.00000000000E+00 -0.74505805969E-08  0.93827000000E+00  0.93827000000E+00 0.  1.
     999902    2    1    2    0    0 -0.11267773568E-01 -0.17523327523E-01  0.84343925093E-02  0.10214540416E+01  0.10212067325E+01 0.  0.
     999903    2    3    3    0    0  0.77319883132E-01 -0.53276248848E-01 -0.89060452856E-01  0.13093099913E+00  0.19860494771E-01 0.  0.
         14    1    1    2    0    0  0.11267773568E-01  0.17523327523E-01 -0.84343925093E-02  0.22475958393E-01  0.00000000000E+00 0.  1.
     999901    1    3    3    0    0 -0.88587656700E-01  0.35752921324E-01  0.97494845365E-01  0.89052304247E+00  0.88000000000E+00 0. -1.
        -11    1    4    4    0    0  0.42113296761E-01 -0.35502228189E-01 -0.62859686423E-01  0.83579538577E-01  0.51100000000E-03 0. -1.
         11    1    4    4    0    0  0.35206586371E-01 -0.17774020658E-01 -0.26200766433E-01  0.47351460558E-01  0.51100000000E-03 0.  1.
</event>
<event>
 8    1  0.1114686E+005  0.1043930E+01  0.7957747E-01            NaN
         13   -1    0    0    0    0  0.00000000000E+00  0.00000000000E+00  0.74505805969E-08  0.10566000000E+00  0.10566000000E+00 0. -1.
     999900   -1    0    0    0    0 -0.00000000000E+00 -0.00000000000E+00 -0.74505805969E-08  0.93827000000E+00  0.93827000000E+00 0. -1.
     999902    2    1    2    0    0  0.18821743066E-02  0.22511933808E-01 -0.57805207601E-02  0.10206116775E+01  0.10203452612E+01 0.  0.
     999903    2    3    3    0    0  0.14109285935E-02  0.12445778381E+00 -0.45234371642E-01  0.13384801972E+00  0.19427128865E-01 0.  0.
         14    1    1    2    0    0 -0.18821743066E-02 -0.22511933808E-01  0.57805207601E-02  0.23318322499E-01  0.00000000000E+00 0. -1.
     999901    1    3    3    0    0  0.47124571308E-03 -0.10194585000E+00  0.39453850882E-01  0.88676365778E+00  0.88000000000E+00 0.  1.
        -11    1    4    4    0    0  0.41329016557E-02  0.37238819611E-01 -0.51649743048E-02  0.37825238171E-01  0.51100000000E-03 0. -1.
         11    1    4    4    0    0 -0.27219730622E-02  0.87218964198E-01 -0.40069397338E-01  0.96022781553E-01  0.51100000000E-03 0.  1.
</event>
<event>
 8    1  0.1114686E+005  0.1043930E+01  0.7957747E-01            NaN
         13   -1    0    0    0    0  0.00000000000E+00  0.00000000000E+00  0.74505805969E-08  0.10566000000E+00  0.10566000000E+00 0. -1.
     999900   -1    0    0    0    0 -0.00000000000E+00 -0.00000000000E+00 -0.74505805969E-08  0.93827000000E+00  0.93827000000E+00 0. -1.
     999902    2    1    2    0    0  0.33319618929E-03 -0.21711922548E-01 -0.98129836202E-02  0.10201011677E+01  0.10198228175E+01 0.  0.
     999903    2    3    3    0    0 -0.85217919825E-01  0.91032629303E-01 -0.24713170784E-01  0.12866842039E+00  0.19894424833E-01 0.  0.
         14    1    1    2    0    0 -0.33319618929E-03  0.21711922548E-01  0.98129836202E-02  0.23828832283E-01  0.00000000000E+00 0.  1.
     999901    1    3    3    0    0  0.85551116014E-01 -0.11274455185E+00  0.14900187163E-01  0.89143274732E+00  0.88000000000E+00 0. -1.
        -11    1    4    4    0    0 -0.28330866957E-01  0.41066147609E-01 -0.16286471057E-01  0.52484061985E-01  0.51100000000E-03 0. -1.
         11    1    4    4    0    0 -0.56887052868E-01  0.49966481694E-01 -0.84266997265E-02  0.76184358409E-01  0.51100000000E-03 0.  1.
</event>
<event>
 8    1  0.1114686E+005  0.1043930E+01  0.7957747E-01            NaN
         13   -1    0    0    0    0  0.00000000000E+00  0.00000000000E+00  0.74505805969E-08  0.10566000000E+00  0.10566000000E+00 0. -1.
     999900   -1    0    0    0    0 -0.00000000000E+00 -0.00000000000E+00 -0.74505805969E-08  0.93827000000E+00  0.93827000000E+00 0.  1.
     999902    2    1    2    0    0 -0.16853096653E-01  0.15595386167E-01  0.55582151858E-02  0.10203050832E+01  0.10200315319E+01 0.  0.
     999903    2    3    3    0    0  0.27903089678E-01  0.11887155888E+00  0.46613688188E-01  0.13218648983E+00  0.19783888484E-01 0.  0.
         14    1    1    2    0    0  0.16853096653E-01 -0.15595386167E-01 -0.55582151858E-02  0.23624916774E-01  0.00000000000E+00 0. -1.
     999901    1    3    3    0    0 -0.44756186332E-01 -0.10327617272E+00 -0.41055473002E-01  0.88811859339E+00  0.88000000000E+00 0. -1.
        -11    1    4    4    0    0  0.30741674702E-03  0.67835060822E-02  0.79039054682E-02  0.10432799359E-01  0.51100000000E-03 0. -1.
         11    1    4    4    0    0  0.27595672931E-01  0.11208805280E+00  0.38709782719E-01  0.12175369047E+00  0.51100000000E-03 0.  1.
</event>
<event>
 8    1  0.1114686E+005  0.1043930E+01  0.7957747E-01            NaN
         13   -1    0    0    0    0  0.00000000000E+00  0.00000000000E+00  0.74505805969E-08  0.10566000000E+00  0.10566000000E+00 0.  1.
     999900   -1    0    0    0    0 -0.00000000000E+00 -0.00000000000E+00 -0.74505805969E-08  0.93827000000E+00  0.93827000000E+00 0.  1.
     999902    2    1    2    0    0 -0.61620979699E-02  0.23582614037E-01 -0.60750867285E-02  0.10188099320E+01  0.10185002012E+01 0.  0.
     999903    2    3    3    0    0 -0.55987705676E-01  0.98816890379E-01 -0.64838813366E-01  0.13224579837E+00  0.19633605283E-01 0.  0.
         14    1    1    2    0    0  0.61620979699E-02 -0.23582614037E-01  0.60750867285E-02  0.25120067973E-01  0.00000000000E+00 0.  1.
     999901    1    3    3    0    0  0.49825607706E-01 -0.75234276342E-01  0.58763726638E-01  0.88656413366E+00  0.88000000000E+00 0. -1.
        -11    1    4    4    0    0 -0.23129091641E-01  0.51738403226E-01 -0.22811846919E-01  0.61093851813E-01  0.51100000000E-03 0.  1.
         11    1    4    4    0    0 -0.32858614034E-01  0.47078487154E-01 -0.42026966447E-01  0.71151946556E-01  0.51100000000E-03 0. -1.
</event>
<event>
 8    1  0.1114686E+005  0.1043930E+01  0.7957747E-01            NaN
         13   -1    0    0    0    0  0.00000000000E+00  0.00000000000E+00  0.74505805969E-08  0.10566000000E+00  0.10566000000E+00 0.  1.
     999900   -1    0    0    0    0 -0.00000000000E+00 -0.00000000000E+00 -0.74505805969E-08  0.93827000000E+00  0.93827000000E+00 0.  1.
     999902    2    1    2    0    0 -0.15379208315E-01  0.14651041585E-01  0.13555151256E-01  0.10187324764E+01  0.10184208086E+01 0.  0.
     999903    2    3    3    0    0 -0.58388707645E-01 -0.16550899712E-01 -0.11143456037E+00  0.12831358278E+00  0.19066746449E-01 0.  0.
         14    1    1    2    0    0  0.15379208315E-01 -0.14651041585E-01 -0.13555151256E-01  0.25197523559E-01  0.00000000000E+00 0. -1.
     999901    1    3    3    0    0  0.43009499330E-01  0.31201941297E-01  0.12498971162E+00  0.89041889366E+00  0.88000000000E+00 0. -1.
        -11    1    4    4    0    0 -0.50163794831E-01 -0.11729917131E-01 -0.10451252335E+00  0.11652092484E+00  0.51100000000E-03 0. -1.
         11    1    4    4    0    0 -0.82249128139E-02 -0.48209825805E-02 -0.69220370186E-02  0.11792657942E-01  0.51100000000E-03 0.  1.
</event>
<event>
 8    1  0.1114686E+005  0.1043930E+01  0.7957747E-01            NaN
         13   -1    0    0    0    0  0.00000000000E+00  0.00000000000E+00  0.74505805969E-08  0.10566000000E+00  0.10566000000E+00 0. -1.
     999900   -1    0    0    0    0 -0.00000000000E+00 -0.00000000000E+00 -0.74505805969E-08  0.93827000000E+00  0.93827000000E+00 0. -1.
     999902    2    1    2    0    0 -0.14138522944E-01 -0.11030514242E-01 -0.13267767699E-01  0.10216229667E+01  0.10213794018E+01 0.  0.
     999903    2    3    3    0    0  0.12335545213E-01  0.48255735040E-01  0.11792371697E+00  0.12953163656E+00  0.19790406890E-01 0.  0.
         14    1    1    2    0    0  0.14138522944E-01  0.11030514242E-01  0.13267767699E-01  0.22307033312E-01  0.00000000000E+00 0. -1.
     999901    1    3    3    0    0 -0.26474068158E-01 -0.59286249282E-01 -0.13119148467E+00  0.89209133013E+00  0.88000000000E+00 0. -1.
        -11    1    4    4    0    0  0.82644181501E-02  0.37904110276E-01  0.67162269367E-01  0.77563224087E-01  0.51100000000E-03 0.  1.
         11    1    4    4    0    0  0.40711270632E-02  0.10351624765E-01  0.50761447607E-01  0.51968412473E-01  0.51100000000E-03 0. -1.
</event>
<event>
 8    1  0.1114686E+005  0.1043930E+01  0.7957747E-01            NaN
         13   -1    0    0    0    0  0.00000000000E+00  0.00000000000E+00  0.74505805969E-08  0.10566000000E+00  0.10566000000E+00 0.  1.
     999900   -1    0    0    0    0 -0.00000000000E+00 -0.00000000000E+00 -0.74505805969E-08  0.93827000000E+00  0.93827000000E+00 0. -1.
     999902    2    1    2    0    0 -0.58400654858E-02  0.21587579653E-01  0.66101430247E-02  0.10206099667E+01  0.10203435109E+01 0.  0.
     999903    2    3    3    0    0  0.10297572871E+00  0.77860283479E-01 -0.15547777273E-01  0.13184764323E+00  0.21813830515E-01 0.  0.
         14    1    1    2    0    0  0.58400654858E-02 -0.21587579653E-01 -0.66101430247E-02  0.23320033254E-01  0.00000000000E+00 0. -1.
     999901    1    3    3    0    0 -0.10881579419E+00 -0.56272703826E-01  0.22157920298E-01  0.88876232351E+00  0.88000000000E+00 0. -1.
        -11    1    4    4    0    0  0.55748468785E-01  0.28826547296E-01 -0.50910163304E-02  0.62968572869E-01  0.51100000000E-03 0. -1.
         11    1    4    4    0    0  0.47227259924E-01  0.49033736182E-01 -0.10456760943E-01  0.68879070365E-01  0.51100000000E-03 0.  1.
</event>
<event>
 8    1  0.1114686E+005  0.1043930E+01  0.7957747E-01            NaN
         13   -1    0    0    0    0  0.00000000000E+00  0.00000000000E+00  0.74505805969E-08  0.10566000000E+00  0.10566000000E+00 0. -1.
     999900   -1    0    0    0    0 -0.00000000000E+00 -0.00000000000E+00 -0.74505805969E-08  0.93827000000E+00  0.93827000000E+00 0. -1.
     999902    2    1    2    0    0 -0.20880835223E-01  0.19702142686E-02 -0.13538041394E-01  0.10189666351E+01  0.10186608041E+01 0.  0.
     999903    2    3    3    0    0 -0.11798246188E-01  0.12811224902E+00 -0.12046778916E-01  0.12992415565E+00  0.13535670498E-01 0.  0.
         14    1    1    2    0    0  0.20880835223E-01 -0.19702142686E-02  0.13538041394E-01  0.24963364931E-01  0.00000000000E+00 0. -1.
     999901    1    3    3    0    0 -0.90825890356E-02 -0.12614203475E+00 -0.14912624779E-02  0.88904247942E+00  0.88000000000E+00 0. -1.
        -11    1    4    4    0    0 -0.42084255804E-03  0.76822709062E-01 -0.72377841621E-02  0.77165746135E-01  0.51100000000E-03 0. -1.
         11    1    4    4    0    0 -0.11377403630E-01  0.51289539959E-01 -0.48089947537E-02  0.52758409511E-01  0.51100000000E-03 0.  1.
</event>
<event>
 8    1  0.1114686E+005  0.1043930E+01  0.7957747E-01            NaN
         13   -1    0    0    0    0  0.00000000000E+00  0.00000000000E+00  0.74505805969E-08  0.10566000000E+00  0.10566000000E+00 0.  1.
     999900   -1    0    0    0    0 -0.00000000000E+00 -0.00000000000E+00 -0.74505805969E-08  0.93827000000E+00  0.93827000000E+00 0.  1.
     999902    2    1    2    0    0  0.10335350393E-01  0.18297822976E-01 -0.10477321492E-01  0.10204480056E+01  0.10201777924E+01 0.  0.
     999903    2    3    3    0    0 -0.38575428112E-02 -0.11978566281E+00 -0.42314491872E-01  0.12899857203E+00  0.22059685206E-01 0.  0.
         14    1    1    2    0    0 -0.10335350393E-01 -0.18297822976E-01  0.10477321492E-01  0.23481994358E-01  0.00000000000E+00 0.  1.
     999901    1    3    3    0    0  0.14192893204E-01  0.13808348579E+00  0.31837170380E-01  0.89144943361E+00  0.88000000000E+00 0. -1.
        -11    1    4    4    0    0  0.18551134590E-02 -0.52007358330E-01 -0.29366425172E-01  0.59756629881E-01  0.51100000000E-03 0. -1.
         11    1    4    4    0    0 -0.57126562701E-02 -0.67778304485E-01 -0.12948066700E-01  0.69241942151E-01  0.51100000000E-03 0.  1.
</event>
<event>
 8    1  0.1114686E+005  0.1043930E+01  0.7957747E-01            NaN
         13   -1    0    0    0    0  0.00000000000E+00  0.00000000000E+00  0.74505805969E-08  0.10566000000E+00  0.10566000000E+00 0.  1.
     999900   -1    0    0    0    0 -0.00000000000E+00 -0.00000000000E+00 -0.74505805969E-08  0.93827000000E+00  0.93827000000E+00 0.  1.
     999902    2    1    2    0    0 -0.16886533073E-01  0.17732984527E-01 -0.70579414299E-02  0.10184461173E+01  0.10181272345E+01 0.  0.
     999903    2    3    3    0    0 -0.87197862147E-01  0.78182390497E-01  0.56427800931E-01  0.13129998890E+00  0.18429243624E-01 0.  0.
         14    1    1    2    0    0  0.16886533073E-01 -0.17732984527E-01  0.70579414299E-02  0.25483882685E-01  0.00000000000E+00 0.  1.
     999901    1    3    3    0    0  0.70311329074E-01 -0.60449405970E-01 -0.63485742360E-01  0.88714612841E+00  0.88000000000E+00 0.  1.
        -11    1    4    4    0    0 -0.66849339185E-01  0.53904136565E-01  0.33443027677E-01  0.92158490165E-01  0.51100000000E-03 0.  1.
         11    1    4    4    0    0 -0.20348522962E-01  0.24278253932E-01  0.22984773254E-01  0.39141498736E-01  0.51100000000E-03 0. -1.
</event>
<event>
 8    1  0.1114686E+005  0.1043930E+01  0.7957747E-01            NaN
         13   -1    0    0    0    0  0.00000000000E+00  0.00000000000E+00  0.74505805969E-08  0.10566000000E+00  0.10566000000E+00 0.  1.
     999900   -1    0    0    0    0 -0.00000000000E+00 -0.00000000000E+00 -0.74505805969E-08  0.93827000000E+00  0.93827000000E+00 0. -1.
     999902    2    1    2    0    0 -0.21162407580E-01  0.90428592235E-02  0.47806908807E-02  0.10204251962E+01  0.10201544516E+01 0.  0.
     999903    2    3    3    0    0 -0.99649667509E-01 -0.32495316520E-01 -0.77649968839E-01  0.13212317339E+00  0.21000320396E-01 0.  0.
         14    1    1    2    0    0  0.21162407580E-01 -0.90428592235E-02 -0.47806908807E-02  0.23504803824E-01  0.00000000000E+00 0. -1.
     999901    1    3    3    0    0  0.78487259930E-01  0.41538175744E-01  0.82430659720E-01  0.88830202278E+00  0.88000000000E+00 0.  1.
        -11    1    4    4    0    0 -0.55668204513E-01 -0.82944620049E-02 -0.35258475732E-01  0.66416626876E-01  0.51100000000E-03 0.  1.
         11    1    4    4    0    0 -0.43981462996E-01 -0.24200854516E-01 -0.42391493108E-01  0.65706546519E-01  0.51100000000E-03 0. -1.
</event>
<event>
 8    1  0.1114686E+005  0.1043930E+01  0.7957747E-01            NaN
         13   -1    0    0    0    0  0.00000000000E+00  0.00000000000E+00  0.74505805969E-08  0.10566000000E+00  0.10566000000E+00 0. -1.
     999900   -1    0    0    0    0 -0.00000000000E+00 -0.00000000000E+00 -0.74505805969E-08  0.93827000000E+00  0.93827000000E+00 0.  1.
     999902    2    1    2    0    0  0.19945120875E-02  0.18554226144E-01 -0.66657514629E-02  0.10241141067E+01  0.10239223769E+01 0.  0.
     999903    2    3    3    0    0 -0.12597897520E+00 -0.46586626889E-03 -0.40773292989E-01  0.13400046125E+00  0.20560714247E-01 0.  0.
         14    1    1    2    0    0 -0.19945120875E-02 -0.18554226144E-01  0.66657514629E-02  0.19815893340E-01  0.00000000000E+00 0.  1.
     999901    1    3    3    0    0  0.12797348728E+00  0.19020092413E-01  0.34107541526E-01  0.89011364541E+00  0.88000000000E+00 0.  1.
        -11    1    4    4    0    0 -0.63046839753E-01 -0.66929632405E-02 -0.12034028461E-01  0.64535096821E-01  0.51100000000E-03 0.  1.
         11    1    4    4    0    0 -0.62932135443E-01  0.62270969717E-02 -0.28739264527E-01  0.69465364425E-01  0.51100000000E-03 0. -1.
</event>
<event>
 8    1  0.1114686E+005  0.1043930E+01  0.7957747E-01            NaN
         13   -1    0    0    0    0  0.00000000000E+00  0.00000000000E+00  0.74505805969E-08  0.10566000000E+00  0.10566000000E+00 0.  1.
     999900   -1    0    0    0    0 -0.00000000000E+00 -0.00000000000E+00 -0.74505805969E-08  0.93827000000E+00  0.93827000000E+00 0.  1.
     999902    2    1    2    0    0  0.96511034912E-02  0.49907794657E-02 -0.24604959234E-01  0.10170328682E+01  0.10166771363E+01 0.  0.
     999903    2    3    3    0    0 -0.89562576659E-01  0.76786989167E-01  0.40561617701E-01  0.12616546351E+00  0.18835671172E-01 0.  0.
         14    1    1    2    0    0 -0.96511034912E-02 -0.49907794657E-02  0.24604959234E-01  0.26897131765E-01  0.00000000000E+00 0.  1.
     999901    1    3    3    0    0  0.99213680150E-01 -0.71796209701E-01 -0.65166576934E-01  0.89086740473E+00  0.88000000000E+00 0.  1.
        -11    1    4    4    0    0 -0.52115877949E-01  0.32939064277E-01  0.17814167720E-01  0.64176727732E-01  0.51100000000E-03 0.  1.
         11    1    4    4    0    0 -0.37446698710E-01  0.43847924890E-01  0.22747449981E-01  0.61988735776E-01  0.51100000000E-03 0. -1.
</event>
<event>
 8    1  0.1114686E+005  0.1043930E+01  0.7957747E-01            NaN
         13   -1    0    0    0    0  0.00000000000E+00  0.00000000000E+00  0.74505805969E-08  0.10566000000E+00  0.10566000000E+00 0.  1.
     999900   -1    0    0    0    0 -0.00000000000E+00 -0.00000000000E+00 -0.74505805969E-08  0.93827000000E+00  0.93827000000E+00 0.  1.
     999902    2    1    2    0    0  0.23521180853E-01  0.27464080840E-02 -0.66228296579E-03  0.10202397631E+01  0.10199646792E+01 0.  0.
     999903    2    3    3    0    0 -0.12062301662E+00 -0.32447135392E-01 -0.17366917993E-01  0.12766193455E+00  0.19830051942E-01 0.  0.
         14    1    1    2    0    0 -0.23521180853E-01 -0.27464080840E-02  0.66228296579E-03  0.23690236909E-01  0.00000000000E+00 0. -1.
     999901    1    3    3    0    0  0.14414419747E+00  0.35193543476E-01  0.16704635027E-01  0.89257782854E+00  0.88000000000E+00 0.  1.
        -11    1    4    4    0    0 -0.81506721980E-01 -0.13869828821E-01 -0.60497760874E-02  0.82901018035E-01  0.51100000000E-03 0. -1.
         11    1    4    4    0    0 -0.39116294638E-01 -0.18577306571E-01 -0.11317141906E-01  0.44760916518E-01  0.51100000000E-03 0.  1.
</event>
<event>
 8    1  0.1114686E+005  0.1043930E+01  0.7957747E-01            NaN
         13   -1    0    0    0    0  0.00000000000E+00  0.00000000000E+00  0.74505805969E-08  0.10566000000E+00  0.10566000000E+00 0. -1.
     999900   -1    0    0    0    0 -0.00000000000E+00 -0.00000000000E+00 -0.74505805969E-08  0.93827000000E+00  0.93827000000E+00 0.  1.
     999902    2    1    2    0    0  0.11919244486E-01 -0.10489455714E-01 -0.16745045442E-01  0.10208541768E+01  0.10205933356E+01 0.  0.
     999903    2    3    3    0    0  0.81461691163E-01  0.48206393600E-01 -0.91787489298E-01  0.13298440987E+00  0.17321852268E-01 0.  0.
         14    1    1    2    0    0 -0.11919244486E-01  0.10489455714E-01  0.16745045442E-01  0.23075823217E-01  0.00000000000E+00 0. -1.
     999901    1    3    3    0    0 -0.69542446677E-01 -0.58695849314E-01  0.75042443856E-01  0.88786976691E+00  0.88000000000E+00 0. -1.
        -11    1    4    4    0    0  0.25763151483E-01  0.23784587391E-01 -0.28260942178E-01  0.45037634768E-01  0.51100000000E-03 0.  1.
         11    1    4    4    0    0  0.55698539680E-01  0.24421806209E-01 -0.63526547120E-01  0.87946775103E-01  0.51100000000E-03 0. -1.
</event>
<event>
 8    1  0.1114686E+005  0.1043930E+01  0.7957747E-01            NaN
         13   -1    0    0    0    0  0.00000000000E+00  0.00000000000E+00  0.74505805969E-08  0.10566000000E+00  0.10566000000E+00 0.  1.
     999900   -1    0    0    0    0 -0.00000000000E+00 -0.00000000000E+00 -0.74505805969E-08  0.93827000000E+00  0.93827000000E+00 0.  1.
     999902    2    1    2    0    0  0.56406833000E-02  0.10118393571E-01  0.19565210575E-01  0.10211924394E+01  0.10209392742E+01 0.  0.
     999903    2    3    3    0    0  0.84523272039E-01 -0.77936439079E-01  0.61724365516E-01  0.13228664536E+00  0.21716058334E-01 0.  0.
         14    1    1    2    0    0 -0.56406833000E-02 -0.10118393571E-01 -0.19565210575E-01  0.22737560586E-01  0.00000000000E+00 0. -1.
     999901    1    3    3    0    0 -0.78882588739E-01  0.88054832650E-01 -0.42159154941E-01  0.88890579405E+00  0.88000000000E+00 0.  1.
        -11    1    4    4    0    0  0.49926115677E-01 -0.33160836917E-01  0.25765093444E-01  0.65240779370E-01  0.51100000000E-03 0.  1.
         11    1    4    4    0    0  0.34597156362E-01 -0.44775602162E-01  0.35959272072E-01  0.67045865989E-01  0.51100000000E-03 0. -1.
</event>
<event>
 8    1  0.1114686E+005  0.1043930E+01  0.7957747E-01            NaN
         13   -1    0    0    0    0  0.00000000000E+00  0.00000000000E+00  0.74505805969E-08  0.10566000000E+00  0.10566000000E+00 0. -1.
     999900   -1    0    0    0    0 -0.00000000000E+00 -0.00000000000E+00 -0.74505805969E-08  0.93827000000E+00  0.93827000000E+00 0.  1.
     999902    2    1    2    0    0  0.19579731442E-01  0.61293656997E-02  0.12097676816E-01  0.10201121749E+01  0.10198340849E+01 0.  0.
     999903    2    3    3    0    0 -0.78789118643E-01  0.30854710758E-01  0.96841550538E-01  0.13024179251E+00  0.20613107803E-01 0.  0.
         14    1    1    2    0    0 -0.19579731442E-01 -0.61293656997E-02 -0.12097676816E-01  0.23817825080E-01  0.00000000000E+00 0.  1.
     999901    1    3    3    0    0  0.98368850085E-01 -0.24725345058E-01 -0.84743873722E-01  0.88987038241E+00  0.88000000000E+00 0.  1.
        -11    1    4    4    0    0 -0.36173228067E-01  0.19009889818E-01  0.60416378993E-01  0.72940237944E-01  0.51100000000E-03 0. -1.
         11    1    4    4    0    0 -0.42615890577E-01  0.11844820940E-01  0.36425171545E-01  0.57301554567E-01  0.51100000000E-03 0.  1.
</event>
<event>
 8    1  0.1114686E+005  0.1043930E+01  0.7957747E-01            NaN
         13   -1    0    0    0    0  0.00000000000E+00  0.00000000000E+00  0.74505805969E-08  0.10566000000E+00  0.10566000000E+00 0.  1.
     999900   -1    0    0    0    0 -0.00000000000E+00 -0.00000000000E+00 -0.74505805969E-08  0.93827000000E+00  0.93827000000E+00 0.  1.
     999902    2    1    2    0    0 -0.58042098663E-02  0.21404210042E-01 -0.10553383866E-01  0.10193698092E+01  0.10190738957E+01 0.  0.
     999903    2    3    3    0    0  0.10895258405E+00 -0.27324269288E-01  0.58047977981E-01  0.12793852568E+00  0.19529908904E-01 0.  0.
         14    1    1    2    0    0  0.58042098663E-02 -0.21404210042E-01  0.10553383866E-01  0.24560190771E-01  0.00000000000E+00 0. -1.
     999901    1    3    3    0    0 -0.11475679391E+00  0.48728479331E-01 -0.68601361848E-01  0.89143128355E+00  0.88000000000E+00 0. -1.
        -11    1    4    4    0    0  0.19076436317E-01 -0.37234564635E-02  0.18863876334E-01  0.27090247358E-01  0.51100000000E-03 0. -1.
         11    1    4    4    0    0  0.89876147731E-01 -0.23600812825E-01  0.39184101648E-01  0.10084827832E+00  0.51100000000E-03 0.  1.
</event>
<event>
 8    1  0.1114686E+005  0.1043930E+01  0.7957747E-01            NaN
         13   -1    0    0    0    0  0.00000000000E+00  0.00000000000E+00  0.74505805969E-08  0.10566000000E+00  0.10566000000E+00 0.  1.
     999900   -1    0    0    0    0 -0.00000000000E+00 -0.00000000000E+00 -0.74505805969E-08  0.93827000000E+00  0.93827000000E+00 0. -1.
     999902    2    1    2    0    0 -0.23421782956E-01 -0.83217912418E-03  0.38590573767E-02  0.10201778472E+01  0.10199013066E+01 0.  0.
     999903    2    3    3    0    0 -0.10402369195E-01  0.52772349974E-01  0.11794676060E+00  0.13110026076E+00  0.19562970842E-01 0.  0.
         14    1    1    2    0    0  0.23421782956E-01  0.83217912418E-03 -0.38590573767E-02  0.23752152803E-01  0.00000000000E+00 0. -1.
     999901    1    3    3    0    0 -0.13019413761E-01 -0.53604529098E-01 -0.11408770323E+00  0.88907758644E+00  0.88000000000E+00 0. -1.
        -11    1    4    4    0    0 -0.47182989583E-02  0.21301935794E-01  0.27145104047E-01  0.34830340342E-01  0.51100000000E-03 0.  1.
         11    1    4    4    0    0 -0.56840702366E-02  0.31470414180E-01  0.90801656557E-01  0.96269920419E-01  0.51100000000E-03 0. -1.
</event>
<event>
 8    1  0.1114686E+005  0.1043930E+01  0.7957747E-01            NaN
         13   -1    0    0    0    0  0.00000000000E+00  0.00000000000E+00  0.74505805969E-08  0.10566000000E+00  0.10566000000E+00 0. -1.
     999900   -1    0    0    0    0 -0.00000000000E+00 -0.00000000000E+00 -0.74505805969E-08  0.93827000000E+00  0.93827000000E+00 0.  1.
     999902    2    1    2    0    0 -0.12315203766E-01  0.55247062619E-03 -0.20675256131E-01  0.10198585297E+01  0.10195744136E+01 0.  0.
     999903    2    3    3    0    0  0.12553735524E+00  0.20261389006E-01  0.15725943523E-02  0.12863087282E+00  0.19320376390E-01 0.  0.
         14    1    1    2    0    0  0.12315203766E-01 -0.55247062619E-03  0.20675256131E-01  0.24071470326E-01  0.00000000000E+00 0. -1.
     999901    1    3    3    0    0 -0.13785255901E+00 -0.19708918379E-01 -0.22247850483E-01  0.89122765685E+00  0.88000000000E+00 0. -1.
        -11    1    4    4    0    0  0.10722215373E+00  0.23311492125E-01  0.45339114419E-02  0.10982182565E+00  0.51100000000E-03 0.  1.
         11    1    4    4    0    0  0.18315201510E-01 -0.30501031193E-02 -0.29613170896E-02  0.18809047166E-01  0.51100000000E-03 0. -1.
</event>
<event>
 8    1  0.1114686E+005  0.1043930E+01  0.7957747E-01            NaN
         13   -1    0    0    0    0  0.00000000000E+00  0.00000000000E+00  0.74505805969E-08  0.10566000000E+00  0.10566000000E+00 0. -1.
     999900   -1    0    0    0    0 -0.00000000000E+00 -0.00000000000E+00 -0.74505805969E-08  0.93827000000E+00  0.93827000000E+00 0. -1.
     999902    2    1    2    0    0  0.65130719783E-02  0.19774776719E-01 -0.90130864945E-02  0.10212430516E+01  0.10209910248E+01 0.  0.
     999903    2    3    3    0    0  0.60031017656E-01  0.11372002688E+00  0.30889594076E-01  0.13372848580E+00  0.19828598007E-01 0.  0.
         14    1    1    2    0    0 -0.65130719783E-02 -0.19774776719E-01  0.90130864945E-02  0.22686948430E-01  0.00000000000E+00 0. -1.
     999901    1    3    3    0    0 -0.53517945678E-01 -0.93945250157E-01 -0.39902680570E-01  0.88751456577E+00  0.88000000000E+00 0. -1.
        -11    1    4    4    0    0  0.91898197824E-02  0.36419639251E-01  0.77407225920E-02  0.38353915290E-01  0.51100000000E-03 0.  1.
         11    1    4    4    0    0  0.50841197873E-01  0.77300387625E-01  0.23148871484E-01  0.95374570511E-01  0.51100000000E-03 0. -1.
</event>
<event>
 8    1  0.1114686E+005  0.1043930E+01  0.7957747E-01            NaN
         13   -1    0    0    0    0  0.00000000000E+00  0.00000000000E+00  0.74505805969E-08  0.10566000000E+00  0.10566000000E+00 0.  1.
     999900   -1    0    0    0    0 -0.00000000000E+00 -0.00000000000E+00 -0.74505805969E-08  0.93827000000E+00  0.93827000000E+00 0. -1.
     999902    2    1    2    0    0  0.19702959638E-01 -0.54813270736E-02  0.18556433861E-01  0.10163149171E+01  0.10159396724E+01 0.  0.
     999903    2    3    3    0    0 -0.61784251069E-02 -0.28395114512E-01 -0.11945396430E+00  0.12488810704E+00  0.21984863610E-01 0.  0.
         14    1    1    2    0    0 -0.19702959638E-01  0.54813270736E-02 -0.18556433861E-01  0.27615082883E-01  0.00000000000E+00 0. -1.
     999901    1    3    3    0    0  0.25881384745E-01  0.22913787439E-01  0.13801039816E+00  0.89142681008E+00  0.88000000000E+00 0.  1.
        -11    1    4    4    0    0  0.46666822824E-02 -0.12466348313E-01 -0.78523094727E-01  0.79644995388E-01  0.51100000000E-03 0.  1.
         11    1    4    4    0    0 -0.10845107389E-01 -0.15928766200E-01 -0.40930869569E-01  0.45243111649E-01  0.51100000000E-03 0. -1.
</event>
<event>
 8    1  0.1114686E+005  0.1043930E+01  0.7957747E-01            NaN
         13   -1    0    0    0    0  0.00000000000E+00  0.00000000000E+00  0.74505805969E-08  0.10566000000E+00  0.10566000000E+00 0.  1.
     999900   -1    0    0    0    0 -0.00000000000E+00 -0.00000000000E+00 -0.74505805969E-08  0.93827000000E+00  0.93827000000E+00 0. -1.
     999902    2    1    2    0    0 -0.11382207068E-01  0.96462880580E-02  0.18303577934E-01  0.10203158840E+01  0.10200425857E+01 0.  0.
     999903    2    3    3    0    0  0.26881612887E-01  0.12513985698E-01  0.12779071849E+00  0.13270122796E+00  0.19998180397E-01 0.  0.
         14    1    1    2    0    0  0.11382207068E-01 -0.96462880580E-02 -0.18303577934E-01  0.23614116038E-01  0.00000000000E+00 0.  1.
     999901    1    3    3    0    0 -0.38263819955E-01 -0.28676976403E-02 -0.10948714056E+00  0.88761465600E+00  0.88000000000E+00 0. -1.
        -11    1    4    4    0    0  0.21217531743E-01  0.15158826797E-01  0.72361309274E-01  0.76918098547E-01  0.51100000000E-03 0. -1.
         11    1    4    4    0    0  0.56640811448E-02 -0.26448410984E-02  0.55429409218E-01  0.55783129411E-01  0.51100000000E-03 0.  1.
</event>
<event>
 8    1  0.1114686E+005  0.1043930E+01  0.7957747E-01            NaN
         13   -1    0    0    0    0  0.00000000000E+00  0.00000000000E+00  0.74505805969E-08  0.10566000000E+00  0.10566000000E+00 0.  1.
     999900   -1    0    0    0    0 -0.00000000000E+00 -0.00000000000E+00 -0.74505805969E-08  0.93827000000E+00  0.93827000000E+00 0.  1.
     999902    2    1    2    0    0 -0.15370809475E-01  0.19255737951E-01 -0.76638712103E-02  0.10181272841E+01  0.10178002684E+01 0.  0.
     999903    2    3    3    0    0 -0.52866897465E-01 -0.79453960429E-01 -0.83874445481E-01  0.12854445329E+00  0.19516997505E-01 0.  0.
         14    1    1    2    0    0  0.15370809475E-01 -0.19255737951E-01  0.76638712103E-02  0.25802715940E-01  0.00000000000E+00 0.  1.
     999901    1    3    3    0    0  0.37496087990E-01  0.98709698380E-01  0.76210574271E-01  0.88958283077E+00  0.88000000000E+00 0. -1.
        -11    1    4    4    0    0 -0.47448282205E-01 -0.61712447084E-01 -0.74510379317E-01  0.10775817072E+00  0.51100000000E-03 0.  1.
         11    1    4    4    0    0 -0.54186152594E-02 -0.17741513345E-01 -0.93640661646E-02  0.20786282574E-01  0.51100000000E-03 0. -1.
</event>
<event>
 8    1  0.1114686E+005  0.1043930E+01  0.7957747E-01            NaN
         13   -1    0    0    0    0  0.00000000000E+00  0.00000000000E+00  0.74505805969E-08  0.10566000000E+00  0.10566000000E+00 0.  1.
     999900   -1    0    0    0    0 -0.00000000000E+00 -0.00000000000E+00 -0.74505805969E-08  0.93827000000E+00  0.93827000000E+00 0. -1.
     999902    2    1    2    0    0  0.16894670092E-01  0.16327575067E-01  0.28936802944E-02  0.10202573793E+01  0.10199827092E+01 0.  0.
     999903    2    3    3    0    0 -0.71801659176E-01  0.84500890889E-01 -0.65721953776E-01  0.13052554046E+00  0.20534426750E-01 0.  0.
         14    1    1    2    0    0 -0.16894670092E-01 -0.16327575067E-01 -0.28936802944E-02  0.23672620698E-01  0.00000000000E+00 0. -1.
     999901    1    3    3    0    0  0.88696329268E-01 -0.68173315822E-01  0.68615634070E-01  0.88973183885E+00  0.88000000000E+00 0. -1.
        -11    1    4    4    0    0 -0.45194373827E-01  0.55847809950E-01 -0.53426537235E-01  0.89533040291E-01  0.51100000000E-03 0.  1.
         11    1    4    4    0    0 -0.26607285349E-01  0.28653080939E-01 -0.12295416541E-01  0.40992500166E-01  0.51100000000E-03 0. -1.
</event>
<event>
 8    1  0.1114686E+005  0.1043930E+01  0.7957747E-01            NaN
         13   -1    0    0    0    0  0.00000000000E+00  0.00000000000E+00  0.74505805969E-08  0.10566000000E+00  0.10566000000E+00 0. -1.
     999900   -1    0    0    0    0 -0.00000000000E+00 -0.00000000000E+00 -0.74505805969E-08  0.93827000000E+00  0.93827000000E+00 0. -1.
     999902    2    1    2    0    0 -0.22377559896E-01  0.66077866505E-02 -0.81325659149E-03  0.10205830641E+01  0.10203159860E+01 0.  0.
     999903    2    3    3    0    0 -0.51393741312E-01 -0.11825063142E+00  0.13615125402E-01  0.13117891434E+00  0.19950124023E-01 0.  0.
         14    1    1    2    0    0  0.22377559896E-01 -0.66077866505E-02  0.81325659149E-03  0.23346935936E-01  0.00000000000E+00 0.  1.
     999901    1    3    3    0    0  0.29016181416E-01  0.12485841807E+00 -0.14428381994E-01  0.88940414973E+00  0.88000000000E+00 0. -1.
        -11    1    4    4    0    0 -0.23568453998E-01 -0.45644448138E-01  0.14629925018E-01  0.53415199117E-01  0.51100000000E-03 0. -1.
         11    1    4    4    0    0 -0.27825287313E-01 -0.72606183285E-01 -0.10147996156E-02  0.77763715218E-01  0.51100000000E-03 0.  1.
</event>
<event>
 8    1  0.1114686E+005  0.1043930E+01  0.7957747E-01            NaN
         13   -1    0    0    0    0  0.00000000000E+00  0.00000000000E+00  0.74505805969E-08  0.10566000000E+00  0.10566000000E+00 0. -1.
     999900   -1    0    0    0    0 -0.00000000000E+00 -0.00000000000E+00 -0.74505805969E-08  0.93827000000E+00  0.93827000000E+00 0. -1.
     999902    2    1    2    0    0 -0.17623424300E-01  0.65445378207E-02  0.57696075658E-02  0.10242651982E+01  0.10240764091E+01 0.  0.
     999903    2    3    3    0    0 -0.11227443568E+00  0.74433224618E-01  0.95112024465E-02  0.13658187216E+00  0.20452163603E-01 0.  0.
         14    1    1    2    0    0  0.17623424300E-01 -0.65445378207E-02 -0.57696075658E-02  0.19664801825E-01  0.00000000000E+00 0. -1.
     999901    1    3    3    0    0  0.94651011383E-01 -0.67888686797E-01 -0.37415948808E-02  0.88768332601E+00  0.88000000000E+00 0. -1.
        -11    1    4    4    0    0 -0.57940387013E-01  0.33870246778E-01 -0.47771092087E-02  0.67285689098E-01  0.51100000000E-03 0. -1.
         11    1    4    4    0    0 -0.54334048670E-01  0.40562977840E-01  0.14288311655E-01  0.69296183063E-01  0.51100000000E-03 0.  1.
</event>
<event>
 8    1  0.1114686E+005  0.1043930E+01  0.7957747E-01            NaN
         13   -1    0    0    0    0  0.00000000000E+00  0.00000000000E+00  0.74505805969E-08  0.10566000000E+00  0.10566000000E+00 0. -1.
     999900   -1    0    0    0    0 -0.00000000000E+00 -0.00000000000E+00 -0.74505805969E-08  0.93827000000E+00  0.93827000000E+00 0.  1.
     999902    2    1    2    0    0  0.16211657067E-01 -0.82281933467E-02 -0.14955362053E-01  0.10203888903E+01  0.10201172990E+01 0.  0.
     999903    2    3    3    0    0  0.45304350733E-02 -0.83937504801E-01  0.97587316023E-01  0.12992035906E+00  0.17028972217E-01 0.  0.
         14    1    1    2    0    0 -0.16211657067E-01  0.82281933467E-02  0.14955362053E-01  0.23541109676E-01  0.00000000000E+00 0. -1.
     999901    1    3    3    0    0  0.11681221994E-01  0.75709311455E-01 -0.11254267808E+00  0.89046853127E+00  0.88000000000E+00 0.  1.
        -11    1    4    4    0    0  0.21308361344E-02 -0.18653562203E-02  0.74771168943E-02  0.80117672527E-02  0.51100000000E-03 0. -1.
         11    1    4    4    0    0  0.23995989389E-02 -0.82072148581E-01  0.90110199129E-01  0.12190859180E+00  0.51100000000E-03 0.  1.
</event>
<event>
 8    1  0.1114686E+005  0.1043930E+01  0.7957747E-01            NaN
         13   -1    0    0    0    0  0.00000000000E+00  0.00000000000E+00  0.74505805969E-08  0.10566000000E+00  0.10566000000E+00 0. -1.
     999900   -1    0    0    0    0 -0.00000000000E+00 -0.00000000000E+00 -0.74505805969E-08  0.93827000000E+00  0.93827000000E+00 0.  1.
     999902    2    1    2    0    0  0.83804756591E-02 -0.14218745356E-01 -0.17451891405E-01  0.10199097251E+01  0.10196268307E+01 0.  0.
     999903    2    3    3    0    0  0.67241901530E-01  0.20820635326E-01 -0.11030990534E+00  0.13237660663E+00  0.20007963187E-01 0.  0.
         14    1    1    2    0    0 -0.83804756591E-02  0.14218745356E-01  0.17451891405E-01  0.24020274881E-01  0.00000000000E+00 0. -1.
     999901    1    3    3    0    0 -0.58861425871E-01 -0.35039380682E-01  0.92858013937E-01  0.88753311848E+00  0.88000000000E+00 0. -1.
        -11    1    4    4    0    0  0.51933182729E-01  0.23235218026E-01 -0.93952657544E-01  0.10983757920E+00  0.51100000000E-03 0. -1.
         11    1    4    4    0    0  0.15308718801E-01 -0.24145827007E-02 -0.16357247798E-01  0.22539027430E-01  0.51100000000E-03 0.  1.
</event>
<event>
 8    1  0.1114686E+005  0.1043930E+01  0.7957747E-01            NaN
         13   -1    0    0    0    0  0.00000000000E+00  0.00000000000E+00  0.74505805969E-08  0.10566000000E+00  0.10566000000E+00 0. -1.
     999900   -1    0    0    0    0 -0.00000000000E+00 -0.00000000000E+00 -0.74505805969E-08  0.93827000000E+00  0.93827000000E+00 0.  1.
     999902    2    1    2    0    0 -0.90520567169E-02  0.55489853048E-02  0.21094408676E-01  0.10203142204E+01  0.10200408832E+01 0.  0.
     999903    2    3    3    0    0 -0.54022120968E-02  0.10080702832E+00  0.83100682292E-01  0.13299680589E+00  0.24314319332E-01 0.  0.
         14    1    1    2    0    0  0.90520567169E-02 -0.55489853048E-02 -0.21094408676E-01  0.23615779600E-01  0.00000000000E+00 0.  1.
     999901    1    3    3    0    0 -0.36498446201E-02 -0.95258043018E-01 -0.62006273616E-01  0.88731741451E+00  0.88000000000E+00 0.  1.
        -11    1    4    4    0    0 -0.97861972678E-02  0.40132351280E-01  0.22123003162E-01  0.46862177352E-01  0.51100000000E-03 0. -1.
         11    1    4    4    0    0  0.43839851710E-02  0.60674677042E-01  0.60977679131E-01  0.86134628538E-01  0.51100000000E-03 0.  1.
</event>
<event>
 7    1  0.1489731E+005  0.1043930E+01  0.7957747E-01            NaN
         13   -1    0    0    0    0  0.00000000000E+00  0.00000000000E+00  0.74505805969E-08  0.10566000000E+00  0.10566000000E+00 0.  1.
     999900   -1    0    0    0    0 -0.00000000000E+00 -0.00000000000E+00 -0.74505805969E-08  0.93827000000E+00  0.93827000000E+00 0.  1.
     999903    2    1    2    0    0  0.48254881777E-01 -0.44307025585E-01  0.54008198525E-01  0.87646343287E-01  0.21756604793E-01 0.  0.
         14    1    1    2    0    0 -0.65968642977E-01  0.27516008149E-01  0.15729047135E-01  0.73187399766E-01  0.00000000000E+00 0. -1.
     999901    1    1    2    0    0  0.17713761200E-01  0.16791017436E-01 -0.69737245660E-01  0.88309625695E+00  0.88000000000E+00 0.  1.
        -11    1    3    3    0    0  0.21476204864E-01 -0.23267462071E-01  0.39496776075E-01  0.50624683780E-01  0.51100000000E-03 0.  1.
         11    1    3    3    0    0  0.26778676913E-01 -0.21039563513E-01  0.14511422451E-01  0.37021659506E-01  0.51100000000E-03 0. -1.
</event>
<event>
 8    1  0.1114686E+005  0.1043930E+01  0.7957747E-01            NaN
         13   -1    0    0    0    0  0.00000000000E+00  0.00000000000E+00  0.74505805969E-08  0.10566000000E+00  0.10566000000E+00 0.  1.
     999900   -1    0    0    0    0 -0.00000000000E+00 -0.00000000000E+00 -0.74505805969E-08  0.93827000000E+00  0.93827000000E+00 0.  1.
     999902    2    1    2    0    0 -0.12866042667E-02  0.86788957535E-02 -0.17757924604E-01  0.10241228682E+01  0.10239313096E+01 0.  0.
     999903    2    3    3    0    0 -0.39644275955E-01 -0.11429261615E+00 -0.53927269984E-01  0.13400965901E+00  0.20395282246E-01 0.  0.
         14    1    1    2    0    0  0.12866042667E-02 -0.86788957535E-02  0.17757924604E-01  0.19807131753E-01  0.00000000000E+00 0.  1.
     999901    1    3    3    0    0  0.38357671688E-01  0.12297151190E+00  0.36169345379E-01  0.89011320924E+00  0.88000000000E+00 0.  1.
        -11    1    4    4    0    0 -0.13410556103E-01 -0.32989636302E-01 -0.62020250280E-02  0.36150869336E-01  0.51100000000E-03 0.  1.
         11    1    4    4    0    0 -0.26233719852E-01 -0.81302979845E-01 -0.47725244956E-01  0.97858789672E-01  0.51100000000E-03 0. -1.
</event>
<event>
 8    1  0.1114686E+005  0.1043930E+01  0.7957747E-01            NaN
         13   -1    0    0    0    0  0.00000000000E+00  0.00000000000E+00  0.74505805969E-08  0.10566000000E+00  0.10566000000E+00 0.  1.
     999900   -1    0    0    0    0 -0.00000000000E+00 -0.00000000000E+00 -0.74505805969E-08  0.93827000000E+00  0.93827000000E+00 0. -1.
     999902    2    1    2    0    0 -0.12846824704E-02 -0.18973879292E-01  0.17197611713E-01  0.10182898683E+01  0.10179670130E+01 0.  0.
     999903    2    3    3    0    0 -0.94478358999E-01 -0.87305914060E-01  0.11612484538E-01  0.13071704202E+00  0.20090105242E-01 0.  0.
         14    1    1    2    0    0  0.12846824704E-02  0.18973879292E-01 -0.17197611713E-01  0.25640131690E-01  0.00000000000E+00 0.  1.
     999901    1    3    3    0    0  0.93193676528E-01  0.68332034768E-01  0.55851271749E-02  0.88757282629E+00  0.88000000000E+00 0.  1.
        -11    1    4    4    0    0 -0.24905414460E-01 -0.34147690807E-01 -0.84683586914E-03  0.42276739572E-01  0.51100000000E-03 0. -1.
         11    1    4    4    0    0 -0.69572944539E-01 -0.53158223253E-01  0.12459320407E-01  0.88440302449E-01  0.51100000000E-03 0.  1.
</event>
<event>
 8    1  0.1114686E+005  0.1043930E+01  0.7957747E-01            NaN
         13   -1    0    0    0    0  0.00000000000E+00  0.00000000000E+00  0.74505805969E-08  0.10566000000E+00  0.10566000000E+00 0.  1.
     999900   -1    0    0    0    0 -0.00000000000E+00 -0.00000000000E+00 -0.74505805969E-08  0.93827000000E+00  0.93827000000E+00 0.  1.
     999902    2    1    2    0    0 -0.78226583229E-02 -0.22762815812E-01  0.13796140275E-02  0.10198210162E+01  0.10195360032E+01 0.  0.
     999903    2    3    3    0    0  0.11571677506E-02 -0.93536028596E-01 -0.91174064994E-01  0.13209602022E+00  0.19655043798E-01 0.  0.
         14    1    1    2    0    0  0.78226583229E-02  0.22762815812E-01 -0.13796140275E-02  0.24108983840E-01  0.00000000000E+00 0.  1.
     999901    1    3    3    0    0 -0.89798260735E-02  0.70773212784E-01  0.92553679021E-01  0.88772499594E+00  0.88000000000E+00 0. -1.
        -11    1    4    4    0    0 -0.66634028172E-02 -0.42968192995E-01 -0.32798151210E-01  0.54466929325E-01  0.51100000000E-03 0. -1.
         11    1    4    4    0    0  0.78205705678E-02 -0.50567835601E-01 -0.58375913784E-01  0.77629090891E-01  0.51100000000E-03 0.  1.
</event>
<event>
 8    1  0.1114686E+005  0.1043930E+01  0.7957747E-01            NaN
         13   -1    0    0    0    0  0.00000000000E+00  0.00000000000E+00  0.74505805969E-08  0.10566000000E+00  0.10566000000E+00 0.  1.
     999900   -1    0    0    0    0 -0.00000000000E+00 -0.00000000000E+00 -0.74505805969E-08  0.93827000000E+00  0.93827000000E+00 0. -1.
     999902    2    1    2    0    0  0.28936581232E-02 -0.17904705598E-01  0.15180684822E-01  0.10202782573E+01  0.10200040772E+01 0.  0.
     999903    2    3    3    0    0  0.69054105926E-01 -0.20970291828E-01 -0.10570634698E+00  0.12954806410E+00  0.20016154364E-01 0.  0.
         14    1    1    2    0    0 -0.28936581232E-02  0.17904705598E-01 -0.15180684822E-01  0.23651742675E-01  0.00000000000E+00 0. -1.
     999901    1    3    3    0    0 -0.66160447802E-01  0.30655862298E-02  0.12088703180E+00  0.89073019323E+00  0.88000000000E+00 0.  1.
        -11    1    4    4    0    0  0.31866041643E-01 -0.12929968723E-01 -0.33948673921E-01  0.48326000074E-01  0.51100000000E-03 0. -1.
         11    1    4    4    0    0  0.37188064283E-01 -0.80403231052E-02 -0.71757673056E-01  0.81222064023E-01  0.51100000000E-03 0.  1.
</event>
<event>
 8    1  0.1114686E+005  0.1043930E+01  0.7957747E-01            NaN
         13   -1    0    0    0    0  0.00000000000E+00  0.00000000000E+00  0.74505805969E-08  0.10566000000E+00  0.10566000000E+00 0. -1.
     999900   -1    0    0    0    0 -0.00000000000E+00 -0.00000000000E+00 -0.74505805969E-08  0.93827000000E+00  0.93827000000E+00 0.  1.
     999902    2    1    2    0    0  0.24086172633E-01 -0.14984038764E-02  0.28542599963E-02  0.10196290591E+01  0.10193394344E+01 0.  0.
     999903    2    3    3    0    0  0.89216695645E-01  0.49338235462E-01 -0.81137614365E-01  0.13177716616E+00  0.19698446512E-01 0.  0.
         14    1    1    2    0    0 -0.24086172633E-01  0.14984038764E-02 -0.28542599963E-02  0.24300940854E-01  0.00000000000E+00 0. -1.
     999901    1    3    3    0    0 -0.65130523012E-01 -0.50836639338E-01  0.83991874361E-01  0.88785189299E+00  0.88000000000E+00 0. -1.
        -11    1    4    4    0    0  0.35906208903E-01  0.91527436760E-02 -0.27849670968E-01  0.46356163006E-01  0.51100000000E-03 0.  1.
         11    1    4    4    0    0  0.53310486742E-01  0.40185491786E-01 -0.53287943396E-01  0.85421003150E-01  0.51100000000E-03 0. -1.
</event>
<event>
 8    1  0.1114686E+005  0.1043930E+01  0.7957747E-01            NaN
         13   -1    0    0    0    0  0.00000000000E+00  0.00000000000E+00  0.74505805969E-08  0.10566000000E+00  0.10566000000E+00 0.  1.
     999900   -1    0    0    0    0 -0.00000000000E+00 -0.00000000000E+00 -0.74505805969E-08  0.93827000000E+00  0.93827000000E+00 0. -1.
     999902    2    1    2    0    0 -0.19840667758E-01  0.33509383396E-02  0.11891232745E-01  0.10205573172E+01  0.10202896429E+01 0.  0.
     999903    2    3    3    0    0  0.57188927330E-01  0.10681798031E+00 -0.40934438873E-01  0.12958619597E+00  0.20887785289E-01 0.  0.
         14    1    1    2    0    0  0.19840667758E-01 -0.33509383396E-02 -0.11891232745E-01  0.23372682795E-01  0.00000000000E+00 0. -1.
     999901    1    3    3    0    0 -0.77029595089E-01 -0.10346704197E+00  0.52825671618E-01  0.89097112123E+00  0.88000000000E+00 0.  1.
        -11    1    4    4    0    0  0.23069666982E-01  0.61619422534E-01 -0.16052092498E-01  0.67728085479E-01  0.51100000000E-03 0.  1.
         11    1    4    4    0    0  0.34119260348E-01  0.45198557772E-01 -0.24882346375E-01  0.61858110491E-01  0.51100000000E-03 0. -1.
</event>
<event>
 8    1  0.1114686E+005  0.1043930E+01  0.7957747E-01            NaN
         13   -1    0    0    0    0  0.00000000000E+00  0.00000000000E+00  0.74505805969E-08  0.10566000000E+00  0.10566000000E+00 0. -1.
     999900   -1    0    0    0    0 -0.00000000000E+00 -0.00000000000E+00 -0.74505805969E-08  0.93827000000E+00  0.93827000000E+00 0.  1.
     999902    2    1    2    0    0  0.17296051373E-01 -0.17838977687E-01  0.41676859609E-03  0.10190793217E+01  0.10187762795E+01 0.  0.
     999903    2    3    3    0    0 -0.44519570613E-01  0.60207247980E-02  0.11880872889E+00  0.12868215590E+00  0.20623818549E-01 0.  0.
         14    1    1    2    0    0 -0.17296051373E-01  0.17838977687E-01 -0.41676859609E-03  0.24850678342E-01  0.00000000000E+00 0.  1.
     999901    1    3    3    0    0  0.61815621986E-01 -0.23859702485E-01 -0.11839196030E+00  0.89039716576E+00  0.88000000000E+00 0.  1.
        -11    1    4    4    0    0  0.34666513922E-03  0.16713524772E-02  0.19961422142E-01  0.20040785682E-01  0.51100000000E-03 0. -1.
         11    1    4    4    0    0 -0.44866235753E-01  0.43493723208E-02  0.98847306751E-01  0.10864137022E+00  0.51100000000E-03 0.  1.
</event>
<event>
 8    1  0.1114686E+005  0.1043930E+01  0.7957747E-01            NaN
         13   -1    0    0    0    0  0.00000000000E+00  0.00000000000E+00  0.74505805969E-08  0.10566000000E+00  0.10566000000E+00 0.  1.
     999900   -1    0    0    0    0 -0.00000000000E+00 -0.00000000000E+00 -0.74505805969E-08  0.93827000000E+00  0.93827000000E+00 0. -1.
     999902    2    1    2    0    0  0.98281760270E-02 -0.15333999586E-02  0.22291242591E-01  0.10195200869E+01  0.10192278272E+01 0.  0.
     999903    2    3    3    0    0  0.12401713641E+00  0.25733526841E-01 -0.23894035086E-01  0.13052307691E+00  0.20564147579E-01 0.  0.
         14    1    1    2    0    0 -0.98281760270E-02  0.15333999586E-02 -0.22291242591E-01  0.24409913062E-01  0.00000000000E+00 0. -1.
     999901    1    3    3    0    0 -0.11418896038E+00 -0.27266926799E-01  0.46185277677E-01  0.88899701003E+00  0.88000000000E+00 0.  1.
        -11    1    4    4    0    0  0.40533534151E-01  0.23553941452E-02 -0.15337326243E-01  0.43405183672E-01  0.51100000000E-03 0. -1.
         11    1    4    4    0    0  0.83483602259E-01  0.23378132695E-01 -0.85567088431E-02  0.87117893234E-01  0.51100000000E-03 0.  1.
</event>
<event>
 8    1  0.1114686E+005  0.1043930E+01  0.7957747E-01            NaN
         13   -1    0    0    0    0  0.00000000000E+00  0.00000000000E+00  0.74505805969E-08  0.10566000000E+00  0.10566000000E+00 0. -1.
     999900   -1    0    0    0    0 -0.00000000000E+00 -0.00000000000E+00 -0.74505805969E-08  0.93827000000E+00  0.93827000000E+00 0. -1.
     999902    2    1    2    0    0 -0.12041308672E-01 -0.17268679086E-01 -0.60698037037E-02  0.10220201185E+01  0.10217852414E+01 0.  0.
     999903    2    3    3    0    0 -0.10716885684E-01 -0.62947827437E-01 -0.11608788311E+00  0.13399291365E+00  0.20010589357E-01 0.  0.
         14    1    1    2    0    0  0.12041308672E-01  0.17268679086E-01  0.60698037037E-02  0.21909881536E-01  0.00000000000E+00 0. -1.
     999901    1    3    3    0    0 -0.13244229884E-02  0.45679148351E-01  0.11001807941E+00  0.88802720481E+00  0.88000000000E+00 0.  1.
        -11    1    4    4    0    0 -0.13429888749E-01 -0.31974545707E-01 -0.73374999259E-01  0.81159627415E-01  0.51100000000E-03 0. -1.
         11    1    4    4    0    0  0.27130030650E-02 -0.30973281730E-01 -0.42712883850E-01  0.52833286237E-01  0.51100000000E-03 0.  1.
</event>
<event>
 8    1  0.1114686E+005  0.1043930E+01  0.7957747E-01            NaN
         13   -1    0    0    0    0  0.00000000000E+00  0.00000000000E+00  0.74505805969E-08  0.10566000000E+00  0.10566000000E+00 0. -1.
     999900   -1    0    0    0    0 -0.00000000000E+00 -0.00000000000E+00 -0.74505805969E-08  0.93827000000E+00  0.93827000000E+00 0.  1.
     999902    2    1    2    0    0 -0.40012952383E-02 -0.20417155613E-01 -0.12429063027E-01  0.10196946495E+01  0.10194066048E+01 0.  0.
     999903    2    3    3    0    0 -0.82813477900E-01 -0.94635418864E-01  0.34088474811E-01  0.13184128768E+00  0.20153570334E-01 0.  0.
         14    1    1    2    0    0  0.40012952383E-02  0.20417155613E-01  0.12429063027E-01  0.24235350516E-01  0.00000000000E+00 0.  1.
     999901    1    3    3    0    0  0.78812182662E-01  0.74218263251E-01 -0.46517537838E-01  0.88785336180E+00  0.88000000000E+00 0.  1.
        -11    1    4    4    0    0 -0.57665663377E-01 -0.53456448896E-01  0.26599269951E-01  0.83010258066E-01  0.51100000000E-03 0. -1.
         11    1    4    4    0    0 -0.25147814523E-01 -0.41178969968E-01  0.74892048607E-02  0.48831029616E-01  0.51100000000E-03 0.  1.
</event>
<event>
 8    1  0.1114686E+005  0.1043930E+01  0.7957747E-01            NaN
         13   -1    0    0    0    0  0.00000000000E+00  0.00000000000E+00  0.74505805969E-08  0.10566000000E+00  0.10566000000E+00 0.  1.
     999900   -1    0    0    0    0 -0.00000000000E+00 -0.00000000000E+00 -0.74505805969E-08  0.93827000000E+00  0.93827000000E+00 0. -1.
     999902    2    1    2    0    0  0.19083675047E-01  0.68179202927E-02  0.11248592272E-01  0.10207523919E+01  0.10204892180E+01 0.  0.
     999903    2    3    3    0    0 -0.46261370381E-01  0.72078996656E-01  0.98016148702E-01  0.13167557185E+00  0.19894588900E-01 0.  0.
         14    1    1    2    0    0 -0.19083675047E-01 -0.68179202927E-02 -0.11248592272E-01  0.23177608127E-01  0.00000000000E+00 0. -1.
     999901    1    3    3    0    0  0.65345045428E-01 -0.65261076363E-01 -0.86767556431E-01  0.88907682002E+00  0.88000000000E+00 0. -1.
        -11    1    4    4    0    0 -0.16149169753E-01  0.34961432579E-01  0.31439364216E-01  0.49717121749E-01  0.51100000000E-03 0. -1.
         11    1    4    4    0    0 -0.30112200628E-01  0.37117564077E-01  0.66576784487E-01  0.81958450103E-01  0.51100000000E-03 0.  1.
</event>
<event>
 8    1  0.1114686E+005  0.1043930E+01  0.7957747E-01            NaN
         13   -1    0    0    0    0  0.00000000000E+00  0.00000000000E+00  0.74505805969E-08  0.10566000000E+00  0.10566000000E+00 0.  1.
     999900   -1    0    0    0    0 -0.00000000000E+00 -0.00000000000E+00 -0.74505805969E-08  0.93827000000E+00  0.93827000000E+00 0. -1.
     999902    2    1    2    0    0  0.25672069174E-02  0.21451205863E-01 -0.61768520497E-02  0.10214600582E+01  0.10212128829E+01 0.  0.
     999903    2    3    3    0    0  0.32703458989E-01  0.71990248799E-01  0.10458585974E+00  0.13256705737E+00  0.19588529583E-01 0.  0.
         14    1    1    2    0    0 -0.25672069174E-02 -0.21451205863E-01  0.61768520497E-02  0.22469941824E-01  0.00000000000E+00 0.  1.
     999901    1    3    3    0    0 -0.30136252072E-01 -0.50539042935E-01 -0.11076271179E+00  0.88889300080E+00  0.88000000000E+00 0. -1.
        -11    1    4    4    0    0  0.17760219750E-01  0.46531506958E-01  0.50397962570E-01  0.70857761026E-01  0.51100000000E-03 0.  1.
         11    1    4    4    0    0  0.14943239239E-01  0.25458741841E-01  0.54187897171E-01  0.61709296349E-01  0.51100000000E-03 0. -1.
</event>
<event>
 8    1  0.1114686E+005  0.1043930E+01  0.7957747E-01            NaN
         13   -1    0    0    0    0  0.00000000000E+00  0.00000000000E+00  0.74505805969E-08  0.10566000000E+00  0.10566000000E+00 0. -1.
     999900   -1    0    0    0    0 -0.00000000000E+00 -0.00000000000E+00 -0.74505805969E-08  0.93827000000E+00  0.93827000000E+00 0.  1.
     999902    2    1    2    0    0  0.22546950516E-01 -0.67722184269E-02 -0.47828116612E-03  0.10203830963E+01  0.10201113697E+01 0.  0.
     999903    2    3    3    0    0  0.15835553010E-01  0.16491874528E-01 -0.12783287199E+00  0.13088579296E+00  0.16343224066E-01 0.  0.
         14    1    1    2    0    0 -0.22546950516E-01  0.67722184269E-02  0.47828116612E-03  0.23546903679E-01  0.00000000000E+00 0. -1.
     999901    1    3    3    0    0  0.67113975064E-02 -0.23264092955E-01  0.12735459083E+00  0.88949730336E+00  0.88000000000E+00 0. -1.
        -11    1    4    4    0    0 -0.20075211377E-02  0.75360345521E-02 -0.45429580182E-01  0.46096961227E-01  0.51100000000E-03 0. -1.
         11    1    4    4    0    0  0.17843074148E-01  0.89558399763E-02 -0.82403291811E-01  0.84788831735E-01  0.51100000000E-03 0.  1.
</event>
<event>
 8    1  0.1114686E+005  0.1043930E+01  0.7957747E-01            NaN
         13   -1    0    0    0    0  0.00000000000E+00  0.00000000000E+00  0.74505805969E-08  0.10566000000E+00  0.10566000000E+00 0.  1.
     999900   -1    0    0    0    0 -0.00000000000E+00 -0.00000000000E+00 -0.74505805969E-08  0.93827000000E+00  0.93827000000E+00 0. -1.
     999902    2    1    2    0    0  0.12231806887E-01 -0.19042158465E-01 -0.69335136070E-02  0.10202594590E+01  0.10199848377E+01 0.  0.
     999903    2    3    3    0    0 -0.66593736736E-01 -0.34001196020E-01 -0.10575863013E+00  0.13110050655E+00  0.20289107108E-01 0.  0.
         14    1    1    2    0    0 -0.12231806887E-01  0.19042158465E-01  0.69335136070E-02  0.23670540967E-01  0.00000000000E+00 0.  1.
     999901    1    3    3    0    0  0.78825543623E-01  0.14959037555E-01  0.98825116519E-01  0.88915895249E+00  0.88000000000E+00 0.  1.
        -11    1    4    4    0    0 -0.58655185803E-01 -0.21247190325E-01 -0.83186945706E-01  0.10398174347E+00  0.51100000000E-03 0.  1.
         11    1    4    4    0    0 -0.79385509328E-02 -0.12754005695E-01 -0.22571684420E-01  0.27118763076E-01  0.51100000000E-03 0. -1.
</event>
<event>
 8    1  0.1114686E+005  0.1043930E+01  0.7957747E-01            NaN
         13   -1    0    0    0    0  0.00000000000E+00  0.00000000000E+00  0.74505805969E-08  0.10566000000E+00  0.10566000000E+00 0. -1.
     999900   -1    0    0    0    0 -0.00000000000E+00 -0.00000000000E+00 -0.74505805969E-08  0.93827000000E+00  0.93827000000E+00 0.  1.
     999902    2    1    2    0    0 -0.95177597537E-02  0.16515254104E-01  0.18939122301E-01  0.10170593520E+01  0.10167043296E+01 0.  0.
     999903    2    3    3    0    0  0.11373281271E+00 -0.16564570765E-01 -0.46111071903E-01  0.12547844925E+00  0.20225542822E-01 0.  0.
         14    1    1    2    0    0  0.95177597537E-02 -0.16515254104E-01 -0.18939122301E-01  0.26870647971E-01  0.00000000000E+00 0.  1.
     999901    1    3    3    0    0 -0.12325057247E+00  0.33079824869E-01  0.65050194204E-01  0.89158090278E+00  0.88000000000E+00 0. -1.
        -11    1    4    4    0    0  0.95555042672E-01 -0.21117958382E-01 -0.36859692197E-01  0.10457357399E+00  0.51100000000E-03 0. -1.
         11    1    4    4    0    0  0.18177770043E-01  0.45533876168E-02 -0.92513797057E-02  0.20904875268E-01  0.51100000000E-03 0.  1.
</event>
<event>
 8    1  0.1114686E+005  0.1043930E+01  0.7957747E-01            NaN
         13   -1    0    0    0    0  0.00000000000E+00  0.00000000000E+00  0.74505805969E-08  0.10566000000E+00  0.10566000000E+00 0. -1.
     999900   -1    0    0    0    0 -0.00000000000E+00 -0.00000000000E+00 -0.74505805969E-08  0.93827000000E+00  0.93827000000E+00 0.  1.
     999902    2    1    2    0    0 -0.55686451097E-02 -0.22737920432E-01  0.37446206631E-02  0.10202225114E+01  0.10199470220E+01 0.  0.
     999903    2    3    3    0    0  0.56768967740E-01 -0.10827334126E+00  0.48012873880E-01  0.13277563157E+00  0.19449939714E-01 0.  0.
         14    1    1    2    0    0  0.55686451097E-02  0.22737920432E-01 -0.37446206631E-02  0.23707488644E-01  0.00000000000E+00 0. -1.
     999901    1    3    3    0    0 -0.62337612850E-01  0.85535420831E-01 -0.44268253217E-01  0.88744687978E+00  0.88000000000E+00 0.  1.
        -11    1    4    4    0    0  0.48426301849E-01 -0.88740062507E-01  0.47050395092E-01  0.11150742668E+00  0.51100000000E-03 0.  1.
         11    1    4    4    0    0  0.83426658914E-02 -0.19533278756E-01  0.96247878748E-03  0.21268204897E-01  0.51100000000E-03 0. -1.
</event>
<event>
 8    1  0.1114686E+005  0.1043930E+01  0.7957747E-01            NaN
         13   -1    0    0    0    0  0.00000000000E+00  0.00000000000E+00  0.74505805969E-08  0.10566000000E+00  0.10566000000E+00 0.  1.
     999900   -1    0    0    0    0 -0.00000000000E+00 -0.00000000000E+00 -0.74505805969E-08  0.93827000000E+00  0.93827000000E+00 0.  1.
     999902    2    1    2    0    0 -0.53709811614E-02  0.18296941456E-01 -0.13409008735E-01  0.10206184788E+01  0.10203522197E+01 0.  0.
     999903    2    3    3    0    0  0.46859519986E-02  0.49292240798E-01  0.11865732237E+00  0.13016726380E+00  0.20304513405E-01 0.  0.
         14    1    1    2    0    0  0.53709811614E-02 -0.18296941456E-01  0.13409008735E-01  0.23311521198E-01  0.00000000000E+00 0. -1.
     999901    1    3    3    0    0 -0.10056933160E-01 -0.30995299342E-01 -0.13206633110E+00  0.89045121500E+00  0.88000000000E+00 0.  1.
        -11    1    4    4    0    0 -0.44356727737E-02  0.12797481032E-01  0.50819973022E-01  0.52596401899E-01  0.51100000000E-03 0.  1.
         11    1    4    4    0    0  0.91216247723E-02  0.36494759766E-01  0.67837349347E-01  0.77570861902E-01  0.51100000000E-03 0. -1.
</event>
<event>
 8    1  0.1114686E+005  0.1043930E+01  0.7957747E-01            NaN
         13   -1    0    0    0    0  0.00000000000E+00  0.00000000000E+00  0.74505805969E-08  0.10566000000E+00  0.10566000000E+00 0. -1.
     999900   -1    0    0    0    0 -0.00000000000E+00 -0.00000000000E+00 -0.74505805969E-08  0.93827000000E+00  0.93827000000E+00 0.  1.
     999902    2    1    2    0    0 -0.43851551649E-02 -0.14263429703E-01  0.16848453651E-01  0.10214234364E+01  0.10211754458E+01 0.  0.
     999903    2    3    3    0    0  0.12838825920E+00 -0.18338710305E-01  0.36939405549E-02  0.13135690596E+00  0.20521650759E-01 0.  0.
         14    1    1    2    0    0  0.43851551649E-02  0.14263429703E-01 -0.16848453651E-01  0.22506563557E-01  0.00000000000E+00 0.  1.
     999901    1    3    3    0    0 -0.13277341437E+00  0.40752806021E-02  0.13154513096E-01  0.89006653048E+00  0.88000000000E+00 0.  1.
        -11    1    4    4    0    0  0.72902435133E-01 -0.19558459344E-01 -0.24102871512E-02  0.75520652707E-01  0.51100000000E-03 0.  1.
         11    1    4    4    0    0  0.55485824068E-01  0.12197490389E-02  0.61042277061E-02  0.55836253251E-01  0.51100000000E-03 0. -1.
</event>
<event>
 8    1  0.1114686E+005  0.1043930E+01  0.7957747E-01            NaN
         13   -1    0    0    0    0  0.00000000000E+00  0.00000000000E+00  0.74505805969E-08  0.10566000000E+00  0.10566000000E+00 0.  1.
     999900   -1    0    0    0    0 -0.00000000000E+00 -0.00000000000E+00 -0.74505805969E-08  0.93827000000E+00  0.93827000000E+00 0. -1.
     999902    2    1    2    0    0 -0.21870910065E-01 -0.82725866502E-02  0.28499868842E-02  0.10203737944E+01  0.10201018505E+01 0.  0.
     999903    2    3    3    0    0 -0.13071545906E+00 -0.67384626365E-02 -0.14493594580E-01  0.13349708978E+00  0.21896816693E-01 0.  0.
         14    1    1    2    0    0  0.21870910065E-01  0.82725866502E-02 -0.28499868842E-02  0.23556205598E-01  0.00000000000E+00 0.  1.
     999901    1    3    3    0    0  0.10884454899E+00 -0.15341240137E-02  0.17343581465E-01  0.88687670462E+00  0.88000000000E+00 0. -1.
        -11    1    4    4    0    0 -0.11174631752E+00 -0.10974334781E-01 -0.18064342177E-01  0.11372887532E+00  0.51100000000E-03 0. -1.
         11    1    4    4    0    0 -0.18969141539E-01  0.42358721449E-02  0.35707475963E-02  0.19768214460E-01  0.51100000000E-03 0.  1.
</event>
<event>
 8    1  0.1114686E+005  0.1043930E+01  0.7957747E-01            NaN
         13   -1    0    0    0    0  0.00000000000E+00  0.00000000000E+00  0.74505805969E-08  0.10566000000E+00  0.10566000000E+00 0. -1.
     999900   -1    0    0    0    0 -0.00000000000E+00 -0.00000000000E+00 -0.74505805969E-08  0.93827000000E+00  0.93827000000E+00 0.  1.
     999902    2    1    2    0    0 -0.22182253593E-01 -0.42893480145E-02 -0.61914135964E-02  0.10205038504E+01  0.10202349358E+01 0.  0.
     999903    2    3    3    0    0 -0.77435108068E-01 -0.12126707594E-01 -0.10527018360E+00  0.13318716244E+00  0.22666179348E-01 0.  0.
         14    1    1    2    0    0  0.22182253593E-01  0.42893480145E-02  0.61914135964E-02  0.23426149559E-01  0.00000000000E+00 0.  1.
     999901    1    3    3    0    0  0.55252854475E-01  0.78373595791E-02  0.99078770003E-01  0.88731668800E+00  0.88000000000E+00 0. -1.
        -11    1    4    4    0    0 -0.14406640271E-01 -0.71814358574E-02 -0.35789859995E-01  0.39246649593E-01  0.51100000000E-03 0.  1.
         11    1    4    4    0    0 -0.63028467797E-01 -0.49452717362E-02 -0.69480323605E-01  0.93940512851E-01  0.51100000000E-03 0. -1.
</event>
<event>
 8    1  0.1114686E+005  0.1043930E+01  0.7957747E-01            NaN
         13   -1    0    0    0    0  0.00000000000E+00  0.00000000000E+00  0.74505805969E-08  0.10566000000E+00  0.10566000000E+00 0. -1.
     999900   -1    0    0    0    0 -0.00000000000E+00 -0.00000000000E+00 -0.74505805969E-08  0.93827000000E+00  0.93827000000E+00 0. -1.
     999902    2    1    2    0    0 -0.82036329137E-02 -0.49722486058E-02  0.21556977911E-01  0.10203349551E+01  0.10200621032E+01 0.  0.
     999903    2    3    3    0    0  0.26147351578E-01  0.10483029253E+00 -0.66499340314E-01  0.12848827353E+00  0.20346988638E-01 0.  0.
         14    1    1    2    0    0  0.82036329137E-02  0.49722486058E-02 -0.21556977911E-01  0.23595044942E-01  0.00000000000E+00 0.  1.
     999901    1    3    3    0    0 -0.34350984491E-01 -0.10980254113E+00  0.88056318225E-01  0.89184668153E+00  0.88000000000E+00 0.  1.
        -11    1    4    4    0    0 -0.15191093056E-02  0.13673577788E-01 -0.14342974169E-01  0.19881057608E-01  0.51100000000E-03 0.  1.
         11    1    4    4    0    0  0.27666460883E-01  0.91156714738E-01 -0.52156366145E-01  0.10860721592E+00  0.51100000000E-03 0. -1.
</event>
<event>
 8    1  0.1114686E+005  0.1043930E+01  0.7957747E-01            NaN
         13   -1    0    0    0    0  0.00000000000E+00  0.00000000000E+00  0.74505805969E-08  0.10566000000E+00  0.10566000000E+00 0. -1.
     999900   -1    0    0    0    0 -0.00000000000E+00 -0.00000000000E+00 -0.74505805969E-08  0.93827000000E+00  0.93827000000E+00 0.  1.
     999902    2    1    2    0    0  0.19502128193E-01 -0.13114750640E-01  0.72269602547E-03  0.10204171954E+01  0.10201462644E+01 0.  0.
     999903    2    3    3    0    0  0.89580993294E-01  0.27040310802E-01 -0.90134372974E-01  0.13206001318E+00  0.23658172423E-01 0.  0.
         14    1    1    2    0    0 -0.19502128193E-01  0.13114750640E-01 -0.72269602547E-03  0.23512804553E-01  0.00000000000E+00 0.  1.
     999901    1    3    3    0    0 -0.70078865101E-01 -0.40155061443E-01  0.90857069000E-01  0.88835718226E+00  0.88000000000E+00 0. -1.
        -11    1    4    4    0    0  0.26892842039E-01 -0.22916309914E-03 -0.16374906294E-01  0.31490889886E-01  0.51100000000E-03 0.  1.
         11    1    4    4    0    0  0.62688151255E-01  0.27269473902E-01 -0.73759466681E-01  0.10056912330E+00  0.51100000000E-03 0. -1.
</event>
<event>
 7    1  0.1114686E+005  0.1043930E+01  0.7957747E-01            NaN
         13   -1    0    0    0    0  0.00000000000E+00  0.00000000000E+00  0.74505805969E-08  0.10566000000E+00  0.10566000000E+00 0.  1.
     999900   -1    0    0    0    0 -0.00000000000E+00 -0.00000000000E+00 -0.74505805969E-08  0.93827000000E+00  0.93827000000E+00 0.  1.
     999903    2    1    2    0    0  0.70858612581E-01 -0.84623886618E-01  0.41339665151E-01  0.11956086197E+00  0.20091954515E-01 0.  0.
         14    1    1    2    0    0 -0.23805190956E-01 -0.26908626903E-02 -0.30431505235E-01  0.38729889870E-01  0.00000000000E+00 0.  1.
     999901    1    1    2    0    0 -0.47053421625E-01  0.87314749308E-01 -0.10908159916E-01  0.88563924816E+00  0.88000000000E+00 0.  1.
        -11    1    3    3    0    0  0.31392879192E-01 -0.33077343872E-01  0.70739415620E-02  0.46151113874E-01  0.51100000000E-03 0.  1.
         11    1    3    3    0    0  0.39465733390E-01 -0.51546542746E-01  0.34265723589E-01  0.73409748093E-01  0.51100000000E-03 0. -1.
</event>
<event>
 8    1  0.1114686E+005  0.1043930E+01  0.7957747E-01            NaN
         13   -1    0    0    0    0  0.00000000000E+00  0.00000000000E+00  0.74505805969E-08  0.10566000000E+00  0.10566000000E+00 0.  1.
     999900   -1    0    0    0    0 -0.00000000000E+00 -0.00000000000E+00 -0.74505805969E-08  0.93827000000E+00  0.93827000000E+00 0. -1.
     999902    2    1    2    0    0  0.23647690748E-01  0.39319208164E-03 -0.32161017828E-02  0.10200613765E+01  0.10197820849E+01 0.  0.
     999903    2    3    3    0    0 -0.10531478921E+00 -0.29042396033E-01 -0.63703373365E-01  0.12812164472E+00  0.20551653803E-01 0.  0.
         14    1    1    2    0    0 -0.23647690748E-01 -0.39319208164E-03  0.32161017828E-02  0.23868623513E-01  0.00000000000E+00 0. -1.
     999901    1    3    3    0    0  0.12896247996E+00  0.29435588114E-01  0.60487271582E-01  0.89193973177E+00  0.88000000000E+00 0.  1.
        -11    1    4    4    0    0 -0.63577289130E-01 -0.84246174474E-02 -0.42690974141E-01  0.77044313653E-01  0.51100000000E-03 0. -1.
         11    1    4    4    0    0 -0.41737500079E-01 -0.20617778585E-01 -0.21012399224E-01  0.51077331065E-01  0.51100000000E-03 0.  1.
</event>
<event>
 8    1  0.1114686E+005  0.1043930E+01  0.7957747E-01            NaN
         13   -1    0    0    0    0  0.00000000000E+00  0.00000000000E+00  0.74505805969E-08  0.10566000000E+00  0.10566000000E+00 0. -1.
     999900   -1    0    0    0    0 -0.00000000000E+00 -0.00000000000E+00 -0.74505805969E-08  0.93827000000E+00  0.93827000000E+00 0. -1.
     999902    2    1    2    0    0 -0.18358544385E-01  0.12777009411E-01  0.12124535560E-01  0.10184880566E+01  0.10181702357E+01 0.  0.
     999903    2    3    3    0    0 -0.11577674096E+00  0.58540364698E-01  0.88649722888E-02  0.13192434515E+00  0.22230993296E-01 0.  0.
         14    1    1    2    0    0  0.18358544385E-01 -0.12777009411E-01 -0.12124535560E-01  0.25441943400E-01  0.00000000000E+00 0.  1.
     999901    1    3    3    0    0  0.97418196574E-01 -0.45763355286E-01  0.32595632717E-02  0.88656371145E+00  0.88000000000E+00 0. -1.
        -11    1    4    4    0    0 -0.55327140962E-02  0.64306117318E-02  0.51301155229E-02  0.99268775954E-02  0.51100000000E-03 0.  1.
         11    1    4    4    0    0 -0.11024402686E+00  0.52109752966E-01  0.37348567659E-02  0.12199746755E+00  0.51100000000E-03 0. -1.
</event>
<event>
 8    1  0.1114686E+005  0.1043930E+01  0.7957747E-01            NaN
         13   -1    0    0    0    0  0.00000000000E+00  0.00000000000E+00  0.74505805969E-08  0.10566000000E+00  0.10566000000E+00 0.  1.
     999900   -1    0    0    0    0 -0.00000000000E+00 -0.00000000000E+00 -0.74505805969E-08  0.93827000000E+00  0.93827000000E+00 0. -1.
     999902    2    1    2    0    0  0.89449884407E-02  0.14183865526E-01  0.19343937647E-01  0.10183295550E+01  0.10180077111E+01 0.  0.
     999903    2    3    3    0    0  0.79925204527E-01  0.10124591375E+00 -0.68583981697E-02  0.13080234207E+00  0.20577698996E-01 0.  0.
         14    1    1    2    0    0 -0.89449884407E-02 -0.14183865526E-01 -0.19343937647E-01  0.25600444980E-01  0.00000000000E+00 0. -1.
     999901    1    3    3    0    0 -0.70980216086E-01 -0.87062048229E-01  0.26202335817E-01  0.88752721295E+00  0.88000000000E+00 0.  1.
        -11    1    4    4    0    0  0.12648000430E-01  0.23358156706E-01  0.55306301522E-02  0.27137140425E-01  0.51100000000E-03 0. -1.
         11    1    4    4    0    0  0.67277204097E-01  0.77887757049E-01 -0.12389028322E-01  0.10366520165E+00  0.51100000000E-03 0.  1.
</event>
<event>
 8    1  0.1114686E+005  0.1043930E+01  0.7957747E-01            NaN
         13   -1    0    0    0    0  0.00000000000E+00  0.00000000000E+00  0.74505805969E-08  0.10566000000E+00  0.10566000000E+00 0. -1.
     999900   -1    0    0    0    0 -0.00000000000E+00 -0.00000000000E+00 -0.74505805969E-08  0.93827000000E+00  0.93827000000E+00 0. -1.
     999902    2    1    2    0    0 -0.41690278425E-02 -0.23461782979E-01 -0.52419911584E-04  0.10201006315E+01  0.10198222687E+01 0.  0.
     999903    2    3    3    0    0 -0.50905062936E-02 -0.10639724066E+00 -0.77017143333E-01  0.13285618499E+00  0.19309050955E-01 0.  0.
         14    1    1    2    0    0  0.41690278425E-02  0.23461782979E-01  0.52419911584E-04  0.23829368467E-01  0.00000000000E+00 0. -1.
     999901    1    3    3    0    0  0.92147845112E-03  0.82935457684E-01  0.76964723422E-01  0.88724444654E+00  0.88000000000E+00 0.  1.
        -11    1    4    4    0    0  0.33756979130E-02 -0.74197050897E-01 -0.59878321145E-01  0.95405828765E-01  0.51100000000E-03 0. -1.
         11    1    4    4    0    0 -0.84662042066E-02 -0.32200189766E-01 -0.17138822188E-01  0.37450356229E-01  0.51100000000E-03 0.  1.
</event>
<event>
 8    1  0.1114686E+005  0.1043930E+01  0.7957747E-01            NaN
         13   -1    0    0    0    0  0.00000000000E+00  0.00000000000E+00  0.74505805969E-08  0.10566000000E+00  0.10566000000E+00 0.  1.
     999900   -1    0    0    0    0 -0.00000000000E+00 -0.00000000000E+00 -0.74505805969E-08  0.93827000000E+00  0.93827000000E+00 0. -1.
     999902    2    1    2    0    0 -0.22012468060E-01 -0.97985465768E-03  0.11255940674E-02  0.10218670032E+01  0.10216287958E+01 0.  0.
     999903    2    3    3    0    0  0.53561982047E-01 -0.84708668911E-01  0.82201964339E-01  0.13097116774E+00  0.18757380643E-01 0.  0.
         14    1    1    2    0    0  0.22012468060E-01  0.97985465768E-03 -0.11255940674E-02  0.22062996787E-01  0.00000000000E+00 0.  1.
     999901    1    3    3    0    0 -0.75574450107E-01  0.83728814253E-01 -0.81076370272E-01  0.89089583547E+00  0.88000000000E+00 0. -1.
        -11    1    4    4    0    0  0.53090650868E-01 -0.80597164637E-01  0.73473187769E-01  0.12129752924E+00  0.51100000000E-03 0. -1.
         11    1    4    4    0    0  0.47133117830E-03 -0.41115042744E-02  0.87287765704E-02  0.96736385033E-02  0.51100000000E-03 0.  1.
</event>
<event>
 8    1  0.1114686E+005  0.1043930E+01  0.7957747E-01            NaN
         13   -1    0    0    0    0  0.00000000000E+00  0.00000000000E+00  0.74505805969E-08  0.10566000000E+00  0.10566000000E+00 0.  1.
     999900   -1    0    0    0    0 -0.00000000000E+00 -0.00000000000E+00 -0.74505805969E-08  0.93827000000E+00  0.93827000000E+00 0. -1.
     999902    2    1    2    0    0  0.20712970941E-02 -0.21884735284E-01 -0.72961484661E-02  0.10207682710E+01  0.10205054617E+01 0.  0.
     999903    2    3    3    0    0 -0.24808901643E-01 -0.11632614268E+00 -0.58113956548E-01  0.13384991274E+00  0.19781661252E-01 0.  0.
         14    1    1    2    0    0 -0.20712970941E-02  0.21884735284E-01  0.72961484661E-02  0.23161729049E-01  0.00000000000E+00 0.  1.
     999901    1    3    3    0    0  0.26880198737E-01  0.94441407401E-01  0.50817808082E-01  0.88691835821E+00  0.88000000000E+00 0.  1.
        -11    1    4    4    0    0 -0.17191118004E-01 -0.96117937726E-01 -0.39489719016E-01  0.10532754398E+00  0.51100000000E-03 0. -1.
         11    1    4    4    0    0 -0.76177836388E-02 -0.20208204958E-01 -0.18624237532E-01  0.28522368763E-01  0.51100000000E-03 0.  1.
</event>
<event>
 8    1  0.1114686E+005  0.1043930E+01  0.7957747E-01            NaN
         13   -1    0    0    0    0  0.00000000000E+00  0.00000000000E+00  0.74505805969E-08  0.10566000000E+00  0.10566000000E+00 0.  1.
     999900   -1    0    0    0    0 -0.00000000000E+00 -0.00000000000E+00 -0.74505805969E-08  0.93827000000E+00  0.93827000000E+00 0. -1.
     999902    2    1    2    0    0 -0.71274455388E-02  0.21585741694E-01 -0.97726512589E-02  0.10191863253E+01  0.10188859192E+01 0.  0.
     999903    2    3    3    0    0  0.55730080306E-02  0.33014049037E-01  0.12292851495E+00  0.12907312620E+00  0.20675257330E-01 0.  0.
         14    1    1    2    0    0  0.71274455388E-02 -0.21585741694E-01  0.97726512589E-02  0.24743674687E-01  0.00000000000E+00 0. -1.
     999901    1    3    3    0    0 -0.12700453569E-01 -0.11428307343E-01 -0.13270116621E+00  0.89011319912E+00  0.88000000000E+00 0. -1.
        -11    1    4    4    0    0 -0.14356413741E-02 -0.71251694428E-03  0.28615736609E-01  0.28665139965E-01  0.51100000000E-03 0.  1.
         11    1    4    4    0    0  0.70086494047E-02  0.33726565981E-01  0.94312778342E-01  0.10040798623E+00  0.51100000000E-03 0. -1.
</event>
<event>
 8    1  0.1114686E+005  0.1043930E+01  0.7957747E-01            NaN
         13   -1    0    0    0    0  0.00000000000E+00  0.00000000000E+00  0.74505805969E-08  0.10566000000E+00  0.10566000000E+00 0.  1.
     999900   -1    0    0    0    0 -0.00000000000E+00 -0.00000000000E+00 -0.74505805969E-08  0.93827000000E+00  0.93827000000E+00 0.  1.
     999902    2    1    2    0    0  0.28247378199E-02  0.20420001249E-01 -0.94326460255E-02  0.10212599668E+01  0.10210083199E+01 0.  0.
     999903    2    3    3    0    0 -0.11504380908E+00 -0.24436915998E-01 -0.54393130890E-01  0.13113268231E+00  0.20122793341E-01 0.  0.
         14    1    1    2    0    0 -0.28247378199E-02 -0.20420001249E-01  0.94326460255E-02  0.22670033211E-01  0.00000000000E+00 0. -1.
     999901    1    3    3    0    0  0.11786854690E+00  0.44856917247E-01  0.44960484865E-01  0.89012728448E+00  0.88000000000E+00 0.  1.
        -11    1    4    4    0    0 -0.56426887139E-01 -0.15874062484E-01 -0.37278035749E-01  0.69468644166E-01  0.51100000000E-03 0.  1.
         11    1    4    4    0    0 -0.58616921937E-01 -0.85628535138E-02 -0.17115095141E-01  0.61664038145E-01  0.51100000000E-03 0. -1.
</event>
<event>
 8    1  0.1114686E+005  0.1043930E+01  0.7957747E-01            NaN
         13   -1    0    0    0    0  0.00000000000E+00  0.00000000000E+00  0.74505805969E-08  0.10566000000E+00  0.10566000000E+00 0. -1.
     999900   -1    0    0    0    0 -0.00000000000E+00 -0.00000000000E+00 -0.74505805969E-08  0.93827000000E+00  0.93827000000E+00 0.  1.
     999902    2    1    2    0    0 -0.76287775087E-02  0.89105128479E-02 -0.19496516325E-01  0.10211767665E+01  0.10209232483E+01 0.  0.
     999903    2    3    3    0    0 -0.74196621293E-01 -0.10587080739E+00  0.38759604565E-02  0.13092270054E+00  0.20296895816E-01 0.  0.
         14    1    1    2    0    0  0.76287775087E-02 -0.89105128479E-02  0.19496516325E-01  0.22753233491E-01  0.00000000000E+00 0. -1.
     999901    1    3    3    0    0  0.66567843784E-01  0.11478132023E+00 -0.23372476782E-01  0.89025406597E+00  0.88000000000E+00 0.  1.
        -11    1    4    4    0    0 -0.14684513582E-01 -0.13032850907E-01  0.62805547293E-02  0.20620296570E-01  0.51100000000E-03 0.  1.
         11    1    4    4    0    0 -0.59512107711E-01 -0.92837956479E-01 -0.24045942728E-02  0.11030240397E+00  0.51100000000E-03 0. -1.
</event>
<event>
 7    1  0.1122373E+005  0.1043930E+01  0.7957747E-01            NaN
         13   -1    0    0    0    0  0.00000000000E+00  0.00000000000E+00  0.74505805969E-08  0.10566000000E+00  0.10566000000E+00 0. -1.
     999900   -1    0    0    0    0 -0.00000000000E+00 -0.00000000000E+00 -0.74505805969E-08  0.93827000000E+00  0.93827000000E+00 0. -1.
     999903    2    1    2    0    0  0.95966639549E-02 -0.10396943173E+00  0.81992353594E-02  0.10655609984E+00  0.19627436378E-01 0.  0.
         14    1    1    2    0    0  0.42030129359E-01  0.12523900977E-02 -0.26509427964E-01  0.49707645547E-01  0.00000000000E+00 0.  1.
     999901    1    1    2    0    0 -0.51626793314E-01  0.10271704163E+00  0.18310192604E-01  0.88766625462E+00  0.88000000000E+00 0.  1.
        -11    1    3    3    0    0  0.12622976447E-01 -0.53215995264E-01  0.10344850117E-01  0.55664699148E-01  0.51100000000E-03 0. -1.
         11    1    3    3    0    0 -0.30263124925E-02 -0.50753436467E-01 -0.21456147574E-02  0.50891400690E-01  0.51100000000E-03 0.  1.
</event>
<event>
 8    1  0.1114686E+005  0.1043930E+01  0.7957747E-01            NaN
         13   -1    0    0    0    0  0.00000000000E+00  0.00000000000E+00  0.74505805969E-08  0.10566000000E+00  0.10566000000E+00 0. -1.
     999900   -1    0    0    0    0 -0.00000000000E+00 -0.00000000000E+00 -0.74505805969E-08  0.93827000000E+00  0.93827000000E+00 0.  1.
     999902    2    1    2    0    0 -0.16085229390E-02  0.52559018360E-02 -0.22779633156E-01  0.10204966149E+01  0.10202275322E+01 0.  0.
     999903    2    3    3    0    0  0.12737245280E+00 -0.18311343731E-01 -0.11358952817E-01  0.13070903402E+00  0.19919305266E-01 0.  0.
         14    1    1    2    0    0  0.16085229390E-02 -0.52559018360E-02  0.22779633156E-01  0.23433385092E-01  0.00000000000E+00 0. -1.
     999901    1    3    3    0    0 -0.12898097574E+00  0.23567245567E-01 -0.11420680339E-01  0.88978758089E+00  0.88000000000E+00 0.  1.
        -11    1    4    4    0    0  0.72771037047E-01 -0.10763539423E-01  0.34044497915E-02  0.73643255042E-01  0.51100000000E-03 0. -1.
         11    1    4    4    0    0  0.54601415756E-01 -0.75478043086E-02 -0.14763402609E-01  0.57065778975E-01  0.51100000000E-03 0.  1.
</event>
<event>
 7    1  0.1114686E+005  0.1043930E+01  0.7957747E-01            NaN
         13   -1    0    0    0    0  0.00000000000E+00  0.00000000000E+00  0.74505805969E-08  0.10566000000E+00  0.10566000000E+00 0.  1.
     999900   -1    0    0    0    0 -0.00000000000E+00 -0.00000000000E+00 -0.74505805969E-08  0.93827000000E+00  0.93827000000E+00 0.  1.
     999903    2    1    2    0    0 -0.71411128376E-01  0.62316925545E-01 -0.34813205023E-01  0.10289045821E+00  0.19787336381E-01 0.  0.
         14    1    1    2    0    0  0.22203190537E-01 -0.48015201463E-01 -0.22937409648E-01  0.57659049618E-01  0.00000000000E+00 0. -1.
     999901    1    1    2    0    0  0.49207937839E-01 -0.14301724082E-01  0.57750614671E-01  0.88338049217E+00  0.88000000000E+00 0. -1.
        -11    1    3    3    0    0 -0.20520842212E-01  0.25148883531E-01 -0.38986705034E-02  0.32696055735E-01  0.51100000000E-03 0.  1.
         11    1    3    3    0    0 -0.50890286164E-01  0.37168042014E-01 -0.30914534520E-01  0.70194402473E-01  0.51100000000E-03 0. -1.
</event>
<event>
 8    1  0.1114686E+005  0.1043930E+01  0.7957747E-01            NaN
         13   -1    0    0    0    0  0.00000000000E+00  0.00000000000E+00  0.74505805969E-08  0.10566000000E+00  0.10566000000E+00 0.  1.
     999900   -1    0    0    0    0 -0.00000000000E+00 -0.00000000000E+00 -0.74505805969E-08  0.93827000000E+00  0.93827000000E+00 0.  1.
     999902    2    1    2    0    0 -0.15986931535E-01 -0.17968071812E-01  0.94781507075E-03  0.10198606847E+01  0.10195766201E+01 0.  0.
     999903    2    3    3    0    0  0.11736030864E+00 -0.49940745426E-01 -0.13016440626E-02  0.12923798212E+00  0.20814457662E-01 0.  0.
         14    1    1    2    0    0  0.15986931535E-01  0.17968071812E-01 -0.94781507075E-03  0.24069315278E-01  0.00000000000E+00 0. -1.
     999901    1    3    3    0    0 -0.13334724018E+00  0.31972673614E-01  0.22494591334E-02  0.89062270260E+00  0.88000000000E+00 0.  1.
        -11    1    4    4    0    0  0.39906508050E-01 -0.25642255693E-01  0.56041682364E-02  0.47767378873E-01  0.51100000000E-03 0. -1.
         11    1    4    4    0    0  0.77453800591E-01 -0.24298489732E-01 -0.69058122990E-02  0.81470603249E-01  0.51100000000E-03 0.  1.
</event>
<event>
 8    1  0.1114686E+005  0.1043930E+01  0.7957747E-01            NaN
         13   -1    0    0    0    0  0.00000000000E+00  0.00000000000E+00  0.74505805969E-08  0.10566000000E+00  0.10566000000E+00 0.  1.
     999900   -1    0    0    0    0 -0.00000000000E+00 -0.00000000000E+00 -0.74505805969E-08  0.93827000000E+00  0.93827000000E+00 0.  1.
     999902    2    1    2    0    0 -0.17457063766E-01 -0.94016081386E-02 -0.12510704637E-01  0.10204852342E+01  0.10202158871E+01 0.  0.
     999903    2    3    3    0    0  0.77821551737E-02  0.12424321420E+00 -0.32380217796E-01  0.12981539964E+00  0.17510604419E-01 0.  0.
         14    1    1    2    0    0  0.17457063766E-01  0.94016081386E-02  0.12510704637E-01  0.23444765757E-01  0.00000000000E+00 0.  1.
     999901    1    3    3    0    0 -0.25239218939E-01 -0.13364482234E+00  0.19869513159E-01  0.89066983460E+00  0.88000000000E+00 0. -1.
        -11    1    4    4    0    0  0.51905810209E-02  0.12102710425E+00 -0.29285485903E-01  0.12462906122E+00  0.51100000000E-03 0. -1.
         11    1    4    4    0    0  0.25915741528E-02  0.32161099465E-02 -0.30947318931E-02  0.51863384258E-02  0.51100000000E-03 0.  1.
</event>
<event>
 8    1  0.1114686E+005  0.1043930E+01  0.7957747E-01            NaN
         13   -1    0    0    0    0  0.00000000000E+00  0.00000000000E+00  0.74505805969E-08  0.10566000000E+00  0.10566000000E+00 0.  1.
     999900   -1    0    0    0    0 -0.00000000000E+00 -0.00000000000E+00 -0.74505805969E-08  0.93827000000E+00  0.93827000000E+00 0.  1.
     999902    2    1    2    0    0  0.12068701885E-01  0.56490575317E-03  0.19143400713E-01  0.10212928077E+01  0.10210418976E+01 0.  0.
     999903    2    3    3    0    0  0.77266131884E-01  0.73912052848E-01 -0.72996252297E-01  0.13105675783E+00  0.20356184067E-01 0.  0.
         14    1    1    2    0    0 -0.12068701885E-01 -0.56490575317E-03 -0.19143400713E-01  0.22637192286E-01  0.00000000000E+00 0. -1.
     999901    1    3    3    0    0 -0.65197429998E-01 -0.73347147095E-01  0.92139653010E-01  0.89023604989E+00  0.88000000000E+00 0. -1.
        -11    1    4    4    0    0  0.31969941848E-01  0.17930578680E-01 -0.21159277431E-01  0.42326811550E-01  0.51100000000E-03 0.  1.
         11    1    4    4    0    0  0.45296190036E-01  0.55981474168E-01 -0.51836974866E-01  0.88729946275E-01  0.51100000000E-03 0. -1.
</event>
<event>
 8    1  0.1114686E+005  0.1043930E+01  0.7957747E-01            NaN
         13   -1    0    0    0    0  0.00000000000E+00  0.00000000000E+00  0.74505805969E-08  0.10566000000E+00  0.10566000000E+00 0. -1.
     999900   -1    0    0    0    0 -0.00000000000E+00 -0.00000000000E+00 -0.74505805969E-08  0.93827000000E+00  0.93827000000E+00 0. -1.
     999902    2    1    2    0    0  0.14285685325E-01 -0.14675170645E-01 -0.11843733764E-01  0.10202716935E+01  0.10199973593E+01 0.  0.
     999903    2    3    3    0    0  0.11905470960E+00 -0.55073543511E-01 -0.88879392115E-02  0.13313173061E+00  0.20927091496E-01 0.  0.
         14    1    1    2    0    0 -0.14285685325E-01  0.14675170645E-01  0.11843733764E-01  0.23658306535E-01  0.00000000000E+00 0. -1.
     999901    1    3    3    0    0 -0.10476902427E+00  0.40398372866E-01 -0.29557945520E-02  0.88713996286E+00  0.88000000000E+00 0.  1.
        -11    1    4    4    0    0  0.23907605345E-01 -0.30757710593E-02 -0.50550783792E-02  0.24634303306E-01  0.51100000000E-03 0. -1.
         11    1    4    4    0    0  0.95147104254E-01 -0.51997772451E-01 -0.38328608323E-02  0.10849742730E+00  0.51100000000E-03 0.  1.
</event>
<event>
 8    1  0.1114686E+005  0.1043930E+01  0.7957747E-01            NaN
         13   -1    0    0    0    0  0.00000000000E+00  0.00000000000E+00  0.74505805969E-08  0.10566000000E+00  0.10566000000E+00 0.  1.
     999900   -1    0    0    0    0 -0.00000000000E+00 -0.00000000000E+00 -0.74505805969E-08  0.93827000000E+00  0.93827000000E+00 0.  1.
     999902    2    1    2    0    0 -0.34237103225E-01  0.75365087901E-02  0.11373485506E-01  0.10070744119E+01  0.10063997897E+01 0.  0.
     999903    2    3    3    0    0 -0.31549678815E-01  0.11052253060E+00  0.31544103495E-01  0.12083505553E+00  0.19886381699E-01 0.  0.
         14    1    1    2    0    0  0.34237103225E-01 -0.75365087901E-02 -0.11373485506E-01  0.36855588104E-01  0.00000000000E+00 0. -1.
     999901    1    3    3    0    0 -0.26874244101E-02 -0.10298602181E+00 -0.20170617989E-01  0.88623935636E+00  0.88000000000E+00 0. -1.
        -11    1    4    4    0    0 -0.23837673991E-02  0.34563114621E-01  0.15226548558E-01  0.37847062519E-01  0.51100000000E-03 0.  1.
         11    1    4    4    0    0 -0.29165911416E-01  0.75959415977E-01  0.16317554937E-01  0.82987993013E-01  0.51100000000E-03 0. -1.
</event>
<event>
 8    1  0.1114686E+005  0.1043930E+01  0.7957747E-01            NaN
         13   -1    0    0    0    0  0.00000000000E+00  0.00000000000E+00  0.74505805969E-08  0.10566000000E+00  0.10566000000E+00 0.  1.
     999900   -1    0    0    0    0 -0.00000000000E+00 -0.00000000000E+00 -0.74505805969E-08  0.93827000000E+00  0.93827000000E+00 0. -1.
     999902    2    1    2    0    0 -0.20373722202E-01  0.57410100076E-02 -0.12429818952E-01  0.10193831438E+01  0.10190875554E+01 0.  0.
     999903    2    3    3    0    0  0.91578427254E-01 -0.82580244665E-01  0.23702154415E-01  0.12717271606E+00  0.20124672380E-01 0.  0.
         14    1    1    2    0    0  0.20373722202E-01 -0.57410100076E-02  0.12429818952E-01  0.24546856244E-01  0.00000000000E+00 0.  1.
     999901    1    3    3    0    0 -0.11195214946E+00  0.88321254672E-01 -0.36131973367E-01  0.89221042770E+00  0.88000000000E+00 0.  1.
        -11    1    4    4    0    0  0.39125435499E-01 -0.25561378499E-01  0.15600895320E-01  0.49273043640E-01  0.51100000000E-03 0.  1.
         11    1    4    4    0    0  0.52452991755E-01 -0.57018866166E-01  0.81012590953E-02  0.77899672418E-01  0.51100000000E-03 0. -1.
</event>
<event>
 8    1  0.1114686E+005  0.1043930E+01  0.7957747E-01            NaN
         13   -1    0    0    0    0  0.00000000000E+00  0.00000000000E+00  0.74505805969E-08  0.10566000000E+00  0.10566000000E+00 0.  1.
     999900   -1    0    0    0    0 -0.00000000000E+00 -0.00000000000E+00 -0.74505805969E-08  0.93827000000E+00  0.93827000000E+00 0.  1.
     999902    2    1    2    0    0 -0.75865530782E-02  0.14027920078E-01 -0.17710965429E-01  0.10200969006E+01  0.10198184495E+01 0.  0.
     999903    2    3    3    0    0  0.92144154100E-01  0.76159283350E-01  0.46910468977E-01  0.12993823497E+00  0.19813410421E-01 0.  0.
         14    1    1    2    0    0  0.75865530782E-02 -0.14027920078E-01  0.17710965429E-01  0.23833099374E-01  0.00000000000E+00 0.  1.
     999901    1    3    3    0    0 -0.99730707178E-01 -0.62131363272E-01 -0.64621434406E-01  0.89015866566E+00  0.88000000000E+00 0. -1.
        -11    1    4    4    0    0  0.13772665516E-01  0.16135836937E-01  0.15725061520E-01  0.26411933475E-01  0.51100000000E-03 0. -1.
         11    1    4    4    0    0  0.78371488584E-01  0.60023446413E-01  0.31185407457E-01  0.10352630150E+00  0.51100000000E-03 0.  1.
</event>
<event>
 8    1  0.1114686E+005  0.1043930E+01  0.7957747E-01            NaN
         13   -1    0    0    0    0  0.00000000000E+00  0.00000000000E+00  0.74505805969E-08  0.10566000000E+00  0.10566000000E+00 0.  1.
     999900   -1    0    0    0    0 -0.00000000000E+00 -0.00000000000E+00 -0.74505805969E-08  0.93827000000E+00  0.93827000000E+00 0.  1.
     999902    2    1    2    0    0  0.45708821739E-02 -0.93960849947E-02  0.20871315668E-01  0.10205892375E+01  0.10203223023E+01 0.  0.
     999903    2    3    3    0    0 -0.26552256003E-01  0.12212864427E+00  0.30650108262E-01  0.13021682724E+00  0.19913937571E-01 0.  0.
         14    1    1    2    0    0 -0.45708821739E-02  0.93960849947E-02 -0.20871315668E-01  0.23340762515E-01  0.00000000000E+00 0. -1.
     999901    1    3    3    0    0  0.31123138177E-01 -0.13152472927E+00 -0.97787925948E-02  0.89037241024E+00  0.88000000000E+00 0. -1.
        -11    1    4    4    0    0 -0.10595278879E-01  0.27017062736E-01  0.14451955893E-01  0.32423783917E-01  0.51100000000E-03 0.  1.
         11    1    4    4    0    0 -0.15956977124E-01  0.95111581537E-01  0.16198152369E-01  0.97793043324E-01  0.51100000000E-03 0. -1.
</event>
<event>
 8    1  0.1114686E+005  0.1043930E+01  0.7957747E-01            NaN
         13   -1    0    0    0    0  0.00000000000E+00  0.00000000000E+00  0.74505805969E-08  0.10566000000E+00  0.10566000000E+00 0.  1.
     999900   -1    0    0    0    0 -0.00000000000E+00 -0.00000000000E+00 -0.74505805969E-08  0.93827000000E+00  0.93827000000E+00 0.  1.
     999902    2    1    2    0    0 -0.12791490470E-01 -0.19451324312E-01 -0.66939578239E-02  0.10197063480E+01  0.10194185847E+01 0.  0.
     999903    2    3    3    0    0 -0.16107718265E-01 -0.35252478516E-01  0.12205797797E+00  0.13019089853E+00  0.23437667192E-01 0.  0.
         14    1    1    2    0    0  0.12791490470E-01  0.19451324312E-01  0.66939578239E-02  0.24223652022E-01  0.00000000000E+00 0. -1.
     999901    1    3    3    0    0  0.33162277948E-02  0.15801154204E-01 -0.12875193580E+00  0.88951544945E+00  0.88000000000E+00 0.  1.
        -11    1    4    4    0    0 -0.14998752587E-01 -0.62359798642E-02  0.43718274968E-01  0.46641169702E-01  0.51100000000E-03 0. -1.
         11    1    4    4    0    0 -0.11089656779E-02 -0.29016498652E-01  0.78339703004E-01  0.83549728824E-01  0.51100000000E-03 0.  1.
</event>
<event>
 8    1  0.1114686E+005  0.1043930E+01  0.7957747E-01            NaN
         13   -1    0    0    0    0  0.00000000000E+00  0.00000000000E+00  0.74505805969E-08  0.10566000000E+00  0.10566000000E+00 0. -1.
     999900   -1    0    0    0    0 -0.00000000000E+00 -0.00000000000E+00 -0.74505805969E-08  0.93827000000E+00  0.93827000000E+00 0. -1.
     999902    2    1    2    0    0 -0.15611743563E-01  0.12140129968E-01 -0.13395568749E-01  0.10200437999E+01  0.10197640919E+01 0.  0.
     999903    2    3    3    0    0  0.15345952805E-01 -0.10613664935E+00 -0.70630212989E-01  0.12974970244E+00  0.18597625998E-01 0.  0.
         14    1    1    2    0    0  0.15611743563E-01 -0.12140129968E-01  0.13395568749E-01  0.23886200092E-01  0.00000000000E+00 0. -1.
     999901    1    3    3    0    0 -0.30957696368E-01  0.11827677932E+00  0.57234644241E-01  0.89029409747E+00  0.88000000000E+00 0. -1.
        -11    1    4    4    0    0  0.10310472906E-01 -0.22173679585E-01 -0.19802159035E-01  0.31470057854E-01  0.51100000000E-03 0. -1.
         11    1    4    4    0    0  0.50354798992E-02 -0.83962969765E-01 -0.50828053955E-01  0.98279644583E-01  0.51100000000E-03 0.  1.
</event>
<event>
 8    1  0.1366055E+005  0.1043930E+01  0.7957747E-01            NaN
         13   -1    0    0    0    0  0.00000000000E+00  0.00000000000E+00  0.74505805969E-08  0.10566000000E+00  0.10566000000E+00 0.  1.
     999900   -1    0    0    0    0 -0.00000000000E+00 -0.00000000000E+00 -0.74505805969E-08  0.93827000000E+00  0.93827000000E+00 0. -1.
     999902    2    1    2    0    0 -0.25813086585E-01 -0.46962395126E-02 -0.14113455138E-01  0.10141380595E+01  0.10137003719E+01 0.  0.
     999903    2    3    3    0    0 -0.85149391562E-01 -0.77511967398E-01 -0.52939605383E-01  0.12828796083E+00  0.19916704113E-01 0.  0.
         14    1    1    2    0    0  0.25813086585E-01  0.46962395126E-02  0.14113455138E-01  0.29791940530E-01  0.00000000000E+00 0.  1.
     999901    1    3    3    0    0  0.59336304977E-01  0.72815727886E-01  0.38826150245E-01  0.88585009864E+00  0.88000000000E+00 0. -1.
        -11    1    4    4    0    0 -0.39796397421E-01 -0.47828596910E-01 -0.22809119657E-01  0.66270996602E-01  0.51100000000E-03 0.  1.
         11    1    4    4    0    0 -0.45352994141E-01 -0.29683370488E-01 -0.30130485727E-01  0.62016964229E-01  0.51100000000E-03 0. -1.
</event>
<event>
 8    1  0.1114686E+005  0.1043930E+01  0.7957747E-01            NaN
         13   -1    0    0    0    0  0.00000000000E+00  0.00000000000E+00  0.74505805969E-08  0.10566000000E+00  0.10566000000E+00 0.  1.
     999900   -1    0    0    0    0 -0.00000000000E+00 -0.00000000000E+00 -0.74505805969E-08  0.93827000000E+00  0.93827000000E+00 0. -1.
     999902    2    1    2    0    0 -0.13324258002E-01 -0.92903015654E-02  0.13415488751E-01  0.10228629429E+01  0.10226459696E+01 0.  0.
     999903    2    3    3    0    0 -0.29370740902E-01 -0.12526237541E+00  0.34951697346E-01  0.13484784183E+00  0.20224148532E-01 0.  0.
         14    1    1    2    0    0  0.13324258002E-01  0.92903015654E-02 -0.13415488751E-01  0.21067057054E-01  0.00000000000E+00 0. -1.
     999901    1    3    3    0    0  0.16046482900E-01  0.11597207385E+00 -0.21536208595E-01  0.88801510111E+00  0.88000000000E+00 0. -1.
        -11    1    4    4    0    0 -0.17459738491E-01 -0.53294576509E-01  0.24314351885E-01  0.61127761140E-01  0.51100000000E-03 0. -1.
         11    1    4    4    0    0 -0.11911002411E-01 -0.71967798905E-01  0.10637345460E-01  0.73720080692E-01  0.51100000000E-03 0.  1.
</event>
<event>
 8    1  0.1114686E+005  0.1043930E+01  0.7957747E-01            NaN
         13   -1    0    0    0    0  0.00000000000E+00  0.00000000000E+00  0.74505805969E-08  0.10566000000E+00  0.10566000000E+00 0.  1.
     999900   -1    0    0    0    0 -0.00000000000E+00 -0.00000000000E+00 -0.74505805969E-08  0.93827000000E+00  0.93827000000E+00 0.  1.
     999902    2    1    2    0    0 -0.11498499114E-01  0.17554620024E-02 -0.20651133539E-01  0.10202283873E+01  0.10199530361E+01 0.  0.
     999903    2    3    3    0    0 -0.30473898711E-01 -0.68026540266E-01  0.10292179546E+00  0.12865681842E+00  0.20085125380E-01 0.  0.
         14    1    1    2    0    0  0.11498499114E-01 -0.17554620024E-02  0.20651133539E-01  0.23701612712E-01  0.00000000000E+00 0.  1.
     999901    1    3    3    0    0  0.18975399598E-01  0.69782002268E-01 -0.12357292900E+00  0.89157156887E+00  0.88000000000E+00 0. -1.
        -11    1    4    4    0    0 -0.11876826763E-01 -0.48675495997E-01  0.61992055544E-01  0.79709717074E-01  0.51100000000E-03 0.  1.
         11    1    4    4    0    0 -0.18597071948E-01 -0.19351044269E-01  0.40929739919E-01  0.48947101346E-01  0.51100000000E-03 0. -1.
</event>
<event>
 8    1  0.1114686E+005  0.1043930E+01  0.7957747E-01            NaN
         13   -1    0    0    0    0  0.00000000000E+00  0.00000000000E+00  0.74505805969E-08  0.10566000000E+00  0.10566000000E+00 0.  1.
     999900   -1    0    0    0    0 -0.00000000000E+00 -0.00000000000E+00 -0.74505805969E-08  0.93827000000E+00  0.93827000000E+00 0. -1.
     999902    2    1    2    0    0  0.24697711463E-01  0.74131133902E-02  0.72069030280E-02  0.10171555597E+01  0.10168031088E+01 0.  0.
     999903    2    3    3    0    0  0.30765973528E-01 -0.12235048718E+00 -0.24515032630E-03  0.12758771579E+00  0.19036236030E-01 0.  0.
         14    1    1    2    0    0 -0.24697711463E-01 -0.74131133902E-02 -0.72069030280E-02  0.26774440291E-01  0.00000000000E+00 0. -1.
     999901    1    3    3    0    0 -0.60682620647E-02  0.12976360057E+00  0.74520533543E-02  0.88956784392E+00  0.88000000000E+00 0.  1.
        -11    1    4    4    0    0  0.24063253642E-01 -0.69284830518E-01 -0.69705251794E-02  0.73676843431E-01  0.51100000000E-03 0.  1.
         11    1    4    4    0    0  0.67027198858E-02 -0.53065656659E-01  0.67253748531E-02  0.53910872358E-01  0.51100000000E-03 0. -1.
</event>
<event>
 7    1  0.1114686E+005  0.1043930E+01  0.7957747E-01            NaN
         13   -1    0    0    0    0  0.00000000000E+00  0.00000000000E+00  0.74505805969E-08  0.10566000000E+00  0.10566000000E+00 0.  1.
     999900   -1    0    0    0    0 -0.00000000000E+00 -0.00000000000E+00 -0.74505805969E-08  0.93827000000E+00  0.93827000000E+00 0.  1.
     999902    2    1    2    0    0 -0.69224084926E-02 -0.15833335395E-01 -0.15268210650E-01  0.10208706742E+01  0.10206102101E+01 0.  0.
         14    1    1    2    0    0  0.69224084926E-02  0.15833335395E-01  0.15268210650E-01  0.23059325782E-01  0.00000000000E+00 0.  1.
     999901    1    3    3    0    0  0.90458422671E-01  0.11842966374E-02 -0.86656787554E-01  0.88887205357E+00  0.88000000000E+00 0.  1.
        -11    1    3    3    0    0 -0.39309044554E-01  0.15514761648E-01  0.15280109232E-01  0.44940534842E-01  0.51100000000E-03 0. -1.
         11    1    3    3    0    0 -0.58071786609E-01 -0.32532393680E-01  0.56108467672E-01  0.87058085805E-01  0.51100000000E-03 0.  1.
</event>
<event>
 8    1  0.1114686E+005  0.1043930E+01  0.7957747E-01            NaN
         13   -1    0    0    0    0  0.00000000000E+00  0.00000000000E+00  0.74505805969E-08  0.10566000000E+00  0.10566000000E+00 0.  1.
     999900   -1    0    0    0    0 -0.00000000000E+00 -0.00000000000E+00 -0.74505805969E-08  0.93827000000E+00  0.93827000000E+00 0.  1.
     999902    2    1    2    0    0  0.10402838135E-01  0.22787253009E-01  0.14093157307E-02  0.10188408766E+01  0.10185319179E+01 0.  0.
     999903    2    3    3    0    0  0.17683852172E-01 -0.68713447845E-01  0.10468809928E+00  0.12805925437E+00  0.20132509902E-01 0.  0.
         14    1    1    2    0    0 -0.10402838135E-01 -0.22787253009E-01 -0.14093157307E-02  0.25089123376E-01  0.00000000000E+00 0. -1.
     999901    1    3    3    0    0 -0.72810140370E-02  0.91500700853E-01 -0.10327878355E+00  0.89078162226E+00  0.88000000000E+00 0.  1.
        -11    1    4    4    0    0  0.12972975723E-01 -0.19998538444E-01  0.25052723195E-01  0.34585252631E-01  0.51100000000E-03 0. -1.
         11    1    4    4    0    0  0.47108764482E-02 -0.48714909401E-01  0.79635376087E-01  0.93474001735E-01  0.51100000000E-03 0.  1.
</event>
<event>
 8    1  0.1114686E+005  0.1043930E+01  0.7957747E-01            NaN
         13   -1    0    0    0    0  0.00000000000E+00  0.00000000000E+00  0.74505805969E-08  0.10566000000E+00  0.10566000000E+00 0.  1.
     999900   -1    0    0    0    0 -0.00000000000E+00 -0.00000000000E+00 -0.74505805969E-08  0.93827000000E+00  0.93827000000E+00 0.  1.
     999902    2    1    2    0    0 -0.15657945850E-02  0.14098907675E-01  0.16944169466E-01  0.10218316790E+01  0.10215926999E+01 0.  0.
     999903    2    3    3    0    0  0.10019314684E+00 -0.61810973484E-01 -0.51237915606E-01  0.13011087692E+00  0.21077314311E-01 0.  0.
         14    1    1    2    0    0  0.15657945850E-02 -0.14098907675E-01 -0.16944169466E-01  0.22098320959E-01  0.00000000000E+00 0.  1.
     999901    1    3    3    0    0 -0.10175894143E+00  0.75909881159E-01  0.68182085073E-01  0.89172080213E+00  0.88000000000E+00 0. -1.
        -11    1    4    4    0    0  0.55151226195E-01 -0.25219734905E-01 -0.18135112450E-01  0.63299575071E-01  0.51100000000E-03 0.  1.
         11    1    4    4    0    0  0.45041920648E-01 -0.36591238579E-01 -0.33102803156E-01  0.66811301845E-01  0.51100000000E-03 0. -1.
</event>
<event>
 8    1  0.1114686E+005  0.1043930E+01  0.7957747E-01            NaN
         13   -1    0    0    0    0  0.00000000000E+00  0.00000000000E+00  0.74505805969E-08  0.10566000000E+00  0.10566000000E+00 0.  1.
     999900   -1    0    0    0    0 -0.00000000000E+00 -0.00000000000E+00 -0.74505805969E-08  0.93827000000E+00  0.93827000000E+00 0. -1.
     999902    2    1    2    0    0 -0.19906690869E-01 -0.83418580433E-02 -0.81992623011E-02  0.10208412400E+01  0.10205801029E+01 0.  0.
     999903    2    3    3    0    0 -0.11300661689E-01  0.81654083268E-01  0.98244162321E-01  0.12982859370E+00  0.20210245973E-01 0.  0.
         14    1    1    2    0    0  0.19906690869E-01  0.83418580433E-02  0.81992623011E-02  0.23088760020E-01  0.00000000000E+00 0.  1.
     999901    1    3    3    0    0 -0.86060291793E-02 -0.89995941312E-01 -0.10644342462E+00  0.89101264628E+00  0.88000000000E+00 0. -1.
        -11    1    4    4    0    0 -0.13880127913E-01  0.79188020402E-01  0.97062418807E-01  0.12603481579E+00  0.51100000000E-03 0.  1.
         11    1    4    4    0    0  0.25794662239E-02  0.24660628664E-02  0.11817435137E-02  0.37937779052E-02  0.51100000000E-03 0. -1.
</event>
<event>
 8    1  0.1114686E+005  0.1043930E+01  0.7957747E-01            NaN
         13   -1    0    0    0    0  0.00000000000E+00  0.00000000000E+00  0.74505805969E-08  0.10566000000E+00  0.10566000000E+00 0. -1.
     999900   -1    0    0    0    0 -0.00000000000E+00 -0.00000000000E+00 -0.74505805969E-08  0.93827000000E+00  0.93827000000E+00 0.  1.
     999902    2    1    2    0    0 -0.51011025130E-02  0.13202094252E-01  0.18790751906E-01  0.10204053555E+01  0.10201341484E+01 0.  0.
     999903    2    3    3    0    0 -0.66782815729E-02 -0.12673947971E+00  0.33178174591E-02  0.12921203010E+00  0.24025937001E-01 0.  0.
         14    1    1    2    0    0  0.51011025130E-02 -0.13202094252E-01 -0.18790751906E-01  0.23524644454E-01  0.00000000000E+00 0.  1.
     999901    1    3    3    0    0  0.15771790599E-02  0.13994157396E+00  0.15472934447E-01  0.89119332544E+00  0.88000000000E+00 0.  1.
        -11    1    4    4    0    0 -0.30693258636E-03 -0.16705431882E-01 -0.77748578105E-02  0.18435704406E-01  0.51100000000E-03 0.  1.
         11    1    4    4    0    0 -0.63713489865E-02 -0.11003404783E+00  0.11092675270E-01  0.11077632570E+00  0.51100000000E-03 0. -1.
</event>
<event>
 8    1  0.1114686E+005  0.1043930E+01  0.7957747E-01            NaN
         13   -1    0    0    0    0  0.00000000000E+00  0.00000000000E+00  0.74505805969E-08  0.10566000000E+00  0.10566000000E+00 0.  1.
     999900   -1    0    0    0    0 -0.00000000000E+00 -0.00000000000E+00 -0.74505805969E-08  0.93827000000E+00  0.93827000000E+00 0.  1.
     999902    2    1    2    0    0  0.21945376871E-01 -0.72580893901E-02  0.57848064245E-02  0.10201026331E+01  0.10198243175E+01 0.  0.
     999903    2    3    3    0    0  0.12964435467E+00 -0.21131870101E-01  0.11857643304E-01  0.13340740308E+00  0.20067806528E-01 0.  0.
         14    1    1    2    0    0 -0.21945376871E-01  0.72580893901E-02 -0.57848064245E-02  0.23827366892E-01  0.00000000000E+00 0. -1.
     999901    1    3    3    0    0 -0.10769897780E+00  0.13873780711E-01 -0.60728368797E-02  0.88669523003E+00  0.88000000000E+00 0. -1.
        -11    1    4    4    0    0  0.35656888111E-01 -0.26871531791E-02  0.11695987424E-01  0.37625678795E-01  0.51100000000E-03 0. -1.
         11    1    4    4    0    0  0.93987466562E-01 -0.18444716922E-01  0.16165588057E-03  0.95781724283E-01  0.51100000000E-03 0.  1.
</event>
<event>
 8    1  0.1114686E+005  0.1043930E+01  0.7957747E-01            NaN
         13   -1    0    0    0    0  0.00000000000E+00  0.00000000000E+00  0.74505805969E-08  0.10566000000E+00  0.10566000000E+00 0.  1.
     999900   -1    0    0    0    0 -0.00000000000E+00 -0.00000000000E+00 -0.74505805969E-08  0.93827000000E+00  0.93827000000E+00 0. -1.
     999902    2    1    2    0    0  0.12964641101E-02 -0.53691734438E-02  0.19568011766E-01  0.10235973679E+01  0.10233954054E+01 0.  0.
     999903    2    3    3    0    0 -0.49475011618E-01  0.12171114607E+00  0.46681508531E-02  0.13289587123E+00  0.19445850585E-01 0.  0.
         14    1    1    2    0    0 -0.12964641101E-02  0.53691734438E-02 -0.19568011766E-01  0.20332632076E-01  0.00000000000E+00 0. -1.
     999901    1    3    3    0    0  0.50771475728E-01 -0.12708031952E+00  0.14899860913E-01  0.89070149669E+00  0.88000000000E+00 0.  1.
        -11    1    4    4    0    0 -0.40030630215E-01  0.11083728275E+00  0.79555118165E-02  0.11811395300E+00  0.51100000000E-03 0. -1.
         11    1    4    4    0    0 -0.94443814022E-02  0.10873863322E-01 -0.32873609634E-02  0.14781918235E-01  0.51100000000E-03 0.  1.
</event>
<event>
 8    1  0.1114686E+005  0.1043930E+01  0.7957747E-01            NaN
         13   -1    0    0    0    0  0.00000000000E+00  0.00000000000E+00  0.74505805969E-08  0.10566000000E+00  0.10566000000E+00 0. -1.
     999900   -1    0    0    0    0 -0.00000000000E+00 -0.00000000000E+00 -0.74505805969E-08  0.93827000000E+00  0.93827000000E+00 0.  1.
     999902    2    1    2    0    0  0.32296791130E-02 -0.13873576176E-01 -0.16676206061E-01  0.10219982242E+01  0.10217628724E+01 0.  0.
     999903    2    3    3    0    0  0.71873671260E-01  0.94545071649E-01 -0.53685965500E-01  0.13192164141E+00  0.20409345603E-01 0.  0.
         14    1    1    2    0    0 -0.32296791130E-02  0.13873576176E-01  0.16676206061E-01  0.21931775844E-01  0.00000000000E+00 0. -1.
     999901    1    3    3    0    0 -0.68643992147E-01 -0.10841864783E+00  0.37009759439E-01  0.89007658274E+00  0.88000000000E+00 0. -1.
        -11    1    4    4    0    0  0.58100185813E-01  0.61029399525E-01 -0.37666426539E-01  0.92299729183E-01  0.51100000000E-03 0. -1.
         11    1    4    4    0    0  0.13773485446E-01  0.33515672124E-01 -0.16019538960E-01  0.39621912230E-01  0.51100000000E-03 0.  1.
</event>
<event>
 8    1  0.1114686E+005  0.1043930E+01  0.7957747E-01            NaN
         13   -1    0    0    0    0  0.00000000000E+00  0.00000000000E+00  0.74505805969E-08  0.10566000000E+00  0.10566000000E+00 0.  1.
     999900   -1    0    0    0    0 -0.00000000000E+00 -0.00000000000E+00 -0.74505805969E-08  0.93827000000E+00  0.93827000000E+00 0. -1.
     999902    2    1    2    0    0  0.18155707310E-01 -0.56822811437E-02 -0.15788429536E-01  0.10192076916E+01  0.10189078104E+01 0.  0.
     999903    2    3    3    0    0 -0.83650890210E-01 -0.62118021470E-01  0.69738061630E-01  0.12743173497E+00  0.22788808925E-01 0.  0.
         14    1    1    2    0    0 -0.18155707310E-01  0.56822811437E-02  0.15788429536E-01  0.24722308431E-01  0.00000000000E+00 0. -1.
     999901    1    3    3    0    0  0.10180659752E+00  0.56435740326E-01 -0.85526491165E-01  0.89177595660E+00  0.88000000000E+00 0. -1.
        -11    1    4    4    0    0 -0.69080596645E-01 -0.39040528606E-01  0.51206751639E-01  0.94438785683E-01  0.51100000000E-03 0. -1.
         11    1    4    4    0    0 -0.14570293565E-01 -0.23077492864E-01  0.18531309991E-01  0.32992949283E-01  0.51100000000E-03 0.  1.
</event>
<event>
 8    1  0.1114686E+005  0.1043930E+01  0.7957747E-01            NaN
         13   -1    0    0    0    0  0.00000000000E+00  0.00000000000E+00  0.74505805969E-08  0.10566000000E+00  0.10566000000E+00 0.  1.
     999900   -1    0    0    0    0 -0.00000000000E+00 -0.00000000000E+00 -0.74505805969E-08  0.93827000000E+00  0.93827000000E+00 0. -1.
     999902    2    1    2    0    0  0.49765266066E-02 -0.16622043733E-02 -0.25220794915E-01  0.10181692307E+01  0.10178432910E+01 0.  0.
     999903    2    3    3    0    0  0.60238223737E-01 -0.79233029637E-01 -0.83168564553E-01  0.13113539134E+00  0.19312279730E-01 0.  0.
         14    1    1    2    0    0 -0.49765266066E-02  0.16622043733E-02  0.25220794915E-01  0.25760769332E-01  0.00000000000E+00 0.  1.
     999901    1    3    3    0    0 -0.55261697130E-01  0.77570825264E-01  0.57947769639E-01  0.88703383933E+00  0.88000000000E+00 0.  1.
        -11    1    4    4    0    0  0.41820691107E-01 -0.64991754564E-01 -0.70574856777E-01  0.10466121486E+00  0.51100000000E-03 0. -1.
         11    1    4    4    0    0  0.18417532629E-01 -0.14241275073E-01 -0.12593707776E-01  0.26474176482E-01  0.51100000000E-03 0.  1.
</event>
<event>
 8    1  0.1114686E+005  0.1043930E+01  0.7957747E-01            NaN
         13   -1    0    0    0    0  0.00000000000E+00  0.00000000000E+00  0.74505805969E-08  0.10566000000E+00  0.10566000000E+00 0. -1.
     999900   -1    0    0    0    0 -0.00000000000E+00 -0.00000000000E+00 -0.74505805969E-08  0.93827000000E+00  0.93827000000E+00 0.  1.
     999902    2    1    2    0    0  0.34714360826E-02  0.71738932317E-02  0.22710162884E-01  0.10198620314E+01  0.10195779990E+01 0.  0.
     999903    2    3    3    0    0 -0.38265087651E-01 -0.11975009541E+00  0.24930245869E-01  0.12977407787E+00  0.20383617055E-01 0.  0.
         14    1    1    2    0    0 -0.34714360826E-02 -0.71738932317E-02 -0.22710162884E-01  0.24067968564E-01  0.00000000000E+00 0.  1.
     999901    1    3    3    0    0  0.41736523733E-01  0.12692398865E+00 -0.22200829845E-02  0.89008795356E+00  0.88000000000E+00 0. -1.
        -11    1    4    4    0    0 -0.68194078775E-02 -0.43551694175E-01  0.16495998975E-02  0.44116172659E-01  0.51100000000E-03 0. -1.
         11    1    4    4    0    0 -0.31445679773E-01 -0.76198401240E-01  0.23280645971E-01  0.85657905215E-01  0.51100000000E-03 0.  1.
</event>
<event>
 8    1  0.1114686E+005  0.1043930E+01  0.7957747E-01            NaN
         13   -1    0    0    0    0  0.00000000000E+00  0.00000000000E+00  0.74505805969E-08  0.10566000000E+00  0.10566000000E+00 0.  1.
     999900   -1    0    0    0    0 -0.00000000000E+00 -0.00000000000E+00 -0.74505805969E-08  0.93827000000E+00  0.93827000000E+00 0. -1.
     999902    2    1    2    0    0 -0.32924899188E-02  0.51193929279E-02 -0.22587034164E-01  0.10205372065E+01  0.10202690660E+01 0.  0.
     999903    2    3    3    0    0 -0.62904949635E-01  0.82849943454E-01  0.74975124739E-01  0.12974314577E+00  0.19770400252E-01 0.  0.
         14    1    1    2    0    0  0.32924899188E-02 -0.51193929279E-02  0.22587034164E-01  0.23392793466E-01  0.00000000000E+00 0.  1.
     999901    1    3    3    0    0  0.59612459717E-01 -0.77730550526E-01 -0.97562158904E-01  0.89079406076E+00  0.88000000000E+00 0. -1.
        -11    1    4    4    0    0 -0.10478304014E-02  0.10488318643E-01  0.95281440702E-02  0.14217926253E-01  0.51100000000E-03 0.  1.
         11    1    4    4    0    0 -0.61857119234E-01  0.72361624811E-01  0.65446980669E-01  0.11552521952E+00  0.51100000000E-03 0. -1.
</event>
<event>
 8    1  0.1114686E+005  0.1043930E+01  0.7957747E-01            NaN
         13   -1    0    0    0    0  0.00000000000E+00  0.00000000000E+00  0.74505805969E-08  0.10566000000E+00  0.10566000000E+00 0.  1.
     999900   -1    0    0    0    0 -0.00000000000E+00 -0.00000000000E+00 -0.74505805969E-08  0.93827000000E+00  0.93827000000E+00 0.  1.
     999902    2    1    2    0    0 -0.22153667610E-01 -0.18115528971E-01  0.13186615501E-01  0.10124205696E+01  0.10119301189E+01 0.  0.
     999903    2    3    3    0    0 -0.55479812559E-01 -0.96094522623E-01  0.59399064027E-01  0.12713702979E+00  0.17983566278E-01 0.  0.
         14    1    1    2    0    0  0.22153667610E-01  0.18115528971E-01 -0.13186615501E-01  0.31509430444E-01  0.00000000000E+00 0. -1.
     999901    1    3    3    0    0  0.33326144948E-01  0.77978993652E-01 -0.46212448526E-01  0.88528353977E+00  0.88000000000E+00 0.  1.
        -11    1    4    4    0    0 -0.53875559669E-01 -0.81405488924E-01  0.51884472568E-01  0.11055174884E+00  0.51100000000E-03 0. -1.
         11    1    4    4    0    0 -0.16042528897E-02 -0.14689033698E-01  0.75145914590E-02  0.16585280948E-01  0.51100000000E-03 0.  1.
</event>
<event>
 8    1  0.1114686E+005  0.1043930E+01  0.7957747E-01            NaN
         13   -1    0    0    0    0  0.00000000000E+00  0.00000000000E+00  0.74505805969E-08  0.10566000000E+00  0.10566000000E+00 0.  1.
     999900   -1    0    0    0    0 -0.00000000000E+00 -0.00000000000E+00 -0.74505805969E-08  0.93827000000E+00  0.93827000000E+00 0. -1.
     999902    2    1    2    0    0  0.63877401738E-02 -0.40730066035E-02 -0.20912462815E-01  0.10216876146E+01  0.10214454749E+01 0.  0.
     999903    2    3    3    0    0  0.11760253818E-02  0.70733382263E-01  0.10658175578E+00  0.12934354780E+00  0.19117748035E-01 0.  0.
         14    1    1    2    0    0 -0.63877401738E-02  0.40730066035E-02  0.20912462815E-01  0.22242385401E-01  0.00000000000E+00 0.  1.
     999901    1    3    3    0    0  0.52117147920E-02 -0.74806388866E-01 -0.12749421859E+00  0.89234406680E+00  0.88000000000E+00 0. -1.
        -11    1    4    4    0    0 -0.35974630967E-02  0.39897131811E-01  0.74489309042E-01  0.84579200458E-01  0.51100000000E-03 0. -1.
         11    1    4    4    0    0  0.47734884785E-02  0.30836250452E-01  0.32092446734E-01  0.44764347337E-01  0.51100000000E-03 0.  1.
</event>
<event>
 8    1  0.1114686E+005  0.1043930E+01  0.7957747E-01            NaN
         13   -1    0    0    0    0  0.00000000000E+00  0.00000000000E+00  0.74505805969E-08  0.10566000000E+00  0.10566000000E+00 0. -1.
     999900   -1    0    0    0    0 -0.00000000000E+00 -0.00000000000E+00 -0.74505805969E-08  0.93827000000E+00  0.93827000000E+00 0.  1.
     999902    2    1    2    0    0 -0.32938028318E-02  0.19848468212E-01  0.14159385246E-01  0.10193271746E+01  0.10190302203E+01 0.  0.
     999903    2    3    3    0    0 -0.81356933131E-01  0.67438187575E-01  0.77244645245E-01  0.13234443309E+00  0.19530848374E-01 0.  0.
         14    1    1    2    0    0  0.32938028318E-02 -0.19848468212E-01 -0.14159385246E-01  0.24602825407E-01  0.00000000000E+00 0. -1.
     999901    1    3    3    0    0  0.78063130299E-01 -0.47589719363E-01 -0.63085259999E-01  0.88698274151E+00  0.88000000000E+00 0.  1.
        -11    1    4    4    0    0 -0.67539438360E-01  0.64344824821E-01  0.66464215731E-01  0.11454075829E+00  0.51100000000E-03 0. -1.
         11    1    4    4    0    0 -0.13817494771E-01  0.30933627538E-02  0.10780429514E-01  0.17803674800E-01  0.51100000000E-03 0.  1.
</event>
<event>
 8    1  0.1114686E+005  0.1043930E+01  0.7957747E-01            NaN
         13   -1    0    0    0    0  0.00000000000E+00  0.00000000000E+00  0.74505805969E-08  0.10566000000E+00  0.10566000000E+00 0.  1.
     999900   -1    0    0    0    0 -0.00000000000E+00 -0.00000000000E+00 -0.74505805969E-08  0.93827000000E+00  0.93827000000E+00 0. -1.
     999902    2    1    2    0    0  0.56908483679E-02  0.21654580626E-01  0.20591495274E-02  0.10214456340E+01  0.10211981377E+01 0.  0.
     999903    2    3    3    0    0  0.11817084054E+00  0.26387861896E-02  0.56327689376E-01  0.13242458617E+00  0.19802820151E-01 0.  0.
         14    1    1    2    0    0 -0.56908483679E-02 -0.21654580626E-01 -0.20591495274E-02  0.22484365991E-01  0.00000000000E+00 0. -1.
     999901    1    3    3    0    0 -0.11247999217E+00  0.19015794437E-01 -0.54268539848E-01  0.88902104784E+00  0.88000000000E+00 0. -1.
        -11    1    4    4    0    0  0.64638659846E-01 -0.30213442488E-02  0.40390758250E-01  0.76282103673E-01  0.51100000000E-03 0. -1.
         11    1    4    4    0    0  0.53532180695E-01  0.56601304384E-02  0.15936931126E-01  0.56142482500E-01  0.51100000000E-03 0.  1.
</event>
<event>
 8    1  0.1114686E+005  0.1043930E+01  0.7957747E-01            NaN
         13   -1    0    0    0    0  0.00000000000E+00  0.00000000000E+00  0.74505805969E-08  0.10566000000E+00  0.10566000000E+00 0.  1.
     999900   -1    0    0    0    0 -0.00000000000E+00 -0.00000000000E+00 -0.74505805969E-08  0.93827000000E+00  0.93827000000E+00 0.  1.
     999902    2    1    2    0    0 -0.15985438090E-01 -0.16147387766E-01  0.19404962883E-03  0.10212075438E+01  0.10209547186E+01 0.  0.
     999903    2    3    3    0    0  0.10341620788E-01  0.10152686813E+00  0.76901630351E-01  0.12967829720E+00  0.22089498434E-01 0.  0.
         14    1    1    2    0    0  0.15985438090E-01  0.16147387766E-01 -0.19404962883E-03  0.22722456246E-01  0.00000000000E+00 0.  1.
     999901    1    3    3    0    0 -0.26327058878E-01 -0.11767425589E+00 -0.76707580723E-01  0.89152924656E+00  0.88000000000E+00 0.  1.
        -11    1    4    4    0    0  0.49219353649E-02  0.23153332427E-01  0.29865003318E-01  0.38111439154E-01  0.51100000000E-03 0.  1.
         11    1    4    4    0    0  0.54196854231E-02  0.78373535698E-01  0.47036627033E-01  0.91566858041E-01  0.51100000000E-03 0. -1.
</event>
<event>
 8    1  0.1114686E+005  0.1043930E+01  0.7957747E-01            NaN
         13   -1    0    0    0    0  0.00000000000E+00  0.00000000000E+00  0.74505805969E-08  0.10566000000E+00  0.10566000000E+00 0.  1.
     999900   -1    0    0    0    0 -0.00000000000E+00 -0.00000000000E+00 -0.74505805969E-08  0.93827000000E+00  0.93827000000E+00 0.  1.
     999902    2    1    2    0    0  0.15070541989E-01  0.16614621215E-01 -0.93510537686E-02  0.10196275499E+01  0.10193378888E+01 0.  0.
     999903    2    3    3    0    0 -0.37983587972E-01  0.21804751933E-01 -0.12159942252E+00  0.13089734650E+00  0.20724275611E-01 0.  0.
         14    1    1    2    0    0 -0.15070541989E-01 -0.16614621215E-01  0.93510537686E-02  0.24302450094E-01  0.00000000000E+00 0.  1.
     999901    1    3    3    0    0  0.53054129962E-01 -0.51901307176E-02  0.11224836876E+00  0.88873020341E+00  0.88000000000E+00 0. -1.
        -11    1    4    4    0    0 -0.50349915744E-02  0.44906781433E-02 -0.47437622251E-01  0.47917705039E-01  0.51100000000E-03 0. -1.
         11    1    4    4    0    0 -0.32948596398E-01  0.17314073789E-01 -0.74161800274E-01  0.82979641459E-01  0.51100000000E-03 0.  1.
</event>
<event>
 8    1  0.1114686E+005  0.1043930E+01  0.7957747E-01            NaN
         13   -1    0    0    0    0  0.00000000000E+00  0.00000000000E+00  0.74505805969E-08  0.10566000000E+00  0.10566000000E+00 0.  1.
     999900   -1    0    0    0    0 -0.00000000000E+00 -0.00000000000E+00 -0.74505805969E-08  0.93827000000E+00  0.93827000000E+00 0.  1.
     999902    2    1    2    0    0 -0.15901507334E-02 -0.74455454222E-02 -0.22529904621E-01  0.10201484667E+01  0.10198712334E+01 0.  0.
     999903    2    3    3    0    0 -0.77091214346E-01  0.52901403955E-01 -0.91400791702E-01  0.13218148304E+00  0.19396542596E-01 0.  0.
         14    1    1    2    0    0  0.15901507334E-02  0.74455454222E-02  0.22529904621E-01  0.23781533345E-01  0.00000000000E+00 0.  1.
     999901    1    3    3    0    0  0.75501063613E-01 -0.60346949378E-01  0.68870887081E-01  0.88796698362E+00  0.88000000000E+00 0. -1.
        -11    1    4    4    0    0 -0.46498144957E-01  0.41120912271E-01 -0.66816041707E-01  0.91201159318E-01  0.51100000000E-03 0. -1.
         11    1    4    4    0    0 -0.30593069389E-01  0.11780491684E-01 -0.24584749995E-01  0.40980323721E-01  0.51100000000E-03 0.  1.
</event>
<event>
 8    1  0.1114686E+005  0.1043930E+01  0.7957747E-01            NaN
         13   -1    0    0    0    0  0.00000000000E+00  0.00000000000E+00  0.74505805969E-08  0.10566000000E+00  0.10566000000E+00 0. -1.
     999900   -1    0    0    0    0 -0.00000000000E+00 -0.00000000000E+00 -0.74505805969E-08  0.93827000000E+00  0.93827000000E+00 0.  1.
     999902    2    1    2    0    0 -0.16281880472E-01  0.14899455134E-01 -0.66843696633E-02  0.10208697703E+01  0.10206092856E+01 0.  0.
     999903    2    3    3    0    0  0.12093651540E+00 -0.32169481385E-01  0.21550062799E-01  0.12854608683E+00  0.19979362886E-01 0.  0.
         14    1    1    2    0    0  0.16281880472E-01 -0.14899455134E-01  0.66843696633E-02  0.23060229677E-01  0.00000000000E+00 0. -1.
     999901    1    3    3    0    0 -0.13721839588E+00  0.47068936518E-01 -0.28234432462E-01  0.89232368350E+00  0.88000000000E+00 0.  1.
        -11    1    4    4    0    0  0.80153001475E-01 -0.21443844205E-01  0.23779583217E-01  0.86313798426E-01  0.51100000000E-03 0. -1.
         11    1    4    4    0    0  0.40783513928E-01 -0.10725637180E-01 -0.22295204183E-02  0.42232288400E-01  0.51100000000E-03 0.  1.
</event>
<event>
 8    1  0.1114686E+005  0.1043930E+01  0.7957747E-01            NaN
         13   -1    0    0    0    0  0.00000000000E+00  0.00000000000E+00  0.74505805969E-08  0.10566000000E+00  0.10566000000E+00 0. -1.
     999900   -1    0    0    0    0 -0.00000000000E+00 -0.00000000000E+00 -0.74505805969E-08  0.93827000000E+00  0.93827000000E+00 0.  1.
     999902    2    1    2    0    0 -0.15805489928E-02 -0.19047636975E-01 -0.12728475436E-01  0.10209664485E+01  0.10207081680E+01 0.  0.
     999903    2    3    3    0    0  0.99190446704E-01 -0.51850358295E-01  0.65450385790E-01  0.13116717541E+00  0.19846171705E-01 0.  0.
         14    1    1    2    0    0  0.15805489928E-02  0.19047636975E-01  0.12728475436E-01  0.22963551475E-01  0.00000000000E+00 0. -1.
     999901    1    3    3    0    0 -0.10077099570E+00  0.32802721321E-01 -0.78178861226E-01  0.88979927312E+00  0.88000000000E+00 0.  1.
        -11    1    4    4    0    0  0.81214006326E-01 -0.50462823706E-01  0.55896915881E-01  0.11075620852E+00  0.51100000000E-03 0. -1.
         11    1    4    4    0    0  0.17976440378E-01 -0.13875345891E-02  0.95534699091E-02  0.20410966885E-01  0.51100000000E-03 0.  1.
</event>
<event>
 8    1  0.1114686E+005  0.1043930E+01  0.7957747E-01            NaN
         13   -1    0    0    0    0  0.00000000000E+00  0.00000000000E+00  0.74505805969E-08  0.10566000000E+00  0.10566000000E+00 0.  1.
     999900   -1    0    0    0    0 -0.00000000000E+00 -0.00000000000E+00 -0.74505805969E-08  0.93827000000E+00  0.93827000000E+00 0.  1.
     999902    2    1    2    0    0  0.76350282590E-02 -0.21469952234E-01  0.61919371492E-02  0.10203166014E+01  0.10200433200E+01 0.  0.
     999903    2    3    3    0    0 -0.11220929246E+00  0.51127115553E-01  0.29723425287E-01  0.12892065890E+00  0.23068312069E-01 0.  0.
         14    1    1    2    0    0 -0.76350282590E-02  0.21469952234E-01 -0.61919371492E-02  0.23613398551E-01  0.00000000000E+00 0. -1.
     999901    1    3    3    0    0  0.11984432072E+00 -0.72597067787E-01 -0.23531488138E-01  0.89139594255E+00  0.88000000000E+00 0. -1.
        -11    1    4    4    0    0 -0.23341330974E-01  0.14589063664E-01 -0.23277977289E-02  0.27628577117E-01  0.51100000000E-03 0.  1.
         11    1    4    4    0    0 -0.88867961484E-01  0.36538051889E-01  0.32051223016E-01  0.10129208178E+00  0.51100000000E-03 0. -1.
</event>
<event>
 8    1  0.1114686E+005  0.1043930E+01  0.7957747E-01            NaN
         13   -1    0    0    0    0  0.00000000000E+00  0.00000000000E+00  0.74505805969E-08  0.10566000000E+00  0.10566000000E+00 0. -1.
     999900   -1    0    0    0    0 -0.00000000000E+00 -0.00000000000E+00 -0.74505805969E-08  0.93827000000E+00  0.93827000000E+00 0.  1.
     999902    2    1    2    0    0  0.72353452434E-02  0.47635457666E-02  0.21545454004E-01  0.10207082822E+01  0.10204440941E+01 0.  0.
     999903    2    3    3    0    0 -0.48263722104E-01  0.11905846153E+00 -0.14864644297E-01  0.13083797171E+00  0.19832121873E-01 0.  0.
         14    1    1    2    0    0 -0.72353452434E-02 -0.47635457666E-02 -0.21545454004E-01  0.23221717794E-01  0.00000000000E+00 0.  1.
     999901    1    3    3    0    0  0.55499067347E-01 -0.11429491576E+00  0.36410098301E-01  0.88987031050E+00  0.88000000000E+00 0.  1.
        -11    1    4    4    0    0 -0.36901736576E-01  0.10693761910E+00 -0.10262673197E-01  0.11359126781E+00  0.51100000000E-03 0. -1.
         11    1    4    4    0    0 -0.11361985528E-01  0.12120842431E-01 -0.46019711003E-02  0.17246703899E-01  0.51100000000E-03 0.  1.
</event>
<event>
 8    1  0.1114686E+005  0.1043930E+01  0.7957747E-01            NaN
         13   -1    0    0    0    0  0.00000000000E+00  0.00000000000E+00  0.74505805969E-08  0.10566000000E+00  0.10566000000E+00 0. -1.
     999900   -1    0    0    0    0 -0.00000000000E+00 -0.00000000000E+00 -0.74505805969E-08  0.93827000000E+00  0.93827000000E+00 0. -1.
     999902    2    1    2    0    0 -0.12515362439E-01 -0.79968130132E-02 -0.18199975181E-01  0.10204390994E+01  0.10201686788E+01 0.  0.
     999903    2    3    3    0    0 -0.12609669775E+00 -0.53905196917E-02  0.32070529699E-01  0.13171268695E+00  0.19755458519E-01 0.  0.
         14    1    1    2    0    0  0.12515362439E-01  0.79968130132E-02  0.18199975181E-01  0.23490900620E-01  0.00000000000E+00 0.  1.
     999901    1    3    3    0    0  0.11358133531E+00 -0.26062933215E-02 -0.50270504880E-01  0.88872641243E+00  0.88000000000E+00 0.  1.
        -11    1    4    4    0    0 -0.74328082465E-01  0.13366614667E-02  0.99169959645E-02  0.75000389578E-01  0.51100000000E-03 0.  1.
         11    1    4    4    0    0 -0.51768615285E-01 -0.67271811584E-02  0.22153533735E-01  0.56712297369E-01  0.51100000000E-03 0. -1.
</event>
<event>
 8    1  0.1114686E+005  0.1043930E+01  0.7957747E-01            NaN
         13   -1    0    0    0    0  0.00000000000E+00  0.00000000000E+00  0.74505805969E-08  0.10566000000E+00  0.10566000000E+00 0.  1.
     999900   -1    0    0    0    0 -0.00000000000E+00 -0.00000000000E+00 -0.74505805969E-08  0.93827000000E+00  0.93827000000E+00 0.  1.
     999902    2    1    2    0    0 -0.55724822367E-02 -0.22009508030E-01  0.68938572623E-02  0.10202024576E+01  0.10199264964E+01 0.  0.
     999903    2    3    3    0    0  0.91793637352E-01 -0.90123307800E-01 -0.20304419918E-01  0.13179973512E+00  0.20263717403E-01 0.  0.
         14    1    1    2    0    0  0.55724822367E-02  0.22009508030E-01 -0.68938572623E-02  0.23727542434E-01  0.00000000000E+00 0. -1.
     999901    1    3    3    0    0 -0.97366119589E-01  0.68113799769E-01  0.27198277180E-01  0.88840272244E+00  0.88000000000E+00 0.  1.
        -11    1    4    4    0    0  0.38917283976E-01 -0.26862802113E-01 -0.19496042249E-02  0.47331038517E-01  0.51100000000E-03 0. -1.
         11    1    4    4    0    0  0.52876353376E-01 -0.63260505687E-01 -0.18354815693E-01  0.84468696606E-01  0.51100000000E-03 0.  1.
</event>
<event>
 8    1  0.1114686E+005  0.1043930E+01  0.7957747E-01            NaN
         13   -1    0    0    0    0  0.00000000000E+00  0.00000000000E+00  0.74505805969E-08  0.10566000000E+00  0.10566000000E+00 0.  1.
     999900   -1    0    0    0    0 -0.00000000000E+00 -0.00000000000E+00 -0.74505805969E-08  0.93827000000E+00  0.93827000000E+00 0.  1.
     999902    2    1    2    0    0 -0.18728877093E-01  0.47044341257E-02  0.38048562864E-02  0.10242480420E+01  0.10240589203E+01 0.  0.
     999903    2    3    3    0    0 -0.10783927558E+00 -0.85903880441E-02  0.80639009810E-01  0.13631735637E+00  0.19407926732E-01 0.  0.
         14    1    1    2    0    0  0.18728877093E-01 -0.47044341257E-02 -0.38048562864E-02  0.19681957956E-01  0.00000000000E+00 0. -1.
     999901    1    3    3    0    0  0.89110398487E-01  0.13294822170E-01 -0.76834153524E-01  0.88793068567E+00  0.88000000000E+00 0.  1.
        -11    1    4    4    0    0 -0.11335642601E-01 -0.24987131771E-03  0.16918987295E-01  0.20373327685E-01  0.51100000000E-03 0.  1.
         11    1    4    4    0    0 -0.96503632978E-01 -0.83405167263E-02  0.63720022516E-01  0.11594402868E+00  0.51100000000E-03 0. -1.
</event>
<event>
 8    1  0.1114686E+005  0.1043930E+01  0.7957747E-01            NaN
         13   -1    0    0    0    0  0.00000000000E+00  0.00000000000E+00  0.74505805969E-08  0.10566000000E+00  0.10566000000E+00 0. -1.
     999900   -1    0    0    0    0 -0.00000000000E+00 -0.00000000000E+00 -0.74505805969E-08  0.93827000000E+00  0.93827000000E+00 0.  1.
     999902    2    1    2    0    0  0.92563544504E-02 -0.74814625577E-02  0.23222439692E-01  0.10178352863E+01  0.10175007302E+01 0.  0.
     999903    2    3    3    0    0  0.78736429786E-01  0.81784437417E-01 -0.52877772656E-01  0.12733704141E+00  0.23033534144E-01 0.  0.
         14    1    1    2    0    0 -0.92563544504E-02  0.74814625577E-02 -0.23222439692E-01  0.26094713736E-01  0.00000000000E+00 0.  1.
     999901    1    3    3    0    0 -0.69480075335E-01 -0.89265899975E-01  0.76100212348E-01  0.89049824485E+00  0.88000000000E+00 0. -1.
        -11    1    4    4    0    0  0.47776580803E-01  0.64171346723E-01 -0.33003399846E-01  0.86545068813E-01  0.51100000000E-03 0.  1.
         11    1    4    4    0    0  0.30959848982E-01  0.17613090694E-01 -0.19874372810E-01  0.40791972597E-01  0.51100000000E-03 0. -1.
</event>
<event>
 8    1  0.1114686E+005  0.1043930E+01  0.7957747E-01            NaN
         13   -1    0    0    0    0  0.00000000000E+00  0.00000000000E+00  0.74505805969E-08  0.10566000000E+00  0.10566000000E+00 0. -1.
     999900   -1    0    0    0    0 -0.00000000000E+00 -0.00000000000E+00 -0.74505805969E-08  0.93827000000E+00  0.93827000000E+00 0. -1.
     999902    2    1    2    0    0  0.61443248721E-02  0.16591753556E-01 -0.12016361757E-01  0.10225423408E+01  0.10223186425E+01 0.  0.
     999903    2    3    3    0    0  0.90048858559E-01 -0.63925263961E-01  0.68279493470E-01  0.13126775619E+00  0.19336449700E-01 0.  0.
         14    1    1    2    0    0 -0.61443248721E-02 -0.16591753556E-01  0.12016361757E-01  0.21387659154E-01  0.00000000000E+00 0. -1.
     999901    1    3    3    0    0 -0.83904533687E-01  0.80517017518E-01 -0.80295855227E-01  0.89127458465E+00  0.88000000000E+00 0. -1.
        -11    1    4    4    0    0  0.43079152098E-01 -0.35455509081E-01  0.24099309189E-01  0.60777827323E-01  0.51100000000E-03 0.  1.
         11    1    4    4    0    0  0.46969706461E-01 -0.28469754881E-01  0.44180184281E-01  0.70489928870E-01  0.51100000000E-03 0. -1.
</event>
<event>
 8    1  0.1114686E+005  0.1043930E+01  0.7957747E-01            NaN
         13   -1    0    0    0    0  0.00000000000E+00  0.00000000000E+00  0.74505805969E-08  0.10566000000E+00  0.10566000000E+00 0.  1.
     999900   -1    0    0    0    0 -0.00000000000E+00 -0.00000000000E+00 -0.74505805969E-08  0.93827000000E+00  0.93827000000E+00 0. -1.
     999902    2    1    2    0    0 -0.15933280997E-01  0.18453544151E-01  0.19532619548E-02  0.10194715052E+01  0.10191780669E+01 0.  0.
     999903    2    3    3    0    0  0.10393660663E+00 -0.34953992459E-01 -0.61568066132E-01  0.12747592560E+00  0.20853897777E-01 0.  0.
         14    1    1    2    0    0  0.15933280997E-01 -0.18453544151E-01 -0.19532619548E-02  0.24458494788E-01  0.00000000000E+00 0.  1.
     999901    1    3    3    0    0 -0.11986988763E+00  0.53407536610E-01  0.63521328087E-01  0.89199557961E+00  0.88000000000E+00 0.  1.
        -11    1    4    4    0    0  0.28205725461E-01 -0.71850992605E-02 -0.65576325262E-02  0.29840446805E-01  0.51100000000E-03 0.  1.
         11    1    4    4    0    0  0.75730881173E-01 -0.27768893199E-01 -0.55010433606E-01  0.97635478794E-01  0.51100000000E-03 0. -1.
</event>
<event>
 8    1  0.1114686E+005  0.1043930E+01  0.7957747E-01            NaN
         13   -1    0    0    0    0  0.00000000000E+00  0.00000000000E+00  0.74505805969E-08  0.10566000000E+00  0.10566000000E+00 0. -1.
     999900   -1    0    0    0    0 -0.00000000000E+00 -0.00000000000E+00 -0.74505805969E-08  0.93827000000E+00  0.93827000000E+00 0. -1.
     999902    2    1    2    0    0  0.15352646685E-01  0.12783643643E-01 -0.84965977127E-02  0.10222201525E+01  0.10219895903E+01 0.  0.
     999903    2    3    3    0    0  0.17516539721E-01  0.83842317685E-01 -0.10182016466E+00  0.13443453327E+00  0.19207665308E-01 0.  0.
         14    1    1    2    0    0 -0.15352646685E-01 -0.12783643643E-01  0.84965977127E-02  0.21709847483E-01  0.00000000000E+00 0. -1.
     999901    1    3    3    0    0 -0.21638930359E-02 -0.71058674042E-01  0.93323566946E-01  0.88778561924E+00  0.88000000000E+00 0. -1.
        -11    1    4    4    0    0 -0.20224002720E-02  0.36524870957E-01 -0.42464267976E-01  0.56050258492E-01  0.51100000000E-03 0. -1.
         11    1    4    4    0    0  0.19538939993E-01  0.47317446728E-01 -0.59355896683E-01  0.78384274781E-01  0.51100000000E-03 0.  1.
</event>
<event>
 8    1  0.1114686E+005  0.1043930E+01  0.7957747E-01            NaN
         13   -1    0    0    0    0  0.00000000000E+00  0.00000000000E+00  0.74505805969E-08  0.10566000000E+00  0.10566000000E+00 0.  1.
     999900   -1    0    0    0    0 -0.00000000000E+00 -0.00000000000E+00 -0.74505805969E-08  0.93827000000E+00  0.93827000000E+00 0. -1.
     999902    2    1    2    0    0 -0.65553258454E-02 -0.72405361620E-02 -0.22780804818E-01  0.10191436584E+01  0.10188422026E+01 0.  0.
     999903    2    3    3    0    0  0.68355910999E-01  0.18874462878E-01  0.10310323777E+00  0.12665249389E+00  0.19539719857E-01 0.  0.
         14    1    1    2    0    0  0.65553258454E-02  0.72405361620E-02  0.22780804818E-01  0.24786341582E-01  0.00000000000E+00 0.  1.
     999901    1    3    3    0    0 -0.74911236844E-01 -0.26114999040E-01 -0.12588404259E+00  0.89249116453E+00  0.88000000000E+00 0.  1.
        -11    1    4    4    0    0  0.33200502025E-01  0.18984281185E-01  0.49687578367E-01  0.62704009695E-01  0.51100000000E-03 0. -1.
         11    1    4    4    0    0  0.35155408974E-01 -0.10981830758E-03  0.53415659407E-01  0.63948484196E-01  0.51100000000E-03 0.  1.
</event>
<event>
 8    1  0.1114686E+005  0.1043930E+01  0.7957747E-01            NaN
         13   -1    0    0    0    0  0.00000000000E+00  0.00000000000E+00  0.74505805969E-08  0.10566000000E+00  0.10566000000E+00 0. -1.
     999900   -1    0    0    0    0 -0.00000000000E+00 -0.00000000000E+00 -0.74505805969E-08  0.93827000000E+00  0.93827000000E+00 0.  1.
     999902    2    1    2    0    0 -0.15642758444E-01 -0.10677064985E-01 -0.13995666405E-01  0.10203805990E+01  0.10201088141E+01 0.  0.
     999903    2    3    3    0    0 -0.35332503499E-01  0.10761319971E+00  0.59211507716E-01  0.12923551368E+00  0.19152775149E-01 0.  0.
         14    1    1    2    0    0  0.15642758444E-01  0.10677064985E-01  0.13995666405E-01  0.23549400981E-01  0.00000000000E+00 0. -1.
     999901    1    3    3    0    0  0.19689745055E-01 -0.11829026469E+00 -0.73207174121E-01  0.89114508534E+00  0.88000000000E+00 0. -1.
        -11    1    4    4    0    0 -0.25872620912E-01  0.87864675994E-01  0.39432810668E-01  0.99723625478E-01  0.51100000000E-03 0.  1.
         11    1    4    4    0    0 -0.94598825867E-02  0.19748523712E-01  0.19778697048E-01  0.29511888202E-01  0.51100000000E-03 0. -1.
</event>
<event>
 8    1  0.1114686E+005  0.1043930E+01  0.7957747E-01            NaN
         13   -1    0    0    0    0  0.00000000000E+00  0.00000000000E+00  0.74505805969E-08  0.10566000000E+00  0.10566000000E+00 0. -1.
     999900   -1    0    0    0    0 -0.00000000000E+00 -0.00000000000E+00 -0.74505805969E-08  0.93827000000E+00  0.93827000000E+00 0.  1.
     999902    2    1    2    0    0  0.23776763576E-02  0.11853414973E-01  0.18653718596E-01  0.10217012347E+01  0.10214593946E+01 0.  0.
     999903    2    3    3    0    0 -0.12079475630E+00 -0.11946091031E-01 -0.43978303990E-01  0.13060043513E+00  0.19705334166E-01 0.  0.
         14    1    1    2    0    0 -0.23776763576E-02 -0.11853414973E-01 -0.18653718596E-01  0.22228765347E-01  0.00000000000E+00 0.  1.
     999901    1    3    3    0    0  0.12317243266E+00  0.23799506004E-01  0.62632022586E-01  0.89110079952E+00  0.88000000000E+00 0.  1.
        -11    1    4    4    0    0 -0.41238050600E-01  0.52093415876E-02 -0.15903536930E-01  0.44507276539E-01  0.51100000000E-03 0.  1.
         11    1    4    4    0    0 -0.79556705699E-01 -0.17155432619E-01 -0.28074767061E-01  0.86093158593E-01  0.51100000000E-03 0. -1.
</event>
<event>
 8    1  0.1114686E+005  0.1043930E+01  0.7957747E-01            NaN
         13   -1    0    0    0    0  0.00000000000E+00  0.00000000000E+00  0.74505805969E-08  0.10566000000E+00  0.10566000000E+00 0.  1.
     999900   -1    0    0    0    0 -0.00000000000E+00 -0.00000000000E+00 -0.74505805969E-08  0.93827000000E+00  0.93827000000E+00 0.  1.
     999902    2    1    2    0    0 -0.18294850975E-01 -0.87938000405E-02 -0.11466124401E-01  0.10206168170E+01  0.10203505195E+01 0.  0.
     999903    2    3    3    0    0 -0.39598826807E-01 -0.18198868797E-02  0.12244947881E+00  0.13020349523E+00  0.19690003521E-01 0.  0.
         14    1    1    2    0    0  0.18294850975E-01  0.87938000405E-02  0.11466124401E-01  0.23313182969E-01  0.00000000000E+00 0. -1.
     999901    1    3    3    0    0  0.21303975831E-01 -0.69739131608E-02 -0.13391560321E+00  0.89041332180E+00  0.88000000000E+00 0.  1.
        -11    1    4    4    0    0 -0.18803282621E-01  0.23637167638E-02  0.85667949305E-01  0.87740579286E-01  0.51100000000E-03 0.  1.
         11    1    4    4    0    0 -0.20795544186E-01 -0.41836036435E-02  0.36781529501E-01  0.42462915948E-01  0.51100000000E-03 0. -1.
</event>
<event>
 8    1  0.1114686E+005  0.1043930E+01  0.7957747E-01            NaN
         13   -1    0    0    0    0  0.00000000000E+00  0.00000000000E+00  0.74505805969E-08  0.10566000000E+00  0.10566000000E+00 0.  1.
     999900   -1    0    0    0    0 -0.00000000000E+00 -0.00000000000E+00 -0.74505805969E-08  0.93827000000E+00  0.93827000000E+00 0.  1.
     999902    2    1    2    0    0  0.64992351701E-02  0.10388482534E-01  0.20202355459E-01  0.10203017162E+01  0.10200280861E+01 0.  0.
     999903    2    3    3    0    0  0.62998642666E-01 -0.41039348579E-01  0.10741826697E+00  0.13269616191E+00  0.20409071459E-01 0.  0.
         14    1    1    2    0    0 -0.64992351701E-02 -0.10388482534E-01 -0.20202355459E-01  0.23628283756E-01  0.00000000000E+00 0. -1.
     999901    1    3    3    0    0 -0.56499407496E-01  0.51427831113E-01 -0.87215911510E-01  0.88760555433E+00  0.88000000000E+00 0. -1.
        -11    1    4    4    0    0  0.25078352243E-01 -0.86920966325E-02  0.25533310927E-01  0.36833237477E-01  0.51100000000E-03 0.  1.
         11    1    4    4    0    0  0.37920290423E-01 -0.32347251947E-01  0.81884956042E-01  0.95862924435E-01  0.51100000000E-03 0. -1.
</event>
<event>
 8    1  0.1114686E+005  0.1043930E+01  0.7957747E-01            NaN
         13   -1    0    0    0    0  0.00000000000E+00  0.00000000000E+00  0.74505805969E-08  0.10566000000E+00  0.10566000000E+00 0.  1.
     999900   -1    0    0    0    0 -0.00000000000E+00 -0.00000000000E+00 -0.74505805969E-08  0.93827000000E+00  0.93827000000E+00 0. -1.
     999902    2    1    2    0    0  0.68301855421E-02 -0.11385898347E-01 -0.19555999655E-01  0.10202925882E+01  0.10200187441E+01 0.  0.
     999903    2    3    3    0    0 -0.11933233250E+00  0.17645471865E-01 -0.45435299019E-01  0.13044454521E+00  0.19996117677E-01 0.  0.
         14    1    1    2    0    0 -0.68301855421E-02  0.11385898347E-01  0.19555999655E-01  0.23637411834E-01  0.00000000000E+00 0.  1.
     999901    1    3    3    0    0  0.12616251804E+00 -0.29031370211E-01  0.25879299364E-01  0.88984804295E+00  0.88000000000E+00 0.  1.
        -11    1    4    4    0    0 -0.60546447038E-01  0.13197448010E-01 -0.32932267759E-01  0.70177206154E-01  0.51100000000E-03 0.  1.
         11    1    4    4    0    0 -0.58785885458E-01  0.44480238542E-02 -0.12503031260E-01  0.60267339057E-01  0.51100000000E-03 0. -1.
</event>
<event>
 8    1  0.1114686E+005  0.1043930E+01  0.7957747E-01            NaN
         13   -1    0    0    0    0  0.00000000000E+00  0.00000000000E+00  0.74505805969E-08  0.10566000000E+00  0.10566000000E+00 0.  1.
     999900   -1    0    0    0    0 -0.00000000000E+00 -0.00000000000E+00 -0.74505805969E-08  0.93827000000E+00  0.93827000000E+00 0. -1.
     999902    2    1    2    0    0 -0.18340110916E-02  0.21496165034E-01  0.11503065467E-01  0.10194806805E+01  0.10191874650E+01 0.  0.
     999903    2    3    3    0    0  0.22649015391E-01 -0.29938534113E-01  0.12347956129E+00  0.13055791533E+00  0.19719875135E-01 0.  0.
         14    1    1    2    0    0  0.18340110916E-02 -0.21496165034E-01 -0.11503065467E-01  0.24449319479E-01  0.00000000000E+00 0. -1.
     999901    1    3    3    0    0 -0.24483026482E-01  0.51434699148E-01 -0.11197649582E+00  0.88892276519E+00  0.88000000000E+00 0. -1.
        -11    1    4    4    0    0  0.12744889238E-01 -0.17783873186E-01  0.39796486507E-01  0.45417175237E-01  0.51100000000E-03 0. -1.
         11    1    4    4    0    0  0.99041261524E-02 -0.12154660928E-01  0.83683074783E-01  0.85140740091E-01  0.51100000000E-03 0.  1.
</event>
<event>
 8    1  0.1114686E+005  0.1043930E+01  0.7957747E-01            NaN
         13   -1    0    0    0    0  0.00000000000E+00  0.00000000000E+00  0.74505805969E-08  0.10566000000E+00  0.10566000000E+00 0. -1.
     999900   -1    0    0    0    0 -0.00000000000E+00 -0.00000000000E+00 -0.74505805969E-08  0.93827000000E+00  0.93827000000E+00 0. -1.
     999902    2    1    2    0    0 -0.14372759227E-01 -0.17068405410E-01 -0.45782322189E-02  0.10211513503E+01  0.10208972590E+01 0.  0.
     999903    2    3    3    0    0 -0.28747135641E-01  0.44140983285E-01  0.11772201533E+00  0.13047151867E+00  0.19736262988E-01 0.  0.
         14    1    1    2    0    0  0.14372759227E-01  0.17068405410E-01  0.45782322189E-02  0.22778649681E-01  0.00000000000E+00 0. -1.
     999901    1    3    3    0    0  0.14374376414E-01 -0.61209388695E-01 -0.12230024755E+00  0.89067983165E+00  0.88000000000E+00 0. -1.
        -11    1    4    4    0    0 -0.30455458663E-01  0.32764248865E-01  0.93294992930E-01  0.10346616738E+00  0.51100000000E-03 0.  1.
         11    1    4    4    0    0  0.17083230217E-02  0.11376734420E-01  0.24427022400E-01  0.27005351284E-01  0.51100000000E-03 0. -1.
</event>
<event>
 8    1  0.1114686E+005  0.1043930E+01  0.7957747E-01            NaN
         13   -1    0    0    0    0  0.00000000000E+00  0.00000000000E+00  0.74505805969E-08  0.10566000000E+00  0.10566000000E+00 0. -1.
     999900   -1    0    0    0    0 -0.00000000000E+00 -0.00000000000E+00 -0.74505805969E-08  0.93827000000E+00  0.93827000000E+00 0.  1.
     999902    2    1    2    0    0  0.12636998190E-01  0.14000691084E-01  0.13740595959E-01  0.10205951109E+01  0.10203283115E+01 0.  0.
     999903    2    3    3    0    0 -0.10035126048E-02 -0.10707590499E+00 -0.67603698181E-01  0.12848385107E+00  0.21715973647E-01 0.  0.
         14    1    1    2    0    0 -0.12636998190E-01 -0.14000691084E-01 -0.13740595959E-01  0.23334889144E-01  0.00000000000E+00 0.  1.
     999901    1    3    3    0    0  0.13640510795E-01  0.12107659607E+00  0.81344294139E-01  0.89211125979E+00  0.88000000000E+00 0. -1.
        -11    1    4    4    0    0 -0.29030852874E-02 -0.83147779722E-01 -0.41355021211E-01  0.92911140759E-01  0.51100000000E-03 0.  1.
         11    1    4    4    0    0  0.18995726826E-02 -0.23928125265E-01 -0.26248676970E-01  0.35572710309E-01  0.51100000000E-03 0. -1.
</event>
<event>
 8    1  0.1114686E+005  0.1043930E+01  0.7957747E-01            NaN
         13   -1    0    0    0    0  0.00000000000E+00  0.00000000000E+00  0.74505805969E-08  0.10566000000E+00  0.10566000000E+00 0.  1.
     999900   -1    0    0    0    0 -0.00000000000E+00 -0.00000000000E+00 -0.74505805969E-08  0.93827000000E+00  0.93827000000E+00 0. -1.
     999902    2    1    2    0    0  0.17997552249E-01  0.12165927351E-01 -0.14686615450E-01  0.10177075221E+01  0.10173696389E+01 0.  0.
     999903    2    3    3    0    0  0.63702645169E-01  0.10604325741E+00  0.34201908784E-01  0.13018738347E+00  0.21812491979E-01 0.  0.
         14    1    1    2    0    0 -0.17997552249E-01 -0.12165927351E-01  0.14686615450E-01  0.26222477927E-01  0.00000000000E+00 0.  1.
     999901    1    3    3    0    0 -0.45705092920E-01 -0.93877330064E-01 -0.48888524234E-01  0.88752013860E+00  0.88000000000E+00 0.  1.
        -11    1    4    4    0    0  0.29051211212E-01  0.67407044486E-01  0.24527824652E-01  0.77392233605E-01  0.51100000000E-03 0.  1.
         11    1    4    4    0    0  0.34651433957E-01  0.38636212929E-01  0.96740841312E-02  0.52795149868E-01  0.51100000000E-03 0. -1.
</event>
<event>
 8    1  0.1114686E+005  0.1043930E+01  0.7957747E-01            NaN
         13   -1    0    0    0    0  0.00000000000E+00  0.00000000000E+00  0.74505805969E-08  0.10566000000E+00  0.10566000000E+00 0. -1.
     999900   -1    0    0    0    0 -0.00000000000E+00 -0.00000000000E+00 -0.74505805969E-08  0.93827000000E+00  0.93827000000E+00 0. -1.
     999902    2    1    2    0    0  0.11638113509E-01 -0.54478166508E-02  0.19734060037E-01  0.10203809551E+01  0.10201091784E+01 0.  0.
     999903    2    3    3    0    0 -0.92106606262E-01  0.86951612246E-01  0.17672620742E-01  0.12947979843E+00  0.20211058567E-01 0.  0.
         14    1    1    2    0    0 -0.11638113509E-01  0.54478166508E-02 -0.19734060037E-01  0.23549044946E-01  0.00000000000E+00 0.  1.
     999901    1    3    3    0    0  0.10374471977E+00 -0.92399428897E-01  0.20614392957E-02  0.89090115662E+00  0.88000000000E+00 0.  1.
        -11    1    4    4    0    0 -0.67246198176E-01  0.56493319895E-01  0.42446156230E-02  0.87930792358E-01  0.51100000000E-03 0.  1.
         11    1    4    4    0    0 -0.24860408086E-01  0.30458292352E-01  0.13428005119E-01  0.41549006073E-01  0.51100000000E-03 0. -1.
</event>
<event>
 8    1  0.1114686E+005  0.1043930E+01  0.7957747E-01            NaN
         13   -1    0    0    0    0  0.00000000000E+00  0.00000000000E+00  0.74505805969E-08  0.10566000000E+00  0.10566000000E+00 0.  1.
     999900   -1    0    0    0    0 -0.00000000000E+00 -0.00000000000E+00 -0.74505805969E-08  0.93827000000E+00  0.93827000000E+00 0. -1.
     999902    2    1    2    0    0  0.26630007765E-02  0.29310415749E-01 -0.14607349389E-01  0.10110732396E+01  0.10105392270E+01 0.  0.
     999903    2    3    3    0    0  0.11844879311E+00 -0.68912919612E-02  0.19266096716E-01  0.12210511666E+00  0.21467895498E-01 0.  0.
         14    1    1    2    0    0 -0.26630007765E-02 -0.29310415749E-01  0.14607349389E-01  0.32856760350E-01  0.00000000000E+00 0.  1.
     999901    1    3    3    0    0 -0.11578579233E+00  0.36201707711E-01 -0.33873446105E-01  0.88896812299E+00  0.88000000000E+00 0. -1.
        -11    1    4    4    0    0  0.88583271424E-01 -0.13903272346E-01  0.17585141686E-01  0.91377214267E-01  0.51100000000E-03 0.  1.
         11    1    4    4    0    0  0.29865521685E-01  0.70119803843E-02  0.16809550296E-02  0.30727902389E-01  0.51100000000E-03 0. -1.
</event>
<event>
 8    1  0.1114686E+005  0.1043930E+01  0.7957747E-01            NaN
         13   -1    0    0    0    0  0.00000000000E+00  0.00000000000E+00  0.74505805969E-08  0.10566000000E+00  0.10566000000E+00 0. -1.
     999900   -1    0    0    0    0 -0.00000000000E+00 -0.00000000000E+00 -0.74505805969E-08  0.93827000000E+00  0.93827000000E+00 0.  1.
     999902    2    1    2    0    0 -0.76655235207E-02  0.21052749289E-01  0.75630012611E-02  0.10202830659E+01  0.10200089985E+01 0.  0.
     999903    2    3    3    0    0 -0.10091870350E+00  0.67237615185E-01  0.51036001203E-01  0.13308573773E+00  0.20041421034E-01 0.  0.
         14    1    1    2    0    0  0.76655235207E-02 -0.21052749289E-01 -0.75630012611E-02  0.23646934084E-01  0.00000000000E+00 0.  1.
     999901    1    3    3    0    0  0.93253179978E-01 -0.46184865896E-01 -0.43472999942E-01  0.88719732818E+00  0.88000000000E+00 0.  1.
        -11    1    4    4    0    0 -0.62160653036E-01  0.49723610261E-01  0.26058891268E-01  0.83759842039E-01  0.51100000000E-03 0.  1.
         11    1    4    4    0    0 -0.38758050463E-01  0.17514004924E-01  0.24977109935E-01  0.49325895693E-01  0.51100000000E-03 0. -1.
</event>
<event>
 8    1  0.1161407E+005  0.1043930E+01  0.7957747E-01            NaN
         13   -1    0    0    0    0  0.00000000000E+00  0.00000000000E+00  0.74505805969E-08  0.10566000000E+00  0.10566000000E+00 0. -1.
     999900   -1    0    0    0    0 -0.00000000000E+00 -0.00000000000E+00 -0.74505805969E-08  0.93827000000E+00  0.93827000000E+00 0.  1.
     999902    2    1    2    0    0 -0.44291137994E-02  0.15165099391E-01  0.18046847918E-01  0.10199448794E+01  0.10196628223E+01 0.  0.
     999903    2    3    3    0    0 -0.11888468293E+00  0.14946454514E-01  0.51263056126E-01  0.13191141070E+00  0.20390071419E-01 0.  0.
         14    1    1    2    0    0  0.44291137994E-02 -0.15165099391E-01 -0.18046847918E-01  0.23985120562E-01  0.00000000000E+00 0.  1.
     999901    1    3    3    0    0  0.11445556913E+00  0.21864487655E-03 -0.33216208208E-01  0.88803346874E+00  0.88000000000E+00 0.  1.
        -11    1    4    4    0    0 -0.46894338897E-01 -0.40172416059E-02  0.18522486507E-01  0.50582218992E-01  0.51100000000E-03 0.  1.
         11    1    4    4    0    0 -0.71990344030E-01  0.18963696120E-01  0.32740569619E-01  0.81329191709E-01  0.51100000000E-03 0. -1.
</event>
<event>
 8    1  0.1114686E+005  0.1043930E+01  0.7957747E-01            NaN
         13   -1    0    0    0    0  0.00000000000E+00  0.00000000000E+00  0.74505805969E-08  0.10566000000E+00  0.10566000000E+00 0. -1.
     999900   -1    0    0    0    0 -0.00000000000E+00 -0.00000000000E+00 -0.74505805969E-08  0.93827000000E+00  0.93827000000E+00 0. -1.
     999902    2    1    2    0    0 -0.15425878653E-01 -0.17819813058E-01 -0.99230455566E-02  0.10183571569E+01  0.10180360155E+01 0.  0.
     999903    2    3    3    0    0  0.11948181927E+00 -0.91333842965E-02 -0.38685751220E-01  0.12756939644E+00  0.20446019558E-01 0.  0.
         14    1    1    2    0    0  0.15425878653E-01  0.17819813058E-01  0.99230455566E-02  0.25572843072E-01  0.00000000000E+00 0. -1.
     999901    1    3    3    0    0 -0.13490769792E+00 -0.86864287615E-02  0.28762705663E-01  0.89078776049E+00  0.88000000000E+00 0.  1.
        -11    1    4    4    0    0  0.64122616867E-01 -0.10116938937E-01 -0.30028265065E-01  0.71526360673E-01  0.51100000000E-03 0. -1.
         11    1    4    4    0    0  0.55359202401E-01  0.98355464043E-03 -0.86574861549E-02  0.56043035765E-01  0.51100000000E-03 0.  1.
</event>
<event>
 8    1  0.1114686E+005  0.1043930E+01  0.7957747E-01            NaN
         13   -1    0    0    0    0  0.00000000000E+00  0.00000000000E+00  0.74505805969E-08  0.10566000000E+00  0.10566000000E+00 0.  1.
     999900   -1    0    0    0    0 -0.00000000000E+00 -0.00000000000E+00 -0.74505805969E-08  0.93827000000E+00  0.93827000000E+00 0.  1.
     999902    2    1    2    0    0 -0.83926923767E-02 -0.20943266570E-01 -0.79916694499E-02  0.10199941591E+01  0.10197132735E+01 0.  0.
     999903    2    3    3    0    0 -0.12435621758E+00 -0.25997043712E-02  0.36140312265E-01  0.13110065744E+00  0.20249269019E-01 0.  0.
         14    1    1    2    0    0  0.83926923767E-02  0.20943266570E-01  0.79916694499E-02  0.23935840920E-01  0.00000000000E+00 0.  1.
     999901    1    3    3    0    0  0.11596352520E+00 -0.18343562199E-01 -0.44131981715E-01  0.88889350164E+00  0.88000000000E+00 0.  1.
        -11    1    4    4    0    0 -0.70563594645E-01  0.80434953035E-02  0.23669564929E-01  0.74862728583E-01  0.51100000000E-03 0.  1.
         11    1    4    4    0    0 -0.53792622936E-01 -0.10643199675E-01  0.12470747336E-01  0.56237928854E-01  0.51100000000E-03 0. -1.
</event>
<event>
 8    1  0.1114686E+005  0.1043930E+01  0.7957747E-01            NaN
         13   -1    0    0    0    0  0.00000000000E+00  0.00000000000E+00  0.74505805969E-08  0.10566000000E+00  0.10566000000E+00 0. -1.
     999900   -1    0    0    0    0 -0.00000000000E+00 -0.00000000000E+00 -0.74505805969E-08  0.93827000000E+00  0.93827000000E+00 0. -1.
     999902    2    1    2    0    0 -0.11609004159E-01  0.69238662197E-02 -0.18823241799E-01  0.10207562361E+01  0.10204931505E+01 0.  0.
     999903    2    3    3    0    0 -0.51176666374E-01  0.61683303108E-01  0.10052926994E+00  0.13013329801E+00  0.20116164445E-01 0.  0.
         14    1    1    2    0    0  0.11609004159E-01 -0.69238662197E-02  0.18823241799E-01  0.23173763889E-01  0.00000000000E+00 0. -1.
     999901    1    3    3    0    0  0.39567662216E-01 -0.54759436888E-01 -0.11935251174E+00  0.89062293811E+00  0.88000000000E+00 0. -1.
        -11    1    4    4    0    0 -0.11132182594E-02  0.11682927604E-01  0.16984056569E-01  0.20650650131E-01  0.51100000000E-03 0. -1.
         11    1    4    4    0    0 -0.50063448115E-01  0.50000375503E-01  0.83545213369E-01  0.10948264787E+00  0.51100000000E-03 0.  1.
</event>
<event>
 8    1  0.1114686E+005  0.1043930E+01  0.7957747E-01            NaN
         13   -1    0    0    0    0  0.00000000000E+00  0.00000000000E+00  0.74505805969E-08  0.10566000000E+00  0.10566000000E+00 0.  1.
     999900   -1    0    0    0    0 -0.00000000000E+00 -0.00000000000E+00 -0.74505805969E-08  0.93827000000E+00  0.93827000000E+00 0. -1.
     999902    2    1    2    0    0 -0.97540874651E-03  0.86597320129E-02  0.21322451487E-01  0.10208954755E+01  0.10206355778E+01 0.  0.
     999903    2    3    3    0    0 -0.40795601870E-01  0.21832086145E-01  0.12404162987E+00  0.13392851542E+00  0.20238581620E-01 0.  0.
         14    1    1    2    0    0  0.97540874651E-03 -0.86597320129E-02 -0.21322451487E-01  0.23034524483E-01  0.00000000000E+00 0.  1.
     999901    1    3    3    0    0  0.39820193123E-01 -0.13172354132E-01 -0.10271917838E+00  0.88696696010E+00  0.88000000000E+00 0. -1.
        -11    1    4    4    0    0 -0.13398578003E-01  0.11492009417E-02  0.57483629859E-01  0.59037880874E-01  0.51100000000E-03 0.  1.
         11    1    4    4    0    0 -0.27397023867E-01  0.20682885203E-01  0.66558000006E-01  0.74890634548E-01  0.51100000000E-03 0. -1.
</event>
<event>
 8    1  0.1114686E+005  0.1043930E+01  0.7957747E-01            NaN
         13   -1    0    0    0    0  0.00000000000E+00  0.00000000000E+00  0.74505805969E-08  0.10566000000E+00  0.10566000000E+00 0.  1.
     999900   -1    0    0    0    0 -0.00000000000E+00 -0.00000000000E+00 -0.74505805969E-08  0.93827000000E+00  0.93827000000E+00 0.  1.
     999902    2    1    2    0    0 -0.23510662308E-02  0.72304050108E-02 -0.21278687321E-01  0.10213337879E+01  0.10210837955E+01 0.  0.
     999903    2    3    3    0    0  0.11687138466E+00  0.57404061235E-01 -0.47188708113E-02  0.13172397671E+00  0.19359532511E-01 0.  0.
         14    1    1    2    0    0  0.23510662308E-02 -0.72304050108E-02  0.21278687321E-01  0.22596212141E-01  0.00000000000E+00 0.  1.
     999901    1    3    3    0    0 -0.11922245089E+00 -0.50173656224E-01 -0.16559816509E-01  0.88960981115E+00  0.88000000000E+00 0. -1.
        -11    1    4    4    0    0  0.44108825891E-01  0.32268116822E-01 -0.16311253880E-02  0.54678529385E-01  0.51100000000E-03 0. -1.
         11    1    4    4    0    0  0.72762558769E-01  0.25135944413E-01 -0.30877454233E-02  0.77045447321E-01  0.51100000000E-03 0.  1.
</event>
<event>
 8    1  0.1114686E+005  0.1043930E+01  0.7957747E-01            NaN
         13   -1    0    0    0    0  0.00000000000E+00  0.00000000000E+00  0.74505805969E-08  0.10566000000E+00  0.10566000000E+00 0. -1.
     999900   -1    0    0    0    0 -0.00000000000E+00 -0.00000000000E+00 -0.74505805969E-08  0.93827000000E+00  0.93827000000E+00 0. -1.
     999902    2    1    2    0    0 -0.15330147144E-01  0.65051993066E-02  0.16471141437E-01  0.10205071579E+01  0.10202383201E+01 0.  0.
     999903    2    3    3    0    0  0.42917107102E-01 -0.63403903226E-01 -0.10104745259E+00  0.12804391210E+00  0.17964485106E-01 0.  0.
         14    1    1    2    0    0  0.15330147144E-01 -0.65051993066E-02 -0.16471141437E-01  0.23422842050E-01  0.00000000000E+00 0.  1.
     999901    1    3    3    0    0 -0.58247254247E-01  0.69909102533E-01  0.11751859403E+00  0.89246324585E+00  0.88000000000E+00 0.  1.
        -11    1    4    4    0    0  0.18021125409E-01 -0.12969306239E-01 -0.24730606939E-01  0.33238951636E-01  0.51100000000E-03 0.  1.
         11    1    4    4    0    0  0.24895981694E-01 -0.50434596988E-01 -0.76316845652E-01  0.94804960467E-01  0.51100000000E-03 0. -1.
</event>
<event>
 8    1  0.1114686E+005  0.1043930E+01  0.7957747E-01            NaN
         13   -1    0    0    0    0  0.00000000000E+00  0.00000000000E+00  0.74505805969E-08  0.10566000000E+00  0.10566000000E+00 0.  1.
     999900   -1    0    0    0    0 -0.00000000000E+00 -0.00000000000E+00 -0.74505805969E-08  0.93827000000E+00  0.93827000000E+00 0. -1.
     999902    2    1    2    0    0 -0.20502752306E-02  0.19321996369E-01  0.13135991105E-01  0.10204758440E+01  0.10202062785E+01 0.  0.
     999903    2    3    3    0    0  0.54398226945E-01 -0.15661290169E-01  0.11738447041E+00  0.13183755470E+00  0.19939504304E-01 0.  0.
         14    1    1    2    0    0  0.20502752306E-02 -0.19321996369E-01 -0.13135991105E-01  0.23454156017E-01  0.00000000000E+00 0. -1.
     999901    1    3    3    0    0 -0.56448502175E-01  0.34983286538E-01 -0.10424847931E+00  0.88863828928E+00  0.88000000000E+00 0. -1.
        -11    1    4    4    0    0  0.12355932835E-01 -0.10878962009E-01  0.45916381722E-01  0.48781104150E-01  0.51100000000E-03 0. -1.
         11    1    4    4    0    0  0.42042294110E-01 -0.47823281605E-02  0.71468088689E-01  0.83056450554E-01  0.51100000000E-03 0.  1.
</event>
<event>
 8    1  0.1114686E+005  0.1043930E+01  0.7957747E-01            NaN
         13   -1    0    0    0    0  0.00000000000E+00  0.00000000000E+00  0.74505805969E-08  0.10566000000E+00  0.10566000000E+00 0.  1.
     999900   -1    0    0    0    0 -0.00000000000E+00 -0.00000000000E+00 -0.74505805969E-08  0.93827000000E+00  0.93827000000E+00 0. -1.
     999902    2    1    2    0    0 -0.76751431747E-02  0.26375592292E-01 -0.36939408031E-02  0.10162131299E+01  0.10158350754E+01 0.  0.
     999903    2    3    3    0    0 -0.39985219070E-01 -0.87992413443E-01  0.76031363362E-01  0.12465264068E+00  0.20396814639E-01 0.  0.
         14    1    1    2    0    0  0.76751431747E-02 -0.26375592292E-01  0.36939408031E-02  0.27716870137E-01  0.00000000000E+00 0. -1.
     999901    1    3    3    0    0  0.32310075895E-01  0.11436800574E+00 -0.79725304165E-01  0.89156048918E+00  0.88000000000E+00 0. -1.
        -11    1    4    4    0    0 -0.26189854019E-01 -0.59185217697E-01  0.38264917874E-01  0.75188187292E-01  0.51100000000E-03 0. -1.
         11    1    4    4    0    0 -0.13795365051E-01 -0.28807195746E-01  0.37766445488E-01  0.49464453393E-01  0.51100000000E-03 0.  1.
</event>
<event>
 8    1  0.1114686E+005  0.1043930E+01  0.7957747E-01            NaN
         13   -1    0    0    0    0  0.00000000000E+00  0.00000000000E+00  0.74505805969E-08  0.10566000000E+00  0.10566000000E+00 0. -1.
     999900   -1    0    0    0    0 -0.00000000000E+00 -0.00000000000E+00 -0.74505805969E-08  0.93827000000E+00  0.93827000000E+00 0. -1.
     999902    2    1    2    0    0 -0.33587962928E-02  0.12090729210E-01 -0.23672140835E-01  0.10171375104E+01  0.10167845778E+01 0.  0.
     999903    2    3    3    0    0  0.93001232215E-01 -0.35402052360E-01  0.73185931998E-01  0.12532906370E+00  0.21181573609E-01 0.  0.
         14    1    1    2    0    0  0.33587962928E-02 -0.12090729210E-01  0.23672140835E-01  0.26792489565E-01  0.00000000000E+00 0. -1.
     999901    1    3    3    0    0 -0.96360028508E-01  0.47492781570E-01 -0.96858072833E-01  0.89180844674E+00  0.88000000000E+00 0. -1.
        -11    1    4    4    0    0  0.32980263257E-01 -0.23619255403E-01  0.28690568397E-01  0.49688799807E-01  0.51100000000E-03 0. -1.
         11    1    4    4    0    0  0.60020968958E-01 -0.11782796958E-01  0.44495363601E-01  0.75640263893E-01  0.51100000000E-03 0.  1.
</event>
<event>
 7    1  0.1114686E+005  0.1043930E+01  0.7957747E-01            NaN
         13   -1    0    0    0    0  0.00000000000E+00  0.00000000000E+00  0.74505805969E-08  0.10566000000E+00  0.10566000000E+00 0.  1.
     999900   -1    0    0    0    0 -0.00000000000E+00 -0.00000000000E+00 -0.74505805969E-08  0.93827000000E+00  0.93827000000E+00 0. -1.
     999902    2    1    2    0    0  0.12166938772E-01 -0.22179743015E-01 -0.26938562383E-02  0.10184892402E+01  0.10181714493E+01 0.  0.
         14    1    1    2    0    0 -0.12166938772E-01  0.22179743015E-01  0.26938562383E-02  0.25440759830E-01  0.00000000000E+00 0.  1.
     999901    1    3    3    0    0  0.97398424964E-01  0.62875891834E-01 -0.15830788113E-01  0.88774458309E+00  0.88000000000E+00 0. -1.
        -11    1    3    3    0    0 -0.57172513572E-01 -0.81685243806E-01  0.31531054280E-03  0.99707251018E-01  0.51100000000E-03 0.  1.
         11    1    3    3    0    0 -0.28058972620E-01 -0.33703910432E-02  0.12821621332E-01  0.31037406059E-01  0.51100000000E-03 0. -1.
</event>
<event>
 8    1  0.1114686E+005  0.1043930E+01  0.7957747E-01            NaN
         13   -1    0    0    0    0  0.00000000000E+00  0.00000000000E+00  0.74505805969E-08  0.10566000000E+00  0.10566000000E+00 0. -1.
     999900   -1    0    0    0    0 -0.00000000000E+00 -0.00000000000E+00 -0.74505805969E-08  0.93827000000E+00  0.93827000000E+00 0. -1.
     999902    2    1    2    0    0  0.12003775100E-01 -0.41409838984E-02 -0.22116998410E-01  0.10184270593E+01  0.10181076933E+01 0.  0.
     999903    2    3    3    0    0  0.43967613155E-01  0.10494480102E+00  0.54464873065E-01  0.12781705576E+00  0.20596482173E-01 0.  0.
         14    1    1    2    0    0 -0.12003775100E-01  0.41409838984E-02  0.22116998410E-01  0.25502940672E-01  0.00000000000E+00 0.  1.
     999901    1    3    3    0    0 -0.31963838055E-01 -0.10908578492E+00 -0.76581871474E-01  0.89061000357E+00  0.88000000000E+00 0. -1.
        -11    1    4    4    0    0  0.21788799377E-01  0.38950175263E-01  0.31011624833E-01  0.54349332352E-01  0.51100000000E-03 0.  1.
         11    1    4    4    0    0  0.22178813778E-01  0.65994625756E-01  0.23453248232E-01  0.73467723409E-01  0.51100000000E-03 0. -1.
</event>
<event>
 8    1  0.1114686E+005  0.1043930E+01  0.7957747E-01            NaN
         13   -1    0    0    0    0  0.00000000000E+00  0.00000000000E+00  0.74505805969E-08  0.10566000000E+00  0.10566000000E+00 0. -1.
     999900   -1    0    0    0    0 -0.00000000000E+00 -0.00000000000E+00 -0.74505805969E-08  0.93827000000E+00  0.93827000000E+00 0.  1.
     999902    2    1    2    0    0  0.16753396783E-01 -0.14142219561E-01 -0.10845852997E-01  0.10194695992E+01  0.10191761146E+01 0.  0.
     999903    2    3    3    0    0  0.12440712478E+00  0.72270680034E-02  0.36625601208E-01  0.13138204130E+00  0.19759628164E-01 0.  0.
         14    1    1    2    0    0 -0.16753396783E-01  0.14142219561E-01  0.10845852997E-01  0.24460400755E-01  0.00000000000E+00 0. -1.
     999901    1    3    3    0    0 -0.10765372800E+00 -0.21369287564E-01 -0.47471454205E-01  0.88808755794E+00  0.88000000000E+00 0. -1.
        -11    1    4    4    0    0  0.70016982472E-01  0.12478495368E-01  0.15474925217E-01  0.72786160173E-01  0.51100000000E-03 0.  1.
         11    1    4    4    0    0  0.54390142309E-01 -0.52514273644E-02  0.21150675991E-01  0.58595881132E-01  0.51100000000E-03 0. -1.
</event>
<event>
 8    1  0.1114686E+005  0.1043930E+01  0.7957747E-01            NaN
         13   -1    0    0    0    0  0.00000000000E+00  0.00000000000E+00  0.74505805969E-08  0.10566000000E+00  0.10566000000E+00 0. -1.
     999900   -1    0    0    0    0 -0.00000000000E+00 -0.00000000000E+00 -0.74505805969E-08  0.93827000000E+00  0.93827000000E+00 0. -1.
     999902    2    1    2    0    0 -0.68131356447E-02 -0.19330939311E-01 -0.13040490629E-01  0.10196368234E+01  0.10193473860E+01 0.  0.
     999903    2    3    3    0    0 -0.64822428330E-01  0.77230177350E-01 -0.79664095096E-01  0.12995832422E+00  0.19399754597E-01 0.  0.
         14    1    1    2    0    0  0.68131356447E-02  0.19330939311E-01  0.13040490629E-01  0.24293176568E-01  0.00000000000E+00 0. -1.
     999901    1    3    3    0    0  0.58009292686E-01 -0.96561116660E-01  0.66623604467E-01  0.88967849921E+00  0.88000000000E+00 0.  1.
        -11    1    4    4    0    0 -0.43396732524E-01  0.51652790205E-01 -0.41259205774E-01  0.79081415717E-01  0.51100000000E-03 0.  1.
         11    1    4    4    0    0 -0.21425695807E-01  0.25577387144E-01 -0.38404889322E-01  0.50876908502E-01  0.51100000000E-03 0. -1.
</event>
<event>
 8    1  0.1114686E+005  0.1043930E+01  0.7957747E-01            NaN
         13   -1    0    0    0    0  0.00000000000E+00  0.00000000000E+00  0.74505805969E-08  0.10566000000E+00  0.10566000000E+00 0.  1.
     999900   -1    0    0    0    0 -0.00000000000E+00 -0.00000000000E+00 -0.74505805969E-08  0.93827000000E+00  0.93827000000E+00 0. -1.
     999902    2    1    2    0    0  0.37703267307E-03 -0.15788031895E-01  0.17465921327E-01  0.10203829723E+01  0.10201112428E+01 0.  0.
     999903    2    3    3    0    0 -0.63638872524E-01  0.10891718746E+00 -0.15362475965E-01  0.12868395835E+00  0.20265627242E-01 0.  0.
         14    1    1    2    0    0 -0.37703267307E-03  0.15788031895E-01 -0.17465921327E-01  0.23547027679E-01  0.00000000000E+00 0. -1.
     999901    1    3    3    0    0  0.64015905197E-01 -0.12470521936E+00  0.32828397291E-01  0.89169901397E+00  0.88000000000E+00 0.  1.
        -11    1    4    4    0    0 -0.23820700922E-01  0.38087110531E-01 -0.15199225978E-01  0.47427116425E-01  0.51100000000E-03 0. -1.
         11    1    4    4    0    0 -0.39818171602E-01  0.70830076930E-01 -0.16324998668E-03  0.81256841922E-01  0.51100000000E-03 0.  1.
</event>
<event>
 8    1  0.1114686E+005  0.1043930E+01  0.7957747E-01            NaN
         13   -1    0    0    0    0  0.00000000000E+00  0.00000000000E+00  0.74505805969E-08  0.10566000000E+00  0.10566000000E+00 0.  1.
     999900   -1    0    0    0    0 -0.00000000000E+00 -0.00000000000E+00 -0.74505805969E-08  0.93827000000E+00  0.93827000000E+00 0.  1.
     999902    2    1    2    0    0 -0.16816717741E-01 -0.65339125867E-02  0.15298666212E-01  0.10202753346E+01  0.10200010858E+01 0.  0.
     999903    2    3    3    0    0 -0.52751456189E-01 -0.54463217106E-01  0.10777159485E+00  0.13340456258E+00  0.20811115111E-01 0.  0.
         14    1    1    2    0    0  0.16816717741E-01  0.65339125867E-02 -0.15298666212E-01  0.23654665441E-01  0.00000000000E+00 0. -1.
     999901    1    3    3    0    0  0.35934738448E-01  0.47929304520E-01 -0.92472928642E-01  0.88687077198E+00  0.88000000000E+00 0.  1.
        -11    1    4    4    0    0 -0.65895628782E-02 -0.12282422825E-01  0.33662999349E-01  0.36438151648E-01  0.51100000000E-03 0.  1.
         11    1    4    4    0    0 -0.46161893311E-01 -0.42180794281E-01  0.74108595505E-01  0.96966410932E-01  0.51100000000E-03 0. -1.
</event>
<event>
 7    1  0.1114686E+005  0.1043930E+01  0.7957747E-01            NaN
         13   -1    0    0    0    0  0.00000000000E+00  0.00000000000E+00  0.74505805969E-08  0.10566000000E+00  0.10566000000E+00 0.  1.
     999900   -1    0    0    0    0 -0.00000000000E+00 -0.00000000000E+00 -0.74505805969E-08  0.93827000000E+00  0.93827000000E+00 0. -1.
     999903    2    1    2    0    0 -0.79743095729E-02  0.69171433666E-01  0.89275889720E-01  0.11496271330E+00  0.19949037968E-01 0.  0.
         14    1    1    2    0    0  0.20477640285E-01  0.32484154879E-01 -0.86787554557E-02  0.39368450136E-01  0.00000000000E+00 0.  1.
     999901    1    1    2    0    0 -0.12503330712E-01 -0.10165558854E+00 -0.80597134264E-01  0.88959883656E+00  0.88000000000E+00 0. -1.
        -11    1    3    3    0    0  0.16595113783E-02  0.26288345432E-01  0.47528419234E-01  0.54341906845E-01  0.51100000000E-03 0. -1.
         11    1    3    3    0    0 -0.96338209512E-02  0.42883088233E-01  0.41747470485E-01  0.60620806457E-01  0.51100000000E-03 0.  1.
</event>
<event>
 8    1  0.1114686E+005  0.1043930E+01  0.7957747E-01            NaN
         13   -1    0    0    0    0  0.00000000000E+00  0.00000000000E+00  0.74505805969E-08  0.10566000000E+00  0.10566000000E+00 0. -1.
     999900   -1    0    0    0    0 -0.00000000000E+00 -0.00000000000E+00 -0.74505805969E-08  0.93827000000E+00  0.93827000000E+00 0. -1.
     999902    2    1    2    0    0  0.33914027955E-02 -0.23067254161E-01 -0.56053174088E-02  0.10199504376E+01  0.10196685127E+01 0.  0.
     999903    2    3    3    0    0 -0.68490203365E-01 -0.10750085635E+00 -0.30143317038E-01  0.13265222853E+00  0.20991714974E-01 0.  0.
         14    1    1    2    0    0 -0.33914027955E-02  0.23067254161E-01  0.56053174088E-02  0.23979562354E-01  0.00000000000E+00 0. -1.
     999901    1    3    3    0    0  0.71881606160E-01  0.84433602190E-01  0.24537999629E-01  0.88729820912E+00  0.88000000000E+00 0.  1.
        -11    1    4    4    0    0 -0.23476425521E-01 -0.55638696105E-01 -0.16917374233E-01  0.62715753455E-01  0.51100000000E-03 0. -1.
         11    1    4    4    0    0 -0.45013777844E-01 -0.51862160245E-01 -0.13225942805E-01  0.69936475070E-01  0.51100000000E-03 0.  1.
</event>
<event>
 8    1  0.1114686E+005  0.1043930E+01  0.7957747E-01            NaN
         13   -1    0    0    0    0  0.00000000000E+00  0.00000000000E+00  0.74505805969E-08  0.10566000000E+00  0.10566000000E+00 0. -1.
     999900   -1    0    0    0    0 -0.00000000000E+00 -0.00000000000E+00 -0.74505805969E-08  0.93827000000E+00  0.93827000000E+00 0.  1.
     999902    2    1    2    0    0  0.13587690719E-01 -0.20535799231E-02 -0.18059770821E-01  0.10212364359E+01  0.10209842605E+01 0.  0.
     999903    2    3    3    0    0 -0.12393752946E+00  0.12169127143E-01  0.27961907435E-01  0.12925355128E+00  0.20396406202E-01 0.  0.
         14    1    1    2    0    0 -0.13587690719E-01  0.20535799231E-02  0.18059770821E-01  0.22693564103E-01  0.00000000000E+00 0. -1.
     999901    1    3    3    0    0  0.13752522018E+00 -0.14222707066E-01 -0.46021678257E-01  0.89198288462E+00  0.88000000000E+00 0. -1.
        -11    1    4    4    0    0 -0.88027751920E-01  0.15411548166E-01  0.26292019181E-01  0.93155420232E-01  0.51100000000E-03 0.  1.
         11    1    4    4    0    0 -0.35909777543E-01 -0.32424210238E-02  0.16698882540E-02  0.36098131047E-01  0.51100000000E-03 0. -1.
</event>
<event>
 8    1  0.1114686E+005  0.1043930E+01  0.7957747E-01            NaN
         13   -1    0    0    0    0  0.00000000000E+00  0.00000000000E+00  0.74505805969E-08  0.10566000000E+00  0.10566000000E+00 0. -1.
     999900   -1    0    0    0    0 -0.00000000000E+00 -0.00000000000E+00 -0.74505805969E-08  0.93827000000E+00  0.93827000000E+00 0. -1.
     999902    2    1    2    0    0 -0.11885422914E-01  0.16935812263E-01 -0.12769855522E-01  0.10196163367E+01  0.10193264049E+01 0.  0.
     999903    2    3    3    0    0  0.47389447040E-01  0.99668608442E-01  0.66740860280E-01  0.13018945395E+00  0.17758386424E-01 0.  0.
         14    1    1    2    0    0  0.11885422914E-01 -0.16935812263E-01  0.12769855522E-01  0.24313663338E-01  0.00000000000E+00 0. -1.
     999901    1    3    3    0    0 -0.59274869954E-01 -0.82732796179E-01 -0.79510715802E-01  0.88942688272E+00  0.88000000000E+00 0. -1.
        -11    1    4    4    0    0  0.29447653397E-01  0.47309052760E-01  0.40768866307E-01  0.69048333395E-01  0.51100000000E-03 0.  1.
         11    1    4    4    0    0  0.17941793643E-01  0.52359555682E-01  0.25971993973E-01  0.61141120551E-01  0.51100000000E-03 0. -1.
</event>
<event>
 8    1  0.1114686E+005  0.1043930E+01  0.7957747E-01            NaN
         13   -1    0    0    0    0  0.00000000000E+00  0.00000000000E+00  0.74505805969E-08  0.10566000000E+00  0.10566000000E+00 0. -1.
     999900   -1    0    0    0    0 -0.00000000000E+00 -0.00000000000E+00 -0.74505805969E-08  0.93827000000E+00  0.93827000000E+00 0. -1.
     999902    2    1    2    0    0 -0.15872548160E-01 -0.13043146458E-01  0.66197777152E-02  0.10223456790E+01  0.10221178036E+01 0.  0.
     999903    2    3    3    0    0 -0.68340766645E-01 -0.29918750462E-01 -0.10835621413E+00  0.13315662227E+00  0.20591864915E-01 0.  0.
         14    1    1    2    0    0  0.15872548160E-01  0.13043146458E-01 -0.66197777152E-02  0.21584320967E-01  0.00000000000E+00 0. -1.
     999901    1    3    3    0    0  0.52468218484E-01  0.16875604004E-01  0.11497599184E+00  0.88918905676E+00  0.88000000000E+00 0.  1.
        -11    1    4    4    0    0 -0.27274601668E-01 -0.30292813579E-02 -0.48679123350E-01  0.55883795619E-01  0.51100000000E-03 0. -1.
         11    1    4    4    0    0 -0.41066164977E-01 -0.26889469105E-01 -0.59677090776E-01  0.77272826654E-01  0.51100000000E-03 0.  1.
</event>
<event>
 8    1  0.1114686E+005  0.1043930E+01  0.7957747E-01            NaN
         13   -1    0    0    0    0  0.00000000000E+00  0.00000000000E+00  0.74505805969E-08  0.10566000000E+00  0.10566000000E+00 0.  1.
     999900   -1    0    0    0    0 -0.00000000000E+00 -0.00000000000E+00 -0.74505805969E-08  0.93827000000E+00  0.93827000000E+00 0.  1.
     999902    2    1    2    0    0  0.24297579656E-02 -0.18098172855E-01 -0.14448332904E-01  0.10206447706E+01  0.10203791187E+01 0.  0.
     999903    2    3    3    0    0  0.12138889556E+00 -0.32157431482E-01  0.31167281645E-01  0.13135869545E+00  0.22679132671E-01 0.  0.
         14    1    1    2    0    0 -0.24297579656E-02  0.18098172855E-01  0.14448332904E-01  0.23285229399E-01  0.00000000000E+00 0.  1.
     999901    1    3    3    0    0 -0.11895913760E+00  0.14059258627E-01 -0.45615614550E-01  0.88928607515E+00  0.88000000000E+00 0.  1.
        -11    1    4    4    0    0  0.68672206452E-01 -0.93167731664E-02  0.24556622019E-01  0.73525254214E-01  0.51100000000E-03 0.  1.
         11    1    4    4    0    0  0.52716689112E-01 -0.22840658315E-01  0.66106596256E-02  0.57833441234E-01  0.51100000000E-03 0. -1.
</event>
<event>
 8    1  0.1114686E+005  0.1043930E+01  0.7957747E-01            NaN
         13   -1    0    0    0    0  0.00000000000E+00  0.00000000000E+00  0.74505805969E-08  0.10566000000E+00  0.10566000000E+00 0.  1.
     999900   -1    0    0    0    0 -0.00000000000E+00 -0.00000000000E+00 -0.74505805969E-08  0.93827000000E+00  0.93827000000E+00 0. -1.
     999902    2    1    2    0    0 -0.98911562233E-02  0.20401742305E-01 -0.79392655278E-02  0.10199071359E+01  0.10196241798E+01 0.  0.
     999903    2    3    3    0    0 -0.95811050058E-01  0.89382573704E-01  0.98850227459E-02  0.13285680563E+00  0.19601411463E-01 0.  0.
         14    1    1    2    0    0  0.98911562233E-02 -0.20401742305E-01  0.79392655278E-02  0.24022864060E-01  0.00000000000E+00 0. -1.
     999901    1    3    3    0    0  0.85919893835E-01 -0.68980831399E-01 -0.17824288274E-01  0.88705033031E+00  0.88000000000E+00 0. -1.
        -11    1    4    4    0    0 -0.39203071392E-01  0.49734707321E-01  0.29955817784E-02  0.63400761431E-01  0.51100000000E-03 0.  1.
         11    1    4    4    0    0 -0.56607978666E-01  0.39647866384E-01  0.68894409675E-02  0.69456044195E-01  0.51100000000E-03 0. -1.
</event>
<event>
 8    1  0.1114686E+005  0.1043930E+01  0.7957747E-01            NaN
         13   -1    0    0    0    0  0.00000000000E+00  0.00000000000E+00  0.74505805969E-08  0.10566000000E+00  0.10566000000E+00 0. -1.
     999900   -1    0    0    0    0 -0.00000000000E+00 -0.00000000000E+00 -0.74505805969E-08  0.93827000000E+00  0.93827000000E+00 0.  1.
     999902    2    1    2    0    0 -0.12685940745E-01 -0.13180254295E-01 -0.16639003681E-01  0.10192012993E+01  0.10189012611E+01 0.  0.
     999903    2    3    3    0    0  0.11001293520E+00 -0.45115419330E-02  0.60749537893E-01  0.12728249855E+00  0.19675572701E-01 0.  0.
         14    1    1    2    0    0  0.12685940745E-01  0.13180254295E-01  0.16639003681E-01  0.24728700722E-01  0.00000000000E+00 0. -1.
     999901    1    3    3    0    0 -0.12269887594E+00 -0.86687123620E-02 -0.77388541574E-01  0.89191880073E+00  0.88000000000E+00 0. -1.
        -11    1    4    4    0    0  0.50910177068E-01 -0.30494890339E-02  0.17107095116E-01  0.53796462122E-01  0.51100000000E-03 0. -1.
         11    1    4    4    0    0  0.59102758128E-01 -0.14620528991E-02  0.43642442777E-01  0.73486036425E-01  0.51100000000E-03 0.  1.
</event>
<event>
 8    1  0.1114686E+005  0.1043930E+01  0.7957747E-01            NaN
         13   -1    0    0    0    0  0.00000000000E+00  0.00000000000E+00  0.74505805969E-08  0.10566000000E+00  0.10566000000E+00 0.  1.
     999900   -1    0    0    0    0 -0.00000000000E+00 -0.00000000000E+00 -0.74505805969E-08  0.93827000000E+00  0.93827000000E+00 0.  1.
     999902    2    1    2    0    0  0.65488499252E-02 -0.20707354954E-01  0.10348143724E-01  0.10198724427E+01  0.10195886589E+01 0.  0.
     999903    2    3    3    0    0 -0.27378097959E-01 -0.16251757849E-02 -0.12419443282E+00  0.12879619891E+00  0.20297838967E-01 0.  0.
         14    1    1    2    0    0 -0.65488499252E-02  0.20707354954E-01 -0.10348143724E-01  0.24057557296E-01  0.00000000000E+00 0. -1.
     999901    1    3    3    0    0  0.33926947884E-01 -0.19082179169E-01  0.13454257654E+00  0.89107624380E+00  0.88000000000E+00 0. -1.
        -11    1    4    4    0    0 -0.20182906229E-01  0.58320889762E-02 -0.55927495716E-01  0.59745366881E-01  0.51100000000E-03 0. -1.
         11    1    4    4    0    0 -0.71951917300E-02 -0.74572647610E-02 -0.68266937099E-01  0.69050832027E-01  0.51100000000E-03 0.  1.
</event>
<event>
 8    1  0.1114686E+005  0.1043930E+01  0.7957747E-01            NaN
         13   -1    0    0    0    0  0.00000000000E+00  0.00000000000E+00  0.74505805969E-08  0.10566000000E+00  0.10566000000E+00 0. -1.
     999900   -1    0    0    0    0 -0.00000000000E+00 -0.00000000000E+00 -0.74505805969E-08  0.93827000000E+00  0.93827000000E+00 0. -1.
     999902    2    1    2    0    0 -0.82011072544E-03 -0.23769341394E-01  0.56840265969E-02  0.10194767317E+01  0.10191834203E+01 0.  0.
     999903    2    3    3    0    0  0.64857697978E-02 -0.42947554421E-01 -0.12056396885E+00  0.13023000773E+00  0.23186778295E-01 0.  0.
         14    1    1    2    0    0  0.82011072544E-03  0.23769341394E-01 -0.56840265969E-02  0.24453268294E-01  0.00000000000E+00 0. -1.
     999901    1    3    3    0    0 -0.73058805232E-02  0.19178213027E-01  0.12624799545E+00  0.88924672397E+00  0.88000000000E+00 0.  1.
        -11    1    4    4    0    0 -0.65428433039E-03 -0.33686466411E-01 -0.10765029536E+00  0.11280094556E+00  0.51100000000E-03 0.  1.
         11    1    4    4    0    0  0.71400541282E-02 -0.92610880101E-02 -0.12913673491E-01  0.17429062169E-01  0.51100000000E-03 0. -1.
</event>
<event>
 8    1  0.1114686E+005  0.1043930E+01  0.7957747E-01            NaN
         13   -1    0    0    0    0  0.00000000000E+00  0.00000000000E+00  0.74505805969E-08  0.10566000000E+00  0.10566000000E+00 0.  1.
     999900   -1    0    0    0    0 -0.00000000000E+00 -0.00000000000E+00 -0.74505805969E-08  0.93827000000E+00  0.93827000000E+00 0.  1.
     999902    2    1    2    0    0 -0.18708196992E-01  0.11812446047E-01 -0.63021962473E-02  0.10209246051E+01  0.10206653718E+01 0.  0.
     999903    2    3    3    0    0 -0.79062537225E-01 -0.91435511405E-01 -0.48669249736E-01  0.13182519879E+00  0.19946168253E-01 0.  0.
         14    1    1    2    0    0  0.18708196992E-01 -0.11812446047E-01  0.63021962473E-02  0.23005394886E-01  0.00000000000E+00 0.  1.
     999901    1    3    3    0    0  0.60354340234E-01  0.10324795745E+00  0.42367053488E-01  0.88909940632E+00  0.88000000000E+00 0.  1.
        -11    1    4    4    0    0 -0.23620570314E-01 -0.42166961714E-01 -0.19808959094E-01  0.52236385629E-01  0.51100000000E-03 0.  1.
         11    1    4    4    0    0 -0.55441966911E-01 -0.49268549691E-01 -0.28860290641E-01  0.79588813162E-01  0.51100000000E-03 0. -1.
</event>
<event>
 8    1  0.1114686E+005  0.1043930E+01  0.7957747E-01            NaN
         13   -1    0    0    0    0  0.00000000000E+00  0.00000000000E+00  0.74505805969E-08  0.10566000000E+00  0.10566000000E+00 0. -1.
     999900   -1    0    0    0    0 -0.00000000000E+00 -0.00000000000E+00 -0.74505805969E-08  0.93827000000E+00  0.93827000000E+00 0. -1.
     999902    2    1    2    0    0  0.22865263748E-01 -0.81040826834E-02 -0.10474820445E-01  0.10175061792E+01  0.10171630186E+01 0.  0.
     999903    2    3    3    0    0  0.45222401825E-01 -0.28900610922E-01  0.11473663388E+00  0.12811861154E+00  0.19224269327E-01 0.  0.
         14    1    1    2    0    0 -0.22865263748E-01  0.81040826834E-02  0.10474820445E-01  0.26423820802E-01  0.00000000000E+00 0.  1.
     999901    1    3    3    0    0 -0.22357138078E-01  0.20796528238E-01 -0.12521145432E+00  0.88938756766E+00  0.88000000000E+00 0. -1.
        -11    1    4    4    0    0  0.14515377664E-02 -0.79047586335E-02  0.11535926988E-01  0.14068791825E-01  0.51100000000E-03 0. -1.
         11    1    4    4    0    0  0.43770864059E-01 -0.20995852288E-01  0.10320070689E+00  0.11404981972E+00  0.51100000000E-03 0.  1.
</event>
<event>
 8    1  0.1114686E+005  0.1043930E+01  0.7957747E-01            NaN
         13   -1    0    0    0    0  0.00000000000E+00  0.00000000000E+00  0.74505805969E-08  0.10566000000E+00  0.10566000000E+00 0. -1.
     999900   -1    0    0    0    0 -0.00000000000E+00 -0.00000000000E+00 -0.74505805969E-08  0.93827000000E+00  0.93827000000E+00 0.  1.
     999902    2    1    2    0    0 -0.20960070787E-02 -0.21399063348E-02  0.27705368303E-01  0.10160631760E+01  0.10156809626E+01 0.  0.
     999903    2    3    3    0    0  0.13970635617E-01  0.89802582807E-02  0.12775891883E+00  0.13017802093E+00  0.18658834218E-01 0.  0.
         14    1    1    2    0    0  0.20960070787E-02  0.21399063348E-02 -0.27705368303E-01  0.27866823959E-01  0.00000000000E+00 0.  1.
     999901    1    3    3    0    0 -0.16066642695E-01 -0.11120164615E-01 -0.10005355053E+00  0.88588515511E+00  0.88000000000E+00 0.  1.
        -11    1    4    4    0    0  0.15307863635E-01  0.98053673220E-02  0.67810738637E-01  0.70207074522E-01  0.51100000000E-03 0. -1.
         11    1    4    4    0    0 -0.13372280179E-02 -0.82510904132E-03  0.59948180194E-01  0.59970946410E-01  0.51100000000E-03 0.  1.
</event>
<event>
 8    1  0.1114686E+005  0.1043930E+01  0.7957747E-01            NaN
         13   -1    0    0    0    0  0.00000000000E+00  0.00000000000E+00  0.74505805969E-08  0.10566000000E+00  0.10566000000E+00 0.  1.
     999900   -1    0    0    0    0 -0.00000000000E+00 -0.00000000000E+00 -0.74505805969E-08  0.93827000000E+00  0.93827000000E+00 0.  1.
     999902    2    1    2    0    0  0.10262628457E-01  0.14213643573E-01  0.16389708300E-01  0.10199305887E+01  0.10196481913E+01 0.  0.
     999903    2    3    3    0    0  0.56486877082E-01  0.68772819493E-01 -0.92986543084E-01  0.13028091086E+00  0.20153177346E-01 0.  0.
         14    1    1    2    0    0 -0.10262628457E-01 -0.14213643573E-01 -0.16389708300E-01  0.23999411340E-01  0.00000000000E+00 0.  1.
     999901    1    3    3    0    0 -0.46224248625E-01 -0.54559175920E-01  0.10937625138E+00  0.88964967780E+00  0.88000000000E+00 0. -1.
        -11    1    4    4    0    0  0.28526236394E-01  0.31812671641E-01 -0.58806197696E-01  0.72692656082E-01  0.51100000000E-03 0. -1.
         11    1    4    4    0    0  0.27960640688E-01  0.36960147852E-01 -0.34180345388E-01  0.57588254781E-01  0.51100000000E-03 0.  1.
</event>
<event>
 8    1  0.1114686E+005  0.1043930E+01  0.7957747E-01            NaN
         13   -1    0    0    0    0  0.00000000000E+00  0.00000000000E+00  0.74505805969E-08  0.10566000000E+00  0.10566000000E+00 0. -1.
     999900   -1    0    0    0    0 -0.00000000000E+00 -0.00000000000E+00 -0.74505805969E-08  0.93827000000E+00  0.93827000000E+00 0.  1.
     999902    2    1    2    0    0  0.23310207625E-01  0.10737401168E-02  0.47501319120E-03  0.10205902413E+01  0.10203233293E+01 0.  0.
     999903    2    3    3    0    0 -0.53282959885E-01 -0.55716231308E-01 -0.10209237176E+00  0.12951690954E+00  0.20209038571E-01 0.  0.
         14    1    1    2    0    0 -0.23310207625E-01 -0.10737401168E-02 -0.47501319120E-03  0.23339758673E-01  0.00000000000E+00 0.  1.
     999901    1    3    3    0    0  0.76593167510E-01  0.56789971425E-01  0.10256738495E+00  0.89107333179E+00  0.88000000000E+00 0. -1.
        -11    1    4    4    0    0 -0.23220624127E-01 -0.14596475638E-01 -0.24998027076E-01  0.37113568470E-01  0.51100000000E-03 0.  1.
         11    1    4    4    0    0 -0.30062335758E-01 -0.41119755670E-01 -0.77094344686E-01  0.92403341071E-01  0.51100000000E-03 0. -1.
</event>
<event>
 8    1  0.1114686E+005  0.1043930E+01  0.7957747E-01            NaN
         13   -1    0    0    0    0  0.00000000000E+00  0.00000000000E+00  0.74505805969E-08  0.10566000000E+00  0.10566000000E+00 0. -1.
     999900   -1    0    0    0    0 -0.00000000000E+00 -0.00000000000E+00 -0.74505805969E-08  0.93827000000E+00  0.93827000000E+00 0. -1.
     999902    2    1    2    0    0  0.88233902753E-02 -0.15603709620E-01  0.17736833059E-01  0.10187124819E+01  0.10184003131E+01 0.  0.
     999903    2    3    3    0    0 -0.16476597276E-01 -0.10775933358E+00 -0.66342147368E-01  0.12955444012E+00  0.22349948671E-01 0.  0.
         14    1    1    2    0    0 -0.88233902753E-02  0.15603709620E-01 -0.17736833059E-01  0.25217518054E-01  0.00000000000E+00 0.  1.
     999901    1    3    3    0    0  0.25299987552E-01  0.92155623960E-01  0.84078980426E-01  0.88915804183E+00  0.88000000000E+00 0.  1.
        -11    1    4    4    0    0 -0.20554021373E-02 -0.38978306377E-02 -0.90160077542E-02  0.10048247531E-01  0.51100000000E-03 0. -1.
         11    1    4    4    0    0 -0.14421195139E-01 -0.10386150294E+00 -0.57326139614E-01  0.11950619259E+00  0.51100000000E-03 0.  1.
</event>
<event>
 8    1  0.1114686E+005  0.1043930E+01  0.7957747E-01            NaN
         13   -1    0    0    0    0  0.00000000000E+00  0.00000000000E+00  0.74505805969E-08  0.10566000000E+00  0.10566000000E+00 0.  1.
     999900   -1    0    0    0    0 -0.00000000000E+00 -0.00000000000E+00 -0.74505805969E-08  0.93827000000E+00  0.93827000000E+00 0. -1.
     999902    2    1    2    0    0  0.32245191576E-02 -0.22666861941E-01 -0.57162703727E-02  0.10203321208E+01  0.10200592026E+01 0.  0.
     999903    2    3    3    0    0 -0.95815938476E-02  0.84683107021E-01  0.94094896192E-01  0.12811562170E+00  0.17225779456E-01 0.  0.
         14    1    1    2    0    0 -0.32245191576E-02  0.22666861941E-01  0.57162703727E-02  0.23597879164E-01  0.00000000000E+00 0. -1.
     999901    1    3    3    0    0  0.12806113005E-01 -0.10734996896E+00 -0.99811166565E-01  0.89221649914E+00  0.88000000000E+00 0. -1.
        -11    1    4    4    0    0 -0.12861072814E-02  0.67932025940E-02  0.16316053856E-01  0.17727842730E-01  0.51100000000E-03 0. -1.
         11    1    4    4    0    0 -0.82954865662E-02  0.77889904427E-01  0.77778842336E-01  0.11038777897E+00  0.51100000000E-03 0.  1.
</event>
<event>
 8    1  0.1114686E+005  0.1043930E+01  0.7957747E-01            NaN
         13   -1    0    0    0    0  0.00000000000E+00  0.00000000000E+00  0.74505805969E-08  0.10566000000E+00  0.10566000000E+00 0.  1.
     999900   -1    0    0    0    0 -0.00000000000E+00 -0.00000000000E+00 -0.74505805969E-08  0.93827000000E+00  0.93827000000E+00 0. -1.
     999902    2    1    2    0    0  0.18797990825E-03  0.24425596273E-01  0.19033761117E-02  0.10194296341E+01  0.10191351779E+01 0.  0.
     999903    2    3    3    0    0 -0.50454475252E-01  0.14035031655E-01  0.11763768577E+00  0.13034749359E+00  0.20228884953E-01 0.  0.
         14    1    1    2    0    0 -0.18797990825E-03 -0.24425596273E-01 -0.19033761117E-02  0.24500365923E-01  0.00000000000E+00 0.  1.
     999901    1    3    3    0    0  0.50642455160E-01  0.10390564618E-01 -0.11573430966E+00  0.88908214048E+00  0.88000000000E+00 0. -1.
        -11    1    4    4    0    0  0.86755053911E-03  0.21860085006E-02  0.12760821847E-01  0.12985798871E-01  0.51100000000E-03 0. -1.
         11    1    4    4    0    0 -0.51322025791E-01  0.11849023155E-01  0.10487686392E+00  0.11736169472E+00  0.51100000000E-03 0.  1.
</event>
<event>
 8    1  0.1114686E+005  0.1043930E+01  0.7957747E-01            NaN
         13   -1    0    0    0    0  0.00000000000E+00  0.00000000000E+00  0.74505805969E-08  0.10566000000E+00  0.10566000000E+00 0.  1.
     999900   -1    0    0    0    0 -0.00000000000E+00 -0.00000000000E+00 -0.74505805969E-08  0.93827000000E+00  0.93827000000E+00 0. -1.
     999902    2    1    2    0    0  0.46744329114E-02  0.22722426876E-01  0.44819934076E-02  0.10203027430E+01  0.10200291369E+01 0.  0.
     999903    2    3    3    0    0 -0.10420824859E-01  0.12110655740E+00 -0.50161603589E-01  0.13300728682E+00  0.19983994544E-01 0.  0.
         14    1    1    2    0    0 -0.46744329114E-02 -0.22722426876E-01 -0.44819934076E-02  0.23627256952E-01  0.00000000000E+00 0.  1.
     999901    1    3    3    0    0  0.15095257770E-01 -0.98384130521E-01  0.54643596997E-01  0.88729545623E+00  0.88000000000E+00 0. -1.
        -11    1    4    4    0    0  0.30375043436E-02  0.30301165908E-01 -0.56133864406E-02  0.30970281180E-01  0.51100000000E-03 0. -1.
         11    1    4    4    0    0 -0.13458329203E-01  0.90805391489E-01 -0.44548217149E-01  0.10203700564E+00  0.51100000000E-03 0.  1.
</event>
<event>
 8    1  0.1114686E+005  0.1043930E+01  0.7957747E-01            NaN
         13   -1    0    0    0    0  0.00000000000E+00  0.00000000000E+00  0.74505805969E-08  0.10566000000E+00  0.10566000000E+00 0.  1.
     999900   -1    0    0    0    0 -0.00000000000E+00 -0.00000000000E+00 -0.74505805969E-08  0.93827000000E+00  0.93827000000E+00 0. -1.
     999902    2    1    2    0    0  0.22582770734E-01 -0.51580352834E-02  0.32217932887E-02  0.10205426783E+01  0.10202746647E+01 0.  0.
     999903    2    3    3    0    0  0.94308966961E-02  0.11413380790E+00 -0.58861367294E-01  0.13022934335E+00  0.19482130101E-01 0.  0.
         14    1    1    2    0    0 -0.22582770734E-01  0.51580352834E-02 -0.32217932887E-02  0.23387321651E-01  0.00000000000E+00 0. -1.
     999901    1    3    3    0    0  0.13151874038E-01 -0.11929184318E+00  0.62083160583E-01  0.89031333499E+00  0.88000000000E+00 0.  1.
        -11    1    4    4    0    0 -0.19956592730E-02  0.43122958202E-01 -0.30755322385E-01  0.53006821787E-01  0.51100000000E-03 0. -1.
         11    1    4    4    0    0  0.11426555969E-01  0.71010849695E-01 -0.28106044909E-01  0.77222521567E-01  0.51100000000E-03 0.  1.
</event>
<event>
 8    1  0.1114686E+005  0.1043930E+01  0.7957747E-01            NaN
         13   -1    0    0    0    0  0.00000000000E+00  0.00000000000E+00  0.74505805969E-08  0.10566000000E+00  0.10566000000E+00 0. -1.
     999900   -1    0    0    0    0 -0.00000000000E+00 -0.00000000000E+00 -0.74505805969E-08  0.93827000000E+00  0.93827000000E+00 0. -1.
     999902    2    1    2    0    0 -0.54597075239E-02 -0.16197351542E-01  0.14759508497E-01  0.10213466943E+01  0.10210969907E+01 0.  0.
     999903    2    3    3    0    0  0.45096212692E-01 -0.70804163681E-01 -0.98511934280E-01  0.13097136632E+00  0.20049927867E-01 0.  0.
         14    1    1    2    0    0  0.54597075239E-02  0.16197351542E-01 -0.14759508497E-01  0.22583305654E-01  0.00000000000E+00 0. -1.
     999901    1    3    3    0    0 -0.50555920216E-01  0.54606812139E-01  0.11327144278E+00  0.89037532802E+00  0.88000000000E+00 0.  1.
        -11    1    4    4    0    0  0.12445954167E-01 -0.62556757191E-02 -0.17206206934E-01  0.22143846367E-01  0.51100000000E-03 0.  1.
         11    1    4    4    0    0  0.32650258525E-01 -0.64548487962E-01 -0.81305727345E-01  0.10882751996E+00  0.51100000000E-03 0. -1.
</event>
<event>
 8    1  0.1114686E+005  0.1043930E+01  0.7957747E-01            NaN
         13   -1    0    0    0    0  0.00000000000E+00  0.00000000000E+00  0.74505805969E-08  0.10566000000E+00  0.10566000000E+00 0.  1.
     999900   -1    0    0    0    0 -0.00000000000E+00 -0.00000000000E+00 -0.74505805969E-08  0.93827000000E+00  0.93827000000E+00 0. -1.
     999902    2    1    2    0    0  0.16190792203E-01  0.12957380769E-01 -0.67293737936E-02  0.10221281666E+01  0.10218956253E+01 0.  0.
     999903    2    3    3    0    0  0.65870325065E-01 -0.84892254719E-01  0.75041747910E-01  0.13155019499E+00  0.11339983982E-01 0.  0.
         14    1    1    2    0    0 -0.16190792203E-01 -0.12957380769E-01  0.67293737936E-02  0.21801833414E-01  0.00000000000E+00 0.  1.
     999901    1    3    3    0    0 -0.49679532862E-01  0.97849635488E-01 -0.81771121703E-01  0.89057797160E+00  0.88000000000E+00 0. -1.
        -11    1    4    4    0    0  0.37964428654E-01 -0.57128334431E-01  0.50169297375E-01  0.84983315763E-01  0.51100000000E-03 0.  1.
         11    1    4    4    0    0  0.27905896410E-01 -0.27763920289E-01  0.24872450534E-01  0.46566879226E-01  0.51100000000E-03 0. -1.
</event>
<event>
 8    1  0.1114686E+005  0.1043930E+01  0.7957747E-01            NaN
         13   -1    0    0    0    0  0.00000000000E+00  0.00000000000E+00  0.74505805969E-08  0.10566000000E+00  0.10566000000E+00 0.  1.
     999900   -1    0    0    0    0 -0.00000000000E+00 -0.00000000000E+00 -0.74505805969E-08  0.93827000000E+00  0.93827000000E+00 0.  1.
     999902    2    1    2    0    0 -0.74276286626E-02 -0.37966084806E-02 -0.21816387436E-01  0.10205732309E+01  0.10203059252E+01 0.  0.
     999903    2    3    3    0    0 -0.18586576210E-01  0.84784808708E-01  0.92658768314E-01  0.12867875793E+00  0.20943991812E-01 0.  0.
         14    1    1    2    0    0  0.74276286626E-02  0.37966084806E-02  0.21816387436E-01  0.23356769131E-01  0.00000000000E+00 0.  1.
     999901    1    3    3    0    0  0.11158947548E-01 -0.88581417188E-01 -0.11447515575E+00  0.89189447294E+00  0.88000000000E+00 0.  1.
        -11    1    4    4    0    0 -0.71728858815E-03  0.49708206022E-01  0.56002980001E-01  0.74886681986E-01  0.51100000000E-03 0. -1.
         11    1    4    4    0    0 -0.17869287622E-01  0.35076602686E-01  0.36655788313E-01  0.53792075940E-01  0.51100000000E-03 0.  1.
</event>
<event>
 8    1  0.1114686E+005  0.1043930E+01  0.7957747E-01            NaN
         13   -1    0    0    0    0  0.00000000000E+00  0.00000000000E+00  0.74505805969E-08  0.10566000000E+00  0.10566000000E+00 0.  1.
     999900   -1    0    0    0    0 -0.00000000000E+00 -0.00000000000E+00 -0.74505805969E-08  0.93827000000E+00  0.93827000000E+00 0. -1.
     999902    2    1    2    0    0 -0.11905525586E-01 -0.20051368559E-01 -0.49638605037E-02  0.10200880447E+01  0.10198093842E+01 0.  0.
     999903    2    3    3    0    0  0.12117829743E+00 -0.40112668984E-01 -0.12744428603E-01  0.12982162563E+00  0.19950640051E-01 0.  0.
         14    1    1    2    0    0  0.11905525586E-01  0.20051368559E-01  0.49638605037E-02  0.23841955282E-01  0.00000000000E+00 0.  1.
     999901    1    3    3    0    0 -0.13308382302E+00  0.20061300425E-01  0.77805680994E-02  0.89026641909E+00  0.88000000000E+00 0.  1.
        -11    1    4    4    0    0  0.99087438375E-01 -0.24376999326E-01 -0.11091254569E-01  0.10264421849E+00  0.51100000000E-03 0.  1.
         11    1    4    4    0    0  0.22090859056E-01 -0.15735669658E-01 -0.16531740336E-02  0.27177407139E-01  0.51100000000E-03 0. -1.
</event>
<event>
 8    1  0.1114686E+005  0.1043930E+01  0.7957747E-01            NaN
         13   -1    0    0    0    0  0.00000000000E+00  0.00000000000E+00  0.74505805969E-08  0.10566000000E+00  0.10566000000E+00 0. -1.
     999900   -1    0    0    0    0 -0.00000000000E+00 -0.00000000000E+00 -0.74505805969E-08  0.93827000000E+00  0.93827000000E+00 0. -1.
     999902    2    1    2    0    0  0.83920732541E-02 -0.75161251651E-02 -0.19541791029E-01  0.10213733906E+01  0.10211242835E+01 0.  0.
     999903    2    3    3    0    0  0.12170043788E+00 -0.48429337667E-01  0.13056767707E-01  0.13256781991E+00  0.15727376360E-01 0.  0.
         14    1    1    2    0    0 -0.83920732541E-02  0.75161251651E-02  0.19541791029E-01  0.22556609400E-01  0.00000000000E+00 0. -1.
     999901    1    3    3    0    0 -0.11330836462E+00  0.40913212502E-01 -0.32598558736E-01  0.88880557069E+00  0.88000000000E+00 0.  1.
        -11    1    4    4    0    0  0.77856132845E-01 -0.23617177462E-01  0.11437533373E-01  0.82160980907E-01  0.51100000000E-03 0.  1.
         11    1    4    4    0    0  0.43844305032E-01 -0.24812160206E-01  0.16192343340E-02  0.50406839007E-01  0.51100000000E-03 0. -1.
</event>
<event>
 8    1  0.1114686E+005  0.1043930E+01  0.7957747E-01            NaN
         13   -1    0    0    0    0  0.00000000000E+00  0.00000000000E+00  0.74505805969E-08  0.10566000000E+00  0.10566000000E+00 0.  1.
     999900   -1    0    0    0    0 -0.00000000000E+00 -0.00000000000E+00 -0.74505805969E-08  0.93827000000E+00  0.93827000000E+00 0. -1.
     999902    2    1    2    0    0 -0.13862116831E-01 -0.11970230402E-01 -0.14594884588E-01  0.10205108763E+01  0.10202421248E+01 0.  0.
     999903    2    3    3    0    0 -0.10287639148E+00 -0.55295364523E-01 -0.61800728014E-01  0.13370255428E+00  0.20393964251E-01 0.  0.
         14    1    1    2    0    0  0.13862116831E-01  0.11970230402E-01  0.14594884588E-01  0.23419123704E-01  0.00000000000E+00 0.  1.
     999901    1    3    3    0    0  0.89014274645E-01  0.43325134120E-01  0.47205843425E-01  0.88680832201E+00  0.88000000000E+00 0. -1.
        -11    1    4    4    0    0 -0.72453119189E-01 -0.39617759588E-01 -0.32853111474E-01  0.88874121146E-01  0.51100000000E-03 0.  1.
         11    1    4    4    0    0 -0.30423272288E-01 -0.15677604934E-01 -0.28947616540E-01  0.44828433137E-01  0.51100000000E-03 0. -1.
</event>
<event>
 8    1  0.1114686E+005  0.1043930E+01  0.7957747E-01            NaN
         13   -1    0    0    0    0  0.00000000000E+00  0.00000000000E+00  0.74505805969E-08  0.10566000000E+00  0.10566000000E+00 0. -1.
     999900   -1    0    0    0    0 -0.00000000000E+00 -0.00000000000E+00 -0.74505805969E-08  0.93827000000E+00  0.93827000000E+00 0.  1.
     999902    2    1    2    0    0  0.21373149121E-01  0.43583506796E-02  0.24990454908E-02  0.10219743184E+01  0.10217384478E+01 0.  0.
     999903    2    3    3    0    0  0.13305121159E+00  0.13950508477E-02  0.10348976931E-01  0.13487658302E+00  0.19494108096E-01 0.  0.
         14    1    1    2    0    0 -0.21373149121E-01 -0.43583506796E-02 -0.24990454908E-02  0.21955681551E-01  0.00000000000E+00 0. -1.
     999901    1    3    3    0    0 -0.11167806247E+00  0.29632998319E-02 -0.78499314400E-02  0.88709773543E+00  0.88000000000E+00 0.  1.
        -11    1    4    4    0    0  0.66061501542E-01  0.55298255370E-02  0.13614565996E-01  0.67678050243E-01  0.51100000000E-03 0. -1.
         11    1    4    4    0    0  0.66989710049E-01 -0.41347746893E-02 -0.32655890652E-02  0.67198532775E-01  0.51100000000E-03 0.  1.
</event>
<event>
 8    1  0.1114686E+005  0.1043930E+01  0.7957747E-01            NaN
         13   -1    0    0    0    0  0.00000000000E+00  0.00000000000E+00  0.74505805969E-08  0.10566000000E+00  0.10566000000E+00 0.  1.
     999900   -1    0    0    0    0 -0.00000000000E+00 -0.00000000000E+00 -0.74505805969E-08  0.93827000000E+00  0.93827000000E+00 0.  1.
     999902    2    1    2    0    0  0.87797357846E-02  0.21797871343E-01 -0.23013976748E-02  0.10203179822E+01  0.10200447330E+01 0.  0.
     999903    2    3    3    0    0  0.11669933007E+00 -0.36212228092E-01  0.42054185658E-01  0.13072300227E+00  0.19745624510E-01 0.  0.
         14    1    1    2    0    0 -0.87797357846E-02 -0.21797871343E-01  0.23013976748E-02  0.23612017847E-01  0.00000000000E+00 0. -1.
     999901    1    3    3    0    0 -0.10791959429E+00  0.58010099435E-01 -0.44355583333E-01  0.88959497989E+00  0.88000000000E+00 0.  1.
        -11    1    4    4    0    0  0.10365438211E+00 -0.34978883950E-01  0.31366865540E-01  0.11380639098E+00  0.51100000000E-03 0.  1.
         11    1    4    4    0    0  0.13044947965E-01 -0.12333441420E-02  0.10687320118E-01  0.16916611288E-01  0.51100000000E-03 0. -1.
</event>
<event>
 8    1  0.1114686E+005  0.1043930E+01  0.7957747E-01            NaN
         13   -1    0    0    0    0  0.00000000000E+00  0.00000000000E+00  0.74505805969E-08  0.10566000000E+00  0.10566000000E+00 0. -1.
     999900   -1    0    0    0    0 -0.00000000000E+00 -0.00000000000E+00 -0.74505805969E-08  0.93827000000E+00  0.93827000000E+00 0. -1.
     999902    2    1    2    0    0  0.21873252202E-01  0.62735374200E-02  0.43618866160E-02  0.10207605700E+01  0.10204975839E+01 0.  0.
     999903    2    3    3    0    0  0.88382123703E-01 -0.87037964382E-01  0.42118940241E-01  0.13252858367E+00  0.20070210010E-01 0.  0.
         14    1    1    2    0    0 -0.21873252202E-01 -0.62735374200E-02 -0.43618866160E-02  0.23169430043E-01  0.00000000000E+00 0. -1.
     999901    1    3    3    0    0 -0.66508871501E-01  0.93311501802E-01 -0.37757053625E-01  0.88823198628E+00  0.88000000000E+00 0.  1.
        -11    1    4    4    0    0  0.38644006247E-01 -0.45570106730E-01  0.11302324462E-01  0.60811162671E-01  0.51100000000E-03 0. -1.
         11    1    4    4    0    0  0.49738117456E-01 -0.41467857652E-01  0.30816615780E-01  0.71717421004E-01  0.51100000000E-03 0.  1.
</event>
<event>
 8    1  0.1114686E+005  0.1043930E+01  0.7957747E-01            NaN
         13   -1    0    0    0    0  0.00000000000E+00  0.00000000000E+00  0.74505805969E-08  0.10566000000E+00  0.10566000000E+00 0.  1.
     999900   -1    0    0    0    0 -0.00000000000E+00 -0.00000000000E+00 -0.74505805969E-08  0.93827000000E+00  0.93827000000E+00 0. -1.
     999902    2    1    2    0    0  0.21853270555E-01 -0.15271706574E-02 -0.83792507627E-02  0.10204755862E+01  0.10202060147E+01 0.  0.
     999903    2    3    3    0    0 -0.38206092299E-02 -0.70870244427E-01 -0.10905271876E+00  0.13165459344E+00  0.20081033446E-01 0.  0.
         14    1    1    2    0    0 -0.21853270555E-01  0.15271706574E-02  0.83792507627E-02  0.23454413817E-01  0.00000000000E+00 0.  1.
     999901    1    3    3    0    0  0.25673879785E-01  0.69343073770E-01  0.10067346800E+00  0.88882099274E+00  0.88000000000E+00 0.  1.
        -11    1    4    4    0    0 -0.75680475782E-02 -0.90857121855E-02 -0.18743369907E-01  0.22167556169E-01  0.51100000000E-03 0. -1.
         11    1    4    4    0    0  0.37474383483E-02 -0.61784532242E-01 -0.90309348855E-01  0.10948703727E+00  0.51100000000E-03 0.  1.
</event>
<event>
 8    1  0.1114686E+005  0.1043930E+01  0.7957747E-01            NaN
         13   -1    0    0    0    0  0.00000000000E+00  0.00000000000E+00  0.74505805969E-08  0.10566000000E+00  0.10566000000E+00 0.  1.
     999900   -1    0    0    0    0 -0.00000000000E+00 -0.00000000000E+00 -0.74505805969E-08  0.93827000000E+00  0.93827000000E+00 0. -1.
     999902    2    1    2    0    0  0.21917941314E-01 -0.67169846267E-02  0.17606618491E-02  0.10209383936E+01  0.10206794745E+01 0.  0.
     999903    2    3    3    0    0 -0.68876814714E-02  0.51987628920E-01  0.11828135128E+00  0.13085240529E+00  0.19537660863E-01 0.  0.
         14    1    1    2    0    0 -0.21917941314E-01  0.67169846267E-02 -0.17606618491E-02  0.22991606383E-01  0.00000000000E+00 0. -1.
     999901    1    3    3    0    0  0.28805622786E-01 -0.58704613546E-01 -0.11652068943E+00  0.89008598833E+00  0.88000000000E+00 0. -1.
        -11    1    4    4    0    0 -0.12954831003E-01  0.30045109208E-01  0.61255538006E-01  0.69448097822E-01  0.51100000000E-03 0.  1.
         11    1    4    4    0    0  0.60671495317E-02  0.21942519712E-01  0.57025813274E-01  0.61404307465E-01  0.51100000000E-03 0. -1.
</event>
<event>
 8    1  0.1114686E+005  0.1043930E+01  0.7957747E-01            NaN
         13   -1    0    0    0    0  0.00000000000E+00  0.00000000000E+00  0.74505805969E-08  0.10566000000E+00  0.10566000000E+00 0. -1.
     999900   -1    0    0    0    0 -0.00000000000E+00 -0.00000000000E+00 -0.74505805969E-08  0.93827000000E+00  0.93827000000E+00 0. -1.
     999902    2    1    2    0    0  0.90340335650E-02  0.75321409056E-03 -0.22000327182E-01  0.10201351373E+01  0.10198575895E+01 0.  0.
     999903    2    3    3    0    0 -0.94211913288E-02  0.12853483919E+00 -0.82600514190E-02  0.13060855862E+00  0.19503932991E-01 0.  0.
         14    1    1    2    0    0 -0.90340335650E-02 -0.75321409056E-03  0.22000327182E-01  0.23794862682E-01  0.00000000000E+00 0. -1.
     999901    1    3    3    0    0  0.18455224894E-01 -0.12778162510E+00 -0.13740275763E-01  0.88952657870E+00  0.88000000000E+00 0. -1.
        -11    1    4    4    0    0 -0.46223992444E-02  0.56290944513E-01  0.60409190486E-02  0.56804848674E-01  0.51100000000E-03 0.  1.
         11    1    4    4    0    0 -0.47987920843E-02  0.72243894680E-01 -0.14300970468E-01  0.73803709942E-01  0.51100000000E-03 0. -1.
</event>
<event>
 7    1  0.1114686E+005  0.1043930E+01  0.7957747E-01            NaN
         13   -1    0    0    0    0  0.00000000000E+00  0.00000000000E+00  0.74505805969E-08  0.10566000000E+00  0.10566000000E+00 0. -1.
     999900   -1    0    0    0    0 -0.00000000000E+00 -0.00000000000E+00 -0.74505805969E-08  0.93827000000E+00  0.93827000000E+00 0. -1.
     999903    2    1    2    0    0  0.22482621952E-01 -0.10746406284E+00  0.23845688195E-01  0.11406556016E+00  0.19706396867E-01 0.  0.
         14    1    1    2    0    0  0.30699497377E-01 -0.38884741914E-02 -0.27272779966E-01  0.41247835068E-01  0.00000000000E+00 0.  1.
     999901    1    1    2    0    0 -0.53182119329E-01  0.11135253703E+00  0.34270917712E-02  0.88861660477E+00  0.88000000000E+00 0. -1.
        -11    1    3    3    0    0  0.79192122908E-02 -0.52246414381E-01  0.18812383109E-02  0.52879125537E-01  0.51100000000E-03 0. -1.
         11    1    3    3    0    0  0.14563409662E-01 -0.55217648457E-01  0.21964449884E-01  0.61186434623E-01  0.51100000000E-03 0.  1.
</event>
<event>
 8    1  0.1114686E+005  0.1043930E+01  0.7957747E-01            NaN
         13   -1    0    0    0    0  0.00000000000E+00  0.00000000000E+00  0.74505805969E-08  0.10566000000E+00  0.10566000000E+00 0. -1.
     999900   -1    0    0    0    0 -0.00000000000E+00 -0.00000000000E+00 -0.74505805969E-08  0.93827000000E+00  0.93827000000E+00 0.  1.
     999902    2    1    2    0    0 -0.11125317135E-02  0.78898785904E-02  0.23851890411E-01  0.10187824238E+01  0.10184720058E+01 0.  0.
     999903    2    3    3    0    0 -0.86398446205E-01  0.80380539398E-01 -0.47170341024E-01  0.12885392082E+00  0.21273674284E-01 0.  0.
         14    1    1    2    0    0  0.11125317135E-02 -0.78898785904E-02 -0.23851890411E-01  0.25147576169E-01  0.00000000000E+00 0.  1.
     999901    1    3    3    0    0  0.85285914491E-01 -0.72490660808E-01  0.71022231436E-01  0.88992850301E+00  0.88000000000E+00 0. -1.
        -11    1    4    4    0    0 -0.13685002069E-01  0.23271703692E-01 -0.61012851621E-02  0.27682815536E-01  0.51100000000E-03 0. -1.
         11    1    4    4    0    0 -0.72713444136E-01  0.57108835706E-01 -0.41069055862E-01  0.10117110528E+00  0.51100000000E-03 0.  1.
</event>
<event>
 8    1  0.1114686E+005  0.1043930E+01  0.7957747E-01            NaN
         13   -1    0    0    0    0  0.00000000000E+00  0.00000000000E+00  0.74505805969E-08  0.10566000000E+00  0.10566000000E+00 0.  1.
     999900   -1    0    0    0    0 -0.00000000000E+00 -0.00000000000E+00 -0.74505805969E-08  0.93827000000E+00  0.93827000000E+00 0.  1.
     999902    2    1    2    0    0 -0.13882415518E-01 -0.18069495333E-01 -0.20323786141E-02  0.10210529660E+01  0.10207966500E+01 0.  0.
     999903    2    3    3    0    0 -0.51640439094E-01  0.11650424226E+00 -0.15689758369E-01  0.12991757604E+00  0.19809962991E-01 0.  0.
         14    1    1    2    0    0  0.13882415518E-01  0.18069495333E-01  0.20323786141E-02  0.22877034009E-01  0.00000000000E+00 0. -1.
     999901    1    3    3    0    0  0.37758023576E-01 -0.13457373759E+00  0.13657379755E-01  0.89113538995E+00  0.88000000000E+00 0. -1.
        -11    1    4    4    0    0 -0.38013362808E-01  0.67944760346E-01 -0.30355174605E-02  0.77916504655E-01  0.51100000000E-03 0. -1.
         11    1    4    4    0    0 -0.13627076286E-01  0.48559481912E-01 -0.12654240909E-01  0.52001071389E-01  0.51100000000E-03 0.  1.
</event>
<event>
 8    1  0.1114686E+005  0.1043930E+01  0.7957747E-01            NaN
         13   -1    0    0    0    0  0.00000000000E+00  0.00000000000E+00  0.74505805969E-08  0.10566000000E+00  0.10566000000E+00 0.  1.
     999900   -1    0    0    0    0 -0.00000000000E+00 -0.00000000000E+00 -0.74505805969E-08  0.93827000000E+00  0.93827000000E+00 0. -1.
     999902    2    1    2    0    0  0.69150945443E-02 -0.12841581268E-03 -0.23235145683E-01  0.10196873306E+01  0.10193991099E+01 0.  0.
     999903    2    3    3    0    0 -0.39792574665E-01  0.63469117898E-01  0.10116883020E+00  0.12744151144E+00  0.19860229279E-01 0.  0.
         14    1    1    2    0    0 -0.69150945443E-02  0.12841581268E-03  0.23235145683E-01  0.24242669368E-01  0.00000000000E+00 0.  1.
     999901    1    3    3    0    0  0.46707669210E-01 -0.63597533710E-01 -0.12440397589E+00  0.89224581920E+00  0.88000000000E+00 0. -1.
        -11    1    4    4    0    0 -0.14398759118E-01  0.41300964290E-01  0.54967103392E-01  0.70247686736E-01  0.51100000000E-03 0. -1.
         11    1    4    4    0    0 -0.25393815547E-01  0.22168153607E-01  0.46201726812E-01  0.57193824700E-01  0.51100000000E-03 0.  1.
</event>
<event>
 8    1  0.1114686E+005  0.1043930E+01  0.7957747E-01            NaN
         13   -1    0    0    0    0  0.00000000000E+00  0.00000000000E+00  0.74505805969E-08  0.10566000000E+00  0.10566000000E+00 0. -1.
     999900   -1    0    0    0    0 -0.00000000000E+00 -0.00000000000E+00 -0.74505805969E-08  0.93827000000E+00  0.93827000000E+00 0. -1.
     999902    2    1    2    0    0 -0.23981080161E-01 -0.45389106225E-02  0.17257327016E-02  0.10194622239E+01  0.10191685601E+01 0.  0.
     999903    2    3    3    0    0  0.92541291984E-01  0.83950475353E-01  0.12868309791E-01  0.12731201698E+00  0.20764952089E-01 0.  0.
         14    1    1    2    0    0  0.23981080161E-01  0.45389106225E-02 -0.17257327016E-02  0.24467776129E-01  0.00000000000E+00 0.  1.
     999901    1    3    3    0    0 -0.11652237214E+00 -0.88489385976E-01 -0.11142577090E-01  0.89215020690E+00  0.88000000000E+00 0.  1.
        -11    1    4    4    0    0  0.19328768830E-01  0.27433590744E-01  0.89633733165E-02  0.34739118984E-01  0.51100000000E-03 0. -1.
         11    1    4    4    0    0  0.73212523154E-01  0.56516884609E-01  0.39049364749E-02  0.92572897991E-01  0.51100000000E-03 0.  1.
</event>
<event>
 8    1  0.1114686E+005  0.1043930E+01  0.7957747E-01            NaN
         13   -1    0    0    0    0  0.00000000000E+00  0.00000000000E+00  0.74505805969E-08  0.10566000000E+00  0.10566000000E+00 0. -1.
     999900   -1    0    0    0    0 -0.00000000000E+00 -0.00000000000E+00 -0.74505805969E-08  0.93827000000E+00  0.93827000000E+00 0. -1.
     999902    2    1    2    0    0 -0.13220411898E-01  0.19683077863E-01  0.95316878355E-03  0.10202000321E+01  0.10199240139E+01 0.  0.
     999903    2    3    3    0    0 -0.14712394731E-01  0.97498754437E-01  0.84769789441E-01  0.13279779444E+00  0.26960625578E-01 0.  0.
         14    1    1    2    0    0  0.13220411898E-01 -0.19683077863E-01 -0.95316878355E-03  0.23729967881E-01  0.00000000000E+00 0.  1.
     999901    1    3    3    0    0  0.14919828329E-02 -0.77815676574E-01 -0.83816620658E-01  0.88740223768E+00  0.88000000000E+00 0. -1.
        -11    1    4    4    0    0  0.32050088528E-02  0.65216460482E-01  0.54099596038E-01  0.84796734677E-01  0.51100000000E-03 0. -1.
         11    1    4    4    0    0 -0.17917403584E-01  0.32282293955E-01  0.30670193404E-01  0.48001059766E-01  0.51100000000E-03 0.  1.
</event>
<event>
 8    1  0.1114686E+005  0.1043930E+01  0.7957747E-01            NaN
         13   -1    0    0    0    0  0.00000000000E+00  0.00000000000E+00  0.74505805969E-08  0.10566000000E+00  0.10566000000E+00 0.  1.
     999900   -1    0    0    0    0 -0.00000000000E+00 -0.00000000000E+00 -0.74505805969E-08  0.93827000000E+00  0.93827000000E+00 0.  1.
     999902    2    1    2    0    0 -0.21657859667E-01 -0.83568736834E-02 -0.51751914044E-02  0.10201459123E+01  0.10198686187E+01 0.  0.
     999903    2    3    3    0    0  0.26553930771E-02  0.95685715034E-01 -0.85760489077E-01  0.13002795114E+00  0.19738272889E-01 0.  0.
         14    1    1    2    0    0  0.21657859667E-01  0.83568736834E-02  0.51751914044E-02  0.23784087731E-01  0.00000000000E+00 0. -1.
     999901    1    3    3    0    0 -0.24313252744E-01 -0.10404258872E+00  0.80585297673E-01  0.89011796113E+00  0.88000000000E+00 0.  1.
        -11    1    4    4    0    0  0.74720161679E-02  0.14153885609E-01 -0.12583705361E-01  0.20366007588E-01  0.51100000000E-03 0.  1.
         11    1    4    4    0    0 -0.48166230908E-02  0.81531829425E-01 -0.73176783716E-01  0.10966194355E+00  0.51100000000E-03 0. -1.
</event>
<event>
 8    1  0.1114686E+005  0.1043930E+01  0.7957747E-01            NaN
         13   -1    0    0    0    0  0.00000000000E+00  0.00000000000E+00  0.74505805969E-08  0.10566000000E+00  0.10566000000E+00 0. -1.
     999900   -1    0    0    0    0 -0.00000000000E+00 -0.00000000000E+00 -0.74505805969E-08  0.93827000000E+00  0.93827000000E+00 0.  1.
     999902    2    1    2    0    0 -0.11860765705E-01  0.71818977688E-02  0.19767099141E-01  0.10197846976E+01  0.10194988150E+01 0.  0.
     999903    2    3    3    0    0 -0.95785073238E-01 -0.79112531930E-01 -0.32568891327E-01  0.13004930218E+00  0.20457647772E-01 0.  0.
         14    1    1    2    0    0  0.11860765705E-01 -0.71818977688E-02 -0.19767099141E-01  0.24145302382E-01  0.00000000000E+00 0.  1.
     999901    1    3    3    0    0  0.83924307533E-01  0.86294429699E-01  0.52335990469E-01  0.88973539544E+00  0.88000000000E+00 0. -1.
        -11    1    4    4    0    0 -0.61460316226E-01 -0.62793931525E-01 -0.21479519629E-01  0.90454846146E-01  0.51100000000E-03 0.  1.
         11    1    4    4    0    0 -0.34324757012E-01 -0.16318600405E-01 -0.11089371699E-01  0.39594456036E-01  0.51100000000E-03 0. -1.
</event>
<event>
 8    1  0.1114686E+005  0.1043930E+01  0.7957747E-01            NaN
         13   -1    0    0    0    0  0.00000000000E+00  0.00000000000E+00  0.74505805969E-08  0.10566000000E+00  0.10566000000E+00 0.  1.
     999900   -1    0    0    0    0 -0.00000000000E+00 -0.00000000000E+00 -0.74505805969E-08  0.93827000000E+00  0.93827000000E+00 0.  1.
     999902    2    1    2    0    0 -0.46844081020E-02  0.13173559171E-01 -0.18430087321E-01  0.10207965943E+01  0.10205344347E+01 0.  0.
     999903    2    3    3    0    0  0.39950561377E-01  0.11867042518E+00 -0.41206664212E-01  0.13308006202E+00  0.18264626002E-01 0.  0.
         14    1    1    2    0    0  0.46844081020E-02 -0.13173559171E-01  0.18430087321E-01  0.23133405697E-01  0.00000000000E+00 0.  1.
     999901    1    3    3    0    0 -0.44634969479E-01 -0.10549686601E+00  0.22776576891E-01  0.88771653229E+00  0.88000000000E+00 0. -1.
        -11    1    4    4    0    0  0.32521536251E-02  0.35132703565E-01 -0.10800190005E-01  0.36902419814E-01  0.51100000000E-03 0. -1.
         11    1    4    4    0    0  0.36698407752E-01  0.83537721620E-01 -0.30406474207E-01  0.96177642203E-01  0.51100000000E-03 0.  1.
</event>
<event>
 8    1  0.1114686E+005  0.1043930E+01  0.7957747E-01            NaN
         13   -1    0    0    0    0  0.00000000000E+00  0.00000000000E+00  0.74505805969E-08  0.10566000000E+00  0.10566000000E+00 0. -1.
     999900   -1    0    0    0    0 -0.00000000000E+00 -0.00000000000E+00 -0.74505805969E-08  0.93827000000E+00  0.93827000000E+00 0. -1.
     999902    2    1    2    0    0  0.10045147782E-02 -0.85923643481E-02 -0.21544162687E-01  0.10207138694E+01  0.10204498099E+01 0.  0.
     999903    2    3    3    0    0 -0.10744268656E+00 -0.56213191284E-01  0.43477194804E-01  0.13040138740E+00  0.20258371073E-01 0.  0.
         14    1    1    2    0    0 -0.10045147782E-02  0.85923643481E-02  0.21544162687E-01  0.23216130619E-01  0.00000000000E+00 0.  1.
     999901    1    3    3    0    0  0.10844720134E+00  0.47620826936E-01 -0.65021357491E-01  0.89031248198E+00  0.88000000000E+00 0. -1.
        -11    1    4    4    0    0 -0.67420260764E-01 -0.24156815245E-01  0.26986361623E-01  0.76534751054E-01  0.51100000000E-03 0.  1.
         11    1    4    4    0    0 -0.40022425799E-01 -0.32056376039E-01  0.16490833181E-01  0.53866636349E-01  0.51100000000E-03 0. -1.
</event>
<event>
 8    1  0.1114686E+005  0.1043930E+01  0.7957747E-01            NaN
         13   -1    0    0    0    0  0.00000000000E+00  0.00000000000E+00  0.74505805969E-08  0.10566000000E+00  0.10566000000E+00 0. -1.
     999900   -1    0    0    0    0 -0.00000000000E+00 -0.00000000000E+00 -0.74505805969E-08  0.93827000000E+00  0.93827000000E+00 0.  1.
     999902    2    1    2    0    0 -0.78975785887E-02  0.94431699495E-03  0.21356047315E-01  0.10211408745E+01  0.10208865468E+01 0.  0.
     999903    2    3    3    0    0  0.11410516164E+00  0.48930047075E-01 -0.32567673157E-01  0.12979634713E+00  0.19295102342E-01 0.  0.
         14    1    1    2    0    0  0.78975785887E-02 -0.94431699495E-03 -0.21356047315E-01  0.22789125456E-01  0.00000000000E+00 0.  1.
     999901    1    3    3    0    0 -0.12200274023E+00 -0.47985730080E-01  0.53923720472E-01  0.89134452741E+00  0.88000000000E+00 0. -1.
        -11    1    4    4    0    0  0.99454902559E-01  0.36254459412E-01 -0.31240151041E-01  0.11037151638E+00  0.51100000000E-03 0. -1.
         11    1    4    4    0    0  0.14650259082E-01  0.12675587663E-01 -0.13275221162E-02  0.19424830752E-01  0.51100000000E-03 0.  1.
</event>
<event>
 8    1  0.1114686E+005  0.1043930E+01  0.7957747E-01            NaN
         13   -1    0    0    0    0  0.00000000000E+00  0.00000000000E+00  0.74505805969E-08  0.10566000000E+00  0.10566000000E+00 0.  1.
     999900   -1    0    0    0    0 -0.00000000000E+00 -0.00000000000E+00 -0.74505805969E-08  0.93827000000E+00  0.93827000000E+00 0. -1.
     999902    2    1    2    0    0 -0.60764948267E-03  0.76756061505E-02  0.22287008236E-01  0.10203504558E+01  0.10200779665E+01 0.  0.
     999903    2    3    3    0    0  0.21722579603E-01 -0.49346434967E-01  0.11979636856E+00  0.13284934165E+00  0.19769586460E-01 0.  0.
         14    1    1    2    0    0  0.60764948267E-03 -0.76756061505E-02 -0.22287008236E-01  0.23579544181E-01  0.00000000000E+00 0. -1.
     999901    1    3    3    0    0 -0.22330229086E-01  0.57022041117E-01 -0.97509360319E-01  0.88750111417E+00  0.88000000000E+00 0.  1.
        -11    1    4    4    0    0 -0.16932162280E-02 -0.25375434890E-02  0.19230968202E-01  0.19478125350E-01  0.51100000000E-03 0.  1.
         11    1    4    4    0    0  0.23415795831E-01 -0.46808891478E-01  0.10056540035E+00  0.11337121630E+00  0.51100000000E-03 0. -1.
</event>
<event>
 8    1  0.1114686E+005  0.1043930E+01  0.7957747E-01            NaN
         13   -1    0    0    0    0  0.00000000000E+00  0.00000000000E+00  0.74505805969E-08  0.10566000000E+00  0.10566000000E+00 0.  1.
     999900   -1    0    0    0    0 -0.00000000000E+00 -0.00000000000E+00 -0.74505805969E-08  0.93827000000E+00  0.93827000000E+00 0.  1.
     999902    2    1    2    0    0  0.71940357512E-04  0.14334383062E-01 -0.19482087930E-01  0.10197425763E+01  0.10194556835E+01 0.  0.
     999903    2    3    3    0    0  0.65938593082E-01  0.92884529744E-01 -0.64516369209E-01  0.13264808984E+00  0.21394389904E-01 0.  0.
         14    1    1    2    0    0 -0.71940357512E-04 -0.14334383062E-01  0.19482087930E-01  0.24187423660E-01  0.00000000000E+00 0. -1.
     999901    1    3    3    0    0 -0.65866652724E-01 -0.78550146682E-01  0.45034281279E-01  0.88709448650E+00  0.88000000000E+00 0. -1.
        -11    1    4    4    0    0  0.13166713613E-01  0.21933267503E-01 -0.25071999290E-01  0.35823132751E-01  0.51100000000E-03 0. -1.
         11    1    4    4    0    0  0.52771879468E-01  0.70951262241E-01 -0.39444369919E-01  0.96824957090E-01  0.51100000000E-03 0.  1.
</event>
<event>
 8    1  0.1114686E+005  0.1043930E+01  0.7957747E-01            NaN
         13   -1    0    0    0    0  0.00000000000E+00  0.00000000000E+00  0.74505805969E-08  0.10566000000E+00  0.10566000000E+00 0.  1.
     999900   -1    0    0    0    0 -0.00000000000E+00 -0.00000000000E+00 -0.74505805969E-08  0.93827000000E+00  0.93827000000E+00 0.  1.
     999902    2    1    2    0    0 -0.22890581234E-01 -0.26606387424E-01 -0.82263195041E-02  0.10078807158E+01  0.10072358147E+01 0.  0.
     999903    2    3    3    0    0 -0.24151282589E-03  0.11451733256E+00 -0.50658720717E-02  0.11634335084E+00  0.19895588402E-01 0.  0.
         14    1    1    2    0    0  0.22890581234E-01  0.26606387424E-01  0.82263195041E-02  0.36049284231E-01  0.00000000000E+00 0.  1.
     999901    1    3    3    0    0 -0.22649068408E-01 -0.14112371999E+00 -0.31604474324E-02  0.89153736493E+00  0.88000000000E+00 0. -1.
        -11    1    4    4    0    0  0.49615393354E-02  0.34144273045E-01 -0.91427183877E-02  0.35697320275E-01  0.51100000000E-03 0. -1.
         11    1    4    4    0    0 -0.52030521613E-02  0.80373059520E-01  0.40768463159E-02  0.80646030561E-01  0.51100000000E-03 0.  1.
</event>
<event>
 8    1  0.1114686E+005  0.1043930E+01  0.7957747E-01            NaN
         13   -1    0    0    0    0  0.00000000000E+00  0.00000000000E+00  0.74505805969E-08  0.10566000000E+00  0.10566000000E+00 0. -1.
     999900   -1    0    0    0    0 -0.00000000000E+00 -0.00000000000E+00 -0.74505805969E-08  0.93827000000E+00  0.93827000000E+00 0.  1.
     999902    2    1    2    0    0  0.15821156232E-01  0.15220565176E-01 -0.91114642153E-02  0.10201604108E+01  0.10198834593E+01 0.  0.
     999903    2    3    3    0    0  0.78289800258E-02  0.12168501349E+00 -0.48415792566E-01  0.13283669096E+00  0.20807740334E-01 0.  0.
         14    1    1    2    0    0 -0.15821156232E-01 -0.15220565176E-01  0.91114642153E-02  0.23769589162E-01  0.00000000000E+00 0. -1.
     999901    1    3    3    0    0  0.79921762062E-02 -0.10646444832E+00  0.39304328351E-01  0.88732371988E+00  0.88000000000E+00 0.  1.
        -11    1    4    4    0    0 -0.58704767239E-02  0.61167122238E-01 -0.20336797822E-01  0.64728091325E-01  0.51100000000E-03 0. -1.
         11    1    4    4    0    0  0.13699456750E-01  0.60517891254E-01 -0.28078994744E-01  0.68108599632E-01  0.51100000000E-03 0.  1.
</event>
<event>
 8    1  0.1114686E+005  0.1043930E+01  0.7957747E-01            NaN
         13   -1    0    0    0    0  0.00000000000E+00  0.00000000000E+00  0.74505805969E-08  0.10566000000E+00  0.10566000000E+00 0.  1.
     999900   -1    0    0    0    0 -0.00000000000E+00 -0.00000000000E+00 -0.74505805969E-08  0.93827000000E+00  0.93827000000E+00 0.  1.
     999902    2    1    2    0    0 -0.21292281590E-01  0.42732915572E-02 -0.84079429023E-02  0.10206423256E+01  0.10203766172E+01 0.  0.
     999903    2    3    3    0    0 -0.97493653831E-01 -0.87540432122E-01 -0.40621963200E-02  0.13257966197E+00  0.19812257204E-01 0.  0.
         14    1    1    2    0    0  0.21292281590E-01 -0.42732915572E-02  0.84079429023E-02  0.23287674419E-01  0.00000000000E+00 0.  1.
     999901    1    3    3    0    0  0.76201372241E-01  0.91813723679E-01 -0.43457465822E-02  0.88806266361E+00  0.88000000000E+00 0.  1.
        -11    1    4    4    0    0 -0.21547156301E-01 -0.94833893188E-02  0.82416756941E-03  0.23561727246E-01  0.51100000000E-03 0.  1.
         11    1    4    4    0    0 -0.75946497530E-01 -0.78057042803E-01 -0.48863638894E-02  0.10901793472E+00  0.51100000000E-03 0. -1.
</event>
<event>
 8    1  0.1114686E+005  0.1043930E+01  0.7957747E-01            NaN
         13   -1    0    0    0    0  0.00000000000E+00  0.00000000000E+00  0.74505805969E-08  0.10566000000E+00  0.10566000000E+00 0.  1.
     999900   -1    0    0    0    0 -0.00000000000E+00 -0.00000000000E+00 -0.74505805969E-08  0.93827000000E+00  0.93827000000E+00 0.  1.
     999902    2    1    2    0    0  0.60428112918E-02 -0.20682270805E-01 -0.11020680485E-01  0.10197281965E+01  0.10194409583E+01 0.  0.
     999903    2    3    3    0    0 -0.25625552856E-01 -0.60917802703E-02 -0.12805438137E+00  0.13129550078E+00  0.12116319126E-01 0.  0.
         14    1    1    2    0    0 -0.60428112918E-02  0.20682270805E-01  0.11020680485E-01  0.24201803493E-01  0.00000000000E+00 0.  1.
     999901    1    3    3    0    0  0.31668364148E-01 -0.14590490535E-01  0.11703370089E+00  0.88843269573E+00  0.88000000000E+00 0. -1.
        -11    1    4    4    0    0 -0.85088452240E-02 -0.26675585029E-02 -0.72831868764E-01  0.73377507072E-01  0.51100000000E-03 0. -1.
         11    1    4    4    0    0 -0.17116707632E-01 -0.34242217675E-02 -0.55222512608E-01  0.57917993704E-01  0.51100000000E-03 0.  1.
</event>
<event>
 8    1  0.1114686E+005  0.1043930E+01  0.7957747E-01            NaN
         13   -1    0    0    0    0  0.00000000000E+00  0.00000000000E+00  0.74505805969E-08  0.10566000000E+00  0.10566000000E+00 0.  1.
     999900   -1    0    0    0    0 -0.00000000000E+00 -0.00000000000E+00 -0.74505805969E-08  0.93827000000E+00  0.93827000000E+00 0.  1.
     999902    2    1    2    0    0  0.96385299463E-02  0.20282940517E-01 -0.58931156569E-02  0.10207130289E+01  0.10204489500E+01 0.  0.
     999903    2    3    3    0    0 -0.21689342491E-01  0.11515534216E+00 -0.60412079646E-01  0.13338303073E+00  0.20254212255E-01 0.  0.
         14    1    1    2    0    0 -0.96385299463E-02 -0.20282940517E-01  0.58931156569E-02  0.23216971114E-01  0.00000000000E+00 0.  1.
     999901    1    3    3    0    0  0.31327872437E-01 -0.94872401647E-01  0.54518963989E-01  0.88732999815E+00  0.88000000000E+00 0.  1.
        -11    1    4    4    0    0 -0.91045608876E-02  0.12394607988E-01 -0.79121092138E-02  0.17302656714E-01  0.51100000000E-03 0.  1.
         11    1    4    4    0    0 -0.12584781603E-01  0.10276073418E+00 -0.52499970432E-01  0.11608037402E+00  0.51100000000E-03 0. -1.
</event>
<event>
 8    1  0.1114686E+005  0.1043930E+01  0.7957747E-01            NaN
         13   -1    0    0    0    0  0.00000000000E+00  0.00000000000E+00  0.74505805969E-08  0.10566000000E+00  0.10566000000E+00 0. -1.
     999900   -1    0    0    0    0 -0.00000000000E+00 -0.00000000000E+00 -0.74505805969E-08  0.93827000000E+00  0.93827000000E+00 0. -1.
     999902    2    1    2    0    0  0.11334464444E-01  0.26443850857E-02  0.20149091198E-01  0.10206609490E+01  0.10203956704E+01 0.  0.
     999903    2    3    3    0    0 -0.66567689497E-01  0.78645150147E-02 -0.10697216917E+00  0.12810517476E+00  0.21789514500E-01 0.  0.
         14    1    1    2    0    0 -0.11334464444E-01 -0.26443850857E-02 -0.20149091198E-01  0.23269050965E-01  0.00000000000E+00 0.  1.
     999901    1    3    3    0    0  0.77902153940E-01 -0.52201299290E-02  0.12712126037E+00  0.89255577427E+00  0.88000000000E+00 0.  1.
        -11    1    4    4    0    0 -0.53724013479E-01  0.14968983426E-01 -0.83296844192E-01  0.10024452834E+00  0.51100000000E-03 0. -1.
         11    1    4    4    0    0 -0.12843676017E-01 -0.71044684114E-02 -0.23675324983E-01  0.27860646423E-01  0.51100000000E-03 0.  1.
</event>
<event>
 8    1  0.1114686E+005  0.1043930E+01  0.7957747E-01            NaN
         13   -1    0    0    0    0  0.00000000000E+00  0.00000000000E+00  0.74505805969E-08  0.10566000000E+00  0.10566000000E+00 0.  1.
     999900   -1    0    0    0    0 -0.00000000000E+00 -0.00000000000E+00 -0.74505805969E-08  0.93827000000E+00  0.93827000000E+00 0. -1.
     999902    2    1    2    0    0 -0.82368516147E-02  0.21461175492E-01  0.47100617327E-02  0.10204648672E+01  0.10201950464E+01 0.  0.
     999903    2    3    3    0    0 -0.37447329224E-01 -0.10014695034E+00 -0.68702662378E-01  0.12859536082E+00  0.19621337297E-01 0.  0.
         14    1    1    2    0    0  0.82368516147E-02 -0.21461175492E-01 -0.47100617327E-02  0.23465132847E-01  0.00000000000E+00 0.  1.
     999901    1    3    3    0    0  0.29210477610E-01  0.12160812583E+00  0.73412724110E-01  0.89186950634E+00  0.88000000000E+00 0.  1.
        -11    1    4    4    0    0 -0.19272023544E-01 -0.67359089737E-01 -0.35639683357E-01  0.78607289817E-01  0.51100000000E-03 0.  1.
         11    1    4    4    0    0 -0.18175305680E-01 -0.32787860604E-01 -0.33062979021E-01  0.49988071000E-01  0.51100000000E-03 0. -1.
</event>
<event>
 8    1  0.1114686E+005  0.1043930E+01  0.7957747E-01            NaN
         13   -1    0    0    0    0  0.00000000000E+00  0.00000000000E+00  0.74505805969E-08  0.10566000000E+00  0.10566000000E+00 0.  1.
     999900   -1    0    0    0    0 -0.00000000000E+00 -0.00000000000E+00 -0.74505805969E-08  0.93827000000E+00  0.93827000000E+00 0. -1.
     999902    2    1    2    0    0 -0.22867757772E-01 -0.54422261744E-02 -0.67086334286E-02  0.10194850019E+01  0.10191918912E+01 0.  0.
     999903    2    3    3    0    0 -0.72569286545E-01  0.72023792219E-01  0.78850329644E-01  0.13055780455E+00  0.19345228058E-01 0.  0.
         14    1    1    2    0    0  0.22867757772E-01  0.54422261744E-02  0.67086334286E-02  0.24444998133E-01  0.00000000000E+00 0. -1.
     999901    1    3    3    0    0  0.49701528773E-01 -0.77466018393E-01 -0.85558963073E-01  0.88892719732E+00  0.88000000000E+00 0. -1.
        -11    1    4    4    0    0 -0.16743920981E-01  0.73786467336E-02  0.18097130817E-01  0.25740446427E-01  0.51100000000E-03 0. -1.
         11    1    4    4    0    0 -0.55825365564E-01  0.64645145485E-01  0.60753198827E-01  0.10481735812E+00  0.51100000000E-03 0.  1.
</event>
<event>
 8    1  0.1114686E+005  0.1043930E+01  0.7957747E-01            NaN
         13   -1    0    0    0    0  0.00000000000E+00  0.00000000000E+00  0.74505805969E-08  0.10566000000E+00  0.10566000000E+00 0. -1.
     999900   -1    0    0    0    0 -0.00000000000E+00 -0.00000000000E+00 -0.74505805969E-08  0.93827000000E+00  0.93827000000E+00 0.  1.
     999902    2    1    2    0    0  0.12763943769E-01  0.33577683841E-02 -0.19407545323E-01  0.10204598981E+01  0.10201899617E+01 0.  0.
     999903    2    3    3    0    0  0.12257322245E+00  0.44007978786E-01  0.11421897451E-01  0.13216885802E+00  0.19422930520E-01 0.  0.
         14    1    1    2    0    0 -0.12763943769E-01 -0.33577683841E-02  0.19407545323E-01  0.23470101928E-01  0.00000000000E+00 0.  1.
     999901    1    3    3    0    0 -0.10980927868E+00 -0.40650210402E-01 -0.30829442774E-01  0.88829104005E+00  0.88000000000E+00 0. -1.
        -11    1    4    4    0    0  0.33000515408E-02 -0.37626923077E-03 -0.24378638011E-02  0.41516526370E-02  0.51100000000E-03 0. -1.
         11    1    4    4    0    0  0.11927317091E+00  0.44384248017E-01  0.13859761252E-01  0.12801720538E+00  0.51100000000E-03 0.  1.
</event>
<event>
 8    1  0.1114686E+005  0.1043930E+01  0.7957747E-01            NaN
         13   -1    0    0    0    0  0.00000000000E+00  0.00000000000E+00  0.74505805969E-08  0.10566000000E+00  0.10566000000E+00 0.  1.
     999900   -1    0    0    0    0 -0.00000000000E+00 -0.00000000000E+00 -0.74505805969E-08  0.93827000000E+00  0.93827000000E+00 0. -1.
     999902    2    1    2    0    0  0.76266350931E-02  0.48312076629E-02  0.22139718154E-01  0.10200203105E+01  0.10197400456E+01 0.  0.
     999903    2    3    3    0    0  0.11279407580E+00  0.65388780337E-01  0.96374207313E-02  0.13160390049E+00  0.15116567670E-01 0.  0.
         14    1    1    2    0    0 -0.76266350931E-02 -0.48312076629E-02 -0.22139718154E-01  0.23909689464E-01  0.00000000000E+00 0. -1.
     999901    1    3    3    0    0 -0.10516744070E+00 -0.60557572674E-01  0.12502297423E-01  0.88841641004E+00  0.88000000000E+00 0.  1.
        -11    1    4    4    0    0  0.92730055434E-01  0.54806741496E-01  0.22432317723E-02  0.10774012857E+00  0.51100000000E-03 0. -1.
         11    1    4    4    0    0  0.20064020362E-01  0.10582038841E-01  0.73941889590E-02  0.23863771924E-01  0.51100000000E-03 0.  1.
</event>
<event>
 8    1  0.1114686E+005  0.1043930E+01  0.7957747E-01            NaN
         13   -1    0    0    0    0  0.00000000000E+00  0.00000000000E+00  0.74505805969E-08  0.10566000000E+00  0.10566000000E+00 0. -1.
     999900   -1    0    0    0    0 -0.00000000000E+00 -0.00000000000E+00 -0.74505805969E-08  0.93827000000E+00  0.93827000000E+00 0.  1.
     999902    2    1    2    0    0 -0.18220574370E-01  0.13899445050E-01  0.91318908075E-02  0.10192606803E+01  0.10189620990E+01 0.  0.
     999903    2    3    3    0    0 -0.11053392265E+00  0.63988168561E-01 -0.27826728952E-01  0.13224513703E+00  0.20055314791E-01 0.  0.
         14    1    1    2    0    0  0.18220574370E-01 -0.13899445050E-01 -0.91318908075E-02  0.24669319666E-01  0.00000000000E+00 0. -1.
     999901    1    3    3    0    0  0.92313348279E-01 -0.50088723511E-01  0.36958619759E-01  0.88701554331E+00  0.88000000000E+00 0. -1.
        -11    1    4    4    0    0 -0.91555833674E-01  0.46584590453E-01 -0.16235765880E-01  0.10400219210E+00  0.51100000000E-03 0. -1.
         11    1    4    4    0    0 -0.18978088974E-01  0.17403578108E-01 -0.11590963072E-01  0.28242944924E-01  0.51100000000E-03 0.  1.
</event>
<event>
 8    1  0.1114686E+005  0.1043930E+01  0.7957747E-01            NaN
         13   -1    0    0    0    0  0.00000000000E+00  0.00000000000E+00  0.74505805969E-08  0.10566000000E+00  0.10566000000E+00 0. -1.
     999900   -1    0    0    0    0 -0.00000000000E+00 -0.00000000000E+00 -0.74505805969E-08  0.93827000000E+00  0.93827000000E+00 0.  1.
     999902    2    1    2    0    0  0.40515374380E-02  0.11257637384E-01 -0.20734921018E-01  0.10199907789E+01  0.10197098130E+01 0.  0.
     999903    2    3    3    0    0  0.90414896372E-02  0.50382840068E-01 -0.12158655156E+00  0.13335289768E+00  0.19481444804E-01 0.  0.
         14    1    1    2    0    0 -0.40515374380E-02 -0.11257637384E-01  0.20734921018E-01  0.23939221055E-01  0.00000000000E+00 0. -1.
     999901    1    3    3    0    0 -0.49899521992E-02 -0.39125202684E-01  0.10085163054E+00  0.88663788126E+00  0.88000000000E+00 0. -1.
        -11    1    4    4    0    0  0.12616741250E-01  0.19230969592E-01 -0.59568238362E-01  0.63856467909E-01  0.51100000000E-03 0. -1.
         11    1    4    4    0    0 -0.35752516131E-02  0.31151870476E-01 -0.62018313198E-01  0.69496429773E-01  0.51100000000E-03 0.  1.
</event>
<event>
 8    1  0.1114686E+005  0.1043930E+01  0.7957747E-01            NaN
         13   -1    0    0    0    0  0.00000000000E+00  0.00000000000E+00  0.74505805969E-08  0.10566000000E+00  0.10566000000E+00 0. -1.
     999900   -1    0    0    0    0 -0.00000000000E+00 -0.00000000000E+00 -0.74505805969E-08  0.93827000000E+00  0.93827000000E+00 0.  1.
     999902    2    1    2    0    0  0.18845472974E-01 -0.28254963938E-02  0.12440251188E-01  0.10211726906E+01  0.10209190805E+01 0.  0.
     999903    2    3    3    0    0  0.79760414890E-01  0.86962432895E-01 -0.56048811949E-01  0.13186776305E+00  0.17984690505E-01 0.  0.
         14    1    1    2    0    0 -0.18845472974E-01  0.28254963938E-02 -0.12440251188E-01  0.22757309400E-01  0.00000000000E+00 0.  1.
     999901    1    3    3    0    0 -0.60914941916E-01 -0.89787929289E-01  0.68489063138E-01  0.88930492755E+00  0.88000000000E+00 0.  1.
        -11    1    4    4    0    0  0.10014443033E-01  0.17754530578E-01 -0.15316265532E-01  0.25502186890E-01  0.51100000000E-03 0.  1.
         11    1    4    4    0    0  0.69745971857E-01  0.69207902317E-01 -0.40732546418E-01  0.10636557616E+00  0.51100000000E-03 0. -1.
</event>
<event>
 8    1  0.1114686E+005  0.1043930E+01  0.7957747E-01            NaN
         13   -1    0    0    0    0  0.00000000000E+00  0.00000000000E+00  0.74505805969E-08  0.10566000000E+00  0.10566000000E+00 0. -1.
     999900   -1    0    0    0    0 -0.00000000000E+00 -0.00000000000E+00 -0.74505805969E-08  0.93827000000E+00  0.93827000000E+00 0.  1.
     999902    2    1    2    0    0  0.18149358158E-02 -0.23024273896E-01  0.11491452094E-01  0.10181333984E+01  0.10178065398E+01 0.  0.
     999903    2    3    3    0    0  0.67791307947E-01 -0.86451122600E-01 -0.66868627408E-01  0.12992387988E+00  0.18421270291E-01 0.  0.
         14    1    1    2    0    0 -0.18149358158E-02  0.23024273896E-01 -0.11491452094E-01  0.25796601553E-01  0.00000000000E+00 0.  1.
     999901    1    3    3    0    0 -0.65976372132E-01  0.63426848704E-01  0.78360079502E-01  0.88820951857E+00  0.88000000000E+00 0.  1.
        -11    1    4    4    0    0  0.24433494170E-01 -0.29367482168E-01 -0.33668462523E-01  0.50924170448E-01  0.51100000000E-03 0.  1.
         11    1    4    4    0    0  0.43357813778E-01 -0.57083640432E-01 -0.33200164885E-01  0.78999709430E-01  0.51100000000E-03 0. -1.
</event>
<event>
 8    1  0.1114686E+005  0.1043930E+01  0.7957747E-01            NaN
         13   -1    0    0    0    0  0.00000000000E+00  0.00000000000E+00  0.74505805969E-08  0.10566000000E+00  0.10566000000E+00 0.  1.
     999900   -1    0    0    0    0 -0.00000000000E+00 -0.00000000000E+00 -0.74505805969E-08  0.93827000000E+00  0.93827000000E+00 0.  1.
     999902    2    1    2    0    0  0.39275764930E-02 -0.21144783156E-01 -0.11295652506E-01  0.10196376251E+01  0.10193482070E+01 0.  0.
     999903    2    3    3    0    0  0.12113944765E+00  0.15433002852E-01 -0.42214500308E-01  0.13057489824E+00  0.18836046863E-01 0.  0.
         14    1    1    2    0    0 -0.39275764930E-02  0.21144783156E-01  0.11295652506E-01  0.24292374881E-01  0.00000000000E+00 0.  1.
     999901    1    3    3    0    0 -0.11721187116E+00 -0.36577786008E-01  0.30918847802E-01  0.88906272688E+00  0.88000000000E+00 0. -1.
        -11    1    4    4    0    0  0.92747945262E-01  0.16831582119E-01 -0.25737102326E-01  0.97714600056E-01  0.51100000000E-03 0.  1.
         11    1    4    4    0    0  0.28391502388E-01 -0.13985792668E-02 -0.16477397982E-01  0.32860298189E-01  0.51100000000E-03 0. -1.
</event>
<event>
 8    1  0.1114686E+005  0.1043930E+01  0.7957747E-01            NaN
         13   -1    0    0    0    0  0.00000000000E+00  0.00000000000E+00  0.74505805969E-08  0.10566000000E+00  0.10566000000E+00 0.  1.
     999900   -1    0    0    0    0 -0.00000000000E+00 -0.00000000000E+00 -0.74505805969E-08  0.93827000000E+00  0.93827000000E+00 0. -1.
     999902    2    1    2    0    0  0.71103859433E-02 -0.16538882875E-01 -0.17102274603E-01  0.10190989704E+01  0.10187964131E+01 0.  0.
     999903    2    3    3    0    0  0.10955450862E+00 -0.12044396972E-01 -0.69166540406E-01  0.13161618946E+00  0.19787702210E-01 0.  0.
         14    1    1    2    0    0 -0.71103859433E-02  0.16538882875E-01  0.17102274603E-01  0.24831029612E-01  0.00000000000E+00 0.  1.
     999901    1    3    3    0    0 -0.10244412267E+00 -0.44944859025E-02  0.52064265803E-01  0.88748278093E+00  0.88000000000E+00 0.  1.
        -11    1    4    4    0    0  0.19307376955E-01  0.32966777890E-03 -0.21146467337E-01  0.28641188655E-01  0.51100000000E-03 0.  1.
         11    1    4    4    0    0  0.90247131662E-01 -0.12374064751E-01 -0.48020073069E-01  0.10297500080E+00  0.51100000000E-03 0. -1.
</event>
<event>
 8    1  0.1114686E+005  0.1043930E+01  0.7957747E-01            NaN
         13   -1    0    0    0    0  0.00000000000E+00  0.00000000000E+00  0.74505805969E-08  0.10566000000E+00  0.10566000000E+00 0.  1.
     999900   -1    0    0    0    0 -0.00000000000E+00 -0.00000000000E+00 -0.74505805969E-08  0.93827000000E+00  0.93827000000E+00 0. -1.
     999902    2    1    2    0    0 -0.21679719303E-01  0.17304636500E-01 -0.19254352355E-01  0.10101632892E+01  0.10095987718E+01 0.  0.
     999903    2    3    3    0    0  0.35566092838E-01 -0.10887038024E+00  0.22110214006E-01  0.11836272562E+00  0.20079008929E-01 0.  0.
         14    1    1    2    0    0  0.21679719303E-01 -0.17304636500E-01  0.19254352355E-01  0.33766710797E-01  0.00000000000E+00 0.  1.
     999901    1    3    3    0    0 -0.57245812141E-01  0.12617501674E+00 -0.41364566362E-01  0.89180056358E+00  0.88000000000E+00 0.  1.
        -11    1    4    4    0    0  0.26899251930E-01 -0.67925923486E-01  0.22695284862E-01  0.76503842464E-01  0.51100000000E-03 0.  1.
         11    1    4    4    0    0  0.86668409088E-02 -0.40944456754E-01 -0.58507085539E-03  0.41858883156E-01  0.51100000000E-03 0. -1.
</event>
<event>
 8    1  0.1114686E+005  0.1043930E+01  0.7957747E-01            NaN
         13   -1    0    0    0    0  0.00000000000E+00  0.00000000000E+00  0.74505805969E-08  0.10566000000E+00  0.10566000000E+00 0. -1.
     999900   -1    0    0    0    0 -0.00000000000E+00 -0.00000000000E+00 -0.74505805969E-08  0.93827000000E+00  0.93827000000E+00 0.  1.
     999902    2    1    2    0    0  0.72432348978E-02 -0.65477374153E-02 -0.21542580680E-01  0.10202779367E+01  0.10200037490E+01 0.  0.
     999903    2    3    3    0    0 -0.58033800307E-02 -0.64608320542E-01  0.10894934960E+00  0.12866737744E+00  0.21849918443E-01 0.  0.
         14    1    1    2    0    0 -0.72432348978E-02  0.65477374153E-02  0.21542580680E-01  0.23652063322E-01  0.00000000000E+00 0. -1.
     999901    1    3    3    0    0  0.13046614929E-01  0.58060583127E-01 -0.13049193028E+00  0.89161055924E+00  0.88000000000E+00 0.  1.
        -11    1    4    4    0    0 -0.78601921148E-02 -0.12862188632E-01  0.37525809241E-01  0.40443367771E-01  0.51100000000E-03 0. -1.
         11    1    4    4    0    0  0.20568120841E-02 -0.51746131910E-01  0.71423540360E-01  0.88224009670E-01  0.51100000000E-03 0.  1.
</event>
<event>
 8    1  0.1114686E+005  0.1043930E+01  0.7957747E-01            NaN
         13   -1    0    0    0    0  0.00000000000E+00  0.00000000000E+00  0.74505805969E-08  0.10566000000E+00  0.10566000000E+00 0.  1.
     999900   -1    0    0    0    0 -0.00000000000E+00 -0.00000000000E+00 -0.74505805969E-08  0.93827000000E+00  0.93827000000E+00 0.  1.
     999902    2    1    2    0    0 -0.17226212840E-01 -0.12873054090E-01  0.80159209332E-02  0.10209797730E+01  0.10207217956E+01 0.  0.
     999903    2    3    3    0    0 -0.57043198974E-01 -0.10960789685E+00 -0.45554381936E-01  0.13316627934E+00  0.19754458750E-01 0.  0.
         14    1    1    2    0    0  0.17226212840E-01  0.12873054090E-01 -0.80159209332E-02  0.22950226988E-01  0.00000000000E+00 0. -1.
     999901    1    3    3    0    0  0.39816986134E-01  0.96734842757E-01  0.53570302869E-01  0.88781349367E+00  0.88000000000E+00 0. -1.
        -11    1    4    4    0    0 -0.38562643592E-01 -0.58460961357E-01 -0.32640014706E-01  0.77268319281E-01  0.51100000000E-03 0. -1.
         11    1    4    4    0    0 -0.18480555382E-01 -0.51146935490E-01 -0.12914367230E-01  0.55897960063E-01  0.51100000000E-03 0.  1.
</event>
<event>
 8    1  0.1114686E+005  0.1043930E+01  0.7957747E-01            NaN
         13   -1    0    0    0    0  0.00000000000E+00  0.00000000000E+00  0.74505805969E-08  0.10566000000E+00  0.10566000000E+00 0. -1.
     999900   -1    0    0    0    0 -0.00000000000E+00 -0.00000000000E+00 -0.74505805969E-08  0.93827000000E+00  0.93827000000E+00 0.  1.
     999902    2    1    2    0    0  0.15501213727E-01 -0.61931536728E-02  0.16376114470E-01  0.10205458194E+01  0.10202778786E+01 0.  0.
     999903    2    3    3    0    0  0.10107562713E+00 -0.83904360234E-01  0.23885280355E-02  0.13287602465E+00  0.19852173567E-01 0.  0.
         14    1    1    2    0    0 -0.15501213727E-01  0.61931536728E-02 -0.16376114470E-01  0.23384180648E-01  0.00000000000E+00 0.  1.
     999901    1    3    3    0    0 -0.85574413398E-01  0.77711206561E-01  0.13987586434E-01  0.88766979470E+00  0.88000000000E+00 0. -1.
        -11    1    4    4    0    0  0.32714611610E-01 -0.37598287732E-01 -0.43577102954E-02  0.50031268355E-01  0.51100000000E-03 0.  1.
         11    1    4    4    0    0  0.68361015516E-01 -0.46306072502E-01  0.67462383308E-02  0.82844756295E-01  0.51100000000E-03 0. -1.
</event>
<event>
 8    1  0.1114686E+005  0.1043930E+01  0.7957747E-01            NaN
         13   -1    0    0    0    0  0.00000000000E+00  0.00000000000E+00  0.74505805969E-08  0.10566000000E+00  0.10566000000E+00 0. -1.
     999900   -1    0    0    0    0 -0.00000000000E+00 -0.00000000000E+00 -0.74505805969E-08  0.93827000000E+00  0.93827000000E+00 0.  1.
     999902    2    1    2    0    0  0.12553059632E-02 -0.46210381894E-02 -0.22629904869E-01  0.10207990169E+01  0.10205369128E+01 0.  0.
     999903    2    3    3    0    0  0.10673795294E+00  0.73074655634E-01  0.11439629798E-02  0.13078305832E+00  0.19235482805E-01 0.  0.
         14    1    1    2    0    0 -0.12553059632E-02  0.46210381894E-02  0.22629904869E-01  0.23130983148E-01  0.00000000000E+00 0. -1.
     999901    1    3    3    0    0 -0.10548264697E+00 -0.77695693823E-01 -0.23773867849E-01  0.89001595853E+00  0.88000000000E+00 0.  1.
        -11    1    4    4    0    0  0.64565499070E-01  0.53375463539E-01 -0.44951769281E-02  0.83893453349E-01  0.51100000000E-03 0. -1.
         11    1    4    4    0    0  0.42172453866E-01  0.19699192095E-01  0.56391399079E-02  0.46889604969E-01  0.51100000000E-03 0.  1.
</event>
<event>
 8    1  0.1114686E+005  0.1043930E+01  0.7957747E-01            NaN
         13   -1    0    0    0    0  0.00000000000E+00  0.00000000000E+00  0.74505805969E-08  0.10566000000E+00  0.10566000000E+00 0. -1.
     999900   -1    0    0    0    0 -0.00000000000E+00 -0.00000000000E+00 -0.74505805969E-08  0.93827000000E+00  0.93827000000E+00 0.  1.
     999902    2    1    2    0    0  0.81614431409E-02 -0.16618256029E-01 -0.12930228807E-01  0.10213475642E+01  0.10210978800E+01 0.  0.
     999903    2    3    3    0    0 -0.88959914540E-01  0.20091853108E-01  0.89716430303E-01  0.12931812143E+00  0.18883582992E-01 0.  0.
         14    1    1    2    0    0 -0.81614431409E-02  0.16618256029E-01  0.12930228807E-01  0.22582435754E-01  0.00000000000E+00 0.  1.
     999901    1    3    3    0    0  0.97121357681E-01 -0.36710109137E-01 -0.10264665911E+00  0.89202944282E+00  0.88000000000E+00 0.  1.
        -11    1    4    4    0    0 -0.17756457452E-01  0.27564523970E-02  0.29136989135E-01  0.34236166081E-01  0.51100000000E-03 0.  1.
         11    1    4    4    0    0 -0.71203457087E-01  0.17335400711E-01  0.60579441168E-01  0.95081955345E-01  0.51100000000E-03 0. -1.
</event>
<event>
 8    1  0.1114686E+005  0.1043930E+01  0.7957747E-01            NaN
         13   -1    0    0    0    0  0.00000000000E+00  0.00000000000E+00  0.74505805969E-08  0.10566000000E+00  0.10566000000E+00 0. -1.
     999900   -1    0    0    0    0 -0.00000000000E+00 -0.00000000000E+00 -0.74505805969E-08  0.93827000000E+00  0.93827000000E+00 0.  1.
     999902    2    1    2    0    0  0.54600477181E-02  0.35819544715E-02  0.23270832008E-01  0.10197603053E+01  0.10194738379E+01 0.  0.
     999903    2    3    3    0    0  0.20651097359E-02  0.92353481035E-01 -0.85837110375E-01  0.12858330122E+00  0.25144098664E-01 0.  0.
         14    1    1    2    0    0 -0.54600477181E-02 -0.35819544715E-02 -0.23270832008E-01  0.24169694687E-01  0.00000000000E+00 0.  1.
     999901    1    3    3    0    0  0.33949379821E-02 -0.88771526564E-01  0.10910794238E+00  0.89117700409E+00  0.88000000000E+00 0. -1.
        -11    1    4    4    0    0  0.10522634261E-01  0.77361145443E-01 -0.65313403958E-01  0.10179181948E+00  0.51100000000E-03 0. -1.
         11    1    4    4    0    0 -0.84575245247E-02  0.14992335592E-01 -0.20523706417E-01  0.26791481738E-01  0.51100000000E-03 0.  1.
</event>
<event>
 8    1  0.1114686E+005  0.1043930E+01  0.7957747E-01            NaN
         13   -1    0    0    0    0  0.00000000000E+00  0.00000000000E+00  0.74505805969E-08  0.10566000000E+00  0.10566000000E+00 0.  1.
     999900   -1    0    0    0    0 -0.00000000000E+00 -0.00000000000E+00 -0.74505805969E-08  0.93827000000E+00  0.93827000000E+00 0. -1.
     999902    2    1    2    0    0  0.21706858428E-01  0.11200887067E-01  0.85711946323E-03  0.10194885960E+01  0.10191955726E+01 0.  0.
     999903    2    3    3    0    0 -0.10106262755E+00  0.74804906778E-01 -0.17062610644E-01  0.12851220200E+00  0.20367243696E-01 0.  0.
         14    1    1    2    0    0 -0.21706858428E-01 -0.11200887067E-01 -0.85711946323E-03  0.24441403963E-01  0.00000000000E+00 0. -1.
     999901    1    3    3    0    0  0.12276948597E+00 -0.63604019711E-01  0.17919730107E-01  0.89097639404E+00  0.88000000000E+00 0.  1.
        -11    1    4    4    0    0 -0.81445516421E-01  0.64230559730E-01 -0.67361445147E-02  0.10394505141E+00  0.51100000000E-03 0.  1.
         11    1    4    4    0    0 -0.19617111124E-01  0.10574347048E-01 -0.10326466129E-01  0.24567150589E-01  0.51100000000E-03 0. -1.
</event>
<event>
 8    1  0.1114686E+005  0.1043930E+01  0.7957747E-01            NaN
         13   -1    0    0    0    0  0.00000000000E+00  0.00000000000E+00  0.74505805969E-08  0.10566000000E+00  0.10566000000E+00 0.  1.
     999900   -1    0    0    0    0 -0.00000000000E+00 -0.00000000000E+00 -0.74505805969E-08  0.93827000000E+00  0.93827000000E+00 0.  1.
     999902    2    1    2    0    0  0.22302292577E-01  0.71496329187E-02 -0.70312781315E-02  0.10194770170E+01  0.10191837125E+01 0.  0.
     999903    2    3    3    0    0  0.63619901796E-01  0.10021922122E+00 -0.55050778295E-01  0.13230456168E+00  0.19558237230E-01 0.  0.
         14    1    1    2    0    0 -0.22302292577E-01 -0.71496329187E-02  0.70312781315E-02  0.24452982992E-01  0.00000000000E+00 0. -1.
     999901    1    3    3    0    0 -0.41317609218E-01 -0.93069588302E-01  0.48019500163E-01  0.88717245533E+00  0.88000000000E+00 0. -1.
        -11    1    4    4    0    0  0.38789698170E-01  0.76045596556E-01 -0.35003431574E-01  0.92266325291E-01  0.51100000000E-03 0. -1.
         11    1    4    4    0    0  0.24830203625E-01  0.24173624665E-01 -0.20047346721E-01  0.40038236388E-01  0.51100000000E-03 0.  1.
</event>
<event>
 8    1  0.1269121E+005  0.1043930E+01  0.7957747E-01            NaN
         13   -1    0    0    0    0  0.00000000000E+00  0.00000000000E+00  0.74505805969E-08  0.10566000000E+00  0.10566000000E+00 0.  1.
     999900   -1    0    0    0    0 -0.00000000000E+00 -0.00000000000E+00 -0.74505805969E-08  0.93827000000E+00  0.93827000000E+00 0.  1.
     999902    2    1    2    0    0 -0.16621179809E-01 -0.10816989291E-01  0.17516476305E-01  0.10174706384E+01  0.10171265418E+01 0.  0.
     999903    2    3    3    0    0 -0.54807938411E-01 -0.25364986334E-01  0.11473321173E+00  0.13117443145E+00  0.19892937186E-01 0.  0.
         14    1    1    2    0    0  0.16621179809E-01  0.10816989291E-01 -0.17516476305E-01  0.26459361627E-01  0.00000000000E+00 0. -1.
     999901    1    3    3    0    0  0.38186758602E-01  0.14547997043E-01 -0.97216735421E-01  0.88629620692E+00  0.88000000000E+00 0.  1.
        -11    1    4    4    0    0 -0.39966294599E-01 -0.10121056634E-01  0.63674797639E-01  0.75858298602E-01  0.51100000000E-03 0.  1.
         11    1    4    4    0    0 -0.14841643813E-01 -0.15243929700E-01  0.51058414087E-01  0.55316132853E-01  0.51100000000E-03 0. -1.
</event>
<event>
 8    1  0.1114686E+005  0.1043930E+01  0.7957747E-01            NaN
         13   -1    0    0    0    0  0.00000000000E+00  0.00000000000E+00  0.74505805969E-08  0.10566000000E+00  0.10566000000E+00 0. -1.
     999900   -1    0    0    0    0 -0.00000000000E+00 -0.00000000000E+00 -0.74505805969E-08  0.93827000000E+00  0.93827000000E+00 0. -1.
     999902    2    1    2    0    0 -0.18626199640E-02  0.10519812925E-01 -0.21951498485E-01  0.10195168047E+01  0.10192244655E+01 0.  0.
     999903    2    3    3    0    0  0.11660755010E+00 -0.50442048370E-01 -0.17740730212E-01  0.12947789531E+00  0.17551948074E-01 0.  0.
         14    1    1    2    0    0  0.18626199640E-02 -0.10519812925E-01  0.21951498485E-01  0.24413195261E-01  0.00000000000E+00 0. -1.
     999901    1    3    3    0    0 -0.11847017007E+00  0.60961861295E-01 -0.42107682727E-02  0.89003890943E+00  0.88000000000E+00 0. -1.
        -11    1    4    4    0    0  0.20680385138E-01 -0.28776324969E-02  0.34138546353E-03  0.20888675479E-01  0.51100000000E-03 0. -1.
         11    1    4    4    0    0  0.95927164963E-01 -0.47564415874E-01 -0.18082115676E-01  0.10858921983E+00  0.51100000000E-03 0.  1.
</event>
<event>
 8    1  0.1114686E+005  0.1043930E+01  0.7957747E-01            NaN
         13   -1    0    0    0    0  0.00000000000E+00  0.00000000000E+00  0.74505805969E-08  0.10566000000E+00  0.10566000000E+00 0. -1.
     999900   -1    0    0    0    0 -0.00000000000E+00 -0.00000000000E+00 -0.74505805969E-08  0.93827000000E+00  0.93827000000E+00 0.  1.
     999902    2    1    2    0    0  0.21017308709E-01 -0.11073914188E-01 -0.21908668239E-03  0.10201727518E+01  0.10198960912E+01 0.  0.
     999903    2    3    3    0    0 -0.46388012381E-01  0.11691467765E+00  0.14289717986E-01  0.12824502923E+00  0.20535382663E-01 0.  0.
         14    1    1    2    0    0 -0.21017308709E-01  0.11073914188E-01  0.21908668239E-03  0.23757248153E-01  0.00000000000E+00 0. -1.
     999901    1    3    3    0    0  0.67405321091E-01 -0.12798859184E+00 -0.14508804668E-01  0.89192772261E+00  0.88000000000E+00 0.  1.
        -11    1    4    4    0    0 -0.15760086431E-01  0.64993565006E-01  0.11783593139E-01  0.67909189399E-01  0.51100000000E-03 0. -1.
         11    1    4    4    0    0 -0.30627925951E-01  0.51921112642E-01  0.25061248470E-02  0.60335839836E-01  0.51100000000E-03 0.  1.
</event>
<event>
 8    1  0.1114686E+005  0.1043930E+01  0.7957747E-01            NaN
         13   -1    0    0    0    0  0.00000000000E+00  0.00000000000E+00  0.74505805969E-08  0.10566000000E+00  0.10566000000E+00 0. -1.
     999900   -1    0    0    0    0 -0.00000000000E+00 -0.00000000000E+00 -0.74505805969E-08  0.93827000000E+00  0.93827000000E+00 0. -1.
     999902    2    1    2    0    0 -0.15369312634E-02 -0.24204433558E-01  0.57689477312E-02  0.10190001480E+01  0.10186951478E+01 0.  0.
     999903    2    3    3    0    0  0.12466172612E+00  0.56598540512E-02  0.26801345937E-01  0.12924718311E+00  0.20345571791E-01 0.  0.
         14    1    1    2    0    0  0.15369312634E-02  0.24204433558E-01 -0.57689477312E-02  0.24929851975E-01  0.00000000000E+00 0. -1.
     999901    1    3    3    0    0 -0.12619865738E+00 -0.29864287609E-01 -0.21032398206E-01  0.88975296491E+00  0.88000000000E+00 0.  1.
        -11    1    4    4    0    0  0.59060533522E-01  0.18162393932E-02  0.23041254595E-01  0.63424016585E-01  0.51100000000E-03 0.  1.
         11    1    4    4    0    0  0.65601192595E-01  0.38436146579E-02  0.37600913426E-02  0.65823166526E-01  0.51100000000E-03 0. -1.
</event>
<event>
 8    1  0.1114686E+005  0.1043930E+01  0.7957747E-01            NaN
         13   -1    0    0    0    0  0.00000000000E+00  0.00000000000E+00  0.74505805969E-08  0.10566000000E+00  0.10566000000E+00 0.  1.
     999900   -1    0    0    0    0 -0.00000000000E+00 -0.00000000000E+00 -0.74505805969E-08  0.93827000000E+00  0.93827000000E+00 0. -1.
     999902    2    1    2    0    0 -0.24668024496E-02 -0.10380205266E-01  0.18842945889E-01  0.10222761231E+01  0.10220467609E+01 0.  0.
     999903    2    3    3    0    0 -0.65835210800E-01 -0.10420505920E+00  0.49656632492E-01  0.13448778025E+00  0.20693297054E-01 0.  0.
         14    1    1    2    0    0  0.24668024496E-02  0.10380205266E-01 -0.18842945889E-01  0.21653876915E-01  0.00000000000E+00 0. -1.
     999901    1    3    3    0    0  0.63368408350E-01  0.93824853930E-01 -0.30813686602E-01  0.88778834284E+00  0.88000000000E+00 0. -1.
        -11    1    4    4    0    0 -0.52539063796E-01 -0.64990256327E-01  0.33521558675E-01  0.90044670353E-01  0.51100000000E-03 0. -1.
         11    1    4    4    0    0 -0.13296147004E-01 -0.39214802869E-01  0.16135073817E-01  0.44443109896E-01  0.51100000000E-03 0.  1.
</event>
<event>
 8    1  0.1114686E+005  0.1043930E+01  0.7957747E-01            NaN
         13   -1    0    0    0    0  0.00000000000E+00  0.00000000000E+00  0.74505805969E-08  0.10566000000E+00  0.10566000000E+00 0.  1.
     999900   -1    0    0    0    0 -0.00000000000E+00 -0.00000000000E+00 -0.74505805969E-08  0.93827000000E+00  0.93827000000E+00 0.  1.
     999902    2    1    2    0    0 -0.11785487829E-01 -0.10416823664E-01 -0.16648315206E-01  0.10210264121E+01  0.10207694940E+01 0.  0.
     999903    2    3    3    0    0 -0.11275582377E+00 -0.10932156245E-01 -0.68138707832E-01  0.13375726759E+00  0.20365050793E-01 0.  0.
         14    1    1    2    0    0  0.11785487829E-01  0.10416823664E-01  0.16648315206E-01  0.22903587880E-01  0.00000000000E+00 0. -1.
     999901    1    3    3    0    0  0.10097033594E+00  0.51533258140E-03  0.51490392626E-01  0.88726914453E+00  0.88000000000E+00 0. -1.
        -11    1    4    4    0    0 -0.84258862153E-01  0.73736942075E-03 -0.48350597335E-01  0.97150094949E-01  0.51100000000E-03 0.  1.
         11    1    4    4    0    0 -0.28496961614E-01 -0.11669525666E-01 -0.19788110497E-01  0.36607172638E-01  0.51100000000E-03 0. -1.
</event>
<event>
 8    1  0.1638109E+005  0.1043930E+01  0.7957747E-01            NaN
         13   -1    0    0    0    0  0.00000000000E+00  0.00000000000E+00  0.74505805969E-08  0.10566000000E+00  0.10566000000E+00 0. -1.
     999900   -1    0    0    0    0 -0.00000000000E+00 -0.00000000000E+00 -0.74505805969E-08  0.93827000000E+00  0.93827000000E+00 0. -1.
     999902    2    1    2    0    0 -0.24966260441E-01 -0.19575653574E-01  0.83584833532E-02  0.10111216990E+01  0.10105892863E+01 0.  0.
     999903    2    3    3    0    0 -0.82302276160E-01 -0.68507694679E-01 -0.61286211754E-01  0.12515773417E+00  0.21011658205E-01 0.  0.
         14    1    1    2    0    0  0.24966260441E-01  0.19575653574E-01 -0.83584833532E-02  0.32808301041E-01  0.00000000000E+00 0.  1.
     999901    1    3    3    0    0  0.57336015719E-01  0.48932041105E-01  0.69644695107E-01  0.88596396479E+00  0.88000000000E+00 0.  1.
        -11    1    4    4    0    0 -0.57208228086E-01 -0.34410622664E-01 -0.38810664877E-01  0.77223060947E-01  0.51100000000E-03 0. -1.
         11    1    4    4    0    0 -0.25094048074E-01 -0.34097072015E-01 -0.22475546877E-01  0.47934673224E-01  0.51100000000E-03 0.  1.
</event>
<event>
 8    1  0.1114686E+005  0.1043930E+01  0.7957747E-01            NaN
         13   -1    0    0    0    0  0.00000000000E+00  0.00000000000E+00  0.74505805969E-08  0.10566000000E+00  0.10566000000E+00 0.  1.
     999900   -1    0    0    0    0 -0.00000000000E+00 -0.00000000000E+00 -0.74505805969E-08  0.93827000000E+00  0.93827000000E+00 0.  1.
     999902    2    1    2    0    0 -0.16294810100E-01 -0.14025005087E-01 -0.91414960771E-02  0.10205678821E+01  0.10203004525E+01 0.  0.
     999903    2    3    3    0    0  0.58490268118E-01 -0.10947425414E+00  0.36724718983E-01  0.13106966579E+00  0.20611368767E-01 0.  0.
         14    1    1    2    0    0  0.16294810100E-01  0.14025005087E-01  0.91414960771E-02  0.23362117936E-01  0.00000000000E+00 0. -1.
     999901    1    3    3    0    0 -0.74785078218E-01  0.95449249052E-01 -0.45866215060E-01  0.88949821627E+00  0.88000000000E+00 0.  1.
        -11    1    4    4    0    0  0.36639805538E-02 -0.21099311589E-01  0.10272321485E-01  0.23756839283E-01  0.51100000000E-03 0. -1.
         11    1    4    4    0    0  0.54826287564E-01 -0.88374942550E-01  0.26452397498E-01  0.10731282651E+00  0.51100000000E-03 0.  1.
</event>
<event>
 8    1  0.1114686E+005  0.1043930E+01  0.7957747E-01            NaN
         13   -1    0    0    0    0  0.00000000000E+00  0.00000000000E+00  0.74505805969E-08  0.10566000000E+00  0.10566000000E+00 0.  1.
     999900   -1    0    0    0    0 -0.00000000000E+00 -0.00000000000E+00 -0.74505805969E-08  0.93827000000E+00  0.93827000000E+00 0. -1.
     999902    2    1    2    0    0 -0.88411434147E-02  0.15458335599E-01 -0.14115210445E-01  0.10212063312E+01  0.10209534788E+01 0.  0.
     999903    2    3    3    0    0 -0.78817947518E-02 -0.96192326219E-01  0.82967575358E-01  0.12885446233E+00  0.20118836689E-01 0.  0.
         14    1    1    2    0    0  0.88411434147E-02 -0.15458335599E-01  0.14115210445E-01  0.22723668768E-01  0.00000000000E+00 0.  1.
     999901    1    3    3    0    0 -0.95934866299E-03  0.11165066182E+00 -0.97082785803E-01  0.89235186890E+00  0.88000000000E+00 0.  1.
        -11    1    4    4    0    0  0.68380564966E-02 -0.28756816576E-01  0.24610472646E-01  0.38466218960E-01  0.51100000000E-03 0. -1.
         11    1    4    4    0    0 -0.14719851248E-01 -0.67435509643E-01  0.58357102712E-01  0.90388243370E-01  0.51100000000E-03 0.  1.
</event>
<event>
 8    1  0.1114686E+005  0.1043930E+01  0.7957747E-01            NaN
         13   -1    0    0    0    0  0.00000000000E+00  0.00000000000E+00  0.74505805969E-08  0.10566000000E+00  0.10566000000E+00 0.  1.
     999900   -1    0    0    0    0 -0.00000000000E+00 -0.00000000000E+00 -0.74505805969E-08  0.93827000000E+00  0.93827000000E+00 0.  1.
     999902    2    1    2    0    0 -0.34158137754E-02  0.16623756040E-02  0.22315576500E-01  0.10212933874E+01  0.10210424902E+01 0.  0.
     999903    2    3    3    0    0  0.42315000725E-01  0.75471843775E-01  0.10059986259E+00  0.13356168555E+00  0.15226063322E-01 0.  0.
         14    1    1    2    0    0  0.34158137754E-02 -0.16623756040E-02 -0.22315576500E-01  0.22636612620E-01  0.00000000000E+00 0. -1.
     999901    1    3    3    0    0 -0.45730814500E-01 -0.73809468171E-01 -0.78284286091E-01  0.88773170183E+00  0.88000000000E+00 0.  1.
        -11    1    4    4    0    0  0.11344724454E-01  0.14519030756E-01  0.13580306501E-01  0.22895215061E-01  0.51100000000E-03 0.  1.
         11    1    4    4    0    0  0.30970276271E-01  0.60952813019E-01  0.87019556089E-01  0.11066647049E+00  0.51100000000E-03 0. -1.
</event>
<event>
 8    1  0.1114686E+005  0.1043930E+01  0.7957747E-01            NaN
         13   -1    0    0    0    0  0.00000000000E+00  0.00000000000E+00  0.74505805969E-08  0.10566000000E+00  0.10566000000E+00 0. -1.
     999900   -1    0    0    0    0 -0.00000000000E+00 -0.00000000000E+00 -0.74505805969E-08  0.93827000000E+00  0.93827000000E+00 0.  1.
     999902    2    1    2    0    0  0.50326124087E-02 -0.98031894464E-02 -0.20891859396E-01  0.10203101037E+01  0.10200366701E+01 0.  0.
     999903    2    3    3    0    0  0.45497961161E-01 -0.84788782721E-01  0.84980718294E-01  0.12987802526E+00  0.19681890649E-01 0.  0.
         14    1    1    2    0    0 -0.50326124087E-02  0.98031894464E-02  0.20891859396E-01  0.23619896274E-01  0.00000000000E+00 0. -1.
     999901    1    3    3    0    0 -0.40465348752E-01  0.74985593274E-01 -0.10587257769E+00  0.89043207846E+00  0.88000000000E+00 0.  1.
        -11    1    4    4    0    0  0.35746723820E-01 -0.57301824909E-01  0.48401238281E-01  0.83091927345E-01  0.51100000000E-03 0. -1.
         11    1    4    4    0    0  0.97512373411E-02 -0.27486957812E-01  0.36579480013E-01  0.46786097918E-01  0.51100000000E-03 0.  1.
</event>
<event>
 8    1  0.1114686E+005  0.1043930E+01  0.7957747E-01            NaN
         13   -1    0    0    0    0  0.00000000000E+00  0.00000000000E+00  0.74505805969E-08  0.10566000000E+00  0.10566000000E+00 0. -1.
     999900   -1    0    0    0    0 -0.00000000000E+00 -0.00000000000E+00 -0.74505805969E-08  0.93827000000E+00  0.93827000000E+00 0.  1.
     999902    2    1    2    0    0  0.35903906203E-02  0.23404473387E-01  0.36739582615E-02  0.10199684005E+01  0.10196869029E+01 0.  0.
     999903    2    3    3    0    0  0.26618544739E-01 -0.10379388397E+00  0.67526376010E-01  0.12823590184E+00  0.20072812178E-01 0.  0.
         14    1    1    2    0    0 -0.35903906203E-02 -0.23404473387E-01 -0.36739582615E-02  0.23961599459E-01  0.00000000000E+00 0. -1.
     999901    1    3    3    0    0 -0.23028154119E-01  0.12719835736E+00 -0.63852417748E-01  0.89173249871E+00  0.88000000000E+00 0. -1.
        -11    1    4    4    0    0  0.74610890640E-02 -0.35586788818E-01  0.12239389034E-01  0.38368621988E-01  0.51100000000E-03 0. -1.
         11    1    4    4    0    0  0.19157455675E-01 -0.68207095153E-01  0.55286986976E-01  0.89867279847E-01  0.51100000000E-03 0.  1.
</event>
<event>
 8    1  0.1114686E+005  0.1043930E+01  0.7957747E-01            NaN
         13   -1    0    0    0    0  0.00000000000E+00  0.00000000000E+00  0.74505805969E-08  0.10566000000E+00  0.10566000000E+00 0. -1.
     999900   -1    0    0    0    0 -0.00000000000E+00 -0.00000000000E+00 -0.74505805969E-08  0.93827000000E+00  0.93827000000E+00 0. -1.
     999902    2    1    2    0    0  0.20047392281E-01 -0.18859471168E-01 -0.30834359947E-02  0.10162336976E+01  0.10158562117E+01 0.  0.
     999903    2    3    3    0    0 -0.74446702913E-01  0.72008320197E-01 -0.65684957302E-01  0.12432280517E+00  0.20350344409E-01 0.  0.
         14    1    1    2    0    0 -0.20047392281E-01  0.18859471168E-01  0.30834359947E-02  0.27696302417E-01  0.00000000000E+00 0.  1.
     999901    1    3    3    0    0  0.94494095194E-01 -0.90867791365E-01  0.62601521307E-01  0.89191089241E+00  0.88000000000E+00 0. -1.
        -11    1    4    4    0    0 -0.28573828956E-01  0.32136079395E-01 -0.16238444302E-01  0.45968897033E-01  0.51100000000E-03 0.  1.
         11    1    4    4    0    0 -0.45872873957E-01  0.39872240803E-01 -0.49446512999E-01  0.78353908138E-01  0.51100000000E-03 0. -1.
</event>
<event>
 8    1  0.1114686E+005  0.1043930E+01  0.7957747E-01            NaN
         13   -1    0    0    0    0  0.00000000000E+00  0.00000000000E+00  0.74505805969E-08  0.10566000000E+00  0.10566000000E+00 0.  1.
     999900   -1    0    0    0    0 -0.00000000000E+00 -0.00000000000E+00 -0.74505805969E-08  0.93827000000E+00  0.93827000000E+00 0.  1.
     999902    2    1    2    0    0  0.24094584515E-02  0.21316452940E-01 -0.29136760120E-02  0.10222808392E+01  0.10220515780E+01 0.  0.
     999903    2    3    3    0    0 -0.73482794381E-01  0.56985490742E-01 -0.93942212380E-01  0.13361998783E+00  0.19547241658E-01 0.  0.
         14    1    1    2    0    0 -0.24094584515E-02 -0.21316452940E-01  0.29136760120E-02  0.21649160812E-01  0.00000000000E+00 0.  1.
     999901    1    3    3    0    0  0.75892252832E-01 -0.35669037802E-01  0.91028536368E-01  0.88866085135E+00  0.88000000000E+00 0. -1.
        -11    1    4    4    0    0 -0.92505342657E-02  0.64161895741E-02 -0.22011362131E-01  0.24728547404E-01  0.51100000000E-03 0. -1.
         11    1    4    4    0    0 -0.64232260115E-01  0.50569301168E-01 -0.71930850249E-01  0.10889144043E+00  0.51100000000E-03 0.  1.
</event>
<event>
 8    1  0.1114686E+005  0.1043930E+01  0.7957747E-01            NaN
         13   -1    0    0    0    0  0.00000000000E+00  0.00000000000E+00  0.74505805969E-08  0.10566000000E+00  0.10566000000E+00 0. -1.
     999900   -1    0    0    0    0 -0.00000000000E+00 -0.00000000000E+00 -0.74505805969E-08  0.93827000000E+00  0.93827000000E+00 0. -1.
     999902    2    1    2    0    0  0.28793957687E-02  0.23584360777E-01 -0.75929696444E-03  0.10201583883E+01  0.10198813890E+01 0.  0.
     999903    2    3    3    0    0  0.25202098535E-01  0.19488126439E-02  0.12637965957E+00  0.13047826918E+00  0.20342485960E-01 0.  0.
         14    1    1    2    0    0 -0.28793957687E-02 -0.23584360777E-01  0.75929696444E-03  0.23771611749E-01  0.00000000000E+00 0.  1.
     999901    1    3    3    0    0 -0.22322702766E-01  0.21635548133E-01 -0.12713895653E+00  0.88968011907E+00  0.88000000000E+00 0. -1.
        -11    1    4    4    0    0  0.75699893518E-02  0.10281010429E-01  0.56482941195E-01  0.57910169066E-01  0.51100000000E-03 0. -1.
         11    1    4    4    0    0  0.17632109183E-01 -0.83321977852E-02  0.69896718371E-01  0.72568100115E-01  0.51100000000E-03 0.  1.
</event>
<event>
 8    1  0.1114686E+005  0.1043930E+01  0.7957747E-01            NaN
         13   -1    0    0    0    0  0.00000000000E+00  0.00000000000E+00  0.74505805969E-08  0.10566000000E+00  0.10566000000E+00 0. -1.
     999900   -1    0    0    0    0 -0.00000000000E+00 -0.00000000000E+00 -0.74505805969E-08  0.93827000000E+00  0.93827000000E+00 0. -1.
     999902    2    1    2    0    0 -0.21742901556E-01 -0.41171735406E-02  0.97885131033E-02  0.10197324821E+01  0.10194453468E+01 0.  0.
     999903    2    3    3    0    0  0.91432361736E-01 -0.84300419275E-01  0.26463685471E-01  0.12871281084E+00  0.20005588282E-01 0.  0.
         14    1    1    2    0    0  0.21742901556E-01  0.41171735406E-02 -0.97885131033E-02  0.24197517947E-01  0.00000000000E+00 0. -1.
     999901    1    3    3    0    0 -0.11317526329E+00  0.80183245735E-01 -0.16675172368E-01  0.89101967121E+00  0.88000000000E+00 0. -1.
        -11    1    4    4    0    0  0.26867427959E-01 -0.27927383055E-01  0.17524796958E-01  0.42534421812E-01  0.51100000000E-03 0. -1.
         11    1    4    4    0    0  0.64564933777E-01 -0.56373036220E-01  0.89388885127E-02  0.86178389026E-01  0.51100000000E-03 0.  1.
</event>
<event>
 8    1  0.1114686E+005  0.1043930E+01  0.7957747E-01            NaN
         13   -1    0    0    0    0  0.00000000000E+00  0.00000000000E+00  0.74505805969E-08  0.10566000000E+00  0.10566000000E+00 0.  1.
     999900   -1    0    0    0    0 -0.00000000000E+00 -0.00000000000E+00 -0.74505805969E-08  0.93827000000E+00  0.93827000000E+00 0. -1.
     999902    2    1    2    0    0  0.13691917197E-01 -0.17920892024E-01  0.55730580537E-02  0.10206988583E+01  0.10204344533E+01 0.  0.
     999903    2    3    3    0    0  0.60879750039E-01 -0.91977335432E-01 -0.71386619383E-01  0.13298615687E+00  0.20569256021E-01 0.  0.
         14    1    1    2    0    0 -0.13691917197E-01  0.17920892024E-01 -0.55730580537E-02  0.23231141676E-01  0.00000000000E+00 0. -1.
     999901    1    3    3    0    0 -0.47187832842E-01  0.74056443407E-01  0.76959677436E-01  0.88771270146E+00  0.88000000000E+00 0. -1.
        -11    1    4    4    0    0  0.41681220849E-01 -0.60899347835E-01 -0.35949632133E-01  0.82089535933E-01  0.51100000000E-03 0. -1.
         11    1    4    4    0    0  0.19198529190E-01 -0.31077987597E-01 -0.35436987249E-01  0.50896620934E-01  0.51100000000E-03 0.  1.
</event>
<event>
 8    1  0.1114686E+005  0.1043930E+01  0.7957747E-01            NaN
         13   -1    0    0    0    0  0.00000000000E+00  0.00000000000E+00  0.74505805969E-08  0.10566000000E+00  0.10566000000E+00 0.  1.
     999900   -1    0    0    0    0 -0.00000000000E+00 -0.00000000000E+00 -0.74505805969E-08  0.93827000000E+00  0.93827000000E+00 0. -1.
     999902    2    1    2    0    0 -0.13516239507E-01 -0.91949897689E-02  0.17164434684E-01  0.10202265322E+01  0.10199511374E+01 0.  0.
     999903    2    3    3    0    0 -0.46283550742E-01  0.11521126406E+00  0.35227949563E-01  0.13068906630E+00  0.20562616202E-01 0.  0.
         14    1    1    2    0    0  0.13516239507E-01  0.91949897689E-02 -0.17164434684E-01  0.23703467791E-01  0.00000000000E+00 0. -1.
     999901    1    3    3    0    0  0.32767311234E-01 -0.12440625383E+00 -0.18063514879E-01  0.88953746590E+00  0.88000000000E+00 0. -1.
        -11    1    4    4    0    0 -0.38982246936E-01  0.77686620824E-01  0.18044797159E-01  0.88773320636E-01  0.51100000000E-03 0.  1.
         11    1    4    4    0    0 -0.73013038058E-02  0.37524643239E-01  0.17183152404E-01  0.41915745669E-01  0.51100000000E-03 0. -1.
</event>
<event>
 8    1  0.1114686E+005  0.1043930E+01  0.7957747E-01            NaN
         13   -1    0    0    0    0  0.00000000000E+00  0.00000000000E+00  0.74505805969E-08  0.10566000000E+00  0.10566000000E+00 0. -1.
     999900   -1    0    0    0    0 -0.00000000000E+00 -0.00000000000E+00 -0.74505805969E-08  0.93827000000E+00  0.93827000000E+00 0.  1.
     999902    2    1    2    0    0 -0.14293524616E-01  0.17703219008E-01  0.45849987712E-02  0.10207194200E+01  0.10204554882E+01 0.  0.
     999903    2    3    3    0    0 -0.21441536929E-01  0.11725725556E+00 -0.55663402575E-01  0.13303030206E+00  0.19739386845E-01 0.  0.
         14    1    1    2    0    0  0.14293524616E-01 -0.17703219008E-01 -0.45849987712E-02  0.23210579978E-01  0.00000000000E+00 0. -1.
     999901    1    3    3    0    0  0.71480123128E-02 -0.99554036556E-01  0.60248401346E-01  0.88768911796E+00  0.88000000000E+00 0. -1.
        -11    1    4    4    0    0 -0.14085284204E-01  0.29035166797E-01 -0.13810155927E-01  0.35105806782E-01  0.51100000000E-03 0.  1.
         11    1    4    4    0    0 -0.73562527246E-02  0.88222088766E-01 -0.41853246649E-01  0.97924495283E-01  0.51100000000E-03 0. -1.
</event>
<event>
 8    1  0.1114686E+005  0.1043930E+01  0.7957747E-01            NaN
         13   -1    0    0    0    0  0.00000000000E+00  0.00000000000E+00  0.74505805969E-08  0.10566000000E+00  0.10566000000E+00 0.  1.
     999900   -1    0    0    0    0 -0.00000000000E+00 -0.00000000000E+00 -0.74505805969E-08  0.93827000000E+00  0.93827000000E+00 0.  1.
     999902    2    1    2    0    0 -0.85039298324E-02  0.21140077884E-01 -0.41231872605E-02  0.10207735670E+01  0.10205108793E+01 0.  0.
     999903    2    3    3    0    0  0.11525579185E+00 -0.28978683453E-01 -0.48071384540E-01  0.12961712564E+00  0.19133206724E-01 0.  0.
         14    1    1    2    0    0  0.85039298324E-02 -0.21140077884E-01  0.41231872605E-02  0.23156432988E-01  0.00000000000E+00 0. -1.
     999901    1    3    3    0    0 -0.12375972168E+00  0.50118761338E-01  0.43948197279E-01  0.89115644137E+00  0.88000000000E+00 0. -1.
        -11    1    4    4    0    0  0.84884750940E-01 -0.13107952964E-01 -0.30873503694E-01  0.91272524477E-01  0.51100000000E-03 0.  1.
         11    1    4    4    0    0  0.30371040907E-01 -0.15870730490E-01 -0.17197880846E-01  0.38344601167E-01  0.51100000000E-03 0. -1.
</event>
<event>
 8    1  0.1114686E+005  0.1043930E+01  0.7957747E-01            NaN
         13   -1    0    0    0    0  0.00000000000E+00  0.00000000000E+00  0.74505805969E-08  0.10566000000E+00  0.10566000000E+00 0. -1.
     999900   -1    0    0    0    0 -0.00000000000E+00 -0.00000000000E+00 -0.74505805969E-08  0.93827000000E+00  0.93827000000E+00 0.  1.
     999902    2    1    2    0    0 -0.19702243579E-01  0.88182048279E-02  0.12116724609E-01  0.10191761285E+01  0.10188754717E+01 0.  0.
     999903    2    3    3    0    0 -0.10529971633E-01 -0.11954337433E+00  0.43517647140E-01  0.12926217564E+00  0.20332874640E-01 0.  0.
         14    1    1    2    0    0  0.19702243579E-01 -0.88182048279E-02 -0.12116724609E-01  0.24753871489E-01  0.00000000000E+00 0.  1.
     999901    1    3    3    0    0 -0.91722719462E-02  0.12836157915E+00 -0.31400922531E-01  0.88991395287E+00  0.88000000000E+00 0.  1.
        -11    1    4    4    0    0 -0.64118167316E-02 -0.38413538189E-01  0.23880823718E-01  0.45686608239E-01  0.51100000000E-03 0.  1.
         11    1    4    4    0    0 -0.41181549010E-02 -0.81129836138E-01  0.19636823422E-01  0.83575567403E-01  0.51100000000E-03 0. -1.
</event>
<event>
 8    1  0.1114686E+005  0.1043930E+01  0.7957747E-01            NaN
         13   -1    0    0    0    0  0.00000000000E+00  0.00000000000E+00  0.74505805969E-08  0.10566000000E+00  0.10566000000E+00 0. -1.
     999900   -1    0    0    0    0 -0.00000000000E+00 -0.00000000000E+00 -0.74505805969E-08  0.93827000000E+00  0.93827000000E+00 0.  1.
     999902    2    1    2    0    0  0.32550708136E-03 -0.20740765069E-01  0.12175905142E-01  0.10198771840E+01  0.10195935134E+01 0.  0.
     999903    2    3    3    0    0 -0.24890263036E-01 -0.61225728246E-01 -0.10973588543E+00  0.13019333456E+00  0.23242736922E-01 0.  0.
         14    1    1    2    0    0 -0.32550708136E-03  0.20740765069E-01 -0.12175905142E-01  0.24052815980E-01  0.00000000000E+00 0.  1.
     999901    1    3    3    0    0  0.25215770117E-01  0.40484963177E-01  0.12191179057E+00  0.88968384946E+00  0.88000000000E+00 0. -1.
        -11    1    4    4    0    0 -0.21428044220E-01 -0.59853302338E-01 -0.90531966576E-01  0.11062493830E+00  0.51100000000E-03 0.  1.
         11    1    4    4    0    0 -0.34622188151E-02 -0.13724259078E-02 -0.19203918856E-01  0.19568396266E-01  0.51100000000E-03 0. -1.
</event>
<event>
 8    1  0.1114686E+005  0.1043930E+01  0.7957747E-01            NaN
         13   -1    0    0    0    0  0.00000000000E+00  0.00000000000E+00  0.74505805969E-08  0.10566000000E+00  0.10566000000E+00 0. -1.
     999900   -1    0    0    0    0 -0.00000000000E+00 -0.00000000000E+00 -0.74505805969E-08  0.93827000000E+00  0.93827000000E+00 0. -1.
     999902    2    1    2    0    0 -0.44906224767E-02 -0.17723914986E-01  0.25884093685E-01  0.10122394784E+01  0.10117432839E+01 0.  0.
     999903    2    3    3    0    0 -0.44063545509E-01 -0.33940102174E-01 -0.10601780442E+00  0.12138197483E+00  0.20007058253E-01 0.  0.
         14    1    1    2    0    0  0.44906224767E-02  0.17723914986E-01 -0.25884093685E-01  0.31690521588E-01  0.00000000000E+00 0.  1.
     999901    1    3    3    0    0  0.39572923032E-01  0.16216187188E-01  0.13190189811E+00  0.89085750358E+00  0.88000000000E+00 0.  1.
        -11    1    4    4    0    0 -0.38466953417E-02 -0.87830875526E-02 -0.32483461172E-01  0.33872939977E-01  0.51100000000E-03 0.  1.
         11    1    4    4    0    0 -0.40216850167E-01 -0.25157014621E-01 -0.73534343253E-01  0.87509034852E-01  0.51100000000E-03 0. -1.
</event>
<event>
 8    1  0.1114686E+005  0.1043930E+01  0.7957747E-01            NaN
         13   -1    0    0    0    0  0.00000000000E+00  0.00000000000E+00  0.74505805969E-08  0.10566000000E+00  0.10566000000E+00 0. -1.
     999900   -1    0    0    0    0 -0.00000000000E+00 -0.00000000000E+00 -0.74505805969E-08  0.93827000000E+00  0.93827000000E+00 0. -1.
     999902    2    1    2    0    0  0.85158950821E-02 -0.87934341026E-02  0.19863721714E-01  0.10205973535E+01  0.10203306060E+01 0.  0.
     999903    2    3    3    0    0 -0.15694409588E-01 -0.12395313942E-01  0.13027534076E+00  0.13336015973E+00  0.20330014610E-01 0.  0.
         14    1    1    2    0    0 -0.85158950821E-02  0.87934341026E-02 -0.19863721714E-01  0.23332646500E-01  0.00000000000E+00 0.  1.
     999901    1    3    3    0    0  0.24210304670E-01  0.36018798389E-02 -0.11041161904E+00  0.88723719377E+00  0.88000000000E+00 0. -1.
        -11    1    4    4    0    0 -0.13339498935E-01 -0.30677182605E-02  0.34778006362E-01  0.37378121604E-01  0.51100000000E-03 0.  1.
         11    1    4    4    0    0 -0.23549106530E-02 -0.93275956811E-02  0.95497334394E-01  0.95982038125E-01  0.51100000000E-03 0. -1.
</event>
<event>
 8    1  0.1114686E+005  0.1043930E+01  0.7957747E-01            NaN
         13   -1    0    0    0    0  0.00000000000E+00  0.00000000000E+00  0.74505805969E-08  0.10566000000E+00  0.10566000000E+00 0.  1.
     999900   -1    0    0    0    0 -0.00000000000E+00 -0.00000000000E+00 -0.74505805969E-08  0.93827000000E+00  0.93827000000E+00 0. -1.
     999902    2    1    2    0    0 -0.12308592029E-01  0.20139749723E-01  0.16943891263E-02  0.10202660631E+01  0.10199915968E+01 0.  0.
     999903    2    3    3    0    0  0.92466229269E-01 -0.54082138572E-01  0.68173001779E-01  0.12846672587E+00  0.19525885821E-01 0.  0.
         14    1    1    2    0    0  0.12308592029E-01 -0.20139749723E-01 -0.16943891263E-02  0.23663936933E-01  0.00000000000E+00 0.  1.
     999901    1    3    3    0    0 -0.10477482130E+00  0.74221888296E-01 -0.66478612652E-01  0.89179933719E+00  0.88000000000E+00 0. -1.
        -11    1    4    4    0    0  0.23918904986E-01 -0.11201479622E-01  0.26835665886E-01  0.37656357312E-01  0.51100000000E-03 0.  1.
         11    1    4    4    0    0  0.68547324284E-01 -0.42880658951E-01  0.41337335892E-01  0.90810368561E-01  0.51100000000E-03 0. -1.
</event>
<event>
 8    1  0.1114686E+005  0.1043930E+01  0.7957747E-01            NaN
         13   -1    0    0    0    0  0.00000000000E+00  0.00000000000E+00  0.74505805969E-08  0.10566000000E+00  0.10566000000E+00 0.  1.
     999900   -1    0    0    0    0 -0.00000000000E+00 -0.00000000000E+00 -0.74505805969E-08  0.93827000000E+00  0.93827000000E+00 0.  1.
     999902    2    1    2    0    0  0.13310014919E-01 -0.16316457499E-01 -0.10612982978E-01  0.10203499514E+01  0.10200774503E+01 0.  0.
     999903    2    3    3    0    0 -0.63029244290E-02 -0.12875390338E+00 -0.25180027148E-01  0.13285964422E+00  0.20008918139E-01 0.  0.
         14    1    1    2    0    0 -0.13310014919E-01  0.16316457499E-01  0.10612982978E-01  0.23580048561E-01  0.00000000000E+00 0.  1.
     999901    1    3    3    0    0  0.19612939348E-01  0.11243744588E+00  0.14567044170E-01  0.88749030722E+00  0.88000000000E+00 0. -1.
        -11    1    4    4    0    0 -0.10666026116E-01 -0.81861571346E-01 -0.23055735056E-01  0.85714112118E-01  0.51100000000E-03 0.  1.
         11    1    4    4    0    0  0.43631016865E-02 -0.46892332030E-01 -0.21242920917E-02  0.47145532105E-01  0.51100000000E-03 0. -1.
</event>
<event>
 7    1  0.1114686E+005  0.1043930E+01  0.7957747E-01            NaN
         13   -1    0    0    0    0  0.00000000000E+00  0.00000000000E+00  0.74505805969E-08  0.10566000000E+00  0.10566000000E+00 0. -1.
     999900   -1    0    0    0    0 -0.00000000000E+00 -0.00000000000E+00 -0.74505805969E-08  0.93827000000E+00  0.93827000000E+00 0.  1.
     999902    2    1    2    0    0  0.10427111507E-01  0.96119931731E-02  0.19308436267E-01  0.10199731476E+01  0.10196917627E+01 0.  0.
         14    1    1    2    0    0 -0.10427111507E-01 -0.96119931731E-02 -0.19308436267E-01  0.23956852427E-01  0.00000000000E+00 0.  1.
     999901    1    3    3    0    0  0.39442336899E-01 -0.10996012468E+00  0.37676284118E-01  0.88851923409E+00  0.88000000000E+00 0. -1.
        -11    1    3    3    0    0 -0.32861654091E-01  0.52558306509E-01 -0.49851141520E-03  0.61990108302E-01  0.51100000000E-03 0. -1.
         11    1    3    3    0    0  0.38464286988E-02  0.67013811345E-01 -0.17869336436E-01  0.69463805183E-01  0.51100000000E-03 0.  1.
</event>
<event>
 8    1  0.1114686E+005  0.1043930E+01  0.7957747E-01            NaN
         13   -1    0    0    0    0  0.00000000000E+00  0.00000000000E+00  0.74505805969E-08  0.10566000000E+00  0.10566000000E+00 0. -1.
     999900   -1    0    0    0    0 -0.00000000000E+00 -0.00000000000E+00 -0.74505805969E-08  0.93827000000E+00  0.93827000000E+00 0. -1.
     999902    2    1    2    0    0  0.43958771078E-02 -0.17619490249E-01  0.17355442462E-01  0.10188106538E+01  0.10185009409E+01 0.  0.
     999903    2    3    3    0    0  0.30357374038E-02 -0.87869037209E-01 -0.92556086277E-01  0.12919422351E+00  0.19857866966E-01 0.  0.
         14    1    1    2    0    0 -0.43958771078E-02  0.17619490249E-01 -0.17355442462E-01  0.25119346234E-01  0.00000000000E+00 0.  1.
     999901    1    3    3    0    0  0.13601397040E-02  0.70249546960E-01  0.10991152874E+00  0.88961643025E+00  0.88000000000E+00 0.  1.
        -11    1    4    4    0    0  0.78071137956E-02 -0.47281878564E-01 -0.38777326011E-01  0.61647945626E-01  0.51100000000E-03 0. -1.
         11    1    4    4    0    0 -0.47713763918E-02 -0.40587158645E-01 -0.53778760266E-01  0.67546277886E-01  0.51100000000E-03 0.  1.
</event>
<event>
 8    1  0.1114686E+005  0.1043930E+01  0.7957747E-01            NaN
         13   -1    0    0    0    0  0.00000000000E+00  0.00000000000E+00  0.74505805969E-08  0.10566000000E+00  0.10566000000E+00 0. -1.
     999900   -1    0    0    0    0 -0.00000000000E+00 -0.00000000000E+00 -0.74505805969E-08  0.93827000000E+00  0.93827000000E+00 0. -1.
     999902    2    1    2    0    0 -0.82462541693E-03  0.99520721632E-02 -0.21729082663E-01  0.10200160547E+01  0.10197356888E+01 0.  0.
     999903    2    3    3    0    0  0.10299852183E+00  0.42020023841E-01  0.62946637442E-01  0.12929860397E+00  0.19531306131E-01 0.  0.
         14    1    1    2    0    0  0.82462541693E-03 -0.99520721632E-02  0.21729082663E-01  0.23913945320E-01  0.00000000000E+00 0. -1.
     999901    1    3    3    0    0 -0.10382314725E+00 -0.32067951678E-01 -0.84675720105E-01  0.89071745071E+00  0.88000000000E+00 0.  1.
        -11    1    4    4    0    0  0.37093542354E-01  0.17704075535E-01  0.13031197542E-01  0.43121205982E-01  0.51100000000E-03 0.  1.
         11    1    4    4    0    0  0.65904979478E-01  0.24315948306E-01  0.49915439900E-01  0.86177397985E-01  0.51100000000E-03 0. -1.
</event>
<event>
 8    1  0.1114686E+005  0.1043930E+01  0.7957747E-01            NaN
         13   -1    0    0    0    0  0.00000000000E+00  0.00000000000E+00  0.74505805969E-08  0.10566000000E+00  0.10566000000E+00 0. -1.
     999900   -1    0    0    0    0 -0.00000000000E+00 -0.00000000000E+00 -0.74505805969E-08  0.93827000000E+00  0.93827000000E+00 0. -1.
     999902    2    1    2    0    0 -0.24411972011E-02 -0.14144288057E-01  0.20130531189E-01  0.10192063552E+01  0.10189064411E+01 0.  0.
     999903    2    3    3    0    0  0.12772013863E+00 -0.29785702192E-03  0.48366746729E-02  0.12939311686E+00  0.20165880546E-01 0.  0.
         14    1    1    2    0    0  0.24411972011E-02  0.14144288057E-01 -0.20130531189E-01  0.24723644844E-01  0.00000000000E+00 0.  1.
     999901    1    3    3    0    0 -0.13016133583E+00 -0.13846431035E-01  0.15293856516E-01  0.88981323830E+00  0.88000000000E+00 0. -1.
        -11    1    4    4    0    0  0.13793909681E-01  0.57722927561E-02 -0.20243591272E-02  0.15098028309E-01  0.51100000000E-03 0.  1.
         11    1    4    4    0    0  0.11392622895E+00 -0.60701497780E-02  0.68610338001E-02  0.11429508855E+00  0.51100000000E-03 0. -1.
</event>
<event>
 8    1  0.1114686E+005  0.1043930E+01  0.7957747E-01            NaN
         13   -1    0    0    0    0  0.00000000000E+00  0.00000000000E+00  0.74505805969E-08  0.10566000000E+00  0.10566000000E+00 0.  1.
     999900   -1    0    0    0    0 -0.00000000000E+00 -0.00000000000E+00 -0.74505805969E-08  0.93827000000E+00  0.93827000000E+00 0.  1.
     999902    2    1    2    0    0  0.17080188973E-01  0.15096647113E-01 -0.44359767268E-02  0.10207067466E+01  0.10204425231E+01 0.  0.
     999903    2    3    3    0    0  0.11182351096E+00  0.62888449237E-01  0.31381785323E-01  0.13360851895E+00  0.20173379374E-01 0.  0.
         14    1    1    2    0    0 -0.17080188973E-01 -0.15096647113E-01  0.44359767268E-02  0.23223253409E-01  0.00000000000E+00 0.  1.
     999901    1    3    3    0    0 -0.94743321982E-01 -0.47791802124E-01 -0.35817762050E-01  0.88709822764E+00  0.88000000000E+00 0.  1.
        -11    1    4    4    0    0  0.26863737150E-01  0.58251241678E-02  0.54326292072E-02  0.28024400553E-01  0.51100000000E-03 0. -1.
         11    1    4    4    0    0  0.84959773805E-01  0.57063325069E-01  0.25949156116E-01  0.10558411839E+00  0.51100000000E-03 0.  1.
</event>
<event>
 8    1  0.1114686E+005  0.1043930E+01  0.7957747E-01            NaN
         13   -1    0    0    0    0  0.00000000000E+00  0.00000000000E+00  0.74505805969E-08  0.10566000000E+00  0.10566000000E+00 0.  1.
     999900   -1    0    0    0    0 -0.00000000000E+00 -0.00000000000E+00 -0.74505805969E-08  0.93827000000E+00  0.93827000000E+00 0.  1.
     999902    2    1    2    0    0  0.21365846601E-01 -0.99094979787E-02 -0.43248497551E-02  0.10199841887E+01  0.10197030663E+01 0.  0.
     999903    2    3    3    0    0  0.79702355403E-01 -0.75147146638E-01  0.71554404265E-01  0.13239376504E+00  0.20211807140E-01 0.  0.
         14    1    1    2    0    0 -0.21365846601E-01  0.99094979787E-02  0.43248497551E-02  0.23945811253E-01  0.00000000000E+00 0. -1.
     999901    1    3    3    0    0 -0.58336508802E-01  0.65237648659E-01 -0.75879254020E-01  0.88759042370E+00  0.88000000000E+00 0.  1.
        -11    1    4    4    0    0  0.25694970290E-01 -0.12216588439E-01  0.18885512724E-01  0.34152602289E-01  0.51100000000E-03 0.  1.
         11    1    4    4    0    0  0.54007385113E-01 -0.62930558199E-01  0.52668891540E-01  0.98241162753E-01  0.51100000000E-03 0. -1.
</event>
<event>
 8    1  0.1114686E+005  0.1043930E+01  0.7957747E-01            NaN
         13   -1    0    0    0    0  0.00000000000E+00  0.00000000000E+00  0.74505805969E-08  0.10566000000E+00  0.10566000000E+00 0.  1.
     999900   -1    0    0    0    0 -0.00000000000E+00 -0.00000000000E+00 -0.74505805969E-08  0.93827000000E+00  0.93827000000E+00 0.  1.
     999902    2    1    2    0    0  0.18304306672E-01  0.44034903754E-02  0.15457998057E-01  0.10195704418E+01  0.10192794012E+01 0.  0.
     999903    2    3    3    0    0  0.19205788121E-01 -0.10443429988E+00 -0.70156227854E-01  0.12874146109E+00  0.19418604671E-01 0.  0.
         14    1    1    2    0    0 -0.18304306672E-01 -0.44034903754E-02 -0.15457998057E-01  0.24359558168E-01  0.00000000000E+00 0.  1.
     999901    1    3    3    0    0 -0.90148144927E-03  0.10883779026E+00  0.85614225911E-01  0.89082898074E+00  0.88000000000E+00 0. -1.
        -11    1    4    4    0    0  0.22459996580E-01 -0.74183730097E-01 -0.51003061106E-01  0.92786047553E-01  0.51100000000E-03 0.  1.
         11    1    4    4    0    0 -0.32542084584E-02 -0.30250569783E-01 -0.19153166749E-01  0.35955413534E-01  0.51100000000E-03 0. -1.
</event>
<event>
 8    1  0.1114686E+005  0.1043930E+01  0.7957747E-01            NaN
         13   -1    0    0    0    0  0.00000000000E+00  0.00000000000E+00  0.74505805969E-08  0.10566000000E+00  0.10566000000E+00 0. -1.
     999900   -1    0    0    0    0 -0.00000000000E+00 -0.00000000000E+00 -0.74505805969E-08  0.93827000000E+00  0.93827000000E+00 0.  1.
     999902    2    1    2    0    0  0.17210103465E-01  0.10914749773E-01 -0.12472685900E-01  0.10200367516E+01  0.10197568766E+01 0.  0.
     999903    2    3    3    0    0 -0.11897280214E+00  0.41729578904E-01  0.15599788856E-01  0.12858658404E+00  0.19881417920E-01 0.  0.
         14    1    1    2    0    0 -0.17210103465E-01 -0.10914749773E-01  0.12472685900E-01  0.23893248365E-01  0.00000000000E+00 0. -1.
     999901    1    3    3    0    0  0.13618290560E+00 -0.30814829131E-01 -0.28072474756E-01  0.89145016760E+00  0.88000000000E+00 0.  1.
        -11    1    4    4    0    0 -0.48298216451E-01  0.67615151575E-02  0.51371741131E-02  0.49041691227E-01  0.51100000000E-03 0.  1.
         11    1    4    4    0    0 -0.70674585684E-01  0.34968063746E-01  0.10462614743E-01  0.79544892810E-01  0.51100000000E-03 0. -1.
</event>
<event>
 8    1  0.1114686E+005  0.1043930E+01  0.7957747E-01            NaN
         13   -1    0    0    0    0  0.00000000000E+00  0.00000000000E+00  0.74505805969E-08  0.10566000000E+00  0.10566000000E+00 0.  1.
     999900   -1    0    0    0    0 -0.00000000000E+00 -0.00000000000E+00 -0.74505805969E-08  0.93827000000E+00  0.93827000000E+00 0. -1.
     999902    2    1    2    0    0 -0.20654289870E-02 -0.21643899037E-01 -0.10697784129E-01  0.10196984720E+01  0.10194105193E+01 0.  0.
     999903    2    3    3    0    0 -0.11859923202E+00 -0.45728385975E-01 -0.23349800139E-01  0.13159923024E+00  0.24825009853E-01 0.  0.
         14    1    1    2    0    0  0.20654289870E-02  0.21643899037E-01  0.10697784129E-01  0.24231527968E-01  0.00000000000E+00 0.  1.
     999901    1    3    3    0    0  0.11653380303E+00  0.24084486939E-01  0.12652016010E-01  0.88809924179E+00  0.88000000000E+00 0.  1.
        -11    1    4    4    0    0 -0.22433749147E-01 -0.19582470968E-01 -0.35485369621E-02  0.29993324351E-01  0.51100000000E-03 0. -1.
         11    1    4    4    0    0 -0.96165482871E-01 -0.26145915007E-01 -0.19801263177E-01  0.10160590589E+00  0.51100000000E-03 0.  1.
</event>
<event>
 8    1  0.1114686E+005  0.1043930E+01  0.7957747E-01            NaN
         13   -1    0    0    0    0  0.00000000000E+00  0.00000000000E+00  0.74505805969E-08  0.10566000000E+00  0.10566000000E+00 0. -1.
     999900   -1    0    0    0    0 -0.00000000000E+00 -0.00000000000E+00 -0.74505805969E-08  0.93827000000E+00  0.93827000000E+00 0.  1.
     999902    2    1    2    0    0  0.21896796324E-01 -0.60958388342E-02 -0.91183458338E-02  0.10194397331E+01  0.10191455226E+01 0.  0.
     999903    2    3    3    0    0 -0.10048419302E+00 -0.48125748435E-02 -0.77141613297E-01  0.12836963587E+00  0.20191606889E-01 0.  0.
         14    1    1    2    0    0 -0.21896796324E-01  0.60958388342E-02  0.91183458338E-02  0.24490266864E-01  0.00000000000E+00 0. -1.
     999901    1    3    3    0    0  0.12238098934E+00 -0.12832639906E-02  0.68023267463E-01  0.89107009726E+00  0.88000000000E+00 0. -1.
        -11    1    4    4    0    0 -0.36304690773E-01 -0.62276830504E-02 -0.17663188932E-01  0.40854179377E-01  0.51100000000E-03 0.  1.
         11    1    4    4    0    0 -0.64179502246E-01  0.14151082069E-02 -0.59478424365E-01  0.87515456496E-01  0.51100000000E-03 0. -1.
</event>
<event>
 8    1  0.1196496E+005  0.1043930E+01  0.7957747E-01            NaN
         13   -1    0    0    0    0  0.00000000000E+00  0.00000000000E+00  0.74505805969E-08  0.10566000000E+00  0.10566000000E+00 0.  1.
     999900   -1    0    0    0    0 -0.00000000000E+00 -0.00000000000E+00 -0.74505805969E-08  0.93827000000E+00  0.93827000000E+00 0.  1.
     999902    2    1    2    0    0 -0.23137204304E-01  0.85237680148E-02 -0.97081317676E-02  0.10174303270E+01  0.10170851674E+01 0.  0.
     999903    2    3    3    0    0  0.31697481894E-01 -0.34935002862E-01  0.11490205780E+00  0.12590174819E+00  0.20581120623E-01 0.  0.
         14    1    1    2    0    0  0.23137204304E-01 -0.85237680148E-02  0.97081317676E-02  0.26499672952E-01  0.00000000000E+00 0.  1.
     999901    1    3    3    0    0 -0.54834686198E-01  0.43458770877E-01 -0.12461018957E+00  0.89152857886E+00  0.88000000000E+00 0.  1.
        -11    1    4    4    0    0  0.41129016598E-02 -0.15542953316E-01  0.53284936048E-01  0.55660083440E-01  0.51100000000E-03 0.  1.
         11    1    4    4    0    0  0.27584580235E-01 -0.19392049546E-01  0.61617121756E-01  0.70241664749E-01  0.51100000000E-03 0. -1.
</event>
<event>
 8    1  0.1114686E+005  0.1043930E+01  0.7957747E-01            NaN
         13   -1    0    0    0    0  0.00000000000E+00  0.00000000000E+00  0.74505805969E-08  0.10566000000E+00  0.10566000000E+00 0. -1.
     999900   -1    0    0    0    0 -0.00000000000E+00 -0.00000000000E+00 -0.74505805969E-08  0.93827000000E+00  0.93827000000E+00 0. -1.
     999902    2    1    2    0    0 -0.10700475479E-01 -0.11745098400E-01  0.17431322478E-01  0.10203440187E+01  0.10200713788E+01 0.  0.
     999903    2    3    3    0    0  0.34829513744E-02 -0.11305973474E+00  0.67279739804E-01  0.13301618194E+00  0.19290067379E-01 0.  0.
         14    1    1    2    0    0  0.10700475479E-01  0.11745098400E-01 -0.17431322478E-01  0.23585981328E-01  0.00000000000E+00 0. -1.
     999901    1    3    3    0    0 -0.14183426853E-01  0.10131463634E+00 -0.49848417326E-01  0.88732783673E+00  0.88000000000E+00 0.  1.
        -11    1    4    4    0    0  0.74421346677E-02 -0.87801844465E-01  0.59357925839E-01  0.10624581752E+00  0.51100000000E-03 0.  1.
         11    1    4    4    0    0 -0.39591832933E-02 -0.25257890275E-01  0.79218139647E-02  0.26770364416E-01  0.51100000000E-03 0. -1.
</event>
<event>
 8    1  0.1114686E+005  0.1043930E+01  0.7957747E-01            NaN
         13   -1    0    0    0    0  0.00000000000E+00  0.00000000000E+00  0.74505805969E-08  0.10566000000E+00  0.10566000000E+00 0.  1.
     999900   -1    0    0    0    0 -0.00000000000E+00 -0.00000000000E+00 -0.74505805969E-08  0.93827000000E+00  0.93827000000E+00 0.  1.
     999902    2    1    2    0    0  0.29687729843E-02  0.10646441368E-01  0.21446121785E-01  0.10198033246E+01  0.10195178882E+01 0.  0.
     999903    2    3    3    0    0  0.61208245490E-01 -0.11102414625E+00 -0.11778278580E-01  0.12890522220E+00  0.20125061433E-01 0.  0.
         14    1    1    2    0    0 -0.29687729843E-02 -0.10646441368E-01 -0.21446121785E-01  0.24126675413E-01  0.00000000000E+00 0. -1.
     999901    1    3    3    0    0 -0.58239472506E-01  0.12167058762E+00  0.33224400366E-01  0.89089810238E+00  0.88000000000E+00 0. -1.
        -11    1    4    4    0    0  0.22526272707E-01 -0.60731614648E-01 -0.29478598853E-02  0.64843758210E-01  0.51100000000E-03 0. -1.
         11    1    4    4    0    0  0.38681972784E-01 -0.50292531606E-01 -0.88304186951E-02  0.64061463995E-01  0.51100000000E-03 0.  1.
</event>
<event>
 8    1  0.1114686E+005  0.1043930E+01  0.7957747E-01            NaN
         13   -1    0    0    0    0  0.00000000000E+00  0.00000000000E+00  0.74505805969E-08  0.10566000000E+00  0.10566000000E+00 0.  1.
     999900   -1    0    0    0    0 -0.00000000000E+00 -0.00000000000E+00 -0.74505805969E-08  0.93827000000E+00  0.93827000000E+00 0.  1.
     999902    2    1    2    0    0  0.52405544988E-02 -0.23506019845E-01  0.16269680568E-02  0.10197919925E+01  0.10195062847E+01 0.  0.
     999903    2    3    3    0    0  0.78931015546E-01 -0.76271776484E-01 -0.70812515276E-01  0.13217609142E+00  0.20214294963E-01 0.  0.
         14    1    1    2    0    0 -0.52405544988E-02  0.23506019845E-01 -0.16269680568E-02  0.24138007487E-01  0.00000000000E+00 0. -1.
     999901    1    3    3    0    0 -0.73690461047E-01  0.52765756639E-01  0.72439483333E-01  0.88761590109E+00  0.88000000000E+00 0. -1.
        -11    1    4    4    0    0  0.43134649946E-01 -0.29682510016E-01 -0.39552107007E-01  0.65622250163E-01  0.51100000000E-03 0. -1.
         11    1    4    4    0    0  0.35796365600E-01 -0.46589266468E-01 -0.31260408269E-01  0.66553841259E-01  0.51100000000E-03 0.  1.
</event>
<event>
 8    1  0.1114686E+005  0.1043930E+01  0.7957747E-01            NaN
         13   -1    0    0    0    0  0.00000000000E+00  0.00000000000E+00  0.74505805969E-08  0.10566000000E+00  0.10566000000E+00 0.  1.
     999900   -1    0    0    0    0 -0.00000000000E+00 -0.00000000000E+00 -0.74505805969E-08  0.93827000000E+00  0.93827000000E+00 0.  1.
     999902    2    1    2    0    0  0.12886925954E-01 -0.64720912605E-03 -0.15182098299E-01  0.10240054461E+01  0.10238115870E+01 0.  0.
     999903    2    3    3    0    0  0.77413157956E-02  0.24627920697E-01 -0.13188619443E+00  0.13592597016E+00  0.20382311851E-01 0.  0.
         14    1    1    2    0    0 -0.12886925954E-01  0.64720912605E-03  0.15182098299E-01  0.19924553921E-01  0.00000000000E+00 0.  1.
     999901    1    3    3    0    0  0.51456101582E-02 -0.25275129824E-01  0.11670409613E+00  0.88807947592E+00  0.88000000000E+00 0. -1.
        -11    1    4    4    0    0 -0.51257295247E-02  0.15948988923E-01 -0.55419631213E-01  0.57898531895E-01  0.51100000000E-03 0. -1.
         11    1    4    4    0    0  0.12867045320E-01  0.86789317749E-02 -0.76466563213E-01  0.78027438268E-01  0.51100000000E-03 0.  1.
</event>
<event>
 8    1  0.1114686E+005  0.1043930E+01  0.7957747E-01            NaN
         13   -1    0    0    0    0  0.00000000000E+00  0.00000000000E+00  0.74505805969E-08  0.10566000000E+00  0.10566000000E+00 0.  1.
     999900   -1    0    0    0    0 -0.00000000000E+00 -0.00000000000E+00 -0.74505805969E-08  0.93827000000E+00  0.93827000000E+00 0. -1.
     999902    2    1    2    0    0  0.19396765294E-01  0.68131686414E-02  0.10693117717E-01  0.10207568143E+01  0.10204937419E+01 0.  0.
     999903    2    3    3    0    0  0.50712337596E-01  0.53030213618E-02 -0.11860871380E+00  0.13075574165E+00  0.20716509480E-01 0.  0.
         14    1    1    2    0    0 -0.19396765294E-01 -0.68131686414E-02 -0.10693117717E-01  0.23173185740E-01  0.00000000000E+00 0.  1.
     999901    1    3    3    0    0 -0.31315572302E-01  0.15101472796E-02  0.12930183152E+00  0.89000107261E+00  0.88000000000E+00 0.  1.
        -11    1    4    4    0    0  0.14299365486E-02 -0.36523199315E-02 -0.17211660807E-01  0.17660309967E-01  0.51100000000E-03 0.  1.
         11    1    4    4    0    0  0.49282401047E-01  0.89553412932E-02 -0.10139705299E+00  0.11309543168E+00  0.51100000000E-03 0. -1.
</event>
<event>
 8    1  0.1114686E+005  0.1043930E+01  0.7957747E-01            NaN
         13   -1    0    0    0    0  0.00000000000E+00  0.00000000000E+00  0.74505805969E-08  0.10566000000E+00  0.10566000000E+00 0.  1.
     999900   -1    0    0    0    0 -0.00000000000E+00 -0.00000000000E+00 -0.74505805969E-08  0.93827000000E+00  0.93827000000E+00 0. -1.
     999902    2    1    2    0    0  0.10797854803E-02  0.34656643213E-02  0.24977953344E-01  0.10186896569E+01  0.10183769156E+01 0.  0.
     999903    2    3    3    0    0 -0.12271518586E+00  0.21377901360E-01  0.31696738159E-01  0.12981892096E+00  0.18227383830E-01 0.  0.
         14    1    1    2    0    0 -0.10797854803E-02 -0.34656643213E-02 -0.24977953344E-01  0.25240343087E-01  0.00000000000E+00 0. -1.
     999901    1    3    3    0    0  0.12379497134E+00 -0.17912237039E-01 -0.67187848142E-02  0.88887073595E+00  0.88000000000E+00 0.  1.
        -11    1    4    4    0    0 -0.97831005326E-01  0.12533682298E-01  0.31024716428E-01  0.10339629077E+00  0.51100000000E-03 0.  1.
         11    1    4    4    0    0 -0.24884180537E-01  0.88442190617E-02  0.67202173077E-03  0.26422630187E-01  0.51100000000E-03 0. -1.
</event>
<event>
 8    1  0.1114686E+005  0.1043930E+01  0.7957747E-01            NaN
         13   -1    0    0    0    0  0.00000000000E+00  0.00000000000E+00  0.74505805969E-08  0.10566000000E+00  0.10566000000E+00 0.  1.
     999900   -1    0    0    0    0 -0.00000000000E+00 -0.00000000000E+00 -0.74505805969E-08  0.93827000000E+00  0.93827000000E+00 0.  1.
     999902    2    1    2    0    0  0.81383827952E-03  0.23715486140E-01 -0.26032354223E-02  0.10200581871E+01  0.10197788200E+01 0.  0.
     999903    2    3    3    0    0  0.94262659341E-01 -0.71997547925E-01  0.45325049804E-01  0.12865996658E+00  0.20734777749E-01 0.  0.
         14    1    1    2    0    0 -0.81383827952E-03 -0.23715486140E-01  0.26032354223E-02  0.23871812882E-01  0.00000000000E+00 0.  1.
     999901    1    3    3    0    0 -0.93448821061E-01  0.95713034065E-01 -0.47928285226E-01  0.89139822053E+00  0.88000000000E+00 0. -1.
        -11    1    4    4    0    0  0.28301313435E-01 -0.21112264600E-01  0.23898926978E-01  0.42639323287E-01  0.51100000000E-03 0. -1.
         11    1    4    4    0    0  0.65961345906E-01 -0.50885283325E-01  0.21426122826E-01  0.86020643296E-01  0.51100000000E-03 0.  1.
</event>
<event>
 8    1  0.1114686E+005  0.1043930E+01  0.7957747E-01            NaN
         13   -1    0    0    0    0  0.00000000000E+00  0.00000000000E+00  0.74505805969E-08  0.10566000000E+00  0.10566000000E+00 0.  1.
     999900   -1    0    0    0    0 -0.00000000000E+00 -0.00000000000E+00 -0.74505805969E-08  0.93827000000E+00  0.93827000000E+00 0. -1.
     999902    2    1    2    0    0  0.13592142407E-01  0.14037121927E-01  0.13048905699E-01  0.10204340202E+01  0.10201634813E+01 0.  0.
     999903    2    3    3    0    0  0.19075467901E-03  0.11312776328E+00 -0.63912216667E-01  0.13143370143E+00  0.19802000427E-01 0.  0.
         14    1    1    2    0    0 -0.13592142407E-01 -0.14037121927E-01 -0.13048905699E-01  0.23495979808E-01  0.00000000000E+00 0. -1.
     999901    1    3    3    0    0  0.13401387728E-01 -0.99090641353E-01  0.76961122366E-01  0.88900031876E+00  0.88000000000E+00 0.  1.
        -11    1    4    4    0    0  0.91774635175E-04  0.93296949652E-01 -0.43402300856E-01  0.10289970883E+00  0.51100000000E-03 0. -1.
         11    1    4    4    0    0  0.98980043838E-04  0.19830813628E-01 -0.20509915812E-01  0.28533992602E-01  0.51100000000E-03 0.  1.
</event>
<event>
 8    1  0.1114686E+005  0.1043930E+01  0.7957747E-01            NaN
         13   -1    0    0    0    0  0.00000000000E+00  0.00000000000E+00  0.74505805969E-08  0.10566000000E+00  0.10566000000E+00 0. -1.
     999900   -1    0    0    0    0 -0.00000000000E+00 -0.00000000000E+00 -0.74505805969E-08  0.93827000000E+00  0.93827000000E+00 0.  1.
     999902    2    1    2    0    0 -0.15244869056E-01 -0.16687597099E-01 -0.30510355507E-02  0.10211223095E+01  0.10208675625E+01 0.  0.
     999903    2    3    3    0    0 -0.81932111120E-01  0.44924713867E-01  0.90930751640E-01  0.13147302945E+00  0.16901335146E-01 0.  0.
         14    1    1    2    0    0  0.15244869056E-01  0.16687597099E-01  0.30510355507E-02  0.22807690532E-01  0.00000000000E+00 0.  1.
     999901    1    3    3    0    0  0.66687242064E-01 -0.61612310966E-01 -0.93981787190E-01  0.88964928002E+00  0.88000000000E+00 0.  1.
        -11    1    4    4    0    0 -0.35527254091E-01  0.26117724482E-01  0.51048657546E-01  0.67457748804E-01  0.51100000000E-03 0. -1.
         11    1    4    4    0    0 -0.46404857030E-01  0.18806989385E-01  0.39882094093E-01  0.64015280644E-01  0.51100000000E-03 0.  1.
</event>
<event>
 8    1  0.1114686E+005  0.1043930E+01  0.7957747E-01            NaN
         13   -1    0    0    0    0  0.00000000000E+00  0.00000000000E+00  0.74505805969E-08  0.10566000000E+00  0.10566000000E+00 0. -1.
     999900   -1    0    0    0    0 -0.00000000000E+00 -0.00000000000E+00 -0.74505805969E-08  0.93827000000E+00  0.93827000000E+00 0.  1.
     999902    2    1    2    0    0 -0.77411788910E-02  0.21020309830E-01 -0.59439677401E-02  0.10207543656E+01  0.10204912371E+01 0.  0.
     999903    2    3    3    0    0  0.37127342140E-01  0.61734923140E-01  0.10789149071E+00  0.13135604344E+00  0.20596021690E-01 0.  0.
         14    1    1    2    0    0  0.77411788910E-02 -0.21020309830E-01  0.59439677401E-02  0.23175634370E-01  0.00000000000E+00 0. -1.
     999901    1    3    3    0    0 -0.44868521031E-01 -0.40714613310E-01 -0.11383545846E+00  0.88939832219E+00  0.88000000000E+00 0.  1.
        -11    1    4    4    0    0  0.93002600512E-02  0.67847282753E-02  0.81010720675E-02  0.14086016628E-01  0.51100000000E-03 0.  1.
         11    1    4    4    0    0  0.27827082089E-01  0.54950194864E-01  0.99790418648E-01  0.11727002681E+00  0.51100000000E-03 0. -1.
</event>
<event>
 8    1  0.1114686E+005  0.1043930E+01  0.7957747E-01            NaN
         13   -1    0    0    0    0  0.00000000000E+00  0.00000000000E+00  0.74505805969E-08  0.10566000000E+00  0.10566000000E+00 0.  1.
     999900   -1    0    0    0    0 -0.00000000000E+00 -0.00000000000E+00 -0.74505805969E-08  0.93827000000E+00  0.93827000000E+00 0. -1.
     999902    2    1    2    0    0 -0.86842461483E-02  0.77607199063E-02 -0.21406612984E-01  0.10195601829E+01  0.10192688942E+01 0.  0.
     999903    2    3    3    0    0 -0.48514529145E-01  0.93090552530E-01 -0.78859488521E-01  0.13267323146E+00  0.19075033626E-01 0.  0.
         14    1    1    2    0    0  0.86842461483E-02 -0.77607199063E-02  0.21406612984E-01  0.24369817071E-01  0.00000000000E+00 0.  1.
     999901    1    3    3    0    0  0.39830282997E-01 -0.85329832623E-01  0.57452875537E-01  0.88688695147E+00  0.88000000000E+00 0. -1.
        -11    1    4    4    0    0 -0.34427367240E-01  0.68753457582E-01 -0.46756011909E-01  0.89992595891E-01  0.51100000000E-03 0.  1.
         11    1    4    4    0    0 -0.14087161906E-01  0.24337094948E-01 -0.32103476611E-01  0.42680635569E-01  0.51100000000E-03 0. -1.
</event>
<event>
 8    1  0.1114686E+005  0.1043930E+01  0.7957747E-01            NaN
         13   -1    0    0    0    0  0.00000000000E+00  0.00000000000E+00  0.74505805969E-08  0.10566000000E+00  0.10566000000E+00 0.  1.
     999900   -1    0    0    0    0 -0.00000000000E+00 -0.00000000000E+00 -0.74505805969E-08  0.93827000000E+00  0.93827000000E+00 0.  1.
     999902    2    1    2    0    0 -0.68791404674E-03 -0.81215220047E-02 -0.36350472594E-01  0.10066769571E+01  0.10059874288E+01 0.  0.
     999903    2    3    3    0    0  0.57240559727E-01 -0.59895673550E-01 -0.87011440771E-01  0.12180250019E+00  0.20022108782E-01 0.  0.
         14    1    1    2    0    0  0.68791404674E-03  0.81215220047E-02  0.36350472594E-01  0.37253042872E-01  0.00000000000E+00 0.  1.
     999901    1    3    3    0    0 -0.57928473774E-01  0.51774151546E-01  0.50660968177E-01  0.88487445694E+00  0.88000000000E+00 0. -1.
        -11    1    4    4    0    0  0.31960337122E-01 -0.19102453217E-01 -0.37548780668E-01  0.52882311963E-01  0.51100000000E-03 0.  1.
         11    1    4    4    0    0  0.25280222605E-01 -0.40793220333E-01 -0.49462660103E-01  0.68920188229E-01  0.51100000000E-03 0. -1.
</event>
<event>
 8    1  0.1114686E+005  0.1043930E+01  0.7957747E-01            NaN
         13   -1    0    0    0    0  0.00000000000E+00  0.00000000000E+00  0.74505805969E-08  0.10566000000E+00  0.10566000000E+00 0.  1.
     999900   -1    0    0    0    0 -0.00000000000E+00 -0.00000000000E+00 -0.74505805969E-08  0.93827000000E+00  0.93827000000E+00 0. -1.
     999902    2    1    2    0    0  0.72356751038E-02 -0.18933475512E-01 -0.62097389184E-02  0.10227311239E+01  0.10225113982E+01 0.  0.
     999903    2    3    3    0    0  0.23400260859E-01  0.98303891898E-01 -0.81479326756E-01  0.13162428129E+00  0.21790900979E-01 0.  0.
         14    1    1    2    0    0 -0.72356751038E-02  0.18933475512E-01  0.62097389184E-02  0.21198876070E-01  0.00000000000E+00 0.  1.
     999901    1    3    3    0    0 -0.16164585755E-01 -0.11723736741E+00  0.75269587838E-01  0.89110684264E+00  0.88000000000E+00 0.  1.
        -11    1    4    4    0    0  0.24945069691E-01  0.74026929115E-01 -0.69243481590E-01  0.10438948031E+00  0.51100000000E-03 0.  1.
         11    1    4    4    0    0 -0.15448088325E-02  0.24276962783E-01 -0.12235845166E-01  0.27234800977E-01  0.51100000000E-03 0. -1.
</event>
<event>
 8    1  0.1114686E+005  0.1043930E+01  0.7957747E-01            NaN
         13   -1    0    0    0    0  0.00000000000E+00  0.00000000000E+00  0.74505805969E-08  0.10566000000E+00  0.10566000000E+00 0. -1.
     999900   -1    0    0    0    0 -0.00000000000E+00 -0.00000000000E+00 -0.74505805969E-08  0.93827000000E+00  0.93827000000E+00 0.  1.
     999902    2    1    2    0    0 -0.42172258115E-02  0.23307815562E-01 -0.33246597752E-03  0.10202413995E+01  0.10199663541E+01 0.  0.
     999903    2    3    3    0    0  0.37853656009E-01  0.12551810730E+00 -0.12577377679E-01  0.13324261670E+00  0.20191828585E-01 0.  0.
         14    1    1    2    0    0  0.42172258115E-02 -0.23307815562E-01  0.33246597752E-03  0.23688600496E-01  0.00000000000E+00 0.  1.
     999901    1    3    3    0    0 -0.42070881821E-01 -0.10221029174E+00  0.12244911702E-01  0.88699878280E+00  0.88000000000E+00 0. -1.
        -11    1    4    4    0    0  0.17331727456E-01  0.36497105214E-01 -0.10978257938E-01  0.41871359352E-01  0.51100000000E-03 0. -1.
         11    1    4    4    0    0  0.20521928554E-01  0.89021002088E-01 -0.15991197410E-02  0.91371257347E-01  0.51100000000E-03 0.  1.
</event>
<event>
 8    1  0.1114686E+005  0.1043930E+01  0.7957747E-01            NaN
         13   -1    0    0    0    0  0.00000000000E+00  0.00000000000E+00  0.74505805969E-08  0.10566000000E+00  0.10566000000E+00 0.  1.
     999900   -1    0    0    0    0 -0.00000000000E+00 -0.00000000000E+00 -0.74505805969E-08  0.93827000000E+00  0.93827000000E+00 0. -1.
     999902    2    1    2    0    0 -0.20412886997E-01 -0.91571327657E-02  0.53740379352E-02  0.10209208862E+01  0.10206615680E+01 0.  0.
     999903    2    3    3    0    0 -0.49006292302E-01 -0.11727909414E+00  0.34735046276E-01  0.13335679824E+00  0.20530698656E-01 0.  0.
         14    1    1    2    0    0  0.20412886997E-01  0.91571327657E-02 -0.53740379352E-02  0.23009113842E-01  0.00000000000E+00 0.  1.
     999901    1    3    3    0    0  0.28593405305E-01  0.10812196138E+00 -0.29361008340E-01  0.88756408792E+00  0.88000000000E+00 0. -1.
        -11    1    4    4    0    0 -0.39021633376E-01 -0.10496593060E+00  0.35498855401E-01  0.11747750556E+00  0.51100000000E-03 0.  1.
         11    1    4    4    0    0 -0.99846589263E-02 -0.12313163548E-01 -0.76380912494E-03  0.15879292674E-01  0.51100000000E-03 0. -1.
</event>
<event>
 8    1  0.1114686E+005  0.1043930E+01  0.7957747E-01            NaN
         13   -1    0    0    0    0  0.00000000000E+00  0.00000000000E+00  0.74505805969E-08  0.10566000000E+00  0.10566000000E+00 0.  1.
     999900   -1    0    0    0    0 -0.00000000000E+00 -0.00000000000E+00 -0.74505805969E-08  0.93827000000E+00  0.93827000000E+00 0.  1.
     999902    2    1    2    0    0  0.91509297841E-02  0.20127785914E-01  0.81583277362E-02  0.10203625310E+01  0.10200903240E+01 0.  0.
     999903    2    3    3    0    0  0.98296109706E-01  0.79757879860E-01 -0.34535333510E-01  0.13282359673E+00  0.20639137682E-01 0.  0.
         14    1    1    2    0    0 -0.91509297841E-02 -0.20127785914E-01 -0.81583277362E-02  0.23567468960E-01  0.00000000000E+00 0.  1.
     999901    1    3    3    0    0 -0.89145179922E-01 -0.59630093946E-01  0.42693661246E-01  0.88753893431E+00  0.88000000000E+00 0. -1.
        -11    1    4    4    0    0  0.62875264365E-01  0.62550776869E-01 -0.27156587532E-01  0.92755808030E-01  0.51100000000E-03 0. -1.
         11    1    4    4    0    0  0.35420845342E-01  0.17207102991E-01 -0.73787459775E-02  0.40067788699E-01  0.51100000000E-03 0.  1.
</event>
<event>
 8    1  0.1114686E+005  0.1043930E+01  0.7957747E-01            NaN
         13   -1    0    0    0    0  0.00000000000E+00  0.00000000000E+00  0.74505805969E-08  0.10566000000E+00  0.10566000000E+00 0.  1.
     999900   -1    0    0    0    0 -0.00000000000E+00 -0.00000000000E+00 -0.74505805969E-08  0.93827000000E+00  0.93827000000E+00 0. -1.
     999902    2    1    2    0    0  0.22364104812E-01  0.96861938302E-02  0.15122231658E-01  0.10152479947E+01  0.10148427629E+01 0.  0.
     999903    2    3    3    0    0 -0.56307778132E-01  0.80847745249E-01 -0.73452309243E-01  0.12446256556E+00  0.19717116964E-01 0.  0.
         14    1    1    2    0    0 -0.22364104812E-01 -0.96861938302E-02 -0.15122231658E-01  0.28682005252E-01  0.00000000000E+00 0. -1.
     999901    1    3    3    0    0  0.78671882944E-01 -0.71161551419E-01  0.88574540902E-01  0.89078542919E+00  0.88000000000E+00 0.  1.
        -11    1    4    4    0    0 -0.24471088071E-01  0.41085546005E-01 -0.24167815457E-01  0.53583585797E-01  0.51100000000E-03 0.  1.
         11    1    4    4    0    0 -0.31836690062E-01  0.39762199244E-01 -0.49284493786E-01  0.70878979758E-01  0.51100000000E-03 0. -1.
</event>
<event>
 8    1  0.1114686E+005  0.1043930E+01  0.7957747E-01            NaN
         13   -1    0    0    0    0  0.00000000000E+00  0.00000000000E+00  0.74505805969E-08  0.10566000000E+00  0.10566000000E+00 0.  1.
     999900   -1    0    0    0    0 -0.00000000000E+00 -0.00000000000E+00 -0.74505805969E-08  0.93827000000E+00  0.93827000000E+00 0.  1.
     999902    2    1    2    0    0 -0.36885370878E-02 -0.21129076548E-01 -0.10547590914E-01  0.10200282248E+01  0.10197481476E+01 0.  0.
     999903    2    3    3    0    0 -0.32516372058E-01 -0.12671290169E+00 -0.16182868373E-01  0.13323019566E+00  0.19363003441E-01 0.  0.
         14    1    1    2    0    0  0.36885370878E-02  0.21129076548E-01  0.10547590914E-01  0.23901775158E-01  0.00000000000E+00 0.  1.
     999901    1    3    3    0    0  0.28827834970E-01  0.10558382514E+00  0.56352774596E-02  0.88679802918E+00  0.88000000000E+00 0. -1.
        -11    1    4    4    0    0 -0.22707803365E-01 -0.75389866485E-01 -0.73635934956E-03  0.78740584507E-01  0.51100000000E-03 0.  1.
         11    1    4    4    0    0 -0.98085686923E-02 -0.51323035202E-01 -0.15446509024E-01  0.54489611158E-01  0.51100000000E-03 0. -1.
</event>
<event>
 8    1  0.1114686E+005  0.1043930E+01  0.7957747E-01            NaN
         13   -1    0    0    0    0  0.00000000000E+00  0.00000000000E+00  0.74505805969E-08  0.10566000000E+00  0.10566000000E+00 0.  1.
     999900   -1    0    0    0    0 -0.00000000000E+00 -0.00000000000E+00 -0.74505805969E-08  0.93827000000E+00  0.93827000000E+00 0. -1.
     999902    2    1    2    0    0 -0.21534595912E-01 -0.10603554093E-01 -0.57027124525E-02  0.10192582528E+01  0.10189596120E+01 0.  0.
     999903    2    3    3    0    0 -0.26009514881E-01  0.90013192154E-01  0.86262463664E-01  0.12875202141E+00  0.18894463589E-01 0.  0.
         14    1    1    2    0    0  0.21534595912E-01  0.10603554093E-01  0.57027124525E-02  0.24671747199E-01  0.00000000000E+00 0.  1.
     999901    1    3    3    0    0  0.44749189687E-02 -0.10061674625E+00 -0.91965176116E-01  0.89050623139E+00  0.88000000000E+00 0. -1.
        -11    1    4    4    0    0 -0.72059903176E-02  0.39299185625E-01  0.25495506484E-01  0.47398673601E-01  0.51100000000E-03 0. -1.
         11    1    4    4    0    0 -0.18803524563E-01  0.50714006528E-01  0.60766957180E-01  0.81353347811E-01  0.51100000000E-03 0.  1.
</event>
<event>
 8    1  0.1114686E+005  0.1043930E+01  0.7957747E-01            NaN
         13   -1    0    0    0    0  0.00000000000E+00  0.00000000000E+00  0.74505805969E-08  0.10566000000E+00  0.10566000000E+00 0.  1.
     999900   -1    0    0    0    0 -0.00000000000E+00 -0.00000000000E+00 -0.74505805969E-08  0.93827000000E+00  0.93827000000E+00 0.  1.
     999902    2    1    2    0    0 -0.78635300879E-02 -0.21339531634E-01  0.47005401976E-02  0.10207070417E+01  0.10204428250E+01 0.  0.
     999903    2    3    3    0    0  0.10664476229E+00 -0.68427686374E-01 -0.29621255461E-01  0.13137727774E+00  0.18086369066E-01 0.  0.
         14    1    1    2    0    0  0.78635300879E-02  0.21339531634E-01 -0.47005401976E-02  0.23222958338E-01  0.00000000000E+00 0. -1.
     999901    1    3    3    0    0 -0.11450829237E+00  0.47088154740E-01  0.34321795659E-01  0.88932976392E+00  0.88000000000E+00 0.  1.
        -11    1    4    4    0    0  0.21103070012E-01 -0.55461319065E-02 -0.49402238629E-02  0.22377803196E-01  0.51100000000E-03 0. -1.
         11    1    4    4    0    0  0.85541692273E-01 -0.62881554468E-01 -0.24681031598E-01  0.10899947454E+00  0.51100000000E-03 0.  1.
</event>
<event>
 8    1  0.1114686E+005  0.1043930E+01  0.7957747E-01            NaN
         13   -1    0    0    0    0  0.00000000000E+00  0.00000000000E+00  0.74505805969E-08  0.10566000000E+00  0.10566000000E+00 0.  1.
     999900   -1    0    0    0    0 -0.00000000000E+00 -0.00000000000E+00 -0.74505805969E-08  0.93827000000E+00  0.93827000000E+00 0. -1.
     999902    2    1    2    0    0 -0.84080657951E-02  0.15012279616E-01 -0.19340269348E-01  0.10180435146E+01  0.10177143447E+01 0.  0.
     999903    2    3    3    0    0 -0.39588424675E-01  0.11838899333E+00 -0.35915467327E-01  0.13128892794E+00  0.19069994612E-01 0.  0.
         14    1    1    2    0    0  0.84080657951E-02 -0.15012279616E-01  0.19340269348E-01  0.25886485434E-01  0.00000000000E+00 0.  1.
     999901    1    3    3    0    0  0.31180358880E-01 -0.10337671372E+00  0.16575197979E-01  0.88675458663E+00  0.88000000000E+00 0.  1.
        -11    1    4    4    0    0 -0.19001429452E-01  0.52767332067E-01 -0.25930716904E-01  0.61790847663E-01  0.51100000000E-03 0.  1.
         11    1    4    4    0    0 -0.20586995223E-01  0.65621661268E-01 -0.99847504228E-02  0.69498080274E-01  0.51100000000E-03 0. -1.
</event>
<event>
 8    1  0.1114686E+005  0.1043930E+01  0.7957747E-01            NaN
         13   -1    0    0    0    0  0.00000000000E+00  0.00000000000E+00  0.74505805969E-08  0.10566000000E+00  0.10566000000E+00 0.  1.
     999900   -1    0    0    0    0 -0.00000000000E+00 -0.00000000000E+00 -0.74505805969E-08  0.93827000000E+00  0.93827000000E+00 0.  1.
     999902    2    1    2    0    0 -0.63162606524E-02  0.15766558882E-01 -0.12233153260E-01  0.10229984552E+01  0.10227842929E+01 0.  0.
     999903    2    3    3    0    0 -0.13360358328E-01 -0.26185727150E-01  0.12612201601E+00  0.13117349120E+00  0.20869364839E-01 0.  0.
         14    1    1    2    0    0  0.63162606524E-02 -0.15766558882E-01  0.12233153260E-01  0.20931544766E-01  0.00000000000E+00 0. -1.
     999901    1    3    3    0    0  0.70440976753E-02  0.41952286032E-01 -0.13835516927E+00  0.89182496404E+00  0.88000000000E+00 0.  1.
        -11    1    4    4    0    0 -0.89895004618E-02 -0.22875298070E-01  0.60259576052E-01  0.65081241593E-01  0.51100000000E-03 0.  1.
         11    1    4    4    0    0 -0.43708578659E-02 -0.33104290804E-02  0.65862439961E-01  0.66092249604E-01  0.51100000000E-03 0. -1.
</event>
<event>
 8    1  0.1114686E+005  0.1043930E+01  0.7957747E-01            NaN
         13   -1    0    0    0    0  0.00000000000E+00  0.00000000000E+00  0.74505805969E-08  0.10566000000E+00  0.10566000000E+00 0.  1.
     999900   -1    0    0    0    0 -0.00000000000E+00 -0.00000000000E+00 -0.74505805969E-08  0.93827000000E+00  0.93827000000E+00 0.  1.
     999902    2    1    2    0    0  0.34643551961E-02  0.23167355253E-01 -0.16699473396E-01  0.10151619532E+01  0.10147542514E+01 0.  0.
     999903    2    3    3    0    0  0.23169418045E-01 -0.11921991218E+00 -0.67175108501E-02  0.12344335238E+00  0.21045828645E-01 0.  0.
         14    1    1    2    0    0 -0.34643551961E-02 -0.23167355253E-01  0.16699473396E-01  0.28768046823E-01  0.00000000000E+00 0.  1.
     999901    1    3    3    0    0 -0.19705062849E-01  0.14238726743E+00 -0.99819625457E-02  0.89171860080E+00  0.88000000000E+00 0.  1.
        -11    1    4    4    0    0  0.12127765502E-02 -0.49729169574E-01  0.34145050377E-02  0.49863625010E-01  0.51100000000E-03 0.  1.
         11    1    4    4    0    0  0.21956641495E-01 -0.69490742601E-01 -0.10132015888E-01  0.73579727371E-01  0.51100000000E-03 0. -1.
</event>
<event>
 8    1  0.1114686E+005  0.1043930E+01  0.7957747E-01            NaN
         13   -1    0    0    0    0  0.00000000000E+00  0.00000000000E+00  0.74505805969E-08  0.10566000000E+00  0.10566000000E+00 0.  1.
     999900   -1    0    0    0    0 -0.00000000000E+00 -0.00000000000E+00 -0.74505805969E-08  0.93827000000E+00  0.93827000000E+00 0.  1.
     999902    2    1    2    0    0  0.66401042434E-02  0.16679193720E-01  0.31743431383E-01  0.10074617683E+01  0.10068015111E+01 0.  0.
     999903    2    3    3    0    0 -0.75453227021E-01 -0.86858710047E-01  0.12703709109E-01  0.11739327454E+00  0.19549212346E-01 0.  0.
         14    1    1    2    0    0 -0.66401042434E-02 -0.16679193720E-01 -0.31743431383E-01  0.36468231702E-01  0.00000000000E+00 0. -1.
     999901    1    3    3    0    0  0.82093331264E-01  0.10353790377E+00  0.19039722274E-01  0.89006849376E+00  0.88000000000E+00 0.  1.
        -11    1    4    4    0    0 -0.27682500028E-01 -0.45407510819E-01  0.18193765370E-02  0.53214040427E-01  0.51100000000E-03 0. -1.
         11    1    4    4    0    0 -0.47770726993E-01 -0.41451199228E-01  0.10884332572E-01  0.64179234114E-01  0.51100000000E-03 0.  1.
</event>
<event>
 8    1  0.1114686E+005  0.1043930E+01  0.7957747E-01            NaN
         13   -1    0    0    0    0  0.00000000000E+00  0.00000000000E+00  0.74505805969E-08  0.10566000000E+00  0.10566000000E+00 0.  1.
     999900   -1    0    0    0    0 -0.00000000000E+00 -0.00000000000E+00 -0.74505805969E-08  0.93827000000E+00  0.93827000000E+00 0.  1.
     999902    2    1    2    0    0  0.22376526758E-01 -0.21863866877E-02  0.83030908059E-02  0.10199627191E+01  0.10196810863E+01 0.  0.
     999903    2    3    3    0    0  0.10618389650E-02 -0.12925950010E+00  0.79650018292E-03  0.13054816955E+00  0.18249501129E-01 0.  0.
         14    1    1    2    0    0 -0.22376526758E-01  0.21863866877E-02 -0.83030908059E-02  0.23967280893E-01  0.00000000000E+00 0. -1.
     999901    1    3    3    0    0  0.21314687793E-01  0.12707311341E+00  0.75065906230E-02  0.88941454956E+00  0.88000000000E+00 0.  1.
        -11    1    4    4    0    0 -0.44836902912E-02 -0.30547411761E-01  0.63428979284E-02  0.31523662843E-01  0.51100000000E-03 0.  1.
         11    1    4    4    0    0  0.55455292562E-02 -0.98712088338E-01 -0.55463977455E-02  0.99024506703E-01  0.51100000000E-03 0. -1.
</event>
<event>
 8    1  0.1114686E+005  0.1043930E+01  0.7957747E-01            NaN
         13   -1    0    0    0    0  0.00000000000E+00  0.00000000000E+00  0.74505805969E-08  0.10566000000E+00  0.10566000000E+00 0.  1.
     999900   -1    0    0    0    0 -0.00000000000E+00 -0.00000000000E+00 -0.74505805969E-08  0.93827000000E+00  0.93827000000E+00 0.  1.
     999902    2    1    2    0    0  0.17849609476E-02 -0.24084401874E-01 -0.68505618131E-03  0.10197698303E+01  0.10194835913E+01 0.  0.
     999903    2    3    3    0    0 -0.11873790834E-02  0.61981827604E-01  0.11102407685E+00  0.12853744696E+00  0.18771595812E-01 0.  0.
         14    1    1    2    0    0 -0.17849609476E-02  0.24084401874E-01  0.68505618131E-03  0.24160169726E-01  0.00000000000E+00 0.  1.
     999901    1    3    3    0    0  0.29723400310E-02 -0.86066229477E-01 -0.11170913303E+00  0.89123238331E+00  0.88000000000E+00 0.  1.
        -11    1    4    4    0    0 -0.68769361500E-02  0.10346274200E-01  0.16278961732E-01  0.20484222141E-01  0.51100000000E-03 0.  1.
         11    1    4    4    0    0  0.56895570666E-02  0.51635553403E-01  0.94745115117E-01  0.10805322482E+00  0.51100000000E-03 0. -1.
</event>
<event>
 8    1  0.1114686E+005  0.1043930E+01  0.7957747E-01            NaN
         13   -1    0    0    0    0  0.00000000000E+00  0.00000000000E+00  0.74505805969E-08  0.10566000000E+00  0.10566000000E+00 0.  1.
     999900   -1    0    0    0    0 -0.00000000000E+00 -0.00000000000E+00 -0.74505805969E-08  0.93827000000E+00  0.93827000000E+00 0. -1.
     999902    2    1    2    0    0  0.87719885851E-02 -0.62373592376E-02 -0.21829374007E-01  0.10195912654E+01  0.10193007282E+01 0.  0.
     999903    2    3    3    0    0 -0.27468242353E-01  0.12442195145E+00  0.92175445625E-04  0.12893658249E+00  0.19730875931E-01 0.  0.
         14    1    1    2    0    0 -0.87719885851E-02  0.62373592376E-02  0.21829374007E-01  0.24338734633E-01  0.00000000000E+00 0.  1.
     999901    1    3    3    0    0  0.36240230938E-01 -0.13065931069E+00 -0.21921549453E-01  0.89065468288E+00  0.88000000000E+00 0.  1.
        -11    1    4    4    0    0 -0.26700920614E-01  0.85459008333E-01 -0.47646619203E-02  0.89661275872E-01  0.51100000000E-03 0. -1.
         11    1    4    4    0    0 -0.76732173932E-03  0.38962943121E-01  0.48568373659E-02  0.39275306613E-01  0.51100000000E-03 0.  1.
</event>
<event>
 8    1  0.1114686E+005  0.1043930E+01  0.7957747E-01            NaN
         13   -1    0    0    0    0  0.00000000000E+00  0.00000000000E+00  0.74505805969E-08  0.10566000000E+00  0.10566000000E+00 0.  1.
     999900   -1    0    0    0    0 -0.00000000000E+00 -0.00000000000E+00 -0.74505805969E-08  0.93827000000E+00  0.93827000000E+00 0. -1.
     999902    2    1    2    0    0  0.28724415958E-01  0.18955812642E-01  0.28154995611E-02  0.10093996953E+01  0.10088089031E+01 0.  0.
     999903    2    3    3    0    0  0.87314117886E-01  0.18737845883E-01  0.83111170102E-01  0.12380374037E+00  0.21095911518E-01 0.  0.
         14    1    1    2    0    0 -0.28724415958E-01 -0.18955812642E-01 -0.28154995611E-02  0.34530304702E-01  0.00000000000E+00 0.  1.
     999901    1    3    3    0    0 -0.58589701929E-01  0.21796675935E-03 -0.80295670540E-01  0.88559595493E+00  0.88000000000E+00 0. -1.
        -11    1    4    4    0    0  0.39370989007E-01  0.36487178585E-02  0.49419477963E-01  0.63292446947E-01  0.51100000000E-03 0.  1.
         11    1    4    4    0    0  0.47943128879E-01  0.15089128024E-01  0.33691692138E-01  0.60511293420E-01  0.51100000000E-03 0. -1.
</event>
<event>
 8    1  0.1114686E+005  0.1043930E+01  0.7957747E-01            NaN
         13   -1    0    0    0    0  0.00000000000E+00  0.00000000000E+00  0.74505805969E-08  0.10566000000E+00  0.10566000000E+00 0. -1.
     999900   -1    0    0    0    0 -0.00000000000E+00 -0.00000000000E+00 -0.74505805969E-08  0.93827000000E+00  0.93827000000E+00 0. -1.
     999902    2    1    2    0    0 -0.12030056286E-01 -0.18902217652E-01 -0.12320367036E-01  0.10183603397E+01  0.10180392791E+01 0.  0.
     999903    2    3    3    0    0 -0.11215904727E+00 -0.30001405499E-01 -0.58342182799E-01  0.13141783062E+00  0.19674849300E-01 0.  0.
         14    1    1    2    0    0  0.12030056286E-01  0.18902217652E-01  0.12320367036E-01  0.25569660348E-01  0.00000000000E+00 0. -1.
     999901    1    3    3    0    0  0.10012899098E+00  0.11099187847E-01  0.46021815763E-01  0.88694250903E+00  0.88000000000E+00 0.  1.
        -11    1    4    4    0    0 -0.43457433688E-01 -0.17273012436E-01 -0.32358106967E-01  0.56870147783E-01  0.51100000000E-03 0. -1.
         11    1    4    4    0    0 -0.68701613578E-01 -0.12728393063E-01 -0.25984075832E-01  0.74547682835E-01  0.51100000000E-03 0.  1.
</event>
<event>
 8    1  0.1114686E+005  0.1043930E+01  0.7957747E-01            NaN
         13   -1    0    0    0    0  0.00000000000E+00  0.00000000000E+00  0.74505805969E-08  0.10566000000E+00  0.10566000000E+00 0.  1.
     999900   -1    0    0    0    0 -0.00000000000E+00 -0.00000000000E+00 -0.74505805969E-08  0.93827000000E+00  0.93827000000E+00 0. -1.
     999902    2    1    2    0    0 -0.20835488328E-01  0.95059422881E-02  0.27234895051E-02  0.10208670880E+01  0.10206065420E+01 0.  0.
     999903    2    3    3    0    0  0.51540447014E-01  0.65993816975E-01  0.98401283637E-01  0.13093259816E+00  0.21187993816E-01 0.  0.
         14    1    1    2    0    0  0.20835488328E-01 -0.95059422881E-02 -0.27234895051E-02  0.23062911952E-01  0.00000000000E+00 0.  1.
     999901    1    3    3    0    0 -0.72375935342E-01 -0.56487874687E-01 -0.95677794132E-01  0.88993448989E+00  0.88000000000E+00 0. -1.
        -11    1    4    4    0    0  0.38272202003E-01  0.36746621004E-01  0.50437271023E-01  0.73206932941E-01  0.51100000000E-03 0.  1.
         11    1    4    4    0    0  0.13268245011E-01  0.29247195971E-01  0.47964012614E-01  0.57725665218E-01  0.51100000000E-03 0. -1.
</event>
<event>
 8    1  0.1114686E+005  0.1043930E+01  0.7957747E-01            NaN
         13   -1    0    0    0    0  0.00000000000E+00  0.00000000000E+00  0.74505805969E-08  0.10566000000E+00  0.10566000000E+00 0.  1.
     999900   -1    0    0    0    0 -0.00000000000E+00 -0.00000000000E+00 -0.74505805969E-08  0.93827000000E+00  0.93827000000E+00 0.  1.
     999902    2    1    2    0    0 -0.86597661808E-03 -0.22396082120E-01  0.55063145098E-02  0.10208507039E+01  0.10205897833E+01 0.  0.
     999903    2    3    3    0    0  0.82825339047E-01  0.53163263679E-01 -0.81411008477E-01  0.12940913424E+00  0.20799094444E-01 0.  0.
         14    1    1    2    0    0  0.86597661808E-03  0.22396082120E-01 -0.55063145098E-02  0.23079296118E-01  0.00000000000E+00 0. -1.
     999901    1    3    3    0    0 -0.83691315665E-01 -0.75559345798E-01  0.86917322986E-01  0.89144156964E+00  0.88000000000E+00 0. -1.
        -11    1    4    4    0    0  0.44139932387E-01  0.38108525364E-01 -0.55288493540E-01  0.80359641459E-01  0.51100000000E-03 0.  1.
         11    1    4    4    0    0  0.38685406660E-01  0.15054738314E-01 -0.26122514937E-01  0.49049492778E-01  0.51100000000E-03 0. -1.
</event>
<event>
 8    1  0.1114686E+005  0.1043930E+01  0.7957747E-01            NaN
         13   -1    0    0    0    0  0.00000000000E+00  0.00000000000E+00  0.74505805969E-08  0.10566000000E+00  0.10566000000E+00 0.  1.
     999900   -1    0    0    0    0 -0.00000000000E+00 -0.00000000000E+00 -0.74505805969E-08  0.93827000000E+00  0.93827000000E+00 0.  1.
     999902    2    1    2    0    0 -0.68601847681E-02 -0.20685298972E-02 -0.21694285184E-01  0.10210830536E+01  0.10208274190E+01 0.  0.
     999903    2    3    3    0    0 -0.68418192192E-01  0.65871524035E-01 -0.91722374103E-01  0.13355323862E+00  0.20083996952E-01 0.  0.
         14    1    1    2    0    0  0.68601847681E-02  0.20685298972E-02  0.21694285184E-01  0.22846946418E-01  0.00000000000E+00 0.  1.
     999901    1    3    3    0    0  0.61558007424E-01 -0.67940053932E-01  0.70028088920E-01  0.88752981496E+00  0.88000000000E+00 0. -1.
        -11    1    4    4    0    0 -0.44252511535E-01  0.31985509696E-01 -0.43217209195E-01  0.69637245058E-01  0.51100000000E-03 0.  1.
         11    1    4    4    0    0 -0.24165680658E-01  0.33886014339E-01 -0.48505164908E-01  0.63915993564E-01  0.51100000000E-03 0. -1.
</event>
<event>
 8    1  0.1114686E+005  0.1043930E+01  0.7957747E-01            NaN
         13   -1    0    0    0    0  0.00000000000E+00  0.00000000000E+00  0.74505805969E-08  0.10566000000E+00  0.10566000000E+00 0.  1.
     999900   -1    0    0    0    0 -0.00000000000E+00 -0.00000000000E+00 -0.74505805969E-08  0.93827000000E+00  0.93827000000E+00 0.  1.
     999902    2    1    2    0    0  0.15562774147E-01  0.16915978565E-01  0.89482272188E-02  0.10192638077E+01  0.10189653030E+01 0.  0.
     999903    2    3    3    0    0 -0.68611990743E-01 -0.99011238997E-02 -0.10559957575E+00  0.12745343149E+00  0.16954918796E-01 0.  0.
         14    1    1    2    0    0 -0.15562774147E-01 -0.16915978565E-01 -0.89482272188E-02  0.24666192254E-01  0.00000000000E+00 0.  1.
     999901    1    3    3    0    0  0.84174764890E-01  0.26817102465E-01  0.11454780297E+00  0.89181037625E+00  0.88000000000E+00 0. -1.
        -11    1    4    4    0    0 -0.47239926123E-01 -0.22842093626E-02 -0.82331965486E-01  0.94950734038E-01  0.51100000000E-03 0.  1.
         11    1    4    4    0    0 -0.21372064620E-01 -0.76169145371E-02 -0.23267610268E-01  0.32502697454E-01  0.51100000000E-03 0. -1.
</event>
<event>
 8    1  0.1114686E+005  0.1043930E+01  0.7957747E-01            NaN
         13   -1    0    0    0    0  0.00000000000E+00  0.00000000000E+00  0.74505805969E-08  0.10566000000E+00  0.10566000000E+00 0. -1.
     999900   -1    0    0    0    0 -0.00000000000E+00 -0.00000000000E+00 -0.74505805969E-08  0.93827000000E+00  0.93827000000E+00 0.  1.
     999902    2    1    2    0    0 -0.19606553261E-01  0.12559006652E-01 -0.70285622270E-02  0.10196082758E+01  0.10193181495E+01 0.  0.
     999903    2    3    3    0    0  0.63487809270E-01  0.11054821801E+00 -0.16983097796E-01  0.13022329092E+00  0.20446746877E-01 0.  0.
         14    1    1    2    0    0  0.19606553261E-01 -0.12559006652E-01  0.70285622270E-02  0.24321724155E-01  0.00000000000E+00 0.  1.
     999901    1    3    3    0    0 -0.83094362532E-01 -0.97989211354E-01  0.99545355689E-02  0.88938498492E+00  0.88000000000E+00 0. -1.
        -11    1    4    4    0    0  0.44640629204E-01  0.57398868906E-01 -0.96993232980E-02  0.73360438390E-01  0.51100000000E-03 0. -1.
         11    1    4    4    0    0  0.18847180067E-01  0.53149349100E-01 -0.72837744979E-02  0.56862852533E-01  0.51100000000E-03 0.  1.
</event>
<event>
 8    1  0.1114686E+005  0.1043930E+01  0.7957747E-01            NaN
         13   -1    0    0    0    0  0.00000000000E+00  0.00000000000E+00  0.74505805969E-08  0.10566000000E+00  0.10566000000E+00 0.  1.
     999900   -1    0    0    0    0 -0.00000000000E+00 -0.00000000000E+00 -0.74505805969E-08  0.93827000000E+00  0.93827000000E+00 0.  1.
     999902    2    1    2    0    0  0.18887579589E-01  0.14360364432E-01 -0.43860709276E-02  0.10198012133E+01  0.10195157264E+01 0.  0.
     999903    2    3    3    0    0  0.12630804178E+00 -0.23304594304E-02  0.34248466469E-01  0.13227072550E+00  0.19063968898E-01 0.  0.
         14    1    1    2    0    0 -0.18887579589E-01 -0.14360364432E-01  0.43860709276E-02  0.24128786698E-01  0.00000000000E+00 0.  1.
     999901    1    3    3    0    0 -0.10742046219E+00  0.16690823862E-01 -0.38634537396E-01  0.88753048780E+00  0.88000000000E+00 0.  1.
        -11    1    4    4    0    0  0.55202799759E-01 -0.95811261239E-02  0.10923165815E-01  0.57085232341E-01  0.51100000000E-03 0. -1.
         11    1    4    4    0    0  0.71105242019E-01  0.72506666936E-02  0.23325300654E-01  0.75185493159E-01  0.51100000000E-03 0.  1.
</event>
<event>
 7    1  0.1481706E+005  0.1043930E+01  0.7957747E-01            NaN
         13   -1    0    0    0    0  0.00000000000E+00  0.00000000000E+00  0.74505805969E-08  0.10566000000E+00  0.10566000000E+00 0.  1.
     999900   -1    0    0    0    0 -0.00000000000E+00 -0.00000000000E+00 -0.74505805969E-08  0.93827000000E+00  0.93827000000E+00 0. -1.
     999903    2    1    2    0    0 -0.10322281769E+00 -0.35524041772E-01 -0.10983792815E-01  0.11154630535E+00  0.20125280080E-01 0.  0.
         14    1    1    2    0    0  0.32038768306E-01  0.25260773033E-02  0.36361364039E-01  0.48528471395E-01  0.00000000000E+00 0.  1.
     999901    1    1    2    0    0  0.71184049383E-01  0.32997964469E-01 -0.25377571225E-01  0.88385522325E+00  0.88000000000E+00 0.  1.
        -11    1    3    3    0    0 -0.69943066586E-01 -0.33669021332E-01 -0.90929451564E-02  0.78157394618E-01  0.51100000000E-03 0. -1.
         11    1    3    3    0    0 -0.33279751103E-01 -0.18550204397E-02 -0.18908476584E-02  0.33388910737E-01  0.51100000000E-03 0.  1.
</event>
<event>
 8    1  0.1114686E+005  0.1043930E+01  0.7957747E-01            NaN
         13   -1    0    0    0    0  0.00000000000E+00  0.00000000000E+00  0.74505805969E-08  0.10566000000E+00  0.10566000000E+00 0. -1.
     999900   -1    0    0    0    0 -0.00000000000E+00 -0.00000000000E+00 -0.74505805969E-08  0.93827000000E+00  0.93827000000E+00 0.  1.
     999902    2    1    2    0    0  0.12817012758E-01 -0.12845372209E-01  0.15779256181E-01  0.10198828728E+01  0.10195993379E+01 0.  0.
     999903    2    3    3    0    0 -0.14886814685E-01  0.11342489882E+00 -0.49113292471E-01  0.12807419020E+00  0.30067553544E-01 0.  0.
         14    1    1    2    0    0 -0.12817012758E-01  0.12845372209E-01 -0.15779256181E-01  0.24047127248E-01  0.00000000000E+00 0. -1.
     999901    1    3    3    0    0  0.27703827443E-01 -0.12627027102E+00  0.64892548652E-01  0.89180868255E+00  0.88000000000E+00 0.  1.
        -11    1    4    4    0    0 -0.76884982348E-02  0.76347396542E-01 -0.17234821735E-01  0.78646920887E-01  0.51100000000E-03 0.  1.
         11    1    4    4    0    0 -0.71983164504E-02  0.37077502273E-01 -0.31878470736E-01  0.49427269316E-01  0.51100000000E-03 0. -1.
</event>
<event>
 8    1  0.1114686E+005  0.1043930E+01  0.7957747E-01            NaN
         13   -1    0    0    0    0  0.00000000000E+00  0.00000000000E+00  0.74505805969E-08  0.10566000000E+00  0.10566000000E+00 0.  1.
     999900   -1    0    0    0    0 -0.00000000000E+00 -0.00000000000E+00 -0.74505805969E-08  0.93827000000E+00  0.93827000000E+00 0. -1.
     999902    2    1    2    0    0 -0.72004981882E-02  0.23562413592E-01  0.58223779274E-03  0.10192850510E+01  0.10189870665E+01 0.  0.
     999903    2    3    3    0    0  0.60422920271E-01  0.11422508864E+00  0.19410087290E-01  0.13184652625E+00  0.17562882013E-01 0.  0.
         14    1    1    2    0    0  0.72004981882E-02 -0.23562413592E-01 -0.58223779274E-03  0.24644948961E-01  0.00000000000E+00 0. -1.
     999901    1    3    3    0    0 -0.67623418459E-01 -0.90662675051E-01 -0.18827849498E-01  0.88743852479E+00  0.88000000000E+00 0. -1.
        -11    1    4    4    0    0  0.43764731952E-01  0.64659803563E-01  0.10070991244E-01  0.78726920080E-01  0.51100000000E-03 0. -1.
         11    1    4    4    0    0  0.16658188319E-01  0.49565285081E-01  0.93390960466E-02  0.53119606165E-01  0.51100000000E-03 0.  1.
</event>
<event>
 8    1  0.1114686E+005  0.1043930E+01  0.7957747E-01            NaN
         13   -1    0    0    0    0  0.00000000000E+00  0.00000000000E+00  0.74505805969E-08  0.10566000000E+00  0.10566000000E+00 0. -1.
     999900   -1    0    0    0    0 -0.00000000000E+00 -0.00000000000E+00 -0.74505805969E-08  0.93827000000E+00  0.93827000000E+00 0.  1.
     999902    2    1    2    0    0 -0.11827447173E-02 -0.26279822658E-01  0.91493398270E-02  0.10160779196E+01  0.10156961161E+01 0.  0.
     999903    2    3    3    0    0 -0.87903454174E-01  0.82852296529E-01 -0.21309869901E-01  0.12458587568E+00  0.21817643522E-01 0.  0.
         14    1    1    2    0    0  0.11827447173E-02  0.26279822658E-01 -0.91493398270E-02  0.27852080412E-01  0.00000000000E+00 0.  1.
     999901    1    3    3    0    0  0.86720709457E-01 -0.10913211919E+00  0.30459209728E-01  0.89149204390E+00  0.88000000000E+00 0. -1.
        -11    1    4    4    0    0 -0.49070008627E-01  0.31829571821E-01 -0.72324751038E-02  0.58936891724E-01  0.51100000000E-03 0.  1.
         11    1    4    4    0    0 -0.38833445547E-01  0.51022724708E-01 -0.14077394798E-01  0.65648983960E-01  0.51100000000E-03 0. -1.
</event>
<event>
 8    1  0.1114686E+005  0.1043930E+01  0.7957747E-01            NaN
         13   -1    0    0    0    0  0.00000000000E+00  0.00000000000E+00  0.74505805969E-08  0.10566000000E+00  0.10566000000E+00 0.  1.
     999900   -1    0    0    0    0 -0.00000000000E+00 -0.00000000000E+00 -0.74505805969E-08  0.93827000000E+00  0.93827000000E+00 0.  1.
     999902    2    1    2    0    0  0.55599705280E-02  0.18085344758E-01 -0.15823485975E-01  0.10192647273E+01  0.10189662451E+01 0.  0.
     999903    2    3    3    0    0  0.90406964642E-01  0.74451899393E-02 -0.93452655192E-01  0.13171838307E+00  0.19684602279E-01 0.  0.
         14    1    1    2    0    0 -0.55599705280E-02 -0.18085344758E-01  0.15823485975E-01  0.24665272666E-01  0.00000000000E+00 0.  1.
     999901    1    3    3    0    0 -0.84846994114E-01  0.10640154818E-01  0.77629169217E-01  0.88754634426E+00  0.88000000000E+00 0. -1.
        -11    1    4    4    0    0  0.78060592089E-01  0.34042307270E-03 -0.83665491024E-01  0.11442791370E+00  0.51100000000E-03 0.  1.
         11    1    4    4    0    0  0.12346372553E-01  0.71047668666E-02 -0.97871641683E-02  0.17290469366E-01  0.51100000000E-03 0. -1.
</event>
<event>
 8    1  0.1114686E+005  0.1043930E+01  0.7957747E-01            NaN
         13   -1    0    0    0    0  0.00000000000E+00  0.00000000000E+00  0.74505805969E-08  0.10566000000E+00  0.10566000000E+00 0. -1.
     999900   -1    0    0    0    0 -0.00000000000E+00 -0.00000000000E+00 -0.74505805969E-08  0.93827000000E+00  0.93827000000E+00 0.  1.
     999902    2    1    2    0    0 -0.11384882065E-01 -0.16439510298E-01 -0.13581640718E-01  0.10197569985E+01  0.10194704517E+01 0.  0.
     999903    2    3    3    0    0  0.11798037467E+00  0.70152952075E-02 -0.48766117010E-01  0.12929450913E+00  0.19244551121E-01 0.  0.
         14    1    1    2    0    0  0.11384882065E-01  0.16439510298E-01  0.13581640718E-01  0.24173001532E-01  0.00000000000E+00 0.  1.
     999901    1    3    3    0    0 -0.12936525674E+00 -0.23454805505E-01  0.35184476292E-01  0.89046248934E+00  0.88000000000E+00 0. -1.
        -11    1    4    4    0    0  0.83636319054E-01  0.12476122527E-01 -0.39304472981E-01  0.93251220987E-01  0.51100000000E-03 0.  1.
         11    1    4    4    0    0  0.34344055617E-01 -0.54608273194E-02 -0.94616440285E-02  0.36043288140E-01  0.51100000000E-03 0. -1.
</event>
<event>
 8    1  0.1114686E+005  0.1043930E+01  0.7957747E-01            NaN
         13   -1    0    0    0    0  0.00000000000E+00  0.00000000000E+00  0.74505805969E-08  0.10566000000E+00  0.10566000000E+00 0.  1.
     999900   -1    0    0    0    0 -0.00000000000E+00 -0.00000000000E+00 -0.74505805969E-08  0.93827000000E+00  0.93827000000E+00 0. -1.
     999902    2    1    2    0    0  0.94523299369E-02 -0.11531805348E-01 -0.20730675596E-01  0.10183939473E+01  0.10180737409E+01 0.  0.
     999903    2    3    3    0    0 -0.11414306762E+00  0.51767706462E-01  0.84090463662E-02  0.12702882915E+00  0.18896456211E-01 0.  0.
         14    1    1    2    0    0 -0.94523299369E-02  0.11531805348E-01  0.20730675596E-01  0.25536052680E-01  0.00000000000E+00 0.  1.
     999901    1    3    3    0    0  0.12359539755E+00 -0.63299511810E-01 -0.29139721962E-01  0.89136511817E+00  0.88000000000E+00 0. -1.
        -11    1    4    4    0    0 -0.59350302161E-01  0.27152790134E-01 -0.50696640036E-02  0.65465219719E-01  0.51100000000E-03 0.  1.
         11    1    4    4    0    0 -0.54792765456E-01  0.24614916328E-01  0.13478710370E-01  0.61563609432E-01  0.51100000000E-03 0. -1.
</event>
<event>
 8    1  0.1114686E+005  0.1043930E+01  0.7957747E-01            NaN
         13   -1    0    0    0    0  0.00000000000E+00  0.00000000000E+00  0.74505805969E-08  0.10566000000E+00  0.10566000000E+00 0. -1.
     999900   -1    0    0    0    0 -0.00000000000E+00 -0.00000000000E+00 -0.74505805969E-08  0.93827000000E+00  0.93827000000E+00 0.  1.
     999902    2    1    2    0    0 -0.17321203634E-01 -0.12008750070E-01 -0.11344817336E-01  0.10199938547E+01  0.10197129618E+01 0.  0.
     999903    2    3    3    0    0 -0.53425329286E-01 -0.11681897087E+00 -0.28197825484E-01  0.13287902885E+00  0.18994240764E-01 0.  0.
         14    1    1    2    0    0  0.17321203634E-01  0.12008750070E-01  0.11344817336E-01  0.23936145345E-01  0.00000000000E+00 0. -1.
     999901    1    3    3    0    0  0.36104125652E-01  0.10481022080E+00  0.16853008148E-01  0.88711482580E+00  0.88000000000E+00 0.  1.
        -11    1    4    4    0    0 -0.41152195927E-01 -0.70022088448E-01 -0.21639789724E-01  0.84054373596E-01  0.51100000000E-03 0. -1.
         11    1    4    4    0    0 -0.12273133359E-01 -0.46796882424E-01 -0.65580357602E-02  0.48824655258E-01  0.51100000000E-03 0.  1.
</event>
<event>
 8    1  0.1114686E+005  0.1043930E+01  0.7957747E-01            NaN
         13   -1    0    0    0    0  0.00000000000E+00  0.00000000000E+00  0.74505805969E-08  0.10566000000E+00  0.10566000000E+00 0. -1.
     999900   -1    0    0    0    0 -0.00000000000E+00 -0.00000000000E+00 -0.74505805969E-08  0.93827000000E+00  0.93827000000E+00 0.  1.
     999902    2    1    2    0    0  0.12869847950E-01  0.18791169199E-03  0.20686736808E-01  0.10195658998E+01  0.10192747494E+01 0.  0.
     999903    2    3    3    0    0 -0.63220266873E-03 -0.12042878225E+00  0.47409225772E-01  0.13083377842E+00  0.19140313812E-01 0.  0.
         14    1    1    2    0    0 -0.12869847950E-01 -0.18791169199E-03 -0.20686736808E-01  0.24364100165E-01  0.00000000000E+00 0.  1.
     999901    1    3    3    0    0  0.13502050619E-01  0.12061669394E+00 -0.26722488963E-01  0.88873212142E+00  0.88000000000E+00 0. -1.
        -11    1    4    4    0    0 -0.39072243513E-02 -0.11392176509E+00  0.41067953615E-01  0.12116217602E+00  0.51100000000E-03 0.  1.
         11    1    4    4    0    0  0.32750216825E-02 -0.65070171558E-02  0.63412721569E-02  0.96716023933E-02  0.51100000000E-03 0. -1.
</event>
<event>
 8    1  0.1114686E+005  0.1043930E+01  0.7957747E-01            NaN
         13   -1    0    0    0    0  0.00000000000E+00  0.00000000000E+00  0.74505805969E-08  0.10566000000E+00  0.10566000000E+00 0.  1.
     999900   -1    0    0    0    0 -0.00000000000E+00 -0.00000000000E+00 -0.74505805969E-08  0.93827000000E+00  0.93827000000E+00 0. -1.
     999902    2    1    2    0    0  0.46074786606E-02 -0.17900386278E-01  0.18808982776E-01  0.10175589833E+01  0.10172172108E+01 0.  0.
     999903    2    3    3    0    0 -0.10146111179E+00  0.70516869661E-01 -0.15523377098E-01  0.12612930691E+00  0.20016011384E-01 0.  0.
         14    1    1    2    0    0 -0.46074786606E-02  0.17900386278E-01 -0.18808982776E-01  0.26371016696E-01  0.00000000000E+00 0.  1.
     999901    1    3    3    0    0  0.10606859045E+00 -0.88417255939E-01  0.34332359874E-01  0.89142967640E+00  0.88000000000E+00 0.  1.
        -11    1    4    4    0    0 -0.75435406192E-01  0.57882910165E-01 -0.45835958052E-02  0.95195600046E-01  0.51100000000E-03 0.  1.
         11    1    4    4    0    0 -0.26025705598E-01  0.12633959496E-01 -0.10939781293E-01  0.30933706861E-01  0.51100000000E-03 0. -1.
</event>
<event>
 8    1  0.1114686E+005  0.1043930E+01  0.7957747E-01            NaN
         13   -1    0    0    0    0  0.00000000000E+00  0.00000000000E+00  0.74505805969E-08  0.10566000000E+00  0.10566000000E+00 0.  1.
     999900   -1    0    0    0    0 -0.00000000000E+00 -0.00000000000E+00 -0.74505805969E-08  0.93827000000E+00  0.93827000000E+00 0.  1.
     999902    2    1    2    0    0  0.16675013578E-01 -0.84216645757E-02 -0.14500217753E-01  0.10202818113E+01  0.10200077145E+01 0.  0.
     999903    2    3    3    0    0  0.63404342750E-02 -0.37387744504E-01  0.12190946860E+00  0.12924116140E+00  0.20082697007E-01 0.  0.
         14    1    1    2    0    0 -0.16675013578E-01  0.84216645757E-02  0.14500217753E-01  0.23648188661E-01  0.00000000000E+00 0.  1.
     999901    1    3    3    0    0  0.10334579303E-01  0.28966079928E-01 -0.13640968635E+00  0.89104064994E+00  0.88000000000E+00 0.  1.
        -11    1    4    4    0    0  0.64316615216E-02 -0.42606985038E-02  0.42496522695E-01  0.43194159140E-01  0.51100000000E-03 0. -1.
         11    1    4    4    0    0 -0.91227246530E-04 -0.33127046000E-01  0.79412945906E-01  0.86047002258E-01  0.51100000000E-03 0.  1.
</event>
<event>
 8    1  0.1114686E+005  0.1043930E+01  0.7957747E-01            NaN
         13   -1    0    0    0    0  0.00000000000E+00  0.00000000000E+00  0.74505805969E-08  0.10566000000E+00  0.10566000000E+00 0. -1.
     999900   -1    0    0    0    0 -0.00000000000E+00 -0.00000000000E+00 -0.74505805969E-08  0.93827000000E+00  0.93827000000E+00 0.  1.
     999902    2    1    2    0    0  0.16889909702E-01 -0.16063852423E-01 -0.76455869263E-02  0.10193989706E+01  0.10191037679E+01 0.  0.
     999903    2    3    3    0    0 -0.10728631076E+00  0.28897095979E-01  0.58649000718E-01  0.12707829227E+00  0.19073343934E-01 0.  0.
         14    1    1    2    0    0 -0.16889909702E-01  0.16063852423E-01  0.76455869263E-02  0.24531029409E-01  0.00000000000E+00 0. -1.
     999901    1    3    3    0    0  0.12417622046E+00 -0.44960948402E-01 -0.66294587644E-01  0.89232067832E+00  0.88000000000E+00 0. -1.
        -11    1    4    4    0    0 -0.94348945160E-01  0.21502595820E-01  0.44454868414E-01  0.10649216650E+00  0.51100000000E-03 0. -1.
         11    1    4    4    0    0 -0.12937365599E-01  0.73945001588E-02  0.14194132304E-01  0.20586125767E-01  0.51100000000E-03 0.  1.
</event>
<event>
 8    1  0.1114686E+005  0.1043930E+01  0.7957747E-01            NaN
         13   -1    0    0    0    0  0.00000000000E+00  0.00000000000E+00  0.74505805969E-08  0.10566000000E+00  0.10566000000E+00 0.  1.
     999900   -1    0    0    0    0 -0.00000000000E+00 -0.00000000000E+00 -0.74505805969E-08  0.93827000000E+00  0.93827000000E+00 0.  1.
     999902    2    1    2    0    0  0.91216360619E-02 -0.17102248713E-01  0.13235349567E-01  0.10204594731E+01  0.10201895268E+01 0.  0.
     999903    2    3    3    0    0 -0.43170663189E-01  0.73416514477E-01  0.96799759573E-01  0.13034086207E+00  0.19101207152E-01 0.  0.
         14    1    1    2    0    0 -0.91216360619E-02  0.17102248713E-01 -0.13235349567E-01  0.23470526914E-01  0.00000000000E+00 0.  1.
     999901    1    3    3    0    0  0.52292299251E-01 -0.90518763189E-01 -0.83564410006E-01  0.89011861101E+00  0.88000000000E+00 0.  1.
        -11    1    4    4    0    0 -0.33041487525E-01  0.63045930147E-01  0.69813339106E-01  0.99703022242E-01  0.51100000000E-03 0. -1.
         11    1    4    4    0    0 -0.10129175664E-01  0.10370584330E-01  0.26986420467E-01  0.30637839832E-01  0.51100000000E-03 0.  1.
</event>
<event>
 8    1  0.1114686E+005  0.1043930E+01  0.7957747E-01            NaN
         13   -1    0    0    0    0  0.00000000000E+00  0.00000000000E+00  0.74505805969E-08  0.10566000000E+00  0.10566000000E+00 0. -1.
     999900   -1    0    0    0    0 -0.00000000000E+00 -0.00000000000E+00 -0.74505805969E-08  0.93827000000E+00  0.93827000000E+00 0.  1.
     999902    2    1    2    0    0 -0.36244494724E-03 -0.11405460777E-01 -0.21834277906E-01  0.10192936124E+01  0.10189958374E+01 0.  0.
     999903    2    3    3    0    0  0.81089523385E-01  0.25414004147E-01 -0.98000581569E-01  0.13149216954E+00  0.21556768153E-01 0.  0.
         14    1    1    2    0    0  0.36244494724E-03  0.11405460777E-01  0.21834277906E-01  0.24636387591E-01  0.00000000000E+00 0. -1.
     999901    1    3    3    0    0 -0.81451968333E-01 -0.36819464925E-01  0.76166303664E-01  0.88780144287E+00  0.88000000000E+00 0.  1.
        -11    1    4    4    0    0  0.29440091325E-01  0.20100316658E-01 -0.42914713936E-01  0.55791356859E-01  0.51100000000E-03 0.  1.
         11    1    4    4    0    0  0.51649432060E-01  0.53136874895E-02 -0.55085867633E-01  0.75700812683E-01  0.51100000000E-03 0. -1.
</event>
<event>
 8    1  0.1114686E+005  0.1043930E+01  0.7957747E-01            NaN
         13   -1    0    0    0    0  0.00000000000E+00  0.00000000000E+00  0.74505805969E-08  0.10566000000E+00  0.10566000000E+00 0.  1.
     999900   -1    0    0    0    0 -0.00000000000E+00 -0.00000000000E+00 -0.74505805969E-08  0.93827000000E+00  0.93827000000E+00 0.  1.
     999902    2    1    2    0    0  0.21162822482E-02 -0.14222542807E-01 -0.18923304095E-01  0.10201634097E+01  0.10198865289E+01 0.  0.
     999903    2    3    3    0    0  0.44957064004E-01  0.74953323517E-01  0.90952013942E-01  0.12782924967E+00  0.20710140564E-01 0.  0.
         14    1    1    2    0    0 -0.21162822482E-02  0.14222542807E-01  0.18923304095E-01  0.23766590254E-01  0.00000000000E+00 0.  1.
     999901    1    3    3    0    0 -0.42840781756E-01 -0.89175866324E-01 -0.10987531804E+00  0.89233416007E+00  0.88000000000E+00 0.  1.
        -11    1    4    4    0    0  0.99580297062E-02  0.21099601320E-01  0.37966300942E-01  0.44565195609E-01  0.51100000000E-03 0.  1.
         11    1    4    4    0    0  0.34999034298E-01  0.53853722197E-01  0.52985713001E-01  0.83264054066E-01  0.51100000000E-03 0. -1.
</event>
<event>
 8    1  0.1114686E+005  0.1043930E+01  0.7957747E-01            NaN
         13   -1    0    0    0    0  0.00000000000E+00  0.00000000000E+00  0.74505805969E-08  0.10566000000E+00  0.10566000000E+00 0.  1.
     999900   -1    0    0    0    0 -0.00000000000E+00 -0.00000000000E+00 -0.74505805969E-08  0.93827000000E+00  0.93827000000E+00 0.  1.
     999902    2    1    2    0    0 -0.19048629006E-01  0.12020000573E-01 -0.17255588547E-02  0.10213399970E+01  0.10210901436E+01 0.  0.
     999903    2    3    3    0    0 -0.13461296736E-01 -0.11544395247E+00 -0.55540945253E-01  0.13051208244E+00  0.20978426810E-01 0.  0.
         14    1    1    2    0    0  0.19048629006E-01 -0.12020000573E-01  0.17255588547E-02  0.22590002969E-01  0.00000000000E+00 0.  1.
     999901    1    3    3    0    0 -0.55873322701E-02  0.12746395304E+00  0.53815386398E-01  0.89082791459E+00  0.88000000000E+00 0.  1.
        -11    1    4    4    0    0 -0.51873074949E-03 -0.41663840407E-01 -0.10023803462E-01  0.42858866479E-01  0.51100000000E-03 0. -1.
         11    1    4    4    0    0 -0.12942565986E-01 -0.73780112060E-01 -0.45517141791E-01  0.87653215957E-01  0.51100000000E-03 0.  1.
</event>
<event>
 8    1  0.1114686E+005  0.1043930E+01  0.7957747E-01            NaN
         13   -1    0    0    0    0  0.00000000000E+00  0.00000000000E+00  0.74505805969E-08  0.10566000000E+00  0.10566000000E+00 0. -1.
     999900   -1    0    0    0    0 -0.00000000000E+00 -0.00000000000E+00 -0.74505805969E-08  0.93827000000E+00  0.93827000000E+00 0. -1.
     999902    2    1    2    0    0  0.22605490559E-01 -0.11680707072E-01  0.25798594600E-02  0.10183545666E+01  0.10180333592E+01 0.  0.
     999903    2    3    3    0    0  0.93244875923E-01  0.87859663395E-01 -0.81038775966E-03  0.12992353271E+00  0.21576382600E-01 0.  0.
         14    1    1    2    0    0 -0.22605490559E-01  0.11680707072E-01 -0.25798594600E-02  0.25575433446E-01  0.00000000000E+00 0. -1.
     999901    1    3    3    0    0 -0.70639385364E-01 -0.99540370468E-01  0.33902472197E-02  0.88843103384E+00  0.88000000000E+00 0. -1.
        -11    1    4    4    0    0  0.27873554156E-01  0.37984372736E-01  0.55940388157E-02  0.47447887041E-01  0.51100000000E-03 0. -1.
         11    1    4    4    0    0  0.65371321767E-01  0.49875290660E-01 -0.64044265754E-02  0.82475645670E-01  0.51100000000E-03 0.  1.
</event>
<event>
 8    1  0.1114686E+005  0.1043930E+01  0.7957747E-01            NaN
         13   -1    0    0    0    0  0.00000000000E+00  0.00000000000E+00  0.74505805969E-08  0.10566000000E+00  0.10566000000E+00 0. -1.
     999900   -1    0    0    0    0 -0.00000000000E+00 -0.00000000000E+00 -0.74505805969E-08  0.93827000000E+00  0.93827000000E+00 0. -1.
     999902    2    1    2    0    0 -0.61501378361E-02 -0.20964546391E-01 -0.87401442611E-02  0.10203986056E+01  0.10201272410E+01 0.  0.
     999903    2    3    3    0    0  0.12499491212E+00 -0.23801824197E-01  0.34619181948E-02  0.13059190490E+00  0.29189139404E-01 0.  0.
         14    1    1    2    0    0  0.61501378361E-02  0.20964546391E-01  0.87401442611E-02  0.23531394402E-01  0.00000000000E+00 0.  1.
     999901    1    3    3    0    0 -0.13114504995E+00  0.28372778058E-02 -0.12202062456E-01  0.88980670069E+00  0.88000000000E+00 0. -1.
        -11    1    4    4    0    0  0.52925850206E-01 -0.20583649665E-01 -0.86331040896E-02  0.57442352501E-01  0.51100000000E-03 0. -1.
         11    1    4    4    0    0  0.72069061909E-01 -0.32181745314E-02  0.12095022284E-01  0.73149552404E-01  0.51100000000E-03 0.  1.
</event>
<event>
 8    1  0.1114686E+005  0.1043930E+01  0.7957747E-01            NaN
         13   -1    0    0    0    0  0.00000000000E+00  0.00000000000E+00  0.74505805969E-08  0.10566000000E+00  0.10566000000E+00 0.  1.
     999900   -1    0    0    0    0 -0.00000000000E+00 -0.00000000000E+00 -0.74505805969E-08  0.93827000000E+00  0.93827000000E+00 0. -1.
     999902    2    1    2    0    0 -0.94987821385E-02  0.12198082599E-02 -0.23314527098E-01  0.10187251995E+01  0.10184133493E+01 0.  0.
     999903    2    3    3    0    0  0.29936893286E-01 -0.83454267806E-01  0.88500680181E-01  0.12674565252E+00  0.19268047281E-01 0.  0.
         14    1    1    2    0    0  0.94987821385E-02 -0.12198082599E-02  0.23314527098E-01  0.25204800497E-01  0.00000000000E+00 0.  1.
     999901    1    3    3    0    0 -0.39435675424E-01  0.84674076066E-01 -0.11181520728E+00  0.89197954698E+00  0.88000000000E+00 0. -1.
        -11    1    4    4    0    0  0.36931318364E-02 -0.77578448989E-02  0.19895988676E-02  0.88341952034E-02  0.51100000000E-03 0. -1.
         11    1    4    4    0    0  0.26243761449E-01 -0.75696422907E-01  0.86511081313E-01  0.11791145732E+00  0.51100000000E-03 0.  1.
</event>
<event>
 8    1  0.1114686E+005  0.1043930E+01  0.7957747E-01            NaN
         13   -1    0    0    0    0  0.00000000000E+00  0.00000000000E+00  0.74505805969E-08  0.10566000000E+00  0.10566000000E+00 0. -1.
     999900   -1    0    0    0    0 -0.00000000000E+00 -0.00000000000E+00 -0.74505805969E-08  0.93827000000E+00  0.93827000000E+00 0.  1.
     999902    2    1    2    0    0 -0.25237496998E-02  0.29749492027E-02 -0.24159136928E-01  0.10194579030E+01  0.10191641342E+01 0.  0.
     999903    2    3    3    0    0 -0.30251110291E-01  0.37097212149E-01  0.11606371728E+00  0.12727205676E+00  0.20881981225E-01 0.  0.
         14    1    1    2    0    0  0.25237496998E-02 -0.29749492027E-02  0.24159136928E-01  0.24472097017E-01  0.00000000000E+00 0. -1.
     999901    1    3    3    0    0  0.27727360592E-01 -0.34122262947E-01 -0.14022285421E+00  0.89218584622E+00  0.88000000000E+00 0.  1.
        -11    1    4    4    0    0 -0.16117950788E-01  0.12779962585E-01  0.27484460499E-01  0.34333256053E-01  0.51100000000E-03 0. -1.
         11    1    4    4    0    0 -0.14133159503E-01  0.24317249564E-01  0.88579256783E-01  0.92938800709E-01  0.51100000000E-03 0.  1.
</event>
<event>
 8    1  0.1114686E+005  0.1043930E+01  0.7957747E-01            NaN
         13   -1    0    0    0    0  0.00000000000E+00  0.00000000000E+00  0.74505805969E-08  0.10566000000E+00  0.10566000000E+00 0. -1.
     999900   -1    0    0    0    0 -0.00000000000E+00 -0.00000000000E+00 -0.74505805969E-08  0.93827000000E+00  0.93827000000E+00 0.  1.
     999902    2    1    2    0    0 -0.19430228997E-01  0.10581303399E-01 -0.90337750288E-02  0.10200321576E+01  0.10197521736E+01 0.  0.
     999903    2    3    3    0    0 -0.89998607379E-01  0.65892601284E-01  0.67925362507E-01  0.13213467221E+00  0.20103046868E-01 0.  0.
         14    1    1    2    0    0  0.19430228997E-01 -0.10581303399E-01  0.90337750288E-02  0.23897842409E-01  0.00000000000E+00 0. -1.
     999901    1    3    3    0    0  0.70568378382E-01 -0.55311297885E-01 -0.76959137536E-01  0.88789748538E+00  0.88000000000E+00 0.  1.
        -11    1    4    4    0    0 -0.56410568375E-01  0.34960819389E-01  0.49932516366E-01  0.83053768297E-01  0.51100000000E-03 0. -1.
         11    1    4    4    0    0 -0.33588039004E-01  0.30931781895E-01  0.17992846141E-01  0.49080903910E-01  0.51100000000E-03 0.  1.
</event>
<event>
 8    1  0.1114686E+005  0.1043930E+01  0.7957747E-01            NaN
         13   -1    0    0    0    0  0.00000000000E+00  0.00000000000E+00  0.74505805969E-08  0.10566000000E+00  0.10566000000E+00 0. -1.
     999900   -1    0    0    0    0 -0.00000000000E+00 -0.00000000000E+00 -0.74505805969E-08  0.93827000000E+00  0.93827000000E+00 0.  1.
     999902    2    1    2    0    0 -0.17337099327E-01  0.16434003262E-01 -0.30946085612E-02  0.10198420761E+01  0.10195575668E+01 0.  0.
     999903    2    3    3    0    0  0.57659050888E-01  0.48110094839E-01  0.10412721819E+00  0.12960372741E+00  0.17762353865E-01 0.  0.
         14    1    1    2    0    0  0.17337099327E-01 -0.16434003262E-01  0.30946085612E-02  0.24087923913E-01  0.00000000000E+00 0. -1.
     999901    1    3    3    0    0 -0.74996150215E-01 -0.31676091577E-01 -0.10722182676E+00  0.89023834868E+00  0.88000000000E+00 0.  1.
        -11    1    4    4    0    0  0.42812473459E-01  0.43590610574E-01  0.76433443196E-01  0.97853878685E-01  0.51100000000E-03 0.  1.
         11    1    4    4    0    0  0.14846577428E-01  0.45194842653E-02  0.27693774999E-01  0.31749848724E-01  0.51100000000E-03 0. -1.
</event>
<event>
 8    1  0.1114686E+005  0.1043930E+01  0.7957747E-01            NaN
         13   -1    0    0    0    0  0.00000000000E+00  0.00000000000E+00  0.74505805969E-08  0.10566000000E+00  0.10566000000E+00 0. -1.
     999900   -1    0    0    0    0 -0.00000000000E+00 -0.00000000000E+00 -0.74505805969E-08  0.93827000000E+00  0.93827000000E+00 0. -1.
     999902    2    1    2    0    0 -0.12246659122E-01  0.69860690596E-02  0.19257246694E-01  0.10200631324E+01  0.10197838823E+01 0.  0.
     999903    2    3    3    0    0  0.37280601289E-01 -0.11845764234E+00 -0.26593819850E-01  0.12860848149E+00  0.20269533724E-01 0.  0.
         14    1    1    2    0    0  0.12246659122E-01 -0.69860690596E-02 -0.19257246694E-01  0.23866867637E-01  0.00000000000E+00 0.  1.
     999901    1    3    3    0    0 -0.49527260411E-01  0.12544371140E+00  0.45851066545E-01  0.89145465087E+00  0.88000000000E+00 0.  1.
        -11    1    4    4    0    0  0.21843980161E-02 -0.35942315798E-01 -0.48300007023E-02  0.36334717384E-01  0.51100000000E-03 0.  1.
         11    1    4    4    0    0  0.35096203272E-01 -0.82515326539E-01 -0.21763819148E-01  0.92273764109E-01  0.51100000000E-03 0. -1.
</event>
<event>
 8    1  0.1114686E+005  0.1043930E+01  0.7957747E-01            NaN
         13   -1    0    0    0    0  0.00000000000E+00  0.00000000000E+00  0.74505805969E-08  0.10566000000E+00  0.10566000000E+00 0. -1.
     999900   -1    0    0    0    0 -0.00000000000E+00 -0.00000000000E+00 -0.74505805969E-08  0.93827000000E+00  0.93827000000E+00 0.  1.
     999902    2    1    2    0    0 -0.14010911058E-01 -0.56771236522E-02  0.18986525270E-01  0.10196601936E+01  0.10193713194E+01 0.  0.
     999903    2    3    3    0    0 -0.81135309859E-01  0.14228264504E-01  0.10254450405E+00  0.13293371647E+00  0.19251380396E-01 0.  0.
         14    1    1    2    0    0  0.14010911058E-01  0.56771236522E-02 -0.18986525270E-01  0.24269806416E-01  0.00000000000E+00 0.  1.
     999901    1    3    3    0    0  0.67124398800E-01 -0.19905388156E-01 -0.83557978783E-01  0.88672647711E+00  0.88000000000E+00 0. -1.
        -11    1    4    4    0    0 -0.56108106801E-01  0.41730622724E-02  0.79841650157E-01  0.97675402832E-01  0.51100000000E-03 0.  1.
         11    1    4    4    0    0 -0.25027203057E-01  0.10055202231E-01  0.22702853896E-01  0.35258313641E-01  0.51100000000E-03 0. -1.
</event>
<event>
 8    1  0.1114686E+005  0.1043930E+01  0.7957747E-01            NaN
         13   -1    0    0    0    0  0.00000000000E+00  0.00000000000E+00  0.74505805969E-08  0.10566000000E+00  0.10566000000E+00 0.  1.
     999900   -1    0    0    0    0 -0.00000000000E+00 -0.00000000000E+00 -0.74505805969E-08  0.93827000000E+00  0.93827000000E+00 0.  1.
     999902    2    1    2    0    0  0.12562631400E-01 -0.19492692854E-01  0.26164313528E-02  0.10205926802E+01  0.10203258246E+01 0.  0.
     999903    2    3    3    0    0 -0.37296017666E-02 -0.64207693608E-01  0.11438698212E+00  0.13224729457E+00  0.16383753970E-01 0.  0.
         14    1    1    2    0    0 -0.12562631400E-01  0.19492692854E-01 -0.26164313528E-02  0.23337319800E-01  0.00000000000E+00 0.  1.
     999901    1    3    3    0    0  0.16292233167E-01  0.44715000754E-01 -0.11177055077E+00  0.88834538563E+00  0.88000000000E+00 0.  1.
        -11    1    4    4    0    0  0.42166613302E-02 -0.38071678394E-01  0.76265376224E-01  0.85345777049E-01  0.51100000000E-03 0. -1.
         11    1    4    4    0    0 -0.79462630968E-02 -0.26136015214E-01  0.38121605897E-01  0.46901517519E-01  0.51100000000E-03 0.  1.
</event>
<event>
 8    1  0.3538883E+005  0.1043930E+01  0.7957747E-01            NaN
         13   -1    0    0    0    0  0.00000000000E+00  0.00000000000E+00  0.74505805969E-08  0.10566000000E+00  0.10566000000E+00 0.  1.
     999900   -1    0    0    0    0 -0.00000000000E+00 -0.00000000000E+00 -0.74505805969E-08  0.93827000000E+00  0.93827000000E+00 0. -1.
     999902    2    1    2    0    0 -0.18995483983E-01  0.15307806486E-01  0.49118980059E-02  0.10190445807E+01  0.10187406801E+01 0.  0.
     999903    2    3    3    0    0  0.95160633383E-01  0.88279780487E-02 -0.78997880246E-01  0.12768917561E+00  0.30502149815E-01 0.  0.
         14    1    1    2    0    0  0.18995483983E-01 -0.15307806486E-01 -0.49118980059E-02  0.24885419289E-01  0.00000000000E+00 0. -1.
     999901    1    3    3    0    0 -0.11415611737E+00  0.64798284375E-02  0.83909778252E-01  0.89135540510E+00  0.88000000000E+00 0.  1.
        -11    1    4    4    0    0  0.47504139701E-01  0.10441139278E-01 -0.22030401300E-01  0.53397194501E-01  0.51100000000E-03 0.  1.
         11    1    4    4    0    0  0.47656493682E-01 -0.16131612289E-02 -0.56967478947E-01  0.74291981114E-01  0.51100000000E-03 0. -1.
</event>
<event>
 8    1  0.1114686E+005  0.1043930E+01  0.7957747E-01            NaN
         13   -1    0    0    0    0  0.00000000000E+00  0.00000000000E+00  0.74505805969E-08  0.10566000000E+00  0.10566000000E+00 0.  1.
     999900   -1    0    0    0    0 -0.00000000000E+00 -0.00000000000E+00 -0.74505805969E-08  0.93827000000E+00  0.93827000000E+00 0. -1.
     999902    2    1    2    0    0  0.24419453698E-01 -0.89912637296E-02 -0.15027541880E-01  0.10138803817E+01  0.10134349752E+01 0.  0.
     999903    2    3    3    0    0  0.60848452090E-01  0.93183385582E-01 -0.56303094590E-01  0.12625974085E+00  0.19641950751E-01 0.  0.
         14    1    1    2    0    0 -0.24419453698E-01  0.89912637296E-02  0.15027541880E-01  0.30049618256E-01  0.00000000000E+00 0.  1.
     999901    1    3    3    0    0 -0.36428998391E-01 -0.10217464931E+00  0.41275552710E-01  0.88762064089E+00  0.88000000000E+00 0.  1.
        -11    1    4    4    0    0  0.55436269179E-01  0.70886197106E-01 -0.43050886446E-01  0.99758071480E-01  0.51100000000E-03 0. -1.
         11    1    4    4    0    0  0.54121829105E-02  0.22297188476E-01 -0.13252208144E-01  0.26501669372E-01  0.51100000000E-03 0.  1.
</event>
<event>
 8    1  0.1114686E+005  0.1043930E+01  0.7957747E-01            NaN
         13   -1    0    0    0    0  0.00000000000E+00  0.00000000000E+00  0.74505805969E-08  0.10566000000E+00  0.10566000000E+00 0.  1.
     999900   -1    0    0    0    0 -0.00000000000E+00 -0.00000000000E+00 -0.74505805969E-08  0.93827000000E+00  0.93827000000E+00 0. -1.
     999902    2    1    2    0    0  0.17090057921E-01 -0.16789857958E-01  0.75642261469E-03  0.10199604029E+01  0.10196787150E+01 0.  0.
     999903    2    3    3    0    0  0.12454289987E+00  0.34164850501E-01  0.16730955878E-01  0.13181757583E+00  0.20439606036E-01 0.  0.
         14    1    1    2    0    0 -0.17090057921E-01  0.16789857958E-01 -0.75642261469E-03  0.23969597101E-01  0.00000000000E+00 0.  1.
     999901    1    3    3    0    0 -0.10745284195E+00 -0.50954708459E-01 -0.15974533263E-01  0.88814282707E+00  0.88000000000E+00 0.  1.
        -11    1    4    4    0    0  0.11500145555E+00  0.36214457233E-01  0.18198568305E-01  0.12193551862E+00  0.51100000000E-03 0.  1.
         11    1    4    4    0    0  0.95414443236E-02 -0.20496067323E-02 -0.14676124271E-02  0.98820572136E-02  0.51100000000E-03 0. -1.
</event>
<event>
 8    1  0.1114686E+005  0.1043930E+01  0.7957747E-01            NaN
         13   -1    0    0    0    0  0.00000000000E+00  0.00000000000E+00  0.74505805969E-08  0.10566000000E+00  0.10566000000E+00 0. -1.
     999900   -1    0    0    0    0 -0.00000000000E+00 -0.00000000000E+00 -0.74505805969E-08  0.93827000000E+00  0.93827000000E+00 0.  1.
     999902    2    1    2    0    0  0.12446486803E-01 -0.17531322099E-01 -0.86974633000E-02  0.10207371529E+01  0.10204736288E+01 0.  0.
     999903    2    3    3    0    0  0.12580668511E+00  0.29361119876E-01 -0.19223126586E-01  0.13216513824E+00  0.20216275412E-01 0.  0.
         14    1    1    2    0    0 -0.12446486803E-01  0.17531322099E-01  0.86974633000E-02  0.23192847090E-01  0.00000000000E+00 0. -1.
     999901    1    3    3    0    0 -0.11336019830E+00 -0.46892441976E-01  0.10525663287E-01  0.88857201467E+00  0.88000000000E+00 0.  1.
        -11    1    4    4    0    0  0.57084725445E-01  0.55005486289E-02 -0.18999271365E-02  0.57382861191E-01  0.51100000000E-03 0. -1.
         11    1    4    4    0    0  0.68721959660E-01  0.23860571248E-01 -0.17323199450E-01  0.74782277045E-01  0.51100000000E-03 0.  1.
</event>
<event>
 8    1  0.1114686E+005  0.1043930E+01  0.7957747E-01            NaN
         13   -1    0    0    0    0  0.00000000000E+00  0.00000000000E+00  0.74505805969E-08  0.10566000000E+00  0.10566000000E+00 0. -1.
     999900   -1    0    0    0    0 -0.00000000000E+00 -0.00000000000E+00 -0.74505805969E-08  0.93827000000E+00  0.93827000000E+00 0. -1.
     999902    2    1    2    0    0 -0.10696642772E-01  0.21676005724E-01 -0.27791372368E-02  0.10195991349E+01  0.10193087878E+01 0.  0.
     999903    2    3    3    0    0  0.36460449398E-01 -0.27834133891E-01  0.11826660388E+00  0.12868549339E+00  0.21653249976E-01 0.  0.
         14    1    1    2    0    0  0.10696642772E-01 -0.21676005724E-01  0.27791372368E-02  0.24330865059E-01  0.00000000000E+00 0. -1.
     999901    1    3    3    0    0 -0.47157092170E-01  0.49510139615E-01 -0.12104574112E+00  0.89091364156E+00  0.88000000000E+00 0.  1.
        -11    1    4    4    0    0  0.21431822500E-01 -0.18386728226E-01  0.96743575234E-01  0.10078182009E+00  0.51100000000E-03 0.  1.
         11    1    4    4    0    0  0.15028626899E-01 -0.94474056652E-02  0.21523028647E-01  0.27903673296E-01  0.51100000000E-03 0. -1.
</event>
<event>
 8    1  0.1114686E+005  0.1043930E+01  0.7957747E-01            NaN
         13   -1    0    0    0    0  0.00000000000E+00  0.00000000000E+00  0.74505805969E-08  0.10566000000E+00  0.10566000000E+00 0. -1.
     999900   -1    0    0    0    0 -0.00000000000E+00 -0.00000000000E+00 -0.74505805969E-08  0.93827000000E+00  0.93827000000E+00 0. -1.
     999902    2    1    2    0    0  0.11824280091E-02 -0.23207206105E-01 -0.46658395476E-03  0.10206880067E+01  0.10204233518E+01 0.  0.
     999903    2    3    3    0    0 -0.13581705855E-01 -0.89988653118E-01  0.94764364451E-01  0.13291175402E+00  0.20070604461E-01 0.  0.
         14    1    1    2    0    0 -0.11824280091E-02  0.23207206105E-01  0.46658395476E-03  0.23241993283E-01  0.00000000000E+00 0.  1.
     999901    1    3    3    0    0  0.14764133865E-01  0.66781447013E-01 -0.95230948406E-01  0.88777625269E+00  0.88000000000E+00 0. -1.
        -11    1    4    4    0    0 -0.98972219592E-02 -0.31334323462E-01  0.46055257899E-01  0.56578641999E-01  0.51100000000E-03 0.  1.
         11    1    4    4    0    0 -0.36844838963E-02 -0.58654329656E-01  0.48709106552E-01  0.76333112023E-01  0.51100000000E-03 0. -1.
</event>
<event>
 8    1  0.1114686E+005  0.1043930E+01  0.7957747E-01            NaN
         13   -1    0    0    0    0  0.00000000000E+00  0.00000000000E+00  0.74505805969E-08  0.10566000000E+00  0.10566000000E+00 0. -1.
     999900   -1    0    0    0    0 -0.00000000000E+00 -0.00000000000E+00 -0.74505805969E-08  0.93827000000E+00  0.93827000000E+00 0. -1.
     999902    2    1    2    0    0  0.85095218531E-02 -0.11070783596E-01  0.19191864173E-01  0.10201960188E+01  0.10199199062E+01 0.  0.
     999903    2    3    3    0    0  0.35897720669E-01 -0.97958373350E-01  0.80751114010E-01  0.13335380743E+00  0.19442383681E-01 0.  0.
         14    1    1    2    0    0 -0.85095218531E-02  0.11070783596E-01 -0.19191864173E-01  0.23733981167E-01  0.00000000000E+00 0.  1.
     999901    1    3    3    0    0 -0.27388198816E-01  0.86887589755E-01 -0.61559249837E-01  0.88684221140E+00  0.88000000000E+00 0. -1.
        -11    1    4    4    0    0  0.12571613315E-01 -0.13314940928E-01  0.13431799640E-01  0.22715797935E-01  0.51100000000E-03 0.  1.
         11    1    4    4    0    0  0.23326107355E-01 -0.84643432422E-01  0.67319314370E-01  0.11063800949E+00  0.51100000000E-03 0. -1.
</event>
<event>
 8    1  0.1114686E+005  0.1043930E+01  0.7957747E-01            NaN
         13   -1    0    0    0    0  0.00000000000E+00  0.00000000000E+00  0.74505805969E-08  0.10566000000E+00  0.10566000000E+00 0.  1.
     999900   -1    0    0    0    0 -0.00000000000E+00 -0.00000000000E+00 -0.74505805969E-08  0.93827000000E+00  0.93827000000E+00 0.  1.
     999902    2    1    2    0    0  0.16727580032E-01  0.76325526468E-02 -0.15029488656E-01  0.10201822986E+01  0.10199058628E+01 0.  0.
     999903    2    3    3    0    0  0.74341128256E-01 -0.98073887121E-01 -0.41936015750E-01  0.13157826215E+00  0.20226689521E-01 0.  0.
         14    1    1    2    0    0 -0.16727580032E-01 -0.76325526468E-02  0.15029488656E-01  0.23747701423E-01  0.00000000000E+00 0.  1.
     999901    1    3    3    0    0 -0.57613548223E-01  0.10570643977E+00  0.26906527095E-01  0.88860403642E+00  0.88000000000E+00 0. -1.
        -11    1    4    4    0    0  0.61077858470E-01 -0.90184943581E-01 -0.33363339516E-01  0.11391752450E+00  0.51100000000E-03 0. -1.
         11    1    4    4    0    0  0.13263269786E-01 -0.78889435404E-02 -0.85726762343E-02  0.17660737652E-01  0.51100000000E-03 0.  1.
</event>
<event>
 8    1  0.1114686E+005  0.1043930E+01  0.7957747E-01            NaN
         13   -1    0    0    0    0  0.00000000000E+00  0.00000000000E+00  0.74505805969E-08  0.10566000000E+00  0.10566000000E+00 0. -1.
     999900   -1    0    0    0    0 -0.00000000000E+00 -0.00000000000E+00 -0.74505805969E-08  0.93827000000E+00  0.93827000000E+00 0. -1.
     999902    2    1    2    0    0 -0.43333754706E-02 -0.22798546140E-01 -0.17379025417E-02  0.10206582971E+01  0.10203929573E+01 0.  0.
     999903    2    3    3    0    0  0.74516024286E-01  0.85020651067E-01  0.57659901666E-01  0.12859871041E+00  0.20780160599E-01 0.  0.
         14    1    1    2    0    0  0.43333754706E-02  0.22798546140E-01  0.17379025417E-02  0.23271702866E-01  0.00000000000E+00 0. -1.
     999901    1    3    3    0    0 -0.78849399757E-01 -0.10781919721E+00 -0.59397804208E-01  0.89205958673E+00  0.88000000000E+00 0. -1.
        -11    1    4    4    0    0  0.39573857835E-01  0.36714084952E-01  0.37217272956E-01  0.65569816113E-01  0.51100000000E-03 0.  1.
         11    1    4    4    0    0  0.34942166451E-01  0.48306566116E-01  0.20442628710E-01  0.63028894293E-01  0.51100000000E-03 0. -1.
</event>
<event>
 8    1  0.1114686E+005  0.1043930E+01  0.7957747E-01            NaN
         13   -1    0    0    0    0  0.00000000000E+00  0.00000000000E+00  0.74505805969E-08  0.10566000000E+00  0.10566000000E+00 0. -1.
     999900   -1    0    0    0    0 -0.00000000000E+00 -0.00000000000E+00 -0.74505805969E-08  0.93827000000E+00  0.93827000000E+00 0.  1.
     999902    2    1    2    0    0 -0.21001415098E-01  0.39292139319E-02 -0.10011094028E-01  0.10203350819E+01  0.10200622330E+01 0.  0.
     999903    2    3    3    0    0 -0.12442275544E-01  0.27365061146E-01  0.12441309492E+00  0.12977775054E+00  0.21447367106E-01 0.  0.
         14    1    1    2    0    0  0.21001415098E-01 -0.39292139319E-02  0.10011094028E-01  0.23594918136E-01  0.00000000000E+00 0. -1.
     999901    1    3    3    0    0 -0.85591395536E-02 -0.23435847214E-01 -0.13442418894E+00  0.89055733133E+00  0.88000000000E+00 0.  1.
        -11    1    4    4    0    0 -0.13602442241E-01  0.30573703618E-01  0.11185173716E+00  0.11675123131E+00  0.51100000000E-03 0.  1.
         11    1    4    4    0    0  0.11601666972E-02 -0.32086424715E-02  0.12561357761E-01  0.13026519223E-01  0.51100000000E-03 0. -1.
</event>
<event>
 8    1  0.1114686E+005  0.1043930E+01  0.7957747E-01            NaN
         13   -1    0    0    0    0  0.00000000000E+00  0.00000000000E+00  0.74505805969E-08  0.10566000000E+00  0.10566000000E+00 0. -1.
     999900   -1    0    0    0    0 -0.00000000000E+00 -0.00000000000E+00 -0.74505805969E-08  0.93827000000E+00  0.93827000000E+00 0.  1.
     999902    2    1    2    0    0 -0.74346274779E-02 -0.20912065772E-01  0.86047793567E-02  0.10201260002E+01  0.10198482366E+01 0.  0.
     999903    2    3    3    0    0 -0.41831702802E-01 -0.10642711931E+00  0.66095380239E-01  0.13344615243E+00  0.19043456253E-01 0.  0.
         14    1    1    2    0    0  0.74346274779E-02  0.20912065772E-01 -0.86047793567E-02  0.23803999840E-01  0.00000000000E+00 0. -1.
     999901    1    3    3    0    0  0.34397075324E-01  0.85515053541E-01 -0.57490600882E-01  0.88667984773E+00  0.88000000000E+00 0.  1.
        -11    1    4    4    0    0 -0.31489007942E-01 -0.74278838196E-01  0.36550850378E-01  0.88572734006E-01  0.51100000000E-03 0. -1.
         11    1    4    4    0    0 -0.10342694860E-01 -0.32148281117E-01  0.29544529861E-01  0.44873418428E-01  0.51100000000E-03 0.  1.
</event>
<event>
 8    1  0.1114686E+005  0.1043930E+01  0.7957747E-01            NaN
         13   -1    0    0    0    0  0.00000000000E+00  0.00000000000E+00  0.74505805969E-08  0.10566000000E+00  0.10566000000E+00 0. -1.
     999900   -1    0    0    0    0 -0.00000000000E+00 -0.00000000000E+00 -0.74505805969E-08  0.93827000000E+00  0.93827000000E+00 0. -1.
     999902    2    1    2    0    0  0.14999121179E-01  0.16666779541E-01 -0.66120203566E-02  0.10205532169E+01  0.10202854475E+01 0.  0.
     999903    2    3    3    0    0 -0.64024428274E-01 -0.60978632739E-01 -0.92857419396E-01  0.12942370873E+00  0.17620300180E-01 0.  0.
         14    1    1    2    0    0 -0.14999121179E-01 -0.16666779541E-01  0.66120203566E-02  0.23376783132E-01  0.00000000000E+00 0. -1.
     999901    1    3    3    0    0  0.79023549452E-01  0.77645412280E-01  0.86245399040E-01  0.89112950814E+00  0.88000000000E+00 0.  1.
        -11    1    4    4    0    0 -0.42035974026E-01 -0.28084676207E-01 -0.50472826486E-01  0.71439061335E-01  0.51100000000E-03 0.  1.
         11    1    4    4    0    0 -0.21988454247E-01 -0.32893956531E-01 -0.42384592910E-01  0.57984647396E-01  0.51100000000E-03 0. -1.
</event>
<event>
 8    1  0.1114686E+005  0.1043930E+01  0.7957747E-01            NaN
         13   -1    0    0    0    0  0.00000000000E+00  0.00000000000E+00  0.74505805969E-08  0.10566000000E+00  0.10566000000E+00 0.  1.
     999900   -1    0    0    0    0 -0.00000000000E+00 -0.00000000000E+00 -0.74505805969E-08  0.93827000000E+00  0.93827000000E+00 0.  1.
     999902    2    1    2    0    0  0.89967132225E-02 -0.18368040213E-01  0.13070786764E-01  0.10196571506E+01  0.10193682032E+01 0.  0.
     999903    2    3    3    0    0  0.17354312172E-01 -0.40207410284E-01 -0.12011485676E+00  0.12932843426E+00  0.19505309568E-01 0.  0.
         14    1    1    2    0    0 -0.89967132225E-02  0.18368040213E-01 -0.13070786764E-01  0.24272849373E-01  0.00000000000E+00 0.  1.
     999901    1    3    3    0    0 -0.83575989490E-02  0.21839370071E-01  0.13318564352E+00  0.89032871637E+00  0.88000000000E+00 0. -1.
        -11    1    4    4    0    0  0.20640478709E-01 -0.26572364360E-01 -0.90573908256E-01  0.96623050494E-01  0.51100000000E-03 0. -1.
         11    1    4    4    0    0 -0.32861665371E-02 -0.13635045924E-01 -0.29540948503E-01  0.32705383766E-01  0.51100000000E-03 0.  1.
</event>
<event>
 8    1  0.1114686E+005  0.1043930E+01  0.7957747E-01            NaN
         13   -1    0    0    0    0  0.00000000000E+00  0.00000000000E+00  0.74505805969E-08  0.10566000000E+00  0.10566000000E+00 0. -1.
     999900   -1    0    0    0    0 -0.00000000000E+00 -0.00000000000E+00 -0.74505805969E-08  0.93827000000E+00  0.93827000000E+00 0. -1.
     999902    2    1    2    0    0  0.17345955874E-01  0.10738853843E-02  0.15361651449E-01  0.10207348335E+01  0.10204712561E+01 0.  0.
     999903    2    3    3    0    0 -0.62222764782E-01  0.99228871023E-01 -0.51286148832E-01  0.12921505703E+00  0.18660669834E-01 0.  0.
         14    1    1    2    0    0 -0.17345955874E-01 -0.10738853843E-02 -0.15361651449E-01  0.23195166527E-01  0.00000000000E+00 0.  1.
     999901    1    3    3    0    0  0.79568720656E-01 -0.98154985639E-01  0.66647800281E-01  0.89151977645E+00  0.88000000000E+00 0. -1.
        -11    1    4    4    0    0 -0.35854421561E-01  0.40314402372E-01 -0.20726429487E-01  0.57798240323E-01  0.51100000000E-03 0. -1.
         11    1    4    4    0    0 -0.26368343221E-01  0.58914468651E-01 -0.30559719345E-01  0.71416816704E-01  0.51100000000E-03 0.  1.
</event>
<event>
 8    1  0.1114686E+005  0.1043930E+01  0.7957747E-01            NaN
         13   -1    0    0    0    0  0.00000000000E+00  0.00000000000E+00  0.74505805969E-08  0.10566000000E+00  0.10566000000E+00 0. -1.
     999900   -1    0    0    0    0 -0.00000000000E+00 -0.00000000000E+00 -0.74505805969E-08  0.93827000000E+00  0.93827000000E+00 0. -1.
     999902    2    1    2    0    0  0.15149304495E-01 -0.16258207859E-01 -0.88557749507E-02  0.10200081376E+01  0.10197275839E+01 0.  0.
     999903    2    3    3    0    0  0.13585167901E-01 -0.12861265570E+00  0.22651509940E-01  0.13230397662E+00  0.16293536553E-01 0.  0.
         14    1    1    2    0    0 -0.15149304495E-01  0.16258207859E-01  0.88557749507E-02  0.23921862374E-01  0.00000000000E+00 0. -1.
     999901    1    3    3    0    0  0.15641365949E-02  0.11235444784E+00 -0.31507284891E-01  0.88770416101E+00  0.88000000000E+00 0. -1.
        -11    1    4    4    0    0  0.50460011696E-03 -0.43783965092E-01  0.14301012938E-01  0.46065934404E-01  0.51100000000E-03 0. -1.
         11    1    4    4    0    0  0.13080567784E-01 -0.84828690606E-01  0.83504970022E-02  0.86238042213E-01  0.51100000000E-03 0.  1.
</event>
<event>
 8    1  0.1114686E+005  0.1043930E+01  0.7957747E-01            NaN
         13   -1    0    0    0    0  0.00000000000E+00  0.00000000000E+00  0.74505805969E-08  0.10566000000E+00  0.10566000000E+00 0.  1.
     999900   -1    0    0    0    0 -0.00000000000E+00 -0.00000000000E+00 -0.74505805969E-08  0.93827000000E+00  0.93827000000E+00 0.  1.
     999902    2    1    2    0    0  0.94931414514E-02 -0.20539618786E-01 -0.74875617857E-02  0.10200960063E+01  0.10198175341E+01 0.  0.
     999903    2    3    3    0    0  0.55149801233E-01 -0.13452660182E-01  0.11544283067E+00  0.13035074109E+00  0.21018894045E-01 0.  0.
         14    1    1    2    0    0 -0.94931414514E-02  0.20539618786E-01  0.74875617857E-02  0.23833993706E-01  0.00000000000E+00 0. -1.
     999901    1    3    3    0    0 -0.45656659782E-01 -0.70869586044E-02 -0.12293039246E+00  0.88974526520E+00  0.88000000000E+00 0.  1.
        -11    1    4    4    0    0  0.24095698196E-01 -0.16653410607E-01  0.57350760514E-01  0.64399608764E-01  0.51100000000E-03 0.  1.
         11    1    4    4    0    0  0.31054103037E-01  0.32007504255E-02  0.58092070158E-01  0.65951132325E-01  0.51100000000E-03 0. -1.
</event>
<event>
 8    1  0.1114686E+005  0.1043930E+01  0.7957747E-01            NaN
         13   -1    0    0    0    0  0.00000000000E+00  0.00000000000E+00  0.74505805969E-08  0.10566000000E+00  0.10566000000E+00 0. -1.
     999900   -1    0    0    0    0 -0.00000000000E+00 -0.00000000000E+00 -0.74505805969E-08  0.93827000000E+00  0.93827000000E+00 0. -1.
     999902    2    1    2    0    0  0.14614416465E-01  0.16001115570E-01 -0.84929657830E-03  0.10222427186E+01  0.10220126406E+01 0.  0.
     999903    2    3    3    0    0 -0.11347780476E+00  0.92782360906E-02  0.61597954044E-01  0.13075381049E+00  0.18410681025E-01 0.  0.
         14    1    1    2    0    0 -0.14614416465E-01 -0.16001115570E-01  0.84929657830E-03  0.21687281359E-01  0.00000000000E+00 0.  1.
     999901    1    3    3    0    0  0.12809222123E+00  0.67228794789E-02 -0.62447250622E-01  0.89148890815E+00  0.88000000000E+00 0. -1.
        -11    1    4    4    0    0 -0.63036728240E-01  0.14271589443E-01  0.33623154901E-01  0.72856606008E-01  0.51100000000E-03 0.  1.
         11    1    4    4    0    0 -0.50441076525E-01 -0.49933533527E-02  0.27974799142E-01  0.57897204481E-01  0.51100000000E-03 0. -1.
</event>
<event>
 8    1  0.1114686E+005  0.1043930E+01  0.7957747E-01            NaN
         13   -1    0    0    0    0  0.00000000000E+00  0.00000000000E+00  0.74505805969E-08  0.10566000000E+00  0.10566000000E+00 0.  1.
     999900   -1    0    0    0    0 -0.00000000000E+00 -0.00000000000E+00 -0.74505805969E-08  0.93827000000E+00  0.93827000000E+00 0. -1.
     999902    2    1    2    0    0 -0.21312772674E-01 -0.94085670043E-02 -0.28864747218E-02  0.10204547546E+01  0.10201846985E+01 0.  0.
     999903    2    3    3    0    0  0.53724005808E-01 -0.62596593157E-01 -0.99121412413E-01  0.13044315493E+00  0.19640773748E-01 0.  0.
         14    1    1    2    0    0  0.21312772674E-01  0.94085670043E-02  0.28864747218E-02  0.23475245440E-01  0.00000000000E+00 0.  1.
     999901    1    3    3    0    0 -0.75036778482E-01  0.53188026153E-01  0.96234937691E-01  0.89001159963E+00  0.88000000000E+00 0.  1.
        -11    1    4    4    0    0  0.88680933385E-02 -0.23624334134E-01 -0.32958974340E-01  0.41512737241E-01  0.51100000000E-03 0.  1.
         11    1    4    4    0    0  0.44855912469E-01 -0.38972259023E-01 -0.66162438073E-01  0.88930417685E-01  0.51100000000E-03 0. -1.
</event>
<event>
 8    1  0.1114686E+005  0.1043930E+01  0.7957747E-01            NaN
         13   -1    0    0    0    0  0.00000000000E+00  0.00000000000E+00  0.74505805969E-08  0.10566000000E+00  0.10566000000E+00 0. -1.
     999900   -1    0    0    0    0 -0.00000000000E+00 -0.00000000000E+00 -0.74505805969E-08  0.93827000000E+00  0.93827000000E+00 0.  1.
     999902    2    1    2    0    0  0.15178199546E-01 -0.16296221104E-01  0.67823229351E-02  0.10206502992E+01  0.10203847749E+01 0.  0.
     999903    2    3    3    0    0  0.92252630236E-01 -0.94730633311E-01 -0.37753345430E-02  0.13374337682E+00  0.19712864296E-01 0.  0.
         14    1    1    2    0    0 -0.15178199546E-01  0.16296221104E-01 -0.67823229351E-02  0.23279700774E-01  0.00000000000E+00 0.  1.
     999901    1    3    3    0    0 -0.77074430690E-01  0.78434412207E-01  0.10557657478E-01  0.88690692241E+00  0.88000000000E+00 0.  1.
        -11    1    4    4    0    0  0.48397735246E-01 -0.51006808364E-01  0.77802932152E-02  0.70744818609E-01  0.51100000000E-03 0.  1.
         11    1    4    4    0    0  0.43854894990E-01 -0.43723824947E-01 -0.11555627758E-01  0.62998558209E-01  0.51100000000E-03 0. -1.
</event>
<event>
 8    1  0.1114686E+005  0.1043930E+01  0.7957747E-01            NaN
         13   -1    0    0    0    0  0.00000000000E+00  0.00000000000E+00  0.74505805969E-08  0.10566000000E+00  0.10566000000E+00 0. -1.
     999900   -1    0    0    0    0 -0.00000000000E+00 -0.00000000000E+00 -0.74505805969E-08  0.93827000000E+00  0.93827000000E+00 0.  1.
     999902    2    1    2    0    0  0.19605833959E-01 -0.86508007088E-02 -0.10017028624E-01  0.10202748538E+01  0.10200005938E+01 0.  0.
     999903    2    3    3    0    0 -0.10478341888E+00  0.60258047170E-01 -0.38268780614E-01  0.12841204093E+00  0.20360637645E-01 0.  0.
         14    1    1    2    0    0 -0.19605833959E-01  0.86508007088E-02  0.10017028624E-01  0.23655146175E-01  0.00000000000E+00 0. -1.
     999901    1    3    3    0    0  0.12438925284E+00 -0.68908847878E-01  0.28251751990E-01  0.89186281290E+00  0.88000000000E+00 0. -1.
        -11    1    4    4    0    0 -0.36262660034E-01  0.10242648127E-01 -0.99597254165E-02  0.38978835344E-01  0.51100000000E-03 0. -1.
         11    1    4    4    0    0 -0.68520758843E-01  0.50015399043E-01 -0.28309055198E-01  0.89433205585E-01  0.51100000000E-03 0.  1.
</event>
<event>
 8    1  0.1114686E+005  0.1043930E+01  0.7957747E-01            NaN
         13   -1    0    0    0    0  0.00000000000E+00  0.00000000000E+00  0.74505805969E-08  0.10566000000E+00  0.10566000000E+00 0.  1.
     999900   -1    0    0    0    0 -0.00000000000E+00 -0.00000000000E+00 -0.74505805969E-08  0.93827000000E+00  0.93827000000E+00 0.  1.
     999902    2    1    2    0    0 -0.97094881961E-02 -0.17729588235E-01  0.45021445102E-02  0.10232205392E+01  0.10230109433E+01 0.  0.
     999903    2    3    3    0    0 -0.74803814005E-01  0.33965416638E-01  0.10382219709E+00  0.13374084996E+00  0.18928978408E-01 0.  0.
         14    1    1    2    0    0  0.97094881961E-02  0.17729588235E-01 -0.45021445102E-02  0.20709460766E-01  0.00000000000E+00 0.  1.
     999901    1    3    3    0    0  0.65094325809E-01 -0.51695004873E-01 -0.99320052578E-01  0.88947968927E+00  0.88000000000E+00 0.  1.
        -11    1    4    4    0    0 -0.59258094121E-01  0.34290356749E-01  0.88640255847E-01  0.11200315336E+00  0.51100000000E-03 0. -1.
         11    1    4    4    0    0 -0.15545719884E-01 -0.32494011069E-03  0.15181941241E-01  0.21737696604E-01  0.51100000000E-03 0.  1.
</event>
<event>
 8    1  0.1114686E+005  0.1043930E+01  0.7957747E-01            NaN
         13   -1    0    0    0    0  0.00000000000E+00  0.00000000000E+00  0.74505805969E-08  0.10566000000E+00  0.10566000000E+00 0.  1.
     999900   -1    0    0    0    0 -0.00000000000E+00 -0.00000000000E+00 -0.74505805969E-08  0.93827000000E+00  0.93827000000E+00 0. -1.
     999902    2    1    2    0    0  0.17007152100E-01  0.15900554719E-01  0.41414179718E-02  0.10202821205E+01  0.10200080309E+01 0.  0.
     999903    2    3    3    0    0  0.12552921930E+00 -0.36368510486E-01 -0.45587597254E-02  0.13203396409E+00  0.18218999098E-01 0.  0.
         14    1    1    2    0    0 -0.17007152100E-01 -0.15900554719E-01 -0.41414179718E-02  0.23647879519E-01  0.00000000000E+00 0.  1.
     999901    1    3    3    0    0 -0.10852206720E+00  0.52269065205E-01  0.87001776972E-02  0.88824815640E+00  0.88000000000E+00 0.  1.
        -11    1    4    4    0    0  0.52484350447E-01 -0.22375150724E-01  0.38407806348E-02  0.57186249472E-01  0.51100000000E-03 0.  1.
         11    1    4    4    0    0  0.73044868856E-01 -0.13993359761E-01 -0.83995403601E-02  0.74847714614E-01  0.51100000000E-03 0. -1.
</event>
<event>
 8    1  0.1114686E+005  0.1043930E+01  0.7957747E-01            NaN
         13   -1    0    0    0    0  0.00000000000E+00  0.00000000000E+00  0.74505805969E-08  0.10566000000E+00  0.10566000000E+00 0.  1.
     999900   -1    0    0    0    0 -0.00000000000E+00 -0.00000000000E+00 -0.74505805969E-08  0.93827000000E+00  0.93827000000E+00 0. -1.
     999902    2    1    2    0    0  0.18831583417E-02 -0.61781397361E-02 -0.22952411426E-01  0.10200861562E+01  0.10198074511E+01 0.  0.
     999903    2    3    3    0    0  0.58617810909E-01 -0.11378034511E+00 -0.10474731242E-01  0.13163089685E+00  0.28895645372E-01 0.  0.
         14    1    1    2    0    0 -0.18831583417E-02  0.61781397361E-02  0.22952411426E-01  0.23843843780E-01  0.00000000000E+00 0.  1.
     999901    1    3    3    0    0 -0.56734652568E-01  0.10760220537E+00 -0.12477680184E-01  0.88845525937E+00  0.88000000000E+00 0.  1.
        -11    1    4    4    0    0  0.22040305023E-01 -0.45634518119E-01  0.99222869192E-02  0.51642978110E-01  0.51100000000E-03 0.  1.
         11    1    4    4    0    0  0.36577505886E-01 -0.68145826990E-01 -0.20397018161E-01  0.79987918737E-01  0.51100000000E-03 0. -1.
</event>
<event>
 8    1  0.1114686E+005  0.1043930E+01  0.7957747E-01            NaN
         13   -1    0    0    0    0  0.00000000000E+00  0.00000000000E+00  0.74505805969E-08  0.10566000000E+00  0.10566000000E+00 0.  1.
     999900   -1    0    0    0    0 -0.00000000000E+00 -0.00000000000E+00 -0.74505805969E-08  0.93827000000E+00  0.93827000000E+00 0.  1.
     999902    2    1    2    0    0 -0.12343695196E-02 -0.13730281314E-01  0.10507604614E-01  0.10265963896E+01  0.10264500442E+01 0.  0.
     999903    2    3    3    0    0  0.21062457920E-01  0.34719374167E-02  0.13436631551E+00  0.13747657483E+00  0.19743869916E-01 0.  0.
         14    1    1    2    0    0  0.12343695196E-02  0.13730281314E-01 -0.10507604614E-01  0.17333610351E-01  0.00000000000E+00 0. -1.
     999901    1    3    3    0    0 -0.22296827439E-01 -0.17202218731E-01 -0.12385871090E+00  0.88911981482E+00  0.88000000000E+00 0.  1.
        -11    1    4    4    0    0  0.20884709017E-01 -0.42621009104E-02  0.97616082439E-01  0.99917452162E-01  0.51100000000E-03 0. -1.
         11    1    4    4    0    0  0.17774890215E-03  0.77340383271E-02  0.36750233072E-01  0.37559122665E-01  0.51100000000E-03 0.  1.
</event>
<event>
 8    1  0.1114686E+005  0.1043930E+01  0.7957747E-01            NaN
         13   -1    0    0    0    0  0.00000000000E+00  0.00000000000E+00  0.74505805969E-08  0.10566000000E+00  0.10566000000E+00 0. -1.
     999900   -1    0    0    0    0 -0.00000000000E+00 -0.00000000000E+00 -0.74505805969E-08  0.93827000000E+00  0.93827000000E+00 0.  1.
     999902    2    1    2    0    0  0.21495615127E-01 -0.54154444443E-02  0.46440195226E-02  0.10212814807E+01  0.10210303166E+01 0.  0.
     999903    2    3    3    0    0  0.60020930585E-01 -0.74691925484E-01 -0.89598779958E-01  0.13270670277E+00  0.20043246973E-01 0.  0.
         14    1    1    2    0    0 -0.21495615127E-01  0.54154444443E-02 -0.46440195226E-02  0.22648519279E-01  0.00000000000E+00 0.  1.
     999901    1    3    3    0    0 -0.38525315458E-01  0.69276481040E-01  0.94242799481E-01  0.88857477795E+00  0.88000000000E+00 0. -1.
        -11    1    4    4    0    0  0.39161845217E-01 -0.36763423467E-01 -0.40661744235E-01  0.67370898696E-01  0.51100000000E-03 0.  1.
         11    1    4    4    0    0  0.20859085368E-01 -0.37928502017E-01 -0.48937035723E-01  0.65335804074E-01  0.51100000000E-03 0. -1.
</event>
<event>
 8    1  0.1114686E+005  0.1043930E+01  0.7957747E-01            NaN
         13   -1    0    0    0    0  0.00000000000E+00  0.00000000000E+00  0.74505805969E-08  0.10566000000E+00  0.10566000000E+00 0. -1.
     999900   -1    0    0    0    0 -0.00000000000E+00 -0.00000000000E+00 -0.74505805969E-08  0.93827000000E+00  0.93827000000E+00 0.  1.
     999902    2    1    2    0    0 -0.63440191172E-03 -0.20672462912E-01 -0.11409682362E-01  0.10203093726E+01  0.10200359218E+01 0.  0.
     999903    2    3    3    0    0  0.12401255693E+00 -0.21289107202E-01  0.20508709479E-01  0.13095228549E+00  0.29925800746E-01 0.  0.
         14    1    1    2    0    0  0.63440191172E-03  0.20672462912E-01  0.11409682362E-01  0.23620627431E-01  0.00000000000E+00 0. -1.
     999901    1    3    3    0    0 -0.12464695884E+00  0.61664428981E-03 -0.31918391841E-01  0.88935708708E+00  0.88000000000E+00 0. -1.
        -11    1    4    4    0    0  0.84669504703E-01 -0.27462098352E-01  0.88434871204E-02  0.89451440782E-01  0.51100000000E-03 0. -1.
         11    1    4    4    0    0  0.39343052223E-01  0.61729911502E-02  0.11665222359E-01  0.41500844710E-01  0.51100000000E-03 0.  1.
</event>
<event>
 8    1  0.1114686E+005  0.1043930E+01  0.7957747E-01            NaN
         13   -1    0    0    0    0  0.00000000000E+00  0.00000000000E+00  0.74505805969E-08  0.10566000000E+00  0.10566000000E+00 0. -1.
     999900   -1    0    0    0    0 -0.00000000000E+00 -0.00000000000E+00 -0.74505805969E-08  0.93827000000E+00  0.93827000000E+00 0. -1.
     999902    2    1    2    0    0 -0.20019794755E-01 -0.16093759285E-01 -0.79586190204E-02  0.10170387210E+01  0.10166831459E+01 0.  0.
     999903    2    3    3    0    0  0.52225216721E-01 -0.10318026369E+00  0.50626932480E-01  0.12786176010E+00  0.20295401633E-01 0.  0.
         14    1    1    2    0    0  0.20019794755E-01  0.16093759285E-01  0.79586190204E-02  0.26891279008E-01  0.00000000000E+00 0.  1.
     999901    1    3    3    0    0 -0.72245011476E-01  0.87086504405E-01 -0.58585551500E-01  0.88917696089E+00  0.88000000000E+00 0. -1.
        -11    1    4    4    0    0  0.51968081616E-02 -0.12178021577E-01 -0.73252881710E-03  0.13270596975E-01  0.51100000000E-03 0.  1.
         11    1    4    4    0    0  0.47028408559E-01 -0.91002242113E-01  0.51359461297E-01  0.11459116313E+00  0.51100000000E-03 0. -1.
</event>
<event>
 8    1  0.1612067E+005  0.1043930E+01  0.7957747E-01            NaN
         13   -1    0    0    0    0  0.00000000000E+00  0.00000000000E+00  0.74505805969E-08  0.10566000000E+00  0.10566000000E+00 0. -1.
     999900   -1    0    0    0    0 -0.00000000000E+00 -0.00000000000E+00 -0.74505805969E-08  0.93827000000E+00  0.93827000000E+00 0.  1.
     999902    2    1    2    0    0 -0.70474731126E-02 -0.21451523252E-01  0.10328352839E-01  0.10191003887E+01  0.10187978664E+01 0.  0.
     999903    2    3    3    0    0  0.11338427498E+00  0.39788208370E-02 -0.56410377177E-01  0.12803104992E+00  0.18384620272E-01 0.  0.
         14    1    1    2    0    0  0.70474731126E-02  0.21451523252E-01 -0.10328352839E-01  0.24829611344E-01  0.00000000000E+00 0.  1.
     999901    1    3    3    0    0 -0.12043174809E+00 -0.25430344089E-01  0.66738730016E-01  0.89106933873E+00  0.88000000000E+00 0. -1.
        -11    1    4    4    0    0  0.79583564978E-01 -0.25998833845E-02 -0.31992640994E-01  0.85814296053E-01  0.51100000000E-03 0. -1.
         11    1    4    4    0    0  0.33800710003E-01  0.65787042215E-02 -0.24417736182E-01  0.42216753868E-01  0.51100000000E-03 0.  1.
</event>
<event>
 8    1  0.1114686E+005  0.1043930E+01  0.7957747E-01            NaN
         13   -1    0    0    0    0  0.00000000000E+00  0.00000000000E+00  0.74505805969E-08  0.10566000000E+00  0.10566000000E+00 0. -1.
     999900   -1    0    0    0    0 -0.00000000000E+00 -0.00000000000E+00 -0.74505805969E-08  0.93827000000E+00  0.93827000000E+00 0. -1.
     999902    2    1    2    0    0  0.20177020063E-01  0.20754038331E-01 -0.39574193318E-02  0.10147152193E+01  0.10142945690E+01 0.  0.
     999903    2    3    3    0    0  0.10787068370E+00  0.66519891253E-01 -0.11637202993E-01  0.12913988593E+00  0.21924992803E-01 0.  0.
         14    1    1    2    0    0 -0.20177020063E-01 -0.20754038331E-01  0.39574193318E-02  0.29214780735E-01  0.00000000000E+00 0. -1.
     999901    1    3    3    0    0 -0.87693663640E-01 -0.45765852922E-01  0.76797836612E-02  0.88557533334E+00  0.88000000000E+00 0. -1.
        -11    1    4    4    0    0  0.62297066677E-01  0.50807025907E-01 -0.63024988349E-02  0.80636598456E-01  0.51100000000E-03 0. -1.
         11    1    4    4    0    0  0.45573617025E-01  0.15712865346E-01 -0.53347041581E-02  0.48503287472E-01  0.51100000000E-03 0.  1.
</event>
<event>
 8    1  0.1114686E+005  0.1043930E+01  0.7957747E-01            NaN
         13   -1    0    0    0    0  0.00000000000E+00  0.00000000000E+00  0.74505805969E-08  0.10566000000E+00  0.10566000000E+00 0.  1.
     999900   -1    0    0    0    0 -0.00000000000E+00 -0.00000000000E+00 -0.74505805969E-08  0.93827000000E+00  0.93827000000E+00 0.  1.
     999902    2    1    2    0    0 -0.22509117027E-01  0.21033038635E-02 -0.27380104716E-02  0.10211576278E+01  0.10209036780E+01 0.  0.
     999903    2    3    3    0    0  0.10473517752E-01  0.12410973815E+00  0.35862446113E-01  0.13129054810E+00  0.20932541688E-01 0.  0.
         14    1    1    2    0    0  0.22509117027E-01 -0.21033038635E-02  0.27380104716E-02  0.22772372248E-01  0.00000000000E+00 0.  1.
     999901    1    3    3    0    0 -0.32982634779E-01 -0.12200643428E+00 -0.38600456585E-01  0.88986707965E+00  0.88000000000E+00 0. -1.
        -11    1    4    4    0    0  0.11033948554E-01  0.61836461555E-01  0.89624094483E-02  0.63451413715E-01  0.51100000000E-03 0. -1.
         11    1    4    4    0    0 -0.56043080181E-03  0.62273276592E-01  0.26900036665E-01  0.67839134383E-01  0.51100000000E-03 0.  1.
</event>
<event>
 8    1  0.1114686E+005  0.1043930E+01  0.7957747E-01            NaN
         13   -1    0    0    0    0  0.00000000000E+00  0.00000000000E+00  0.74505805969E-08  0.10566000000E+00  0.10566000000E+00 0. -1.
     999900   -1    0    0    0    0 -0.00000000000E+00 -0.00000000000E+00 -0.74505805969E-08  0.93827000000E+00  0.93827000000E+00 0. -1.
     999902    2    1    2    0    0 -0.81173214992E-02 -0.69272381606E-02  0.20660807212E-01  0.10206760435E+01  0.10204111129E+01 0.  0.
     999903    2    3    3    0    0  0.17687945549E-01  0.15402891228E-01 -0.12441619961E+00  0.12814487635E+00  0.19789040709E-01 0.  0.
         14    1    1    2    0    0  0.81173214992E-02  0.69272381606E-02 -0.20660807212E-01  0.23253956470E-01  0.00000000000E+00 0.  1.
     999901    1    3    3    0    0 -0.25805267049E-01 -0.22330129389E-01  0.14507700682E+00  0.89253116718E+00  0.88000000000E+00 0.  1.
        -11    1    4    4    0    0  0.65140389337E-02  0.90682370899E-02 -0.19759284065E-01  0.22701454907E-01  0.51100000000E-03 0.  1.
         11    1    4    4    0    0  0.11173906616E-01  0.63346541381E-02 -0.10465691555E+00  0.10544342144E+00  0.51100000000E-03 0. -1.
</event>
<event>
 8    1  0.1114686E+005  0.1043930E+01  0.7957747E-01            NaN
         13   -1    0    0    0    0  0.00000000000E+00  0.00000000000E+00  0.74505805969E-08  0.10566000000E+00  0.10566000000E+00 0. -1.
     999900   -1    0    0    0    0 -0.00000000000E+00 -0.00000000000E+00 -0.74505805969E-08  0.93827000000E+00  0.93827000000E+00 0. -1.
     999902    2    1    2    0    0 -0.19033208969E-01 -0.12798651159E-01  0.48120891670E-02  0.10204944561E+01  0.10202253233E+01 0.  0.
     999903    2    3    3    0    0  0.11484793641E+00 -0.34576775155E-01  0.43202202601E-01  0.12927492728E+00  0.21447019269E-01 0.  0.
         14    1    1    2    0    0  0.19033208969E-01  0.12798651159E-01 -0.48120891670E-02  0.23435543887E-01  0.00000000000E+00 0.  1.
     999901    1    3    3    0    0 -0.13388114538E+00  0.21778123997E-01 -0.38390113434E-01  0.89121952884E+00  0.88000000000E+00 0. -1.
        -11    1    4    4    0    0  0.23101496779E-01 -0.15755445255E-01  0.13219841478E-01  0.30934423194E-01  0.51100000000E-03 0.  1.
         11    1    4    4    0    0  0.91746439627E-01 -0.18821329900E-01  0.29982361123E-01  0.98340504081E-01  0.51100000000E-03 0. -1.
</event>
<event>
 8    1  0.1114686E+005  0.1043930E+01  0.7957747E-01            NaN
         13   -1    0    0    0    0  0.00000000000E+00  0.00000000000E+00  0.74505805969E-08  0.10566000000E+00  0.10566000000E+00 0.  1.
     999900   -1    0    0    0    0 -0.00000000000E+00 -0.00000000000E+00 -0.74505805969E-08  0.93827000000E+00  0.93827000000E+00 0.  1.
     999902    2    1    2    0    0 -0.20211387193E-02 -0.17096796218E-02 -0.23012037837E-01  0.10207661944E+01  0.10205033374E+01 0.  0.
     999903    2    3    3    0    0  0.97215920107E-02 -0.12256132969E+00  0.41382193240E-01  0.13009811363E+00  0.98612557819E-02 0.  0.
         14    1    1    2    0    0  0.20211387193E-02  0.17096796218E-02  0.23012037837E-01  0.23163805636E-01  0.00000000000E+00 0.  1.
     999901    1    3    3    0    0 -0.11742730730E-01  0.12085165007E+00 -0.64394231077E-01  0.89066808074E+00  0.88000000000E+00 0.  1.
        -11    1    4    4    0    0  0.76421081644E-02 -0.48326606215E-01  0.13352041896E-01  0.50718840969E-01  0.51100000000E-03 0. -1.
         11    1    4    4    0    0  0.20794838463E-02 -0.74234723473E-01  0.28030151344E-01  0.79379272657E-01  0.51100000000E-03 0.  1.
</event>
<event>
 8    1  0.1114686E+005  0.1043930E+01  0.7957747E-01            NaN
         13   -1    0    0    0    0  0.00000000000E+00  0.00000000000E+00  0.74505805969E-08  0.10566000000E+00  0.10566000000E+00 0.  1.
     999900   -1    0    0    0    0 -0.00000000000E+00 -0.00000000000E+00 -0.74505805969E-08  0.93827000000E+00  0.93827000000E+00 0. -1.
     999902    2    1    2    0    0  0.46182704699E-02  0.18828367909E-01  0.13998059354E-01  0.10200180464E+01  0.10197377278E+01 0.  0.
     999903    2    3    3    0    0 -0.70393980329E-01  0.58603330461E-01 -0.90827765740E-01  0.12973868628E+00  0.13884555463E-01 0.  0.
         14    1    1    2    0    0 -0.46182704699E-02 -0.18828367909E-01 -0.13998059354E-01  0.23911953620E-01  0.00000000000E+00 0. -1.
     999901    1    3    3    0    0  0.75012250798E-01 -0.39774962552E-01  0.10482582509E+00  0.89027936010E+00  0.88000000000E+00 0.  1.
        -11    1    4    4    0    0 -0.22771000404E-01  0.24629784229E-01 -0.40316608715E-01  0.52448401214E-01  0.51100000000E-03 0. -1.
         11    1    4    4    0    0 -0.47622979924E-01  0.33973546232E-01 -0.50511157025E-01  0.77290285065E-01  0.51100000000E-03 0.  1.
</event>
<event>
 8    1  0.1114686E+005  0.1043930E+01  0.7957747E-01            NaN
         13   -1    0    0    0    0  0.00000000000E+00  0.00000000000E+00  0.74505805969E-08  0.10566000000E+00  0.10566000000E+00 0. -1.
     999900   -1    0    0    0    0 -0.00000000000E+00 -0.00000000000E+00 -0.74505805969E-08  0.93827000000E+00  0.93827000000E+00 0. -1.
     999902    2    1    2    0    0 -0.18536928319E-01 -0.48911609712E-02  0.13760863620E-01  0.10203312175E+01  0.10200582782E+01 0.  0.
     999903    2    3    3    0    0  0.41177229650E-01  0.88748158791E-01  0.84109777414E-01  0.13056547726E+00  0.20027213091E-01 0.  0.
         14    1    1    2    0    0  0.18536928319E-01  0.48911609712E-02 -0.13760863620E-01  0.23598782484E-01  0.00000000000E+00 0.  1.
     999901    1    3    3    0    0 -0.59714157970E-01 -0.93639319762E-01 -0.70348913794E-01  0.88976574026E+00  0.88000000000E+00 0. -1.
        -11    1    4    4    0    0  0.22892824427E-01  0.40497403907E-01  0.27836021793E-01  0.54214632377E-01  0.51100000000E-03 0. -1.
         11    1    4    4    0    0  0.18284405224E-01  0.48250754883E-01  0.56273755621E-01  0.76350844880E-01  0.51100000000E-03 0.  1.
</event>
<event>
 8    1  0.1114686E+005  0.1043930E+01  0.7957747E-01            NaN
         13   -1    0    0    0    0  0.00000000000E+00  0.00000000000E+00  0.74505805969E-08  0.10566000000E+00  0.10566000000E+00 0.  1.
     999900   -1    0    0    0    0 -0.00000000000E+00 -0.00000000000E+00 -0.74505805969E-08  0.93827000000E+00  0.93827000000E+00 0. -1.
     999902    2    1    2    0    0  0.60670434081E-02  0.16757670819E-01 -0.14708196696E-01  0.10208224342E+01  0.10205608667E+01 0.  0.
     999903    2    3    3    0    0 -0.11648162234E+00  0.52010347236E-01  0.22337795205E-01  0.13085988882E+00  0.18769359155E-01 0.  0.
         14    1    1    2    0    0 -0.60670434081E-02 -0.16757670819E-01  0.14708196696E-01  0.23107565797E-01  0.00000000000E+00 0.  1.
     999901    1    3    3    0    0  0.12254866575E+00 -0.35252676417E-01 -0.37045991902E-01  0.88996254539E+00  0.88000000000E+00 0. -1.
        -11    1    4    4    0    0 -0.74131602152E-01  0.41621896614E-01  0.19056988707E-01  0.87128104851E-01  0.51100000000E-03 0. -1.
         11    1    4    4    0    0 -0.42350020193E-01  0.10388450623E-01  0.32808064987E-02  0.43731783967E-01  0.51100000000E-03 0.  1.
</event>
<event>
 8    1  0.1114686E+005  0.1043930E+01  0.7957747E-01            NaN
         13   -1    0    0    0    0  0.00000000000E+00  0.00000000000E+00  0.74505805969E-08  0.10566000000E+00  0.10566000000E+00 0.  1.
     999900   -1    0    0    0    0 -0.00000000000E+00 -0.00000000000E+00 -0.74505805969E-08  0.93827000000E+00  0.93827000000E+00 0. -1.
     999902    2    1    2    0    0  0.94872914628E-02 -0.10909624891E-01 -0.19470355960E-01  0.10196787449E+01  0.10193903175E+01 0.  0.
     999903    2    3    3    0    0 -0.51698114254E-01  0.11247859251E+00  0.25756325771E-01  0.12781902562E+00  0.18713262728E-01 0.  0.
         14    1    1    2    0    0 -0.94872914628E-02  0.10909624891E-01  0.19470355960E-01  0.24251255138E-01  0.00000000000E+00 0.  1.
     999901    1    3    3    0    0  0.61185405717E-01 -0.12338821740E+00 -0.45226681731E-01  0.89185971924E+00  0.88000000000E+00 0.  1.
        -11    1    4    4    0    0 -0.17339280378E-01  0.56798534662E-01  0.72961774344E-02  0.59834935530E-01  0.51100000000E-03 0. -1.
         11    1    4    4    0    0 -0.34358833876E-01  0.55680057851E-01  0.18460148336E-01  0.67984090089E-01  0.51100000000E-03 0.  1.
</event>
<event>
 8    1  0.1114686E+005  0.1043930E+01  0.7957747E-01            NaN
         13   -1    0    0    0    0  0.00000000000E+00  0.00000000000E+00  0.74505805969E-08  0.10566000000E+00  0.10566000000E+00 0. -1.
     999900   -1    0    0    0    0 -0.00000000000E+00 -0.00000000000E+00 -0.74505805969E-08  0.93827000000E+00  0.93827000000E+00 0. -1.
     999902    2    1    2    0    0  0.21279678796E-01  0.60817068392E-02 -0.93285573847E-02  0.10199126340E+01  0.10196298088E+01 0.  0.
     999903    2    3    3    0    0  0.12322310760E+00  0.33294423081E-01  0.30558421207E-01  0.13271256316E+00  0.19655901373E-01 0.  0.
         14    1    1    2    0    0 -0.21279678796E-01 -0.60817068392E-02  0.93285573847E-02  0.24017366021E-01  0.00000000000E+00 0. -1.
     999901    1    3    3    0    0 -0.10194342880E+00 -0.27212716242E-01 -0.39886978592E-01  0.88720007082E+00  0.88000000000E+00 0. -1.
        -11    1    4    4    0    0  0.32185853230E-01 -0.59044839371E-04  0.77475525278E-02  0.33109187933E-01  0.51100000000E-03 0.  1.
         11    1    4    4    0    0  0.91037254370E-01  0.33353467920E-01  0.22810868679E-01  0.99603375226E-01  0.51100000000E-03 0. -1.
</event>
<event>
 8    1  0.1114686E+005  0.1043930E+01  0.7957747E-01            NaN
         13   -1    0    0    0    0  0.00000000000E+00  0.00000000000E+00  0.74505805969E-08  0.10566000000E+00  0.10566000000E+00 0. -1.
     999900   -1    0    0    0    0 -0.00000000000E+00 -0.00000000000E+00 -0.74505805969E-08  0.93827000000E+00  0.93827000000E+00 0. -1.
     999902    2    1    2    0    0  0.70546916941E-02 -0.23608616874E-01  0.51877644193E-03  0.10192844204E+01  0.10189864204E+01 0.  0.
     999903    2    3    3    0    0 -0.11387892808E+00  0.26368835721E-01  0.48886539013E-01  0.12829501157E+00  0.20149206905E-01 0.  0.
         14    1    1    2    0    0 -0.70546916941E-02  0.23608616874E-01 -0.51877644193E-03  0.24645579616E-01  0.00000000000E+00 0.  1.
     999901    1    3    3    0    0  0.12093361978E+00 -0.49977452595E-01 -0.48367762571E-01  0.89098940881E+00  0.88000000000E+00 0.  1.
        -11    1    4    4    0    0 -0.53614157208E-01  0.10362029237E-01  0.12227094678E-01  0.55960811898E-01  0.51100000000E-03 0.  1.
         11    1    4    4    0    0 -0.60264770874E-01  0.16006806484E-01  0.36659444336E-01  0.72334199673E-01  0.51100000000E-03 0. -1.
</event>
<event>
 8    1  0.1114686E+005  0.1043930E+01  0.7957747E-01            NaN
         13   -1    0    0    0    0  0.00000000000E+00  0.00000000000E+00  0.74505805969E-08  0.10566000000E+00  0.10566000000E+00 0.  1.
     999900   -1    0    0    0    0 -0.00000000000E+00 -0.00000000000E+00 -0.74505805969E-08  0.93827000000E+00  0.93827000000E+00 0.  1.
     999902    2    1    2    0    0  0.15776405074E-01  0.22838488304E-02 -0.17209724461E-01  0.10204718343E+01  0.10202021756E+01 0.  0.
     999903    2    3    3    0    0 -0.73912620178E-01 -0.20584974113E-01  0.10166481694E+00  0.12766823836E+00  0.87537135080E-02 0.  0.
         14    1    1    2    0    0 -0.15776405074E-01 -0.22838488304E-02  0.17209724461E-01  0.23458165711E-01  0.00000000000E+00 0. -1.
     999901    1    3    3    0    0  0.89689025251E-01  0.22868822943E-01 -0.11887454141E+00  0.89280359593E+00  0.88000000000E+00 0.  1.
        -11    1    4    4    0    0 -0.39547366765E-01 -0.10432862458E-01  0.47035787462E-01  0.62333500305E-01  0.51100000000E-03 0. -1.
         11    1    4    4    0    0 -0.34365253412E-01 -0.10152111655E-01  0.54629029482E-01  0.65334738052E-01  0.51100000000E-03 0.  1.
</event>
<event>
 8    1  0.1114686E+005  0.1043930E+01  0.7957747E-01            NaN
         13   -1    0    0    0    0  0.00000000000E+00  0.00000000000E+00  0.74505805969E-08  0.10566000000E+00  0.10566000000E+00 0. -1.
     999900   -1    0    0    0    0 -0.00000000000E+00 -0.00000000000E+00 -0.74505805969E-08  0.93827000000E+00  0.93827000000E+00 0.  1.
     999902    2    1    2    0    0 -0.10844599074E-01 -0.40061859017E-02 -0.21686151919E-01  0.10193547271E+01  0.10190584456E+01 0.  0.
     999903    2    3    3    0    0 -0.92463648674E-01  0.68782058062E-01  0.55340207384E-01  0.12924638662E+00  0.19015574218E-01 0.  0.
         14    1    1    2    0    0  0.10844599074E-01  0.40061859017E-02  0.21686151919E-01  0.24575272930E-01  0.00000000000E+00 0.  1.
     999901    1    3    3    0    0  0.81619049600E-01 -0.72788243964E-01 -0.77026359303E-01  0.89010834045E+00  0.88000000000E+00 0.  1.
        -11    1    4    4    0    0 -0.29190610282E-01  0.31465512900E-01  0.25725137342E-01  0.50042122686E-01  0.51100000000E-03 0.  1.
         11    1    4    4    0    0 -0.63273038391E-01  0.37316545162E-01  0.29615070042E-01  0.79204263930E-01  0.51100000000E-03 0. -1.
</event>
<event>
 8    1  0.1114686E+005  0.1043930E+01  0.7957747E-01            NaN
         13   -1    0    0    0    0  0.00000000000E+00  0.00000000000E+00  0.74505805969E-08  0.10566000000E+00  0.10566000000E+00 0. -1.
     999900   -1    0    0    0    0 -0.00000000000E+00 -0.00000000000E+00 -0.74505805969E-08  0.93827000000E+00  0.93827000000E+00 0.  1.
     999902    2    1    2    0    0 -0.20011139560E-02  0.20315400678E-01  0.12656113854E-01  0.10199113160E+01  0.10196284595E+01 0.  0.
     999903    2    3    3    0    0 -0.82391000534E-02  0.13152584632E+00  0.85445865353E-02  0.13288054974E+00  0.14741082758E-01 0.  0.
         14    1    1    2    0    0  0.20011139560E-02 -0.20315400678E-01 -0.12656113854E-01  0.24018683970E-01  0.00000000000E+00 0.  1.
     999901    1    3    3    0    0  0.62379860973E-02 -0.11121044564E+00  0.41115273189E-02  0.88703076629E+00  0.88000000000E+00 0.  1.
        -11    1    4    4    0    0 -0.90372236501E-02  0.75859467082E-01  0.10817999724E-01  0.77159707078E-01  0.51100000000E-03 0.  1.
         11    1    4    4    0    0  0.79812359670E-03  0.55666379235E-01 -0.22734131887E-02  0.55720842661E-01  0.51100000000E-03 0. -1.
</event>
<event>
 8    1  0.1114686E+005  0.1043930E+01  0.7957747E-01            NaN
         13   -1    0    0    0    0  0.00000000000E+00  0.00000000000E+00  0.74505805969E-08  0.10566000000E+00  0.10566000000E+00 0.  1.
     999900   -1    0    0    0    0 -0.00000000000E+00 -0.00000000000E+00 -0.74505805969E-08  0.93827000000E+00  0.93827000000E+00 0.  1.
     999902    2    1    2    0    0  0.15318140376E-01  0.18973969963E-01 -0.16231905911E-01  0.10146361145E+01  0.10142131497E+01 0.  0.
     999903    2    3    3    0    0  0.32373597849E-01 -0.98049035117E-01 -0.68113131497E-01  0.12521105639E+00  0.19409967411E-01 0.  0.
         14    1    1    2    0    0 -0.15318140376E-01 -0.18973969963E-01  0.16231905911E-01  0.29293885544E-01  0.00000000000E+00 0.  1.
     999901    1    3    3    0    0 -0.17055457473E-01  0.11702300508E+00  0.51881225586E-01  0.88942505807E+00  0.88000000000E+00 0. -1.
        -11    1    4    4    0    0 -0.26719836181E-04 -0.19030733110E-01 -0.17942958531E-01  0.26160665100E-01  0.51100000000E-03 0. -1.
         11    1    4    4    0    0  0.32400317685E-01 -0.79018302007E-01 -0.50170172966E-01  0.99050391290E-01  0.51100000000E-03 0.  1.
</event>
<event>
 8    1  0.1114686E+005  0.1043930E+01  0.7957747E-01            NaN
         13   -1    0    0    0    0  0.00000000000E+00  0.00000000000E+00  0.74505805969E-08  0.10566000000E+00  0.10566000000E+00 0. -1.
     999900   -1    0    0    0    0 -0.00000000000E+00 -0.00000000000E+00 -0.74505805969E-08  0.93827000000E+00  0.93827000000E+00 0. -1.
     999902    2    1    2    0    0  0.20647135299E-01 -0.15806275793E-02  0.11236500981E-01  0.10203702561E+01  0.10200982296E+01 0.  0.
     999903    2    3    3    0    0  0.12679684123E+00  0.39798140842E-02 -0.33823807190E-01  0.13282920916E+00  0.20156165513E-01 0.  0.
         14    1    1    2    0    0 -0.20647135299E-01  0.15806275793E-02 -0.11236500981E-01  0.23559743927E-01  0.00000000000E+00 0.  1.
     999901    1    3    3    0    0 -0.10614970593E+00 -0.55604416635E-02  0.45060308171E-01  0.88754104691E+00  0.88000000000E+00 0.  1.
        -11    1    4    4    0    0  0.12328708507E+00  0.63884618901E-03 -0.34190730612E-01  0.12794288042E+00  0.51100000000E-03 0. -1.
         11    1    4    4    0    0  0.35097561549E-02  0.33409678951E-02  0.36692342136E-03  0.48863287384E-02  0.51100000000E-03 0.  1.
</event>
<event>
 8    1  0.1114686E+005  0.1043930E+01  0.7957747E-01            NaN
         13   -1    0    0    0    0  0.00000000000E+00  0.00000000000E+00  0.74505805969E-08  0.10566000000E+00  0.10566000000E+00 0. -1.
     999900   -1    0    0    0    0 -0.00000000000E+00 -0.00000000000E+00 -0.74505805969E-08  0.93827000000E+00  0.93827000000E+00 0.  1.
     999902    2    1    2    0    0 -0.14743337183E-01  0.15632125086E-01  0.11691426384E-01  0.10194674004E+01  0.10191738624E+01 0.  0.
     999903    2    3    3    0    0  0.10023005691E+00 -0.75652492433E-01  0.77810902636E-02  0.12729754360E+00  0.19358598084E-01 0.  0.
         14    1    1    2    0    0  0.14743337183E-01 -0.15632125086E-01 -0.11691426384E-01  0.24462599553E-01  0.00000000000E+00 0.  1.
     999901    1    3    3    0    0 -0.11497339410E+00  0.91284617519E-01  0.39103361201E-02  0.89216985685E+00  0.88000000000E+00 0. -1.
        -11    1    4    4    0    0  0.68367851169E-01 -0.62031110033E-01  0.35466915201E-02  0.92384315915E-01  0.51100000000E-03 0. -1.
         11    1    4    4    0    0  0.31862205744E-01 -0.13621382400E-01  0.42343987435E-02  0.34913227681E-01  0.51100000000E-03 0.  1.
</event>
<event>
 8    1  0.1114686E+005  0.1043930E+01  0.7957747E-01            NaN
         13   -1    0    0    0    0  0.00000000000E+00  0.00000000000E+00  0.74505805969E-08  0.10566000000E+00  0.10566000000E+00 0. -1.
     999900   -1    0    0    0    0 -0.00000000000E+00 -0.00000000000E+00 -0.74505805969E-08  0.93827000000E+00  0.93827000000E+00 0. -1.
     999902    2    1    2    0    0  0.39929520878E-02 -0.65792822314E-02  0.22194247928E-01  0.10204392516E+01  0.10201688345E+01 0.  0.
     999903    2    3    3    0    0  0.89034362102E-01 -0.27406133418E-01  0.93109954094E-01  0.13325559722E+00  0.20233063436E-01 0.  0.
         14    1    1    2    0    0 -0.39929520878E-02  0.65792822314E-02 -0.22194247928E-01  0.23490748437E-01  0.00000000000E+00 0.  1.
     999901    1    3    3    0    0 -0.85041410014E-01  0.20826851187E-01 -0.70915706166E-01  0.88718365434E+00  0.88000000000E+00 0. -1.
        -11    1    4    4    0    0  0.79557500241E-01 -0.18226125090E-01  0.84558154586E-01  0.11752416819E+00  0.51100000000E-03 0. -1.
         11    1    4    4    0    0  0.94768618608E-02 -0.91800083287E-02  0.85517995083E-02  0.15731429035E-01  0.51100000000E-03 0.  1.
</event>
<event>
 8    1  0.1114686E+005  0.1043930E+01  0.7957747E-01            NaN
         13   -1    0    0    0    0  0.00000000000E+00  0.00000000000E+00  0.74505805969E-08  0.10566000000E+00  0.10566000000E+00 0.  1.
     999900   -1    0    0    0    0 -0.00000000000E+00 -0.00000000000E+00 -0.74505805969E-08  0.93827000000E+00  0.93827000000E+00 0.  1.
     999902    2    1    2    0    0 -0.65638993691E-02  0.77299214522E-02  0.21499420205E-01  0.10201589771E+01  0.10198819917E+01 0.  0.
     999903    2    3    3    0    0 -0.12538827827E+00  0.27554125639E-01 -0.17682183608E-01  0.13108787186E+00  0.19746401308E-01 0.  0.
         14    1    1    2    0    0  0.65638993691E-02 -0.77299214522E-02 -0.21499420205E-01  0.23771022900E-01  0.00000000000E+00 0. -1.
     999901    1    3    3    0    0  0.11882437890E+00 -0.19824204187E-01  0.39181603812E-01  0.88907110524E+00  0.88000000000E+00 0.  1.
        -11    1    4    4    0    0 -0.63536841837E-01  0.53161392861E-02 -0.35728748417E-02  0.63860928298E-01  0.51100000000E-03 0.  1.
         11    1    4    4    0    0 -0.61851436434E-01  0.22237986353E-01 -0.14109308766E-01  0.67226943563E-01  0.51100000000E-03 0. -1.
</event>
<event>
 8    1  0.1114686E+005  0.1043930E+01  0.7957747E-01            NaN
         13   -1    0    0    0    0  0.00000000000E+00  0.00000000000E+00  0.74505805969E-08  0.10566000000E+00  0.10566000000E+00 0.  1.
     999900   -1    0    0    0    0 -0.00000000000E+00 -0.00000000000E+00 -0.74505805969E-08  0.93827000000E+00  0.93827000000E+00 0.  1.
     999902    2    1    2    0    0  0.18316219412E-01 -0.69870164947E-02  0.14188610664E-01  0.10197304346E+01  0.10194432502E+01 0.  0.
     999903    2    3    3    0    0 -0.82595607940E-01 -0.22894154298E-01  0.95455594505E-01  0.13010098556E+00  0.21640683203E-01 0.  0.
         14    1    1    2    0    0 -0.18316219412E-01  0.69870164947E-02 -0.14188610664E-01  0.24199565402E-01  0.00000000000E+00 0. -1.
     999901    1    3    3    0    0  0.10091182735E+00  0.15907137803E-01 -0.81266983841E-01  0.88962944904E+00  0.88000000000E+00 0. -1.
        -11    1    4    4    0    0 -0.61329483494E-01 -0.26517621349E-01  0.72545545730E-01  0.98628632323E-01  0.51100000000E-03 0. -1.
         11    1    4    4    0    0 -0.21266124445E-01  0.36234670513E-02  0.22910048775E-01  0.31472353237E-01  0.51100000000E-03 0.  1.
</event>
<event>
 8    1  0.1114686E+005  0.1043930E+01  0.7957747E-01            NaN
         13   -1    0    0    0    0  0.00000000000E+00  0.00000000000E+00  0.74505805969E-08  0.10566000000E+00  0.10566000000E+00 0.  1.
     999900   -1    0    0    0    0 -0.00000000000E+00 -0.00000000000E+00 -0.74505805969E-08  0.93827000000E+00  0.93827000000E+00 0.  1.
     999902    2    1    2    0    0 -0.54273823258E-02 -0.12122327406E-01 -0.18902269544E-01  0.10208279851E+01  0.10205665446E+01 0.  0.
     999903    2    3    3    0    0 -0.74530731024E-01 -0.10814875076E+00 -0.74739521289E-03  0.13272554375E+00  0.19092648002E-01 0.  0.
         14    1    1    2    0    0  0.54273823258E-02  0.12122327406E-01  0.18902269544E-01  0.23102014945E-01  0.00000000000E+00 0. -1.
     999901    1    3    3    0    0  0.69103348698E-01  0.96026423351E-01 -0.18154874331E-01  0.88810244130E+00  0.88000000000E+00 0.  1.
        -11    1    4    4    0    0 -0.56295626044E-01 -0.65821194783E-01  0.57470041751E-03  0.86615348500E-01  0.51100000000E-03 0.  1.
         11    1    4    4    0    0 -0.18235104980E-01 -0.42327555975E-01 -0.13220956304E-02  0.46110195253E-01  0.51100000000E-03 0. -1.
</event>
<event>
 8    1  0.1114686E+005  0.1043930E+01  0.7957747E-01            NaN
         13   -1    0    0    0    0  0.00000000000E+00  0.00000000000E+00  0.74505805969E-08  0.10566000000E+00  0.10566000000E+00 0. -1.
     999900   -1    0    0    0    0 -0.00000000000E+00 -0.00000000000E+00 -0.74505805969E-08  0.93827000000E+00  0.93827000000E+00 0.  1.
     999902    2    1    2    0    0  0.34776912225E-02 -0.14752918757E-01 -0.18108015732E-01  0.10203155302E+01  0.10200422237E+01 0.  0.
     999903    2    3    3    0    0  0.85593666410E-01  0.34956066022E-01  0.87521465622E-01  0.12881589262E+00  0.19629696031E-01 0.  0.
         14    1    1    2    0    0 -0.34776912225E-02  0.14752918757E-01  0.18108015732E-01  0.23614469756E-01  0.00000000000E+00 0.  1.
     999901    1    3    3    0    0 -0.82115975187E-01 -0.49708984779E-01 -0.10562948135E+00  0.89149963762E+00  0.88000000000E+00 0. -1.
        -11    1    4    4    0    0  0.38037447365E-01  0.26032237661E-01  0.44400422439E-01  0.64001433057E-01  0.51100000000E-03 0. -1.
         11    1    4    4    0    0  0.47556219045E-01  0.89238283613E-02  0.43121043183E-01  0.64814459565E-01  0.51100000000E-03 0.  1.
</event>
<event>
 8    1  0.1114686E+005  0.1043930E+01  0.7957747E-01            NaN
         13   -1    0    0    0    0  0.00000000000E+00  0.00000000000E+00  0.74505805969E-08  0.10566000000E+00  0.10566000000E+00 0. -1.
     999900   -1    0    0    0    0 -0.00000000000E+00 -0.00000000000E+00 -0.74505805969E-08  0.93827000000E+00  0.93827000000E+00 0. -1.
     999902    2    1    2    0    0 -0.92860076860E-02 -0.14806777882E-01  0.17843789935E-01  0.10189525812E+01  0.10186464015E+01 0.  0.
     999903    2    3    3    0    0 -0.10355216654E+00 -0.61112752492E-01 -0.45308381138E-01  0.13046029160E+00  0.22565871819E-01 0.  0.
         14    1    1    2    0    0  0.92860076860E-02  0.14806777882E-01 -0.17843789935E-01  0.24977418787E-01  0.00000000000E+00 0.  1.
     999901    1    3    3    0    0  0.94266158854E-01  0.46305974611E-01  0.63152171073E-01  0.88849228961E+00  0.88000000000E+00 0.  1.
        -11    1    4    4    0    0 -0.46076797103E-01 -0.18254102937E-01 -0.27092257039E-01  0.56484821127E-01  0.51100000000E-03 0. -1.
         11    1    4    4    0    0 -0.57475369437E-01 -0.42858649556E-01 -0.18216124099E-01  0.73975470474E-01  0.51100000000E-03 0.  1.
</event>
<event>
 8    1  0.1114686E+005  0.1043930E+01  0.7957747E-01            NaN
         13   -1    0    0    0    0  0.00000000000E+00  0.00000000000E+00  0.74505805969E-08  0.10566000000E+00  0.10566000000E+00 0. -1.
     999900   -1    0    0    0    0 -0.00000000000E+00 -0.00000000000E+00 -0.74505805969E-08  0.93827000000E+00  0.93827000000E+00 0.  1.
     999902    2    1    2    0    0 -0.12356514311E-01  0.93992533607E-02 -0.17230115989E-01  0.10207371928E+01  0.10204736696E+01 0.  0.
     999903    2    3    3    0    0  0.79035571151E-01  0.55886605634E-01 -0.87374361878E-01  0.13201124940E+00  0.20561047112E-01 0.  0.
         14    1    1    2    0    0  0.12356514311E-01 -0.93992533607E-02  0.17230115989E-01  0.23192807218E-01  0.00000000000E+00 0. -1.
     999901    1    3    3    0    0 -0.91392085462E-01 -0.46487352274E-01  0.70144245889E-01  0.88872594338E+00  0.88000000000E+00 0. -1.
        -11    1    4    4    0    0  0.54043318209E-01  0.35269625098E-01 -0.45036055981E-01  0.78696468516E-01  0.51100000000E-03 0. -1.
         11    1    4    4    0    0  0.24992252942E-01  0.20616980536E-01 -0.42338305898E-01  0.53314780885E-01  0.51100000000E-03 0.  1.
</event>
<event>
 8    1  0.1114686E+005  0.1043930E+01  0.7957747E-01            NaN
         13   -1    0    0    0    0  0.00000000000E+00  0.00000000000E+00  0.74505805969E-08  0.10566000000E+00  0.10566000000E+00 0. -1.
     999900   -1    0    0    0    0 -0.00000000000E+00 -0.00000000000E+00 -0.74505805969E-08  0.93827000000E+00  0.93827000000E+00 0. -1.
     999902    2    1    2    0    0 -0.10839586137E-01  0.17322918109E-01 -0.79007490656E-02  0.10220210531E+01  0.10217861963E+01 0.  0.
     999903    2    3    3    0    0 -0.54859120049E-01 -0.11464852178E+00  0.22232909129E-01  0.13058276712E+00  0.20093536808E-01 0.  0.
         14    1    1    2    0    0  0.10839586137E-01 -0.17322918109E-01  0.79007490656E-02  0.21908946922E-01  0.00000000000E+00 0. -1.
     999901    1    3    3    0    0  0.44019533911E-01  0.13197143989E+00 -0.30133658195E-01  0.89143828596E+00  0.88000000000E+00 0.  1.
        -11    1    4    4    0    0 -0.15777588050E-01 -0.33564296033E-01  0.15875624905E-01  0.40345890001E-01  0.51100000000E-03 0. -1.
         11    1    4    4    0    0 -0.39081531999E-01 -0.81084225749E-01  0.63572842239E-02  0.90236877120E-01  0.51100000000E-03 0.  1.
</event>
<event>
 8    1  0.1114686E+005  0.1043930E+01  0.7957747E-01            NaN
         13   -1    0    0    0    0  0.00000000000E+00  0.00000000000E+00  0.74505805969E-08  0.10566000000E+00  0.10566000000E+00 0. -1.
     999900   -1    0    0    0    0 -0.00000000000E+00 -0.00000000000E+00 -0.74505805969E-08  0.93827000000E+00  0.93827000000E+00 0. -1.
     999902    2    1    2    0    0  0.14463241180E-01 -0.18760694689E-01  0.64427484090E-02  0.10193809060E+01  0.10190852631E+01 0.  0.
     999903    2    3    3    0    0 -0.98431277618E-01  0.36097668261E-01 -0.71187515063E-01  0.12709111550E+00  0.96297077908E-02 0.  0.
         14    1    1    2    0    0 -0.14463241180E-01  0.18760694689E-01 -0.64427484090E-02  0.24549094031E-01  0.00000000000E+00 0. -1.
     999901    1    3    3    0    0  0.11289451880E+00 -0.54858362950E-01  0.77630263472E-01  0.89228979046E+00  0.88000000000E+00 0.  1.
        -11    1    4    4    0    0 -0.51630556545E-01  0.23488296274E-01 -0.40941879144E-01  0.69956508059E-01  0.51100000000E-03 0.  1.
         11    1    4    4    0    0 -0.46800721073E-01  0.12609371986E-01 -0.30245635919E-01  0.57134607446E-01  0.51100000000E-03 0. -1.
</event>
<event>
 8    1  0.1114686E+005  0.1043930E+01  0.7957747E-01            NaN
         13   -1    0    0    0    0  0.00000000000E+00  0.00000000000E+00  0.74505805969E-08  0.10566000000E+00  0.10566000000E+00 0.  1.
     999900   -1    0    0    0    0 -0.00000000000E+00 -0.00000000000E+00 -0.74505805969E-08  0.93827000000E+00  0.93827000000E+00 0. -1.
     999902    2    1    2    0    0  0.90100875294E-02 -0.20982700256E-01 -0.63705530556E-02  0.10202226312E+01  0.10199471447E+01 0.  0.
     999903    2    3    3    0    0 -0.25971669800E-01 -0.11106964135E+00 -0.65299476324E-01  0.13297294919E+00  0.20169054146E-01 0.  0.
         14    1    1    2    0    0 -0.90100875294E-02  0.20982700256E-01  0.63705530556E-02  0.23707368760E-01  0.00000000000E+00 0.  1.
     999901    1    3    3    0    0  0.34981757329E-01  0.90086941098E-01  0.58928923268E-01  0.88724968205E+00  0.88000000000E+00 0.  1.
        -11    1    4    4    0    0 -0.20707081171E-01 -0.90591643046E-01 -0.43524406359E-01  0.10261707495E+00  0.51100000000E-03 0. -1.
         11    1    4    4    0    0 -0.52645886291E-02 -0.20477998308E-01 -0.21775069965E-01  0.30355874244E-01  0.51100000000E-03 0.  1.
</event>
<event>
 8    1  0.1114686E+005  0.1043930E+01  0.7957747E-01            NaN
         13   -1    0    0    0    0  0.00000000000E+00  0.00000000000E+00  0.74505805969E-08  0.10566000000E+00  0.10566000000E+00 0.  1.
     999900   -1    0    0    0    0 -0.00000000000E+00 -0.00000000000E+00 -0.74505805969E-08  0.93827000000E+00  0.93827000000E+00 0.  1.
     999902    2    1    2    0    0 -0.18819239967E-01  0.12197404255E-01  0.13596010487E-01  0.10177042118E+01  0.10173662422E+01 0.  0.
     999903    2    3    3    0    0 -0.69350875704E-01 -0.92937752648E-01 -0.49561422939E-01  0.12776280432E+00  0.20494625993E-01 0.  0.
         14    1    1    2    0    0  0.18819239967E-01 -0.12197404255E-01 -0.13596010487E-01  0.26225788161E-01  0.00000000000E+00 0. -1.
     999901    1    3    3    0    0  0.50531635737E-01  0.10513515690E+00  0.63157433426E-01  0.88994140752E+00  0.88000000000E+00 0. -1.
        -11    1    4    4    0    0 -0.51560400043E-01 -0.54942790482E-01 -0.37145903719E-01  0.84007525631E-01  0.51100000000E-03 0.  1.
         11    1    4    4    0    0 -0.17790475662E-01 -0.37994962166E-01 -0.12415519220E-01  0.43755278685E-01  0.51100000000E-03 0. -1.
</event>
<event>
 8    1  0.1114686E+005  0.1043930E+01  0.7957747E-01            NaN
         13   -1    0    0    0    0  0.00000000000E+00  0.00000000000E+00  0.74505805969E-08  0.10566000000E+00  0.10566000000E+00 0. -1.
     999900   -1    0    0    0    0 -0.00000000000E+00 -0.00000000000E+00 -0.74505805969E-08  0.93827000000E+00  0.93827000000E+00 0. -1.
     999902    2    1    2    0    0 -0.14670023896E-01 -0.19306080223E-02 -0.18442385924E-01  0.10202855832E+01  0.10200115748E+01 0.  0.
     999903    2    3    3    0    0 -0.93749908492E-01 -0.73145216705E-01  0.52790017574E-01  0.13101666775E+00  0.15469751227E-01 0.  0.
         14    1    1    2    0    0  0.14670023896E-01  0.19306080223E-02  0.18442385924E-01  0.23644416825E-01  0.00000000000E+00 0. -1.
     999901    1    3    3    0    0  0.79079884596E-01  0.71214608683E-01 -0.71232403498E-01  0.88926891543E+00  0.88000000000E+00 0.  1.
        -11    1    4    4    0    0 -0.22826716792E-01 -0.18195964383E-01  0.20449210743E-01  0.35645244568E-01  0.51100000000E-03 0. -1.
         11    1    4    4    0    0 -0.70923191700E-01 -0.54949252323E-01  0.32340806831E-01  0.95371423179E-01  0.51100000000E-03 0.  1.
</event>
<event>
 8    1  0.1114686E+005  0.1043930E+01  0.7957747E-01            NaN
         13   -1    0    0    0    0  0.00000000000E+00  0.00000000000E+00  0.74505805969E-08  0.10566000000E+00  0.10566000000E+00 0. -1.
     999900   -1    0    0    0    0 -0.00000000000E+00 -0.00000000000E+00 -0.74505805969E-08  0.93827000000E+00  0.93827000000E+00 0. -1.
     999902    2    1    2    0    0  0.53826920039E-02  0.15950934698E-01 -0.16667945734E-01  0.10202397888E+01  0.10199647056E+01 0.  0.
     999903    2    3    3    0    0 -0.12473094632E+00 -0.17246504955E-01  0.12285257420E-01  0.12958277467E+00  0.28027076881E-01 0.  0.
         14    1    1    2    0    0 -0.53826920039E-02 -0.15950934698E-01  0.16667945734E-01  0.23690211184E-01  0.00000000000E+00 0. -1.
     999901    1    3    3    0    0  0.13011363832E+00  0.33197439654E-01 -0.28953203154E-01  0.89065701415E+00  0.88000000000E+00 0.  1.
        -11    1    4    4    0    0 -0.50619738918E-01 -0.48134686753E-02  0.18655365513E-01  0.54164667748E-01  0.51100000000E-03 0. -1.
         11    1    4    4    0    0 -0.74111207400E-01 -0.12433036280E-01 -0.63701080935E-02  0.75418106921E-01  0.51100000000E-03 0.  1.
</event>
<event>
 8    1  0.1114686E+005  0.1043930E+01  0.7957747E-01            NaN
         13   -1    0    0    0    0  0.00000000000E+00  0.00000000000E+00  0.74505805969E-08  0.10566000000E+00  0.10566000000E+00 0.  1.
     999900   -1    0    0    0    0 -0.00000000000E+00 -0.00000000000E+00 -0.74505805969E-08  0.93827000000E+00  0.93827000000E+00 0.  1.
     999902    2    1    2    0    0  0.14091486921E-01  0.14352856538E-01  0.11652414066E-01  0.10206845005E+01  0.10204197647E+01 0.  0.
     999903    2    3    3    0    0 -0.89147806548E-01 -0.81845084784E-01  0.39952715547E-01  0.12899324074E+00  0.19927050995E-01 0.  0.
         14    1    1    2    0    0 -0.14091486921E-01 -0.14352856538E-01 -0.11652414066E-01  0.23245499522E-01  0.00000000000E+00 0. -1.
     999901    1    3    3    0    0  0.10323929347E+00  0.96197941322E-01 -0.28300301481E-01  0.89169125974E+00  0.88000000000E+00 0.  1.
        -11    1    4    4    0    0 -0.59928054631E-01 -0.41892687883E-01  0.25208565262E-01  0.77344048986E-01  0.51100000000E-03 0.  1.
         11    1    4    4    0    0 -0.29219751917E-01 -0.39952396901E-01  0.14744150285E-01  0.51649191754E-01  0.51100000000E-03 0. -1.
</event>
<event>
 8    1  0.1114686E+005  0.1043930E+01  0.7957747E-01            NaN
         13   -1    0    0    0    0  0.00000000000E+00  0.00000000000E+00  0.74505805969E-08  0.10566000000E+00  0.10566000000E+00 0. -1.
     999900   -1    0    0    0    0 -0.00000000000E+00 -0.00000000000E+00 -0.74505805969E-08  0.93827000000E+00  0.93827000000E+00 0. -1.
     999902    2    1    2    0    0 -0.48916124329E-02 -0.22105250128E-01 -0.67221626871E-02  0.10203131114E+01  0.10200397482E+01 0.  0.
     999903    2    3    3    0    0 -0.10947560935E+00 -0.70172684306E-01 -0.17195028064E-01  0.13275580535E+00  0.20477309354E-01 0.  0.
         14    1    1    2    0    0  0.48916124329E-02  0.22105250128E-01  0.67221626871E-02  0.23616888589E-01  0.00000000000E+00 0. -1.
     999901    1    3    3    0    0  0.10458399692E+00  0.48067434178E-01  0.10472865377E-01  0.88755730606E+00  0.88000000000E+00 0.  1.
        -11    1    4    4    0    0 -0.57153401420E-01 -0.43787917421E-01 -0.17733397326E-01  0.74152730953E-01  0.51100000000E-03 0.  1.
         11    1    4    4    0    0 -0.52322207928E-01 -0.26384766884E-01  0.53836926243E-03  0.58603074394E-01  0.51100000000E-03 0. -1.
</event>
<event>
 8    1  0.1114686E+005  0.1043930E+01  0.7957747E-01            NaN
         13   -1    0    0    0    0  0.00000000000E+00  0.00000000000E+00  0.74505805969E-08  0.10566000000E+00  0.10566000000E+00 0.  1.
     999900   -1    0    0    0    0 -0.00000000000E+00 -0.00000000000E+00 -0.74505805969E-08  0.93827000000E+00  0.93827000000E+00 0. -1.
     999902    2    1    2    0    0  0.22059670089E-01  0.42739704999E-02  0.84079464506E-02  0.10199385550E+01  0.10196563473E+01 0.  0.
     999903    2    3    3    0    0  0.11981989188E+00  0.48935607176E-01 -0.22573785924E-01  0.13285818071E+00  0.19753992809E-01 0.  0.
         14    1    1    2    0    0 -0.22059670089E-01 -0.42739704999E-02 -0.84079464506E-02  0.23991444971E-01  0.00000000000E+00 0.  1.
     999901    1    3    3    0    0 -0.97760221789E-01 -0.44661636677E-01  0.30981732374E-01  0.88708037432E+00  0.88000000000E+00 0.  1.
        -11    1    4    4    0    0  0.77396873563E-01  0.33275285903E-01 -0.24037478493E-01  0.87610399968E-01  0.51100000000E-03 0. -1.
         11    1    4    4    0    0  0.42423018316E-01  0.15660321274E-01  0.14636925696E-02  0.45247780745E-01  0.51100000000E-03 0.  1.
</event>
<event>
 8    1  0.1114686E+005  0.1043930E+01  0.7957747E-01            NaN
         13   -1    0    0    0    0  0.00000000000E+00  0.00000000000E+00  0.74505805969E-08  0.10566000000E+00  0.10566000000E+00 0. -1.
     999900   -1    0    0    0    0 -0.00000000000E+00 -0.00000000000E+00 -0.74505805969E-08  0.93827000000E+00  0.93827000000E+00 0.  1.
     999902    2    1    2    0    0 -0.43036745312E-02 -0.35779511239E-02  0.23883187841E-01  0.10193998143E+01  0.10191046322E+01 0.  0.
     999903    2    3    3    0    0 -0.45719679167E-01  0.62823343573E-01  0.10494790478E+00  0.13221555740E+00  0.20732325918E-01 0.  0.
         14    1    1    2    0    0  0.43036745312E-02  0.35779511239E-02 -0.23883187841E-01  0.24530185693E-01  0.00000000000E+00 0.  1.
     999901    1    3    3    0    0  0.41416004636E-01 -0.66401294697E-01 -0.81064716944E-01  0.88718425691E+00  0.88000000000E+00 0.  1.
        -11    1    4    4    0    0 -0.52319492693E-02  0.23043527743E-01  0.29546531772E-01  0.37836967700E-01  0.51100000000E-03 0. -1.
         11    1    4    4    0    0 -0.40487729898E-01  0.39779815830E-01  0.75401373012E-01  0.94378589695E-01  0.51100000000E-03 0.  1.
</event>
<event>
 8    1  0.1114686E+005  0.1043930E+01  0.7957747E-01            NaN
         13   -1    0    0    0    0  0.00000000000E+00  0.00000000000E+00  0.74505805969E-08  0.10566000000E+00  0.10566000000E+00 0.  1.
     999900   -1    0    0    0    0 -0.00000000000E+00 -0.00000000000E+00 -0.74505805969E-08  0.93827000000E+00  0.93827000000E+00 0.  1.
     999902    2    1    2    0    0  0.21597471146E-01 -0.11120248742E-01 -0.25594830587E-02  0.10195033415E+01  0.10192106758E+01 0.  0.
     999903    2    3    3    0    0  0.73516257014E-01  0.10453716865E+00 -0.15798408086E-01  0.13031974535E+00  0.20024651191E-01 0.  0.
         14    1    1    2    0    0 -0.21597471146E-01  0.11120248742E-01  0.25594830587E-02  0.24426658501E-01  0.00000000000E+00 0.  1.
     999901    1    3    3    0    0 -0.51918785868E-01 -0.11565741739E+00  0.13238925027E-01  0.88918359615E+00  0.88000000000E+00 0. -1.
        -11    1    4    4    0    0  0.56847344594E-01  0.80884206886E-01 -0.36474421729E-02  0.98931493804E-01  0.51100000000E-03 0.  1.
         11    1    4    4    0    0  0.16668912420E-01  0.23652961765E-01 -0.12150965913E-01  0.31388251546E-01  0.51100000000E-03 0. -1.
</event>
<event>
 8    1  0.1114686E+005  0.1043930E+01  0.7957747E-01            NaN
         13   -1    0    0    0    0  0.00000000000E+00  0.00000000000E+00  0.74505805969E-08  0.10566000000E+00  0.10566000000E+00 0.  1.
     999900   -1    0    0    0    0 -0.00000000000E+00 -0.00000000000E+00 -0.74505805969E-08  0.93827000000E+00  0.93827000000E+00 0. -1.
     999902    2    1    2    0    0  0.22656586048E-01 -0.55757094525E-02 -0.54356228334E-02  0.10199726332E+01  0.10196912362E+01 0.  0.
     999903    2    3    3    0    0  0.95128682545E-01  0.23450195349E-01 -0.87147185588E-01  0.13274578094E+00  0.20674440690E-01 0.  0.
         14    1    1    2    0    0 -0.22656586048E-01  0.55757094525E-02  0.54356228334E-02  0.23957366776E-01  0.00000000000E+00 0. -1.
     999901    1    3    3    0    0 -0.72472096497E-01 -0.29025904801E-01  0.81711562755E-01  0.88722685228E+00  0.88000000000E+00 0. -1.
        -11    1    4    4    0    0  0.64754230939E-01  0.21078046547E-01 -0.70515646304E-01  0.98031178537E-01  0.51100000000E-03 0. -1.
         11    1    4    4    0    0  0.30374451606E-01  0.23721488016E-02 -0.16631539284E-01  0.34714602406E-01  0.51100000000E-03 0.  1.
</event>
<event>
 8    1  0.1114686E+005  0.1043930E+01  0.7957747E-01            NaN
         13   -1    0    0    0    0  0.00000000000E+00  0.00000000000E+00  0.74505805969E-08  0.10566000000E+00  0.10566000000E+00 0. -1.
     999900   -1    0    0    0    0 -0.00000000000E+00 -0.00000000000E+00 -0.74505805969E-08  0.93827000000E+00  0.93827000000E+00 0.  1.
     999902    2    1    2    0    0  0.22072222250E-01  0.58130945708E-02 -0.60281533033E-02  0.10203225076E+01  0.10200493644E+01 0.  0.
     999903    2    3    3    0    0 -0.11571504696E+00  0.80310637109E-02 -0.51433975553E-01  0.12844138347E+00  0.19931509488E-01 0.  0.
         14    1    1    2    0    0 -0.22072222250E-01 -0.58130945708E-02  0.60281533033E-02  0.23607492365E-01  0.00000000000E+00 0. -1.
     999901    1    3    3    0    0  0.13778726921E+00 -0.22179691401E-02  0.45405822250E-01  0.89188112416E+00  0.88000000000E+00 0. -1.
        -11    1    4    4    0    0 -0.52070137973E-01  0.81463880643E-02 -0.32976106732E-01  0.62171920054E-01  0.51100000000E-03 0.  1.
         11    1    4    4    0    0 -0.63644908984E-01 -0.11532435340E-03 -0.18457868821E-01  0.66269463418E-01  0.51100000000E-03 0. -1.
</event>
<event>
 8    1  0.1114686E+005  0.1043930E+01  0.7957747E-01            NaN
         13   -1    0    0    0    0  0.00000000000E+00  0.00000000000E+00  0.74505805969E-08  0.10566000000E+00  0.10566000000E+00 0. -1.
     999900   -1    0    0    0    0 -0.00000000000E+00 -0.00000000000E+00 -0.74505805969E-08  0.93827000000E+00  0.93827000000E+00 0. -1.
     999902    2    1    2    0    0 -0.19144335173E-01 -0.79484965234E-02 -0.60990174026E-02  0.10223225434E+01  0.10220941740E+01 0.  0.
     999903    2    3    3    0    0  0.95990566283E-01 -0.82535015604E-01  0.27376883138E-01  0.13106510011E+00  0.20058642012E-01 0.  0.
         14    1    1    2    0    0  0.19144335173E-01  0.79484965234E-02  0.60990174026E-02  0.21607456571E-01  0.00000000000E+00 0. -1.
     999901    1    3    3    0    0 -0.11513490146E+00  0.74586519081E-01 -0.33475900541E-01  0.89125744332E+00  0.88000000000E+00 0. -1.
        -11    1    4    4    0    0  0.30858503086E-01 -0.31904172197E-01  0.81531225966E-03  0.44396500666E-01  0.51100000000E-03 0. -1.
         11    1    4    4    0    0  0.65132063197E-01 -0.50630843407E-01  0.26561570879E-01  0.86668599441E-01  0.51100000000E-03 0.  1.
</event>
<event>
 8    1  0.1114686E+005  0.1043930E+01  0.7957747E-01            NaN
         13   -1    0    0    0    0  0.00000000000E+00  0.00000000000E+00  0.74505805969E-08  0.10566000000E+00  0.10566000000E+00 0.  1.
     999900   -1    0    0    0    0 -0.00000000000E+00 -0.00000000000E+00 -0.74505805969E-08  0.93827000000E+00  0.93827000000E+00 0.  1.
     999902    2    1    2    0    0 -0.17612053970E-01 -0.14427705955E-01 -0.63052069131E-02  0.10203058857E+01  0.10200323532E+01 0.  0.
     999903    2    3    3    0    0  0.18448391288E-01 -0.81110113752E-02  0.12654716269E+00  0.12958145664E+00  0.19262343428E-01 0.  0.
         14    1    1    2    0    0  0.17612053970E-01  0.14427705955E-01  0.63052069131E-02  0.23624114341E-01  0.00000000000E+00 0. -1.
     999901    1    3    3    0    0 -0.36060445258E-01 -0.63166945800E-02 -0.13285236960E+00  0.89072442902E+00  0.88000000000E+00 0.  1.
        -11    1    4    4    0    0  0.53744562124E-02 -0.11261134689E-02  0.89585038135E-01  0.89754627122E-01  0.51100000000E-03 0. -1.
         11    1    4    4    0    0  0.13073935076E-01 -0.69848979063E-02  0.36962124551E-01  0.39826829518E-01  0.51100000000E-03 0.  1.
</event>
<event>
 8    1  0.1114686E+005  0.1043930E+01  0.7957747E-01            NaN
         13   -1    0    0    0    0  0.00000000000E+00  0.00000000000E+00  0.74505805969E-08  0.10566000000E+00  0.10566000000E+00 0.  1.
     999900   -1    0    0    0    0 -0.00000000000E+00 -0.00000000000E+00 -0.74505805969E-08  0.93827000000E+00  0.93827000000E+00 0. -1.
     999902    2    1    2    0    0  0.20412162886E-01 -0.70290256682E-03  0.12480527600E-01  0.10199943773E+01  0.10197134968E+01 0.  0.
     999903    2    3    3    0    0  0.52414410504E-01 -0.72338633404E-01 -0.92946985349E-01  0.13023554351E+00  0.18493414968E-01 0.  0.
         14    1    1    2    0    0 -0.20412162886E-01  0.70290256682E-03 -0.12480527600E-01  0.23935622718E-01  0.00000000000E+00 0. -1.
     999901    1    3    3    0    0 -0.32002247617E-01  0.71635730837E-01  0.10542751295E+00  0.88975883377E+00  0.88000000000E+00 0.  1.
        -11    1    4    4    0    0  0.47158454132E-01 -0.59367862335E-01 -0.69120453736E-01  0.10259805612E+00  0.51100000000E-03 0.  1.
         11    1    4    4    0    0  0.52559563714E-02 -0.12970771068E-01 -0.23826531614E-01  0.27637487390E-01  0.51100000000E-03 0. -1.
</event>
<event>
 8    1  0.1114686E+005  0.1043930E+01  0.7957747E-01            NaN
         13   -1    0    0    0    0  0.00000000000E+00  0.00000000000E+00  0.74505805969E-08  0.10566000000E+00  0.10566000000E+00 0.  1.
     999900   -1    0    0    0    0 -0.00000000000E+00 -0.00000000000E+00 -0.74505805969E-08  0.93827000000E+00  0.93827000000E+00 0. -1.
     999902    2    1    2    0    0  0.21988898871E-01 -0.74897384164E-02  0.25203823771E-02  0.10205642091E+01  0.10202966945E+01 0.  0.
     999903    2    3    3    0    0  0.83235028129E-01  0.48837709287E-01 -0.87844999708E-01  0.13203183945E+00  0.20061677350E-01 0.  0.
         14    1    1    2    0    0 -0.21988898871E-01  0.74897384164E-02 -0.25203823771E-02  0.23365790858E-01  0.00000000000E+00 0. -1.
     999901    1    3    3    0    0 -0.61246129258E-01 -0.56327447704E-01  0.90365382085E-01  0.88853236969E+00  0.88000000000E+00 0. -1.
        -11    1    4    4    0    0  0.41634762821E-01  0.35614441620E-01 -0.52145755945E-01  0.75639162550E-01  0.51100000000E-03 0.  1.
         11    1    4    4    0    0  0.41600265308E-01  0.13223267667E-01 -0.35699243763E-01  0.56392676898E-01  0.51100000000E-03 0. -1.
</event>
<event>
 8    1  0.1114686E+005  0.1043930E+01  0.7957747E-01            NaN
         13   -1    0    0    0    0  0.00000000000E+00  0.00000000000E+00  0.74505805969E-08  0.10566000000E+00  0.10566000000E+00 0. -1.
     999900   -1    0    0    0    0 -0.00000000000E+00 -0.00000000000E+00 -0.74505805969E-08  0.93827000000E+00  0.93827000000E+00 0.  1.
     999902    2    1    2    0    0 -0.19666368082E-01  0.97955178417E-02 -0.10471742699E-01  0.10195912326E+01  0.10193006946E+01 0.  0.
     999903    2    3    3    0    0  0.10781613444E+00  0.55488766620E-01 -0.37712176214E-01  0.12881533337E+00  0.21630067255E-01 0.  0.
         14    1    1    2    0    0  0.19666368082E-01 -0.97955178417E-02  0.10471742699E-01  0.24338767398E-01  0.00000000000E+00 0. -1.
     999901    1    3    3    0    0 -0.12748250252E+00 -0.45693248778E-01  0.27240433515E-01  0.89077589923E+00  0.88000000000E+00 0. -1.
        -11    1    4    4    0    0  0.70624243060E-01  0.37002669651E-01 -0.35335480414E-01  0.87211458916E-01  0.51100000000E-03 0.  1.
         11    1    4    4    0    0  0.37191891382E-01  0.18486096969E-01 -0.23766958001E-02  0.41603874455E-01  0.51100000000E-03 0. -1.
</event>
<event>
 8    1  0.1114686E+005  0.1043930E+01  0.7957747E-01            NaN
         13   -1    0    0    0    0  0.00000000000E+00  0.00000000000E+00  0.74505805969E-08  0.10566000000E+00  0.10566000000E+00 0. -1.
     999900   -1    0    0    0    0 -0.00000000000E+00 -0.00000000000E+00 -0.74505805969E-08  0.93827000000E+00  0.93827000000E+00 0. -1.
     999902    2    1    2    0    0 -0.11369779196E-01 -0.20502298375E-01 -0.12635975640E-02  0.10204520785E+01  0.10201819601E+01 0.  0.
     999903    2    3    3    0    0  0.10757469613E+00 -0.71980586237E-01 -0.28909950147E-02  0.13095758684E+00  0.19698011478E-01 0.  0.
         14    1    1    2    0    0  0.11369779196E-01  0.20502298375E-01  0.12635975640E-02  0.23477921467E-01  0.00000000000E+00 0. -1.
     999901    1    3    3    0    0 -0.11894447533E+00  0.51478287862E-01  0.16273974506E-02  0.88949449169E+00  0.88000000000E+00 0.  1.
        -11    1    4    4    0    0  0.72085052967E-01 -0.50841601434E-01  0.69651222747E-02  0.88486707177E-01  0.51100000000E-03 0.  1.
         11    1    4    4    0    0  0.35489643162E-01 -0.21138984803E-01 -0.98561172893E-02  0.42470879662E-01  0.51100000000E-03 0. -1.
</event>
<event>
 8    1  0.1114686E+005  0.1043930E+01  0.7957747E-01            NaN
         13   -1    0    0    0    0  0.00000000000E+00  0.00000000000E+00  0.74505805969E-08  0.10566000000E+00  0.10566000000E+00 0. -1.
     999900   -1    0    0    0    0 -0.00000000000E+00 -0.00000000000E+00 -0.74505805969E-08  0.93827000000E+00  0.93827000000E+00 0. -1.
     999902    2    1    2    0    0  0.38972890900E-02 -0.23395441934E-01 -0.46473008614E-02  0.10197611570E+01  0.10194747100E+01 0.  0.
     999903    2    3    3    0    0  0.35591788100E-01  0.75483956924E-01 -0.96373561264E-01  0.12892144999E+00  0.19190461771E-01 0.  0.
         14    1    1    2    0    0 -0.38972890900E-02  0.23395441934E-01  0.46473008614E-02  0.24168842977E-01  0.00000000000E+00 0. -1.
     999901    1    3    3    0    0 -0.31694499010E-01 -0.98879398858E-01  0.91726260403E-01  0.89083970704E+00  0.88000000000E+00 0.  1.
        -11    1    4    4    0    0  0.36405907770E-01  0.60482617551E-01 -0.78972403740E-01  0.10592657277E+00  0.51100000000E-03 0. -1.
         11    1    4    4    0    0 -0.81411967028E-03  0.15001339373E-01 -0.17401157524E-01  0.22994877212E-01  0.51100000000E-03 0.  1.
</event>
<event>
 8    1  0.1114686E+005  0.1043930E+01  0.7957747E-01            NaN
         13   -1    0    0    0    0  0.00000000000E+00  0.00000000000E+00  0.74505805969E-08  0.10566000000E+00  0.10566000000E+00 0.  1.
     999900   -1    0    0    0    0 -0.00000000000E+00 -0.00000000000E+00 -0.74505805969E-08  0.93827000000E+00  0.93827000000E+00 0.  1.
     999902    2    1    2    0    0 -0.79995176167E-02  0.17907066243E-01 -0.11817762062E-01  0.10210320786E+01  0.10207752891E+01 0.  0.
     999903    2    3    3    0    0  0.39939270712E-01 -0.15680276294E-01 -0.12322362963E+00  0.13207904030E+00  0.20488864744E-01 0.  0.
         14    1    1    2    0    0  0.79995176167E-02 -0.17907066243E-01  0.11817762062E-01  0.22897921384E-01  0.00000000000E+00 0.  1.
     999901    1    3    3    0    0 -0.47938788329E-01  0.33587342537E-01  0.11140586756E+00  0.88895303832E+00  0.88000000000E+00 0. -1.
        -11    1    4    4    0    0  0.30958055583E-01 -0.18923945375E-01 -0.10947073686E+00  0.11532831510E+00  0.51100000000E-03 0. -1.
         11    1    4    4    0    0  0.89812151288E-02  0.32436690815E-02 -0.13752892771E-01  0.16750725204E-01  0.51100000000E-03 0.  1.
</event>
<event>
 8    1  0.1114686E+005  0.1043930E+01  0.7957747E-01            NaN
         13   -1    0    0    0    0  0.00000000000E+00  0.00000000000E+00  0.74505805969E-08  0.10566000000E+00  0.10566000000E+00 0. -1.
     999900   -1    0    0    0    0 -0.00000000000E+00 -0.00000000000E+00 -0.74505805969E-08  0.93827000000E+00  0.93827000000E+00 0.  1.
     999902    2    1    2    0    0  0.11583436885E-01  0.14169836408E-01 -0.13974986216E-01  0.10209026138E+01  0.10206428790E+01 0.  0.
     999903    2    3    3    0    0 -0.97029943695E-01 -0.25198805732E-01  0.78080008006E-01  0.12859051687E+00  0.19729257346E-01 0.  0.
         14    1    1    2    0    0 -0.11583436885E-01 -0.14169836408E-01  0.13974986216E-01  0.23027386165E-01  0.00000000000E+00 0. -1.
     999901    1    3    3    0    0  0.10861338058E+00  0.39368642139E-01 -0.92054994222E-01  0.89231209696E+00  0.88000000000E+00 0.  1.
        -11    1    4    4    0    0 -0.62937357997E-01 -0.22638609738E-01  0.42516494506E-01  0.79256110859E-01  0.51100000000E-03 0.  1.
         11    1    4    4    0    0 -0.34092585698E-01 -0.25601959931E-02  0.35563513501E-01  0.49334406012E-01  0.51100000000E-03 0. -1.
</event>
<event>
 8    1  0.1191007E+005  0.1043930E+01  0.7957747E-01            NaN
         13   -1    0    0    0    0  0.00000000000E+00  0.00000000000E+00  0.74505805969E-08  0.10566000000E+00  0.10566000000E+00 0.  1.
     999900   -1    0    0    0    0 -0.00000000000E+00 -0.00000000000E+00 -0.74505805969E-08  0.93827000000E+00  0.93827000000E+00 0.  1.
     999902    2    1    2    0    0 -0.18058652911E-01  0.62645243411E-02 -0.10778485854E-01  0.10219860950E+01  0.10217504800E+01 0.  0.
     999903    2    3    3    0    0 -0.73114990327E-01 -0.71935105408E-01 -0.83766154905E-01  0.13380053880E+00  0.19114242696E-01 0.  0.
         14    1    1    2    0    0  0.18058652911E-01 -0.62645243411E-02  0.10778485854E-01  0.21943905019E-01  0.00000000000E+00 0.  1.
     999901    1    3    3    0    0  0.55056337415E-01  0.78199629749E-01  0.72987669050E-01  0.88818555619E+00  0.88000000000E+00 0. -1.
        -11    1    4    4    0    0 -0.32735308073E-01 -0.45551666630E-01 -0.44741678321E-01  0.71753979871E-01  0.51100000000E-03 0. -1.
         11    1    4    4    0    0 -0.40379682254E-01 -0.26383438779E-01 -0.39024476584E-01  0.62046558924E-01  0.51100000000E-03 0.  1.
</event>
<event>
 8    1  0.1114686E+005  0.1043930E+01  0.7957747E-01            NaN
         13   -1    0    0    0    0  0.00000000000E+00  0.00000000000E+00  0.74505805969E-08  0.10566000000E+00  0.10566000000E+00 0. -1.
     999900   -1    0    0    0    0 -0.00000000000E+00 -0.00000000000E+00 -0.74505805969E-08  0.93827000000E+00  0.93827000000E+00 0.  1.
     999902    2    1    2    0    0  0.13446386876E-01  0.16310552206E-01 -0.11606902088E-01  0.10198144530E+01  0.10195292830E+01 0.  0.
     999903    2    3    3    0    0  0.53392495329E-01  0.34286792181E-01  0.11167975202E+00  0.13014123437E+00  0.20929194862E-01 0.  0.
         14    1    1    2    0    0 -0.13446386876E-01 -0.16310552206E-01  0.11606902088E-01  0.24115547047E-01  0.00000000000E+00 0. -1.
     999901    1    3    3    0    0 -0.39946108453E-01 -0.17976239975E-01 -0.12328665410E+00  0.88967321858E+00  0.88000000000E+00 0.  1.
        -11    1    4    4    0    0  0.41165765754E-01  0.14828191030E-01  0.70324446254E-01  0.82826833703E-01  0.51100000000E-03 0. -1.
         11    1    4    4    0    0  0.12226729576E-01  0.19458601151E-01  0.41355305761E-01  0.47314400667E-01  0.51100000000E-03 0.  1.
</event>
<event>
 8    1  0.1114686E+005  0.1043930E+01  0.7957747E-01            NaN
         13   -1    0    0    0    0  0.00000000000E+00  0.00000000000E+00  0.74505805969E-08  0.10566000000E+00  0.10566000000E+00 0.  1.
     999900   -1    0    0    0    0 -0.00000000000E+00 -0.00000000000E+00 -0.74505805969E-08  0.93827000000E+00  0.93827000000E+00 0. -1.
     999902    2    1    2    0    0  0.19838612134E-01 -0.68079111080E-02 -0.98510336351E-02  0.10207575800E+01  0.10204945253E+01 0.  0.
     999903    2    3    3    0    0  0.10098967466E+00  0.80851750718E-01  0.18486144752E-01  0.13223481330E+00  0.20208619935E-01 0.  0.
         14    1    1    2    0    0 -0.19838612134E-01  0.68079111080E-02  0.98510336351E-02  0.23172420002E-01  0.00000000000E+00 0.  1.
     999901    1    3    3    0    0 -0.81151062522E-01 -0.87659661826E-01 -0.28337178387E-01  0.88852276670E+00  0.88000000000E+00 0. -1.
        -11    1    4    4    0    0  0.93759117069E-01  0.67382480366E-01  0.14081063932E-01  0.11631727377E+00  0.51100000000E-03 0.  1.
         11    1    4    4    0    0  0.72305575877E-02  0.13469270352E-01  0.44050808201E-02  0.15917539536E-01  0.51100000000E-03 0. -1.
</event>
<event>
 8    1  0.1114686E+005  0.1043930E+01  0.7957747E-01            NaN
         13   -1    0    0    0    0  0.00000000000E+00  0.00000000000E+00  0.74505805969E-08  0.10566000000E+00  0.10566000000E+00 0.  1.
     999900   -1    0    0    0    0 -0.00000000000E+00 -0.00000000000E+00 -0.74505805969E-08  0.93827000000E+00  0.93827000000E+00 0.  1.
     999902    2    1    2    0    0  0.10761307153E-01 -0.18670792392E-01 -0.13122083466E-01  0.10186991995E+01  0.10183866975E+01 0.  0.
     999903    2    3    3    0    0 -0.42965122613E-01 -0.11257736591E+00 -0.48593929756E-01  0.13136429896E+00  0.19378956502E-01 0.  0.
         14    1    1    2    0    0 -0.10761307153E-01  0.18670792392E-01  0.13122083466E-01  0.25230800516E-01  0.00000000000E+00 0.  1.
     999901    1    3    3    0    0  0.53726429765E-01  0.93906573522E-01  0.35471846290E-01  0.88733490052E+00  0.88000000000E+00 0.  1.
        -11    1    4    4    0    0 -0.22096784792E-01 -0.82464243699E-01 -0.32657433809E-01  0.91407814168E-01  0.51100000000E-03 0.  1.
         11    1    4    4    0    0 -0.20868337820E-01 -0.30113122215E-01 -0.15936495947E-01  0.39956484793E-01  0.51100000000E-03 0. -1.
</event>
<event>
 8    1  0.1114686E+005  0.1043930E+01  0.7957747E-01            NaN
         13   -1    0    0    0    0  0.00000000000E+00  0.00000000000E+00  0.74505805969E-08  0.10566000000E+00  0.10566000000E+00 0.  1.
     999900   -1    0    0    0    0 -0.00000000000E+00 -0.00000000000E+00 -0.74505805969E-08  0.93827000000E+00  0.93827000000E+00 0.  1.
     999902    2    1    2    0    0 -0.12839950543E-01  0.19950104277E-01 -0.44935981317E-02  0.10197832939E+01  0.10194973777E+01 0.  0.
     999903    2    3    3    0    0 -0.36467872461E-01 -0.43302739596E-01  0.11439881519E+00  0.12922470129E+00  0.20171800306E-01 0.  0.
         14    1    1    2    0    0  0.12839950543E-01 -0.19950104277E-01  0.44935981317E-02  0.24146706086E-01  0.00000000000E+00 0. -1.
     999901    1    3    3    0    0  0.23627921919E-01  0.63252843873E-01 -0.11889241332E+00  0.89055859262E+00  0.88000000000E+00 0.  1.
        -11    1    4    4    0    0 -0.16898975801E-01 -0.32972369719E-01  0.60327499841E-01  0.70798452709E-01  0.51100000000E-03 0. -1.
         11    1    4    4    0    0 -0.19568896660E-01 -0.10330369877E-01  0.54071315351E-01  0.58426248580E-01  0.51100000000E-03 0.  1.
</event>
<event>
 8    1  0.1114686E+005  0.1043930E+01  0.7957747E-01            NaN
         13   -1    0    0    0    0  0.00000000000E+00  0.00000000000E+00  0.74505805969E-08  0.10566000000E+00  0.10566000000E+00 0. -1.
     999900   -1    0    0    0    0 -0.00000000000E+00 -0.00000000000E+00 -0.74505805969E-08  0.93827000000E+00  0.93827000000E+00 0. -1.
     999902    2    1    2    0    0  0.12432380816E-01  0.16326468696E-01  0.15245924642E-01  0.10183652608E+01  0.10180443254E+01 0.  0.
     999903    2    3    3    0    0  0.98220987393E-01  0.81426824800E-01  0.25887821030E-01  0.13173625644E+00  0.20163626233E-01 0.  0.
         14    1    1    2    0    0 -0.12432380816E-01 -0.16326468696E-01 -0.15245924642E-01  0.25564739213E-01  0.00000000000E+00 0.  1.
     999901    1    3    3    0    0 -0.85788606577E-01 -0.65100356103E-01 -0.10641896388E-01  0.88662900434E+00  0.88000000000E+00 0. -1.
        -11    1    4    4    0    0  0.43765517147E-01  0.23586194167E-01  0.93785977521E-02  0.50595931291E-01  0.51100000000E-03 0.  1.
         11    1    4    4    0    0  0.54455470246E-01  0.57840630633E-01  0.16509223278E-01  0.81140325153E-01  0.51100000000E-03 0. -1.
</event>
<event>
 8    1  0.1114686E+005  0.1043930E+01  0.7957747E-01            NaN
         13   -1    0    0    0    0  0.00000000000E+00  0.00000000000E+00  0.74505805969E-08  0.10566000000E+00  0.10566000000E+00 0. -1.
     999900   -1    0    0    0    0 -0.00000000000E+00 -0.00000000000E+00 -0.74505805969E-08  0.93827000000E+00  0.93827000000E+00 0.  1.
     999902    2    1    2    0    0 -0.14105148855E-01 -0.18013298983E-01 -0.19766734833E-02  0.10209660848E+01  0.10207077960E+01 0.  0.
     999903    2    3    3    0    0 -0.12170505900E+00  0.42303839417E-01 -0.19505981222E-01  0.13218986183E+00  0.22179721628E-01 0.  0.
         14    1    1    2    0    0  0.14105148855E-01  0.18013298983E-01  0.19766734833E-02  0.22963915227E-01  0.00000000000E+00 0.  1.
     999901    1    3    3    0    0  0.10759991014E+00 -0.60317138401E-01  0.17529307739E-01  0.88877622295E+00  0.88000000000E+00 0. -1.
        -11    1    4    4    0    0 -0.10596527812E+00  0.36065071448E-01 -0.24387808157E-01  0.11456158105E+00  0.51100000000E-03 0.  1.
         11    1    4    4    0    0 -0.15739780879E-01  0.62387679692E-02  0.48818269350E-02  0.17628280776E-01  0.51100000000E-03 0. -1.
</event>
<event>
 8    1  0.1114686E+005  0.1043930E+01  0.7957747E-01            NaN
         13   -1    0    0    0    0  0.00000000000E+00  0.00000000000E+00  0.74505805969E-08  0.10566000000E+00  0.10566000000E+00 0. -1.
     999900   -1    0    0    0    0 -0.00000000000E+00 -0.00000000000E+00 -0.74505805969E-08  0.93827000000E+00  0.93827000000E+00 0.  1.
     999902    2    1    2    0    0  0.16250394034E-01  0.89006525356E-02  0.14373787900E-01  0.10204799957E+01  0.10202105268E+01 0.  0.
     999903    2    3    3    0    0  0.12840579171E+00  0.84503337139E-02  0.28650485227E-01  0.13324673435E+00  0.19349067815E-01 0.  0.
         14    1    1    2    0    0 -0.16250394034E-01 -0.89006525356E-02 -0.14373787900E-01  0.23450004273E-01  0.00000000000E+00 0.  1.
     999901    1    3    3    0    0 -0.11215539768E+00  0.45031882177E-03 -0.14276697327E-01  0.88723326138E+00  0.88000000000E+00 0.  1.
        -11    1    4    4    0    0  0.64018928946E-01  0.88896165868E-02  0.56900912589E-02  0.64885181713E-01  0.51100000000E-03 0.  1.
         11    1    4    4    0    0  0.64386862765E-01 -0.43928287296E-03  0.22960393968E-01  0.68361552632E-01  0.51100000000E-03 0. -1.
</event>
<event>
 8    1  0.1114686E+005  0.1043930E+01  0.7957747E-01            NaN
         13   -1    0    0    0    0  0.00000000000E+00  0.00000000000E+00  0.74505805969E-08  0.10566000000E+00  0.10566000000E+00 0.  1.
     999900   -1    0    0    0    0 -0.00000000000E+00 -0.00000000000E+00 -0.74505805969E-08  0.93827000000E+00  0.93827000000E+00 0. -1.
     999902    2    1    2    0    0  0.23595551470E-01 -0.50331034787E-02  0.27217780500E-03  0.10198020854E+01  0.10195166194E+01 0.  0.
     999903    2    3    3    0    0 -0.64536023958E-02  0.61645069624E-01  0.11219612721E+00  0.12970327022E+00  0.19829365890E-01 0.  0.
         14    1    1    2    0    0 -0.23595551470E-01  0.50331034787E-02 -0.27217780500E-03  0.24127914551E-01  0.00000000000E+00 0. -1.
     999901    1    3    3    0    0  0.30049153866E-01 -0.66678173102E-01 -0.11192394941E+00  0.89009881523E+00  0.88000000000E+00 0. -1.
        -11    1    4    4    0    0 -0.10986234910E-01  0.57724096468E-01  0.97721221157E-01  0.11402835988E+00  0.51100000000E-03 0. -1.
         11    1    4    4    0    0  0.45326325141E-02  0.39209731562E-02  0.14474906058E-01  0.15674910347E-01  0.51100000000E-03 0.  1.
</event>
<event>
 8    1  0.1114686E+005  0.1043930E+01  0.7957747E-01            NaN
         13   -1    0    0    0    0  0.00000000000E+00  0.00000000000E+00  0.74505805969E-08  0.10566000000E+00  0.10566000000E+00 0.  1.
     999900   -1    0    0    0    0 -0.00000000000E+00 -0.00000000000E+00 -0.74505805969E-08  0.93827000000E+00  0.93827000000E+00 0.  1.
     999902    2    1    2    0    0  0.13375518193E-01  0.18657179050E-01  0.45603260040E-02  0.10205250563E+01  0.10202566339E+01 0.  0.
     999903    2    3    3    0    0  0.73148567773E-01  0.10683231936E+00  0.27585253063E-01  0.13380197658E+00  0.19446473268E-01 0.  0.
         14    1    1    2    0    0 -0.13375518193E-01 -0.18657179050E-01 -0.45603260040E-02  0.23404943715E-01  0.00000000000E+00 0.  1.
     999901    1    3    3    0    0 -0.59773049580E-01 -0.88175140306E-01 -0.23024927059E-01  0.88672307971E+00  0.88000000000E+00 0. -1.
        -11    1    4    4    0    0  0.51693325519E-01  0.58664339721E-01  0.16034307517E-01  0.79818950110E-01  0.51100000000E-03 0. -1.
         11    1    4    4    0    0  0.21455242254E-01  0.48167979635E-01  0.11550945546E-01  0.53983026465E-01  0.51100000000E-03 0.  1.
</event>
<event>
 8    1  0.1114686E+005  0.1043930E+01  0.7957747E-01            NaN
         13   -1    0    0    0    0  0.00000000000E+00  0.00000000000E+00  0.74505805969E-08  0.10566000000E+00  0.10566000000E+00 0. -1.
     999900   -1    0    0    0    0 -0.00000000000E+00 -0.00000000000E+00 -0.74505805969E-08  0.93827000000E+00  0.93827000000E+00 0.  1.
     999902    2    1    2    0    0  0.82710449121E-02  0.17610602858E-01 -0.13824491426E-01  0.10200624471E+01  0.10197831809E+01 0.  0.
     999903    2    3    3    0    0  0.78737449746E-01  0.20649790753E-01  0.99475275114E-01  0.12999975946E+00  0.19457832637E-01 0.  0.
         14    1    1    2    0    0 -0.82710449121E-02 -0.17610602858E-01  0.13824491426E-01  0.23867552873E-01  0.00000000000E+00 0.  1.
     999901    1    3    3    0    0 -0.70466404834E-01 -0.30391878954E-02 -0.11329976654E+00  0.89006268766E+00  0.88000000000E+00 0.  1.
        -11    1    4    4    0    0  0.16058478754E-01 -0.12557044537E-02  0.28968856503E-01  0.33149770763E-01  0.51100000000E-03 0. -1.
         11    1    4    4    0    0  0.62678970992E-01  0.21905495207E-01  0.70506418610E-01  0.96849988700E-01  0.51100000000E-03 0.  1.
</event>
<event>
 8    1  0.1114686E+005  0.1043930E+01  0.7957747E-01            NaN
         13   -1    0    0    0    0  0.00000000000E+00  0.00000000000E+00  0.74505805969E-08  0.10566000000E+00  0.10566000000E+00 0.  1.
     999900   -1    0    0    0    0 -0.00000000000E+00 -0.00000000000E+00 -0.74505805969E-08  0.93827000000E+00  0.93827000000E+00 0. -1.
     999902    2    1    2    0    0 -0.13652561297E-01  0.25163732396E-02 -0.17551710788E-01  0.10215517267E+01  0.10213065863E+01 0.  0.
     999903    2    3    3    0    0 -0.25766566374E-01  0.30067131396E-01 -0.12682075717E+00  0.13428315525E+00  0.19506742421E-01 0.  0.
         14    1    1    2    0    0  0.13652561297E-01 -0.25163732396E-02  0.17551710788E-01  0.22378273299E-01  0.00000000000E+00 0.  1.
     999901    1    3    3    0    0  0.12114005077E-01 -0.27550758156E-01  0.10926904639E+00  0.88726857146E+00  0.88000000000E+00 0.  1.
        -11    1    4    4    0    0 -0.26036889739E-01  0.20557307720E-01 -0.81937952686E-01  0.88400292643E-01  0.51100000000E-03 0. -1.
         11    1    4    4    0    0  0.27032336459E-03  0.95098236757E-02 -0.44882804487E-01  0.45882862604E-01  0.51100000000E-03 0.  1.
</event>
<event>
 8    1  0.1114686E+005  0.1043930E+01  0.7957747E-01            NaN
         13   -1    0    0    0    0  0.00000000000E+00  0.00000000000E+00  0.74505805969E-08  0.10566000000E+00  0.10566000000E+00 0.  1.
     999900   -1    0    0    0    0 -0.00000000000E+00 -0.00000000000E+00 -0.74505805969E-08  0.93827000000E+00  0.93827000000E+00 0. -1.
     999902    2    1    2    0    0 -0.87784032904E-02 -0.17100449204E-01  0.13291641131E-01  0.10205600738E+01  0.10202924633E+01 0.  0.
     999903    2    3    3    0    0  0.91062837845E-01  0.19439456027E-01  0.91070160209E-01  0.13075507485E+00  0.11523134590E-01 0.  0.
         14    1    1    2    0    0  0.87784032904E-02  0.17100449204E-01 -0.13291641131E-01  0.23369926214E-01  0.00000000000E+00 0. -1.
     999901    1    3    3    0    0 -0.99841241135E-01 -0.36539905230E-01 -0.77778519079E-01  0.88980499894E+00  0.88000000000E+00 0. -1.
        -11    1    4    4    0    0  0.35519325318E-01  0.11611354312E-01  0.42071429102E-01  0.56273548739E-01  0.51100000000E-03 0.  1.
         11    1    4    4    0    0  0.55543512527E-01  0.78281017145E-02  0.48998731108E-01  0.74481526109E-01  0.51100000000E-03 0. -1.
</event>
<event>
 8    1  0.1114686E+005  0.1043930E+01  0.7957747E-01            NaN
         13   -1    0    0    0    0  0.00000000000E+00  0.00000000000E+00  0.74505805969E-08  0.10566000000E+00  0.10566000000E+00 0. -1.
     999900   -1    0    0    0    0 -0.00000000000E+00 -0.00000000000E+00 -0.74505805969E-08  0.93827000000E+00  0.93827000000E+00 0. -1.
     999902    2    1    2    0    0 -0.94303592984E-02 -0.80576588899E-02 -0.20457989358E-01  0.10200053919E+01  0.10197247730E+01 0.  0.
     999903    2    3    3    0    0  0.28113199782E-01 -0.51639899081E-01  0.11216622367E+00  0.12821050947E+00  0.19991043660E-01 0.  0.
         14    1    1    2    0    0  0.94303592984E-02  0.80576588899E-02  0.20457989358E-01  0.23924608081E-01  0.00000000000E+00 0. -1.
     999901    1    3    3    0    0 -0.37543559080E-01  0.43582240191E-01 -0.13262421303E+00  0.89179488245E+00  0.88000000000E+00 0. -1.
        -11    1    4    4    0    0 -0.13146838491E-02 -0.12985133000E-01  0.17877491095E-01  0.22140638688E-01  0.51100000000E-03 0.  1.
         11    1    4    4    0    0  0.29427883631E-01 -0.38654766081E-01  0.94288732573E-01  0.10606987078E+00  0.51100000000E-03 0. -1.
</event>
<event>
 8    1  0.1114686E+005  0.1043930E+01  0.7957747E-01            NaN
         13   -1    0    0    0    0  0.00000000000E+00  0.00000000000E+00  0.74505805969E-08  0.10566000000E+00  0.10566000000E+00 0. -1.
     999900   -1    0    0    0    0 -0.00000000000E+00 -0.00000000000E+00 -0.74505805969E-08  0.93827000000E+00  0.93827000000E+00 0.  1.
     999902    2    1    2    0    0 -0.20759653586E-01 -0.20017942581E-01 -0.79322179639E-02  0.10140201133E+01  0.10135789011E+01 0.  0.
     999903    2    3    3    0    0 -0.38016399590E-01  0.72641735595E-01  0.90311871926E-01  0.12355084797E+00  0.19659843243E-01 0.  0.
         14    1    1    2    0    0  0.20759653586E-01  0.20017942581E-01  0.79322179639E-02  0.29909886727E-01  0.00000000000E+00 0.  1.
     999901    1    3    3    0    0  0.17256746004E-01 -0.92659678176E-01 -0.98244089890E-01  0.89046926530E+00  0.88000000000E+00 0.  1.
        -11    1    4    4    0    0 -0.35140256944E-01  0.53260700708E-01  0.76253736057E-01  0.99430545013E-01  0.51100000000E-03 0.  1.
         11    1    4    4    0    0 -0.28761426462E-02  0.19381034888E-01  0.14058135869E-01  0.24120302962E-01  0.51100000000E-03 0. -1.
</event>
<event>
 8    1  0.1114686E+005  0.1043930E+01  0.7957747E-01            NaN
         13   -1    0    0    0    0  0.00000000000E+00  0.00000000000E+00  0.74505805969E-08  0.10566000000E+00  0.10566000000E+00 0.  1.
     999900   -1    0    0    0    0 -0.00000000000E+00 -0.00000000000E+00 -0.74505805969E-08  0.93827000000E+00  0.93827000000E+00 0.  1.
     999902    2    1    2    0    0  0.61113661775E-02 -0.14977039794E-01  0.17223085797E-01  0.10203017288E+01  0.10200280989E+01 0.  0.
     999903    2    3    3    0    0  0.41507118973E-01  0.80314535921E-01 -0.88573812267E-01  0.12815469639E+00  0.20125615077E-01 0.  0.
         14    1    1    2    0    0 -0.61113661775E-02  0.14977039794E-01 -0.17223085797E-01  0.23628271243E-01  0.00000000000E+00 0. -1.
     999901    1    3    3    0    0 -0.35395752795E-01 -0.95291575715E-01  0.10579689806E+00  0.89214703237E+00  0.88000000000E+00 0. -1.
        -11    1    4    4    0    0 -0.15899828101E-04  0.14035364523E-01 -0.96478974641E-02  0.17039212323E-01  0.51100000000E-03 0.  1.
         11    1    4    4    0    0  0.41523018801E-01  0.66279171398E-01 -0.78925914803E-01  0.11111548407E+00  0.51100000000E-03 0. -1.
</event>
<event>
 8    1  0.1114686E+005  0.1043930E+01  0.7957747E-01            NaN
         13   -1    0    0    0    0  0.00000000000E+00  0.00000000000E+00  0.74505805969E-08  0.10566000000E+00  0.10566000000E+00 0.  1.
     999900   -1    0    0    0    0 -0.00000000000E+00 -0.00000000000E+00 -0.74505805969E-08  0.93827000000E+00  0.93827000000E+00 0. -1.
     999902    2    1    2    0    0 -0.17011339817E-01  0.16668970432E-01  0.34989074366E-02  0.10198575549E+01  0.10195734156E+01 0.  0.
     999903    2    3    3    0    0  0.28625736560E-02  0.96416265334E-01 -0.87013306414E-01  0.13140549415E+00  0.19793884157E-01 0.  0.
         14    1    1    2    0    0  0.17011339817E-01 -0.16668970432E-01 -0.34989074366E-02  0.24072445054E-01  0.00000000000E+00 0.  1.
     999901    1    3    3    0    0 -0.19873913473E-01 -0.79747294902E-01  0.90512213851E-01  0.88845206080E+00  0.88000000000E+00 0.  1.
        -11    1    4    4    0    0 -0.80737457413E-02  0.56222730764E-01 -0.49319599835E-01  0.75225427042E-01  0.51100000000E-03 0. -1.
         11    1    4    4    0    0  0.10936319397E-01  0.40193534570E-01 -0.37693706579E-01  0.56180067105E-01  0.51100000000E-03 0.  1.
</event>
<event>
 8    1  0.1114686E+005  0.1043930E+01  0.7957747E-01            NaN
         13   -1    0    0    0    0  0.00000000000E+00  0.00000000000E+00  0.74505805969E-08  0.10566000000E+00  0.10566000000E+00 0. -1.
     999900   -1    0    0    0    0 -0.00000000000E+00 -0.00000000000E+00 -0.74505805969E-08  0.93827000000E+00  0.93827000000E+00 0. -1.
     999902    2    1    2    0    0  0.13178639377E-02 -0.12700209640E-01  0.20955949173E-01  0.10193905645E+01  0.10190951570E+01 0.  0.
     999903    2    3    3    0    0 -0.37394625904E-02 -0.39984246456E-01  0.12477978684E+00  0.13285270037E+00  0.21612987901E-01 0.  0.
         14    1    1    2    0    0 -0.13178639377E-02  0.12700209640E-01 -0.20955949173E-01  0.24539435527E-01  0.00000000000E+00 0.  1.
     999901    1    3    3    0    0  0.50573265281E-02  0.27284036817E-01 -0.10382383767E+00  0.88653786410E+00  0.88000000000E+00 0. -1.
        -11    1    4    4    0    0 -0.50244379320E-02 -0.27018552538E-02  0.57617918910E-02  0.81243070560E-02  0.51100000000E-03 0. -1.
         11    1    4    4    0    0  0.12849753417E-02 -0.37282391202E-01  0.11901799495E+00  0.12472839332E+00  0.51100000000E-03 0.  1.
</event>
<event>
 8    1  0.1114686E+005  0.1043930E+01  0.7957747E-01            NaN
         13   -1    0    0    0    0  0.00000000000E+00  0.00000000000E+00  0.74505805969E-08  0.10566000000E+00  0.10566000000E+00 0. -1.
     999900   -1    0    0    0    0 -0.00000000000E+00 -0.00000000000E+00 -0.74505805969E-08  0.93827000000E+00  0.93827000000E+00 0. -1.
     999902    2    1    2    0    0  0.20112130134E-01 -0.10380948993E-01  0.64075052024E-02  0.10204072875E+01  0.10201361254E+01 0.  0.
     999903    2    3    3    0    0  0.79622729245E-01 -0.10497699526E+00  0.19564450826E-02  0.13332795885E+00  0.20311779506E-01 0.  0.
         14    1    1    2    0    0 -0.20112130134E-01  0.10380948993E-01 -0.64075052024E-02  0.23522712502E-01  0.00000000000E+00 0.  1.
     999901    1    3    3    0    0 -0.59510599111E-01  0.94596046271E-01  0.44510601198E-02  0.88707932865E+00  0.88000000000E+00 0. -1.
        -11    1    4    4    0    0  0.71759774706E-01 -0.88274437417E-01  0.76002243188E-02  0.11401695531E+00  0.51100000000E-03 0.  1.
         11    1    4    4    0    0  0.78629545391E-02 -0.16702557847E-01 -0.56437792361E-02  0.19311003542E-01  0.51100000000E-03 0. -1.
</event>
<event>
 8    1  0.1114686E+005  0.1043930E+01  0.7957747E-01            NaN
         13   -1    0    0    0    0  0.00000000000E+00  0.00000000000E+00  0.74505805969E-08  0.10566000000E+00  0.10566000000E+00 0.  1.
     999900   -1    0    0    0    0 -0.00000000000E+00 -0.00000000000E+00 -0.74505805969E-08  0.93827000000E+00  0.93827000000E+00 0.  1.
     999902    2    1    2    0    0 -0.75093196290E-02 -0.12079075457E-01  0.19133321314E-01  0.10200893220E+01  0.10198106917E+01 0.  0.
     999903    2    3    3    0    0  0.10497010985E+00  0.68305184670E-01 -0.25799942957E-01  0.12816317615E+00  0.87086422381E-02 0.  0.
         14    1    1    2    0    0  0.75093196290E-02  0.12079075457E-01 -0.19133321314E-01  0.23840678046E-01  0.00000000000E+00 0. -1.
     999901    1    3    3    0    0 -0.11247942948E+00 -0.80384260128E-01  0.44933264271E-01  0.89192614580E+00  0.88000000000E+00 0.  1.
        -11    1    4    4    0    0  0.57985340014E-01  0.33868616704E-01 -0.10904381584E-01  0.68033444075E-01  0.51100000000E-03 0.  1.
         11    1    4    4    0    0  0.46984769834E-01  0.34436567966E-01 -0.14895561373E-01  0.60129732074E-01  0.51100000000E-03 0. -1.
</event>
<event>
 8    1  0.1114686E+005  0.1043930E+01  0.7957747E-01            NaN
         13   -1    0    0    0    0  0.00000000000E+00  0.00000000000E+00  0.74505805969E-08  0.10566000000E+00  0.10566000000E+00 0.  1.
     999900   -1    0    0    0    0 -0.00000000000E+00 -0.00000000000E+00 -0.74505805969E-08  0.93827000000E+00  0.93827000000E+00 0. -1.
     999902    2    1    2    0    0  0.68707319818E-02  0.11177455524E-01  0.20033437545E-01  0.10199825348E+01  0.10197013730E+01 0.  0.
     999903    2    3    3    0    0  0.57365075170E-01 -0.11432157806E+00  0.68364896724E-02  0.12954789623E+00  0.19384136960E-01 0.  0.
         14    1    1    2    0    0 -0.68707319818E-02 -0.11177455524E-01 -0.20033437545E-01  0.23947465207E-01  0.00000000000E+00 0. -1.
     999901    1    3    3    0    0 -0.50494343188E-01  0.12549903359E+00  0.13196947872E-01  0.89043463857E+00  0.88000000000E+00 0.  1.
        -11    1    4    4    0    0  0.32328159835E-01 -0.52392036736E-01 -0.47546121060E-02  0.61748707589E-01  0.51100000000E-03 0. -1.
         11    1    4    4    0    0  0.25036915334E-01 -0.61929541328E-01  0.11591101778E-01  0.67799188638E-01  0.51100000000E-03 0.  1.
</event>
<event>
 8    1  0.1114686E+005  0.1043930E+01  0.7957747E-01            NaN
         13   -1    0    0    0    0  0.00000000000E+00  0.00000000000E+00  0.74505805969E-08  0.10566000000E+00  0.10566000000E+00 0. -1.
     999900   -1    0    0    0    0 -0.00000000000E+00 -0.00000000000E+00 -0.74505805969E-08  0.93827000000E+00  0.93827000000E+00 0.  1.
     999902    2    1    2    0    0 -0.11019515383E-01 -0.20963952427E-01  0.11207962950E-03  0.10202460480E+01  0.10199711118E+01 0.  0.
     999903    2    3    3    0    0 -0.65621015725E-01 -0.89323554284E-02 -0.11147639354E+00  0.13143894265E+00  0.21524512773E-01 0.  0.
         14    1    1    2    0    0  0.11019515383E-01  0.20963952427E-01 -0.11207962950E-03  0.23683952003E-01  0.00000000000E+00 0. -1.
     999901    1    3    3    0    0  0.54601500343E-01 -0.12031596999E-01  0.11158847317E+00  0.88880710534E+00  0.88000000000E+00 0. -1.
        -11    1    4    4    0    0 -0.58942299491E-01 -0.73355924021E-03 -0.91858122061E-01  0.10914627107E+00  0.51100000000E-03 0.  1.
         11    1    4    4    0    0 -0.66787162348E-02 -0.81987961882E-02 -0.19618271482E-01  0.22292671585E-01  0.51100000000E-03 0. -1.
</event>
<event>
 8    1  0.1114686E+005  0.1043930E+01  0.7957747E-01            NaN
         13   -1    0    0    0    0  0.00000000000E+00  0.00000000000E+00  0.74505805969E-08  0.10566000000E+00  0.10566000000E+00 0. -1.
     999900   -1    0    0    0    0 -0.00000000000E+00 -0.00000000000E+00 -0.74505805969E-08  0.93827000000E+00  0.93827000000E+00 0.  1.
     999902    2    1    2    0    0  0.17366434855E-01  0.48840620466E-02 -0.16017670214E-01  0.10198050569E+01  0.10195196620E+01 0.  0.
     999903    2    3    3    0    0  0.29895054275E-01 -0.61736804192E-01  0.10723058497E+00  0.12863423233E+00  0.18526200687E-01 0.  0.
         14    1    1    2    0    0 -0.17366434855E-01 -0.48840620466E-02  0.16017670214E-01  0.24124943124E-01  0.00000000000E+00 0. -1.
     999901    1    3    3    0    0 -0.12528619420E-01  0.66620866239E-01 -0.12324825518E+00  0.89117082455E+00  0.88000000000E+00 0.  1.
        -11    1    4    4    0    0  0.96752655997E-02 -0.29477669485E-01  0.63324023870E-01  0.70517635261E-01  0.51100000000E-03 0. -1.
         11    1    4    4    0    0  0.20219788675E-01 -0.32259134707E-01  0.43906561097E-01  0.58116597066E-01  0.51100000000E-03 0.  1.
</event>
<event>
 8    1  0.1114686E+005  0.1043930E+01  0.7957747E-01            NaN
         13   -1    0    0    0    0  0.00000000000E+00  0.00000000000E+00  0.74505805969E-08  0.10566000000E+00  0.10566000000E+00 0.  1.
     999900   -1    0    0    0    0 -0.00000000000E+00 -0.00000000000E+00 -0.74505805969E-08  0.93827000000E+00  0.93827000000E+00 0. -1.
     999902    2    1    2    0    0 -0.18210194696E-01 -0.73850718308E-02  0.12385006038E-01  0.10207020244E+01  0.10204376922E+01 0.  0.
     999903    2    3    3    0    0  0.11444622322E+00  0.24091764585E-01  0.51500227603E-01  0.12934434253E+00  0.19983352351E-01 0.  0.
         14    1    1    2    0    0  0.18210194696E-01  0.73850718308E-02 -0.12385006038E-01  0.23227975619E-01  0.00000000000E+00 0. -1.
     999901    1    3    3    0    0 -0.13265641791E+00 -0.31476836415E-01 -0.39115221565E-01  0.89135768186E+00  0.88000000000E+00 0. -1.
        -11    1    4    4    0    0  0.27685759714E-01  0.30531053133E-02  0.21404582148E-01  0.35131752033E-01  0.51100000000E-03 0. -1.
         11    1    4    4    0    0  0.86760463502E-01  0.21038659271E-01  0.30095645454E-01  0.94212590493E-01  0.51100000000E-03 0.  1.
</event>
<event>
 8    1  0.1114686E+005  0.1043930E+01  0.7957747E-01            NaN
         13   -1    0    0    0    0  0.00000000000E+00  0.00000000000E+00  0.74505805969E-08  0.10566000000E+00  0.10566000000E+00 0.  1.
     999900   -1    0    0    0    0 -0.00000000000E+00 -0.00000000000E+00 -0.74505805969E-08  0.93827000000E+00  0.93827000000E+00 0.  1.
     999902    2    1    2    0    0 -0.12793379501E-01  0.77324003419E-02 -0.18169332258E-01  0.10204016085E+01  0.10201303139E+01 0.  0.
     999903    2    3    3    0    0 -0.55655676385E-01 -0.90197000856E-01  0.71599285871E-01  0.12939894352E+00  0.19610598412E-01 0.  0.
         14    1    1    2    0    0  0.12793379501E-01 -0.77324003419E-02  0.18169332258E-01  0.23528391548E-01  0.00000000000E+00 0.  1.
     999901    1    3    3    0    0  0.42862296884E-01  0.97929401197E-01 -0.89768618129E-01  0.89100266493E+00  0.88000000000E+00 0.  1.
        -11    1    4    4    0    0 -0.44187438677E-01 -0.64850460897E-01  0.61837816909E-01  0.99911404436E-01  0.51100000000E-03 0.  1.
         11    1    4    4    0    0 -0.11468237708E-01 -0.25346539959E-01  0.97614689619E-02  0.29487539085E-01  0.51100000000E-03 0. -1.
</event>
<event>
 8    1  0.1114686E+005  0.1043930E+01  0.7957747E-01            NaN
         13   -1    0    0    0    0  0.00000000000E+00  0.00000000000E+00  0.74505805969E-08  0.10566000000E+00  0.10566000000E+00 0.  1.
     999900   -1    0    0    0    0 -0.00000000000E+00 -0.00000000000E+00 -0.74505805969E-08  0.93827000000E+00  0.93827000000E+00 0.  1.
     999902    2    1    2    0    0 -0.75345323945E-02  0.20537805523E-01 -0.78625935437E-02  0.10206836882E+01  0.10204189338E+01 0.  0.
     999903    2    3    3    0    0  0.10532178702E-01  0.10060339150E+00  0.82752644664E-01  0.13223108650E+00  0.20126869304E-01 0.  0.
         14    1    1    2    0    0  0.75345323945E-02 -0.20537805523E-01  0.78625935437E-02  0.23246311780E-01  0.00000000000E+00 0.  1.
     999901    1    3    3    0    0 -0.18066711097E-01 -0.80065585979E-01 -0.90615238208E-01  0.88845260172E+00  0.88000000000E+00 0.  1.
        -11    1    4    4    0    0 -0.30410028690E-03  0.42124292813E-01  0.45707104727E-01  0.62160671373E-01  0.51100000000E-03 0.  1.
         11    1    4    4    0    0  0.10836278989E-01  0.58479098689E-01  0.37045539938E-01  0.70070415127E-01  0.51100000000E-03 0. -1.
</event>
<event>
 8    1  0.1114686E+005  0.1043930E+01  0.7957747E-01            NaN
         13   -1    0    0    0    0  0.00000000000E+00  0.00000000000E+00  0.74505805969E-08  0.10566000000E+00  0.10566000000E+00 0.  1.
     999900   -1    0    0    0    0 -0.00000000000E+00 -0.00000000000E+00 -0.74505805969E-08  0.93827000000E+00  0.93827000000E+00 0. -1.
     999902    2    1    2    0    0 -0.87247208233E-02  0.22090823411E-01  0.34525052032E-02  0.10199290620E+01  0.10196466282E+01 0.  0.
     999903    2    3    3    0    0 -0.78887262829E-01  0.10450423514E+00  0.13242338502E-01  0.13324389039E+00  0.20838411568E-01 0.  0.
         14    1    1    2    0    0  0.87247208233E-02 -0.22090823411E-01 -0.34525052032E-02  0.24000937994E-01  0.00000000000E+00 0.  1.
     999901    1    3    3    0    0  0.70162542006E-01 -0.82413411734E-01 -0.97898332984E-02  0.88668517162E+00  0.88000000000E+00 0. -1.
        -11    1    4    4    0    0 -0.69083153047E-01  0.93142290898E-01  0.18295012221E-01  0.11740075375E+00  0.51100000000E-03 0. -1.
         11    1    4    4    0    0 -0.98041097818E-02  0.11361944246E-01 -0.50526737198E-02  0.15843136634E-01  0.51100000000E-03 0.  1.
</event>
<event>
 7    1  0.1114686E+005  0.1043930E+01  0.7957747E-01            NaN
         13   -1    0    0    0    0  0.00000000000E+00  0.00000000000E+00  0.74505805969E-08  0.10566000000E+00  0.10566000000E+00 0.  1.
     999900   -1    0    0    0    0 -0.00000000000E+00 -0.00000000000E+00 -0.74505805969E-08  0.93827000000E+00  0.93827000000E+00 0.  1.
     999902    2    1    2    0    0  0.10625402642E-02  0.23045154244E-01  0.37146843685E-02  0.10205632072E+01  0.10202956693E+01 0.  0.
         14    1    1    2    0    0 -0.10625402642E-02 -0.23045154244E-01 -0.37146843685E-02  0.23366792803E-01  0.00000000000E+00 0. -1.
     999901    1    3    3    0    0 -0.21444159465E-01  0.30618160694E-01 -0.11685723296E+00  0.88851164125E+00  0.88000000000E+00 0.  1.
        -11    1    3    3    0    0  0.29569205328E-01 -0.22191130940E-01  0.92553780976E-01  0.99665679599E-01  0.51100000000E-03 0.  1.
         11    1    3    3    0    0 -0.70625055992E-02  0.14618124490E-01  0.28018136353E-01  0.32385886349E-01  0.51100000000E-03 0. -1.
</event>
<event>
 8    1  0.1114686E+005  0.1043930E+01  0.7957747E-01            NaN
         13   -1    0    0    0    0  0.00000000000E+00  0.00000000000E+00  0.74505805969E-08  0.10566000000E+00  0.10566000000E+00 0. -1.
     999900   -1    0    0    0    0 -0.00000000000E+00 -0.00000000000E+00 -0.74505805969E-08  0.93827000000E+00  0.93827000000E+00 0. -1.
     999902    2    1    2    0    0  0.44208441720E-02 -0.21247584896E-01  0.80766284524E-02  0.10207732374E+01  0.10205105421E+01 0.  0.
     999903    2    3    3    0    0  0.10468864864E+00 -0.77439886868E-01  0.17875280355E-01  0.13324452181E+00  0.21861557837E-01 0.  0.
         14    1    1    2    0    0 -0.44208441720E-02  0.21247584896E-01 -0.80766284524E-02  0.23156762604E-01  0.00000000000E+00 0.  1.
     999901    1    3    3    0    0 -0.10026780447E+00  0.56192301972E-01 -0.97986519030E-02  0.88752871559E+00  0.88000000000E+00 0.  1.
        -11    1    4    4    0    0  0.64430643957E-01 -0.34205189371E-01  0.10807305062E-01  0.73745249503E-01  0.51100000000E-03 0.  1.
         11    1    4    4    0    0  0.40258004687E-01 -0.43234697497E-01  0.70679752937E-02  0.59499272305E-01  0.51100000000E-03 0. -1.
</event>
<event>
 8    1  0.1114686E+005  0.1043930E+01  0.7957747E-01            NaN
         13   -1    0    0    0    0  0.00000000000E+00  0.00000000000E+00  0.74505805969E-08  0.10566000000E+00  0.10566000000E+00 0.  1.
     999900   -1    0    0    0    0 -0.00000000000E+00 -0.00000000000E+00 -0.74505805969E-08  0.93827000000E+00  0.93827000000E+00 0. -1.
     999902    2    1    2    0    0  0.21941002141E-01 -0.17030745344E-02  0.54735494323E-02  0.10212525270E+01  0.10210007131E+01 0.  0.
     999903    2    3    3    0    0  0.95553853688E-01  0.90804380408E-01 -0.33681973855E-02  0.13330283383E+00  0.19553165923E-01 0.  0.
         14    1    1    2    0    0 -0.21941002141E-01  0.17030745344E-02 -0.54735494323E-02  0.22677472990E-01  0.00000000000E+00 0. -1.
     999901    1    3    3    0    0 -0.73612851547E-01 -0.92507454942E-01  0.88417468179E-02  0.88794969318E+00  0.88000000000E+00 0.  1.
        -11    1    4    4    0    0  0.21910325275E-01  0.23000252369E-01  0.73993166631E-02  0.32620315308E-01  0.51100000000E-03 0. -1.
         11    1    4    4    0    0  0.73643528412E-01  0.67804128039E-01 -0.10767514049E-01  0.10068251852E+00  0.51100000000E-03 0.  1.
</event>
<event>
 8    1  0.1114686E+005  0.1043930E+01  0.7957747E-01            NaN
         13   -1    0    0    0    0  0.00000000000E+00  0.00000000000E+00  0.74505805969E-08  0.10566000000E+00  0.10566000000E+00 0. -1.
     999900   -1    0    0    0    0 -0.00000000000E+00 -0.00000000000E+00 -0.74505805969E-08  0.93827000000E+00  0.93827000000E+00 0. -1.
     999902    2    1    2    0    0 -0.80516316142E-02 -0.80962012958E-02  0.21193614325E-01  0.10198562272E+01  0.10195720562E+01 0.  0.
     999903    2    3    3    0    0 -0.37526421189E-01 -0.11330238904E+00  0.54666864006E-01  0.13246817029E+00  0.17711196164E-01 0.  0.
         14    1    1    2    0    0  0.80516316142E-02  0.80962012958E-02 -0.21193614325E-01  0.24073772767E-01  0.00000000000E+00 0.  1.
     999901    1    3    3    0    0  0.29474789574E-01  0.10520618775E+00 -0.33473249681E-01  0.88738805694E+00  0.88000000000E+00 0. -1.
        -11    1    4    4    0    0 -0.90352374873E-02 -0.54253747111E-01  0.22339646281E-01  0.59366872151E-01  0.51100000000E-03 0. -1.
         11    1    4    4    0    0 -0.28491183701E-01 -0.59048641932E-01  0.32327217725E-01  0.73101298139E-01  0.51100000000E-03 0.  1.
</event>
<event>
 8    1  0.1114686E+005  0.1043930E+01  0.7957747E-01            NaN
         13   -1    0    0    0    0  0.00000000000E+00  0.00000000000E+00  0.74505805969E-08  0.10566000000E+00  0.10566000000E+00 0. -1.
     999900   -1    0    0    0    0 -0.00000000000E+00 -0.00000000000E+00 -0.74505805969E-08  0.93827000000E+00  0.93827000000E+00 0.  1.
     999902    2    1    2    0    0  0.22666945462E-01  0.52956616118E-03 -0.70168856978E-02  0.10201958992E+01  0.10199197837E+01 0.  0.
     999903    2    3    3    0    0  0.51608557753E-01 -0.11788193984E+00  0.17950439748E-01  0.13144268877E+00  0.19883841911E-01 0.  0.
         14    1    1    2    0    0 -0.22666945462E-01 -0.52956616118E-03  0.70168856978E-02  0.23734100821E-01  0.00000000000E+00 0. -1.
     999901    1    3    3    0    0 -0.28941612291E-01  0.11841150600E+00 -0.24967325446E-01  0.88875321041E+00  0.88000000000E+00 0.  1.
        -11    1    4    4    0    0  0.34130077302E-01 -0.55704365823E-01  0.46350102998E-02  0.65494908122E-01  0.51100000000E-03 0.  1.
         11    1    4    4    0    0  0.17478480450E-01 -0.62177574019E-01  0.13315429448E-01  0.65947780646E-01  0.51100000000E-03 0. -1.
</event>
<event>
 8    1  0.1114686E+005  0.1043930E+01  0.7957747E-01            NaN
         13   -1    0    0    0    0  0.00000000000E+00  0.00000000000E+00  0.74505805969E-08  0.10566000000E+00  0.10566000000E+00 0. -1.
     999900   -1    0    0    0    0 -0.00000000000E+00 -0.00000000000E+00 -0.74505805969E-08  0.93827000000E+00  0.93827000000E+00 0.  1.
     999902    2    1    2    0    0 -0.19071871052E-01 -0.85253925163E-02  0.74779194680E-02  0.10217413123E+01  0.10215003531E+01 0.  0.
     999903    2    3    3    0    0 -0.43541916986E-01 -0.77283174339E-01 -0.96465536741E-01  0.13262340233E+00  0.20366136028E-01 0.  0.
         14    1    1    2    0    0  0.19071871052E-01  0.85253925163E-02 -0.74779194680E-02  0.22188687716E-01  0.00000000000E+00 0.  1.
     999901    1    3    3    0    0  0.24470045933E-01  0.68757781822E-01  0.10394345621E+00  0.88911790995E+00  0.88000000000E+00 0. -1.
        -11    1    4    4    0    0 -0.19050947617E-01 -0.16042228399E-01 -0.29837312879E-01  0.38869243085E-01  0.51100000000E-03 0.  1.
         11    1    4    4    0    0 -0.24490969368E-01 -0.61240945940E-01 -0.66628223861E-01  0.93754159247E-01  0.51100000000E-03 0. -1.
</event>
<event>
 8    1  0.1114686E+005  0.1043930E+01  0.7957747E-01            NaN
         13   -1    0    0    0    0  0.00000000000E+00  0.00000000000E+00  0.74505805969E-08  0.10566000000E+00  0.10566000000E+00 0. -1.
     999900   -1    0    0    0    0 -0.00000000000E+00 -0.00000000000E+00 -0.74505805969E-08  0.93827000000E+00  0.93827000000E+00 0.  1.
     999902    2    1    2    0    0  0.16229048790E-01 -0.13017924881E-01 -0.95753890643E-02  0.10210272388E+01  0.10207703395E+01 0.  0.
     999903    2    3    3    0    0 -0.10149852908E+00 -0.45141082428E-01 -0.65834353683E-01  0.13082683953E+00  0.21019778483E-01 0.  0.
         14    1    1    2    0    0 -0.16229048790E-01  0.13017924881E-01  0.95753890643E-02  0.22902761156E-01  0.00000000000E+00 0.  1.
     999901    1    3    3    0    0  0.11772757787E+00  0.32123157547E-01  0.56258964618E-01  0.89020039932E+00  0.88000000000E+00 0. -1.
        -11    1    4    4    0    0 -0.48550541407E-01 -0.22519803088E-01 -0.43855995232E-01  0.69194696623E-01  0.51100000000E-03 0. -1.
         11    1    4    4    0    0 -0.52947987675E-01 -0.22621279340E-01 -0.21978358451E-01  0.61632142905E-01  0.51100000000E-03 0.  1.
</event>
<event>
 8    1  0.1114686E+005  0.1043930E+01  0.7957747E-01            NaN
         13   -1    0    0    0    0  0.00000000000E+00  0.00000000000E+00  0.74505805969E-08  0.10566000000E+00  0.10566000000E+00 0.  1.
     999900   -1    0    0    0    0 -0.00000000000E+00 -0.00000000000E+00 -0.74505805969E-08  0.93827000000E+00  0.93827000000E+00 0. -1.
     999902    2    1    2    0    0 -0.15722033037E-01  0.88028287546E-02  0.13231516895E-01  0.10215750194E+01  0.10213303947E+01 0.  0.
     999903    2    3    3    0    0 -0.10431185265E+00 -0.78685125833E-01  0.11940943730E-01  0.13280960386E+00  0.20578948212E-01 0.  0.
         14    1    1    2    0    0  0.15722033037E-01 -0.88028287546E-02 -0.13231516895E-01  0.22354980569E-01  0.00000000000E+00 0.  1.
     999901    1    3    3    0    0  0.88589819612E-01  0.87487954588E-01  0.12905731652E-02  0.88876541557E+00  0.88000000000E+00 0.  1.
        -11    1    4    4    0    0 -0.38877996594E-01 -0.40229868590E-01 -0.18221549749E-03  0.55948505516E-01  0.51100000000E-03 0.  1.
         11    1    4    4    0    0 -0.65433856056E-01 -0.38455257243E-01  0.12123159227E-01  0.76861098343E-01  0.51100000000E-03 0. -1.
</event>
<event>
 8    1  0.1114686E+005  0.1043930E+01  0.7957747E-01            NaN
         13   -1    0    0    0    0  0.00000000000E+00  0.00000000000E+00  0.74505805969E-08  0.10566000000E+00  0.10566000000E+00 0. -1.
     999900   -1    0    0    0    0 -0.00000000000E+00 -0.00000000000E+00 -0.74505805969E-08  0.93827000000E+00  0.93827000000E+00 0. -1.
     999902    2    1    2    0    0  0.17298623058E-01 -0.13039008250E-01 -0.13223761228E-01  0.10185503633E+01  0.10182341168E+01 0.  0.
     999903    2    3    3    0    0  0.44852891186E-01 -0.79416092810E-01  0.90005990479E-01  0.12960630623E+00  0.19442701624E-01 0.  0.
         14    1    1    2    0    0 -0.17298623058E-01  0.13039008250E-01  0.13223761228E-01  0.25379636657E-01  0.00000000000E+00 0.  1.
     999901    1    3    3    0    0 -0.27554268128E-01  0.66377084560E-01 -0.10322975171E+00  0.88894405712E+00  0.88000000000E+00 0. -1.
        -11    1    4    4    0    0  0.18934928447E-01 -0.49739526473E-01  0.44204026665E-01  0.69186769714E-01  0.51100000000E-03 0.  1.
         11    1    4    4    0    0  0.25917962739E-01 -0.29676566337E-01  0.45801963813E-01  0.60419536511E-01  0.51100000000E-03 0. -1.
</event>
<event>
 8    1  0.1114686E+005  0.1043930E+01  0.7957747E-01            NaN
         13   -1    0    0    0    0  0.00000000000E+00  0.00000000000E+00  0.74505805969E-08  0.10566000000E+00  0.10566000000E+00 0.  1.
     999900   -1    0    0    0    0 -0.00000000000E+00 -0.00000000000E+00 -0.74505805969E-08  0.93827000000E+00  0.93827000000E+00 0. -1.
     999902    2    1    2    0    0 -0.20066860599E-01  0.26289660369E-03  0.11971726009E-01  0.10205618543E+01  0.10202942851E+01 0.  0.
     999903    2    3    3    0    0 -0.70951975056E-01 -0.60638566473E-01 -0.89801352252E-01  0.13114854065E+00  0.20601901351E-01 0.  0.
         14    1    1    2    0    0  0.20066860599E-01 -0.26289660369E-03 -0.11971726009E-01  0.23368145681E-01  0.00000000000E+00 0.  1.
     999901    1    3    3    0    0  0.50885114457E-01  0.60901463077E-01  0.10177307826E+00  0.88941331367E+00  0.88000000000E+00 0.  1.
        -11    1    4    4    0    0 -0.74051660372E-02 -0.16665291710E-01 -0.15394102893E-01  0.23870650530E-01  0.51100000000E-03 0. -1.
         11    1    4    4    0    0 -0.63546809019E-01 -0.43973274763E-01 -0.74407249358E-01  0.10727789012E+00  0.51100000000E-03 0.  1.
</event>
<event>
 8    1  0.1114686E+005  0.1043930E+01  0.7957747E-01            NaN
         13   -1    0    0    0    0  0.00000000000E+00  0.00000000000E+00  0.74505805969E-08  0.10566000000E+00  0.10566000000E+00 0. -1.
     999900   -1    0    0    0    0 -0.00000000000E+00 -0.00000000000E+00 -0.74505805969E-08  0.93827000000E+00  0.93827000000E+00 0. -1.
     999902    2    1    2    0    0  0.89704151580E-02 -0.68143967354E-02  0.20770548039E-01  0.10203012037E+01  0.10200275615E+01 0.  0.
     999903    2    3    3    0    0 -0.38035556238E-01 -0.92137562748E-01  0.85080967278E-01  0.13259323702E+00  0.20153448891E-01 0.  0.
         14    1    1    2    0    0 -0.89704151580E-02  0.68143967354E-02 -0.20770548039E-01  0.23628796347E-01  0.00000000000E+00 0.  1.
     999901    1    3    3    0    0  0.47005971396E-01  0.85323166013E-01 -0.64310419239E-01  0.88770796664E+00  0.88000000000E+00 0. -1.
        -11    1    4    4    0    0 -0.20424435500E-01 -0.68242902965E-01  0.52340781752E-01  0.88397228045E-01  0.51100000000E-03 0.  1.
         11    1    4    4    0    0 -0.17611120738E-01 -0.23894659783E-01  0.32740185526E-01  0.44196008972E-01  0.51100000000E-03 0. -1.
</event>
<event>
 8    1  0.1114686E+005  0.1043930E+01  0.7957747E-01            NaN
         13   -1    0    0    0    0  0.00000000000E+00  0.00000000000E+00  0.74505805969E-08  0.10566000000E+00  0.10566000000E+00 0. -1.
     999900   -1    0    0    0    0 -0.00000000000E+00 -0.00000000000E+00 -0.74505805969E-08  0.93827000000E+00  0.93827000000E+00 0. -1.
     999902    2    1    2    0    0  0.12832928391E-01 -0.19177057884E-01  0.17769360419E-02  0.10207869427E+01  0.10205245618E+01 0.  0.
     999903    2    3    3    0    0 -0.97157395023E-02  0.11129476082E+00  0.60480729967E-01  0.12894756627E+00  0.22105129937E-01 0.  0.
         14    1    1    2    0    0 -0.12832928391E-01  0.19177057884E-01 -0.17769360419E-02  0.23143057314E-01  0.00000000000E+00 0. -1.
     999901    1    3    3    0    0  0.22548667893E-01 -0.13047181871E+00 -0.58703793925E-01  0.89183937641E+00  0.88000000000E+00 0. -1.
        -11    1    4    4    0    0 -0.94638321452E-02  0.66298975456E-01  0.47519612108E-01  0.82118773257E-01  0.51100000000E-03 0.  1.
         11    1    4    4    0    0 -0.25190735706E-03  0.44995785367E-01  0.12961117859E-01  0.46828793015E-01  0.51100000000E-03 0. -1.
</event>
<event>
 8    1  0.1114686E+005  0.1043930E+01  0.7957747E-01            NaN
         13   -1    0    0    0    0  0.00000000000E+00  0.00000000000E+00  0.74505805969E-08  0.10566000000E+00  0.10566000000E+00 0.  1.
     999900   -1    0    0    0    0 -0.00000000000E+00 -0.00000000000E+00 -0.74505805969E-08  0.93827000000E+00  0.93827000000E+00 0. -1.
     999902    2    1    2    0    0 -0.52407468244E-02  0.11474711488E-01  0.19935369940E-01  0.10203386159E+01  0.10200658496E+01 0.  0.
     999903    2    3    3    0    0  0.45840792637E-01  0.17709987310E-02  0.12300076662E+00  0.13279934253E+00  0.20048991994E-01 0.  0.
         14    1    1    2    0    0  0.52407468244E-02 -0.11474711488E-01 -0.19935369940E-01  0.23591384140E-01  0.00000000000E+00 0. -1.
     999901    1    3    3    0    0 -0.51081539461E-01  0.97037127570E-02 -0.10306539668E+00  0.88753927333E+00  0.88000000000E+00 0. -1.
        -11    1    4    4    0    0  0.37519161509E-01  0.77606268372E-02  0.81655220987E-01  0.90198398238E-01  0.51100000000E-03 0.  1.
         11    1    4    4    0    0  0.83216311275E-02 -0.59896281062E-02  0.41345545635E-01  0.42600944289E-01  0.51100000000E-03 0. -1.
</event>
<event>
 8    1  0.1114686E+005  0.1043930E+01  0.7957747E-01            NaN
         13   -1    0    0    0    0  0.00000000000E+00  0.00000000000E+00  0.74505805969E-08  0.10566000000E+00  0.10566000000E+00 0. -1.
     999900   -1    0    0    0    0 -0.00000000000E+00 -0.00000000000E+00 -0.74505805969E-08  0.93827000000E+00  0.93827000000E+00 0. -1.
     999902    2    1    2    0    0 -0.72994300663E-02  0.93829198732E-02 -0.20534150411E-01  0.10202029648E+01  0.10199270157E+01 0.  0.
     999903    2    3    3    0    0  0.29474292748E-02  0.10679796663E+00 -0.76525225317E-01  0.13299966799E+00  0.20452592974E-01 0.  0.
         14    1    1    2    0    0  0.72994300663E-02 -0.93829198732E-02  0.20534150411E-01  0.23727035165E-01  0.00000000000E+00 0. -1.
     999901    1    3    3    0    0 -0.10246859341E-01 -0.97415046761E-01  0.55991074906E-01  0.88720329684E+00  0.88000000000E+00 0.  1.
        -11    1    4    4    0    0 -0.78561218854E-02  0.25444779507E-01 -0.16655461494E-01  0.31413706782E-01  0.51100000000E-03 0. -1.
         11    1    4    4    0    0  0.10803551160E-01  0.81353187127E-01 -0.59869763822E-01  0.10158596121E+00  0.51100000000E-03 0.  1.
</event>
<event>
 8    1  0.1114686E+005  0.1043930E+01  0.7957747E-01            NaN
         13   -1    0    0    0    0  0.00000000000E+00  0.00000000000E+00  0.74505805969E-08  0.10566000000E+00  0.10566000000E+00 0.  1.
     999900   -1    0    0    0    0 -0.00000000000E+00 -0.00000000000E+00 -0.74505805969E-08  0.93827000000E+00  0.93827000000E+00 0. -1.
     999902    2    1    2    0    0 -0.12161030066E-01  0.21456505443E-02  0.20118038178E-01  0.10203242819E+01  0.10200511802E+01 0.  0.
     999903    2    3    3    0    0 -0.43920412519E-01 -0.80480693576E-01  0.93994065679E-01  0.13280333081E+00  0.19892099387E-01 0.  0.
         14    1    1    2    0    0  0.12161030066E-01 -0.21456505443E-02 -0.20118038178E-01  0.23605718135E-01  0.00000000000E+00 0. -1.
     999901    1    3    3    0    0  0.31759382453E-01  0.82626344120E-01 -0.73876027501E-01  0.88752095105E+00  0.88000000000E+00 0. -1.
        -11    1    4    4    0    0 -0.41596087259E-01 -0.72334422635E-01  0.75818470221E-01  0.11274397865E+00  0.51100000000E-03 0. -1.
         11    1    4    4    0    0 -0.23243252602E-02 -0.81462709413E-02  0.18175595457E-01  0.20059352168E-01  0.51100000000E-03 0.  1.
</event>
<event>
 8    1  0.1114686E+005  0.1043930E+01  0.7957747E-01            NaN
         13   -1    0    0    0    0  0.00000000000E+00  0.00000000000E+00  0.74505805969E-08  0.10566000000E+00  0.10566000000E+00 0. -1.
     999900   -1    0    0    0    0 -0.00000000000E+00 -0.00000000000E+00 -0.74505805969E-08  0.93827000000E+00  0.93827000000E+00 0. -1.
     999902    2    1    2    0    0  0.13401303246E-02  0.22853954023E-01  0.11150342927E-01  0.10184657248E+01  0.10181473387E+01 0.  0.
     999903    2    3    3    0    0 -0.68994994036E-02  0.13003395880E+00  0.37418134535E-03  0.13185895144E+00  0.20741492970E-01 0.  0.
         14    1    1    2    0    0 -0.13401303246E-02 -0.22853954023E-01 -0.11150342927E-01  0.25464275195E-01  0.00000000000E+00 0. -1.
     999901    1    3    3    0    0  0.82396297282E-02 -0.10718000477E+00  0.10776161582E-01  0.88660677337E+00  0.88000000000E+00 0.  1.
        -11    1    4    4    0    0 -0.44107179055E-02  0.25891683598E-01  0.78509067879E-02  0.27417723654E-01  0.51100000000E-03 0. -1.
         11    1    4    4    0    0 -0.24887814981E-02  0.10414227520E+00 -0.74767254426E-02  0.10444122779E+00  0.51100000000E-03 0.  1.
</event>
<event>
 8    1  0.1114686E+005  0.1043930E+01  0.7957747E-01            NaN
         13   -1    0    0    0    0  0.00000000000E+00  0.00000000000E+00  0.74505805969E-08  0.10566000000E+00  0.10566000000E+00 0.  1.
     999900   -1    0    0    0    0 -0.00000000000E+00 -0.00000000000E+00 -0.74505805969E-08  0.93827000000E+00  0.93827000000E+00 0.  1.
     999902    2    1    2    0    0 -0.11374205510E-01  0.66035098083E-02  0.19751876449E-01  0.10201999449E+01  0.10199239246E+01 0.  0.
     999903    2    3    3    0    0 -0.49446175820E-01 -0.10937221955E+00 -0.44150596738E-01  0.12947924185E+00  0.20208715063E-01 0.  0.
         14    1    1    2    0    0  0.11374205510E-01 -0.66035098083E-02 -0.19751876449E-01  0.23730055121E-01  0.00000000000E+00 0. -1.
     999901    1    3    3    0    0  0.38071970310E-01  0.11597572936E+00  0.63902473187E-01  0.89072070303E+00  0.88000000000E+00 0.  1.
        -11    1    4    4    0    0 -0.33752127450E-01 -0.74477312756E-01 -0.19832850669E-01  0.84140830216E-01  0.51100000000E-03 0.  1.
         11    1    4    4    0    0 -0.15694048370E-01 -0.34894906798E-01 -0.24317746069E-01  0.45338411635E-01  0.51100000000E-03 0. -1.
</event>
<event>
 8    1  0.1114686E+005  0.1043930E+01  0.7957747E-01            NaN
         13   -1    0    0    0    0  0.00000000000E+00  0.00000000000E+00  0.74505805969E-08  0.10566000000E+00  0.10566000000E+00 0.  1.
     999900   -1    0    0    0    0 -0.00000000000E+00 -0.00000000000E+00 -0.74505805969E-08  0.93827000000E+00  0.93827000000E+00 0.  1.
     999902    2    1    2    0    0 -0.18461806516E-01  0.10149932602E-01 -0.10181224008E-01  0.10205309241E+01  0.10202626379E+01 0.  0.
     999903    2    3    3    0    0 -0.12464754309E+00  0.36008140987E-01 -0.24936914766E-01  0.13364773673E+00  0.20156180151E-01 0.  0.
         14    1    1    2    0    0  0.18461806516E-01 -0.10149932602E-01  0.10181224008E-01  0.23399075921E-01  0.00000000000E+00 0.  1.
     999901    1    3    3    0    0  0.10618573658E+00 -0.25858208385E-01  0.14755690758E-01  0.88688318735E+00  0.88000000000E+00 0.  1.
        -11    1    4    4    0    0 -0.65312991964E-01  0.18728093158E-01 -0.28122407904E-02  0.68005133717E-01  0.51100000000E-03 0.  1.
         11    1    4    4    0    0 -0.59334551130E-01  0.17280047829E-01 -0.22124673976E-01  0.65642603012E-01  0.51100000000E-03 0. -1.
</event>
<event>
 8    1  0.1114686E+005  0.1043930E+01  0.7957747E-01            NaN
         13   -1    0    0    0    0  0.00000000000E+00  0.00000000000E+00  0.74505805969E-08  0.10566000000E+00  0.10566000000E+00 0. -1.
     999900   -1    0    0    0    0 -0.00000000000E+00 -0.00000000000E+00 -0.74505805969E-08  0.93827000000E+00  0.93827000000E+00 0.  1.
     999902    2    1    2    0    0  0.65461855439E-02  0.17016624041E-01 -0.17045431371E-01  0.10189707378E+01  0.10186650086E+01 0.  0.
     999903    2    3    3    0    0  0.91776723647E-01  0.23242572676E-01 -0.89318842783E-01  0.13188198629E+00  0.21256021341E-01 0.  0.
         14    1    1    2    0    0 -0.65461855439E-02 -0.17016624041E-01  0.17045431371E-01  0.24959262200E-01  0.00000000000E+00 0. -1.
     999901    1    3    3    0    0 -0.85230538103E-01 -0.62259486351E-02  0.72273411412E-01  0.88708875151E+00  0.88000000000E+00 0. -1.
        -11    1    4    4    0    0  0.28330769575E-01  0.17521641847E-01 -0.29759250579E-01  0.44671182588E-01  0.51100000000E-03 0.  1.
         11    1    4    4    0    0  0.63445954071E-01  0.57209308293E-02 -0.59559592204E-01  0.87210803700E-01  0.51100000000E-03 0. -1.
</event>
<event>
 8    1  0.1114686E+005  0.1043930E+01  0.7957747E-01            NaN
         13   -1    0    0    0    0  0.00000000000E+00  0.00000000000E+00  0.74505805969E-08  0.10566000000E+00  0.10566000000E+00 0.  1.
     999900   -1    0    0    0    0 -0.00000000000E+00 -0.00000000000E+00 -0.74505805969E-08  0.93827000000E+00  0.93827000000E+00 0.  1.
     999902    2    1    2    0    0  0.14999575317E-01  0.10662047445E-01  0.14382214457E-01  0.10205737458E+01  0.10203064521E+01 0.  0.
     999903    2    3    3    0    0 -0.78807667484E-01 -0.60047838802E-01  0.82357234478E-01  0.13016918040E+00  0.18571754273E-01 0.  0.
         14    1    1    2    0    0 -0.14999575317E-01 -0.10662047445E-01 -0.14382214457E-01  0.23356254154E-01  0.00000000000E+00 0. -1.
     999901    1    3    3    0    0  0.93807242801E-01  0.70709886247E-01 -0.67975020021E-01  0.89040456544E+00  0.88000000000E+00 0.  1.
        -11    1    4    4    0    0 -0.33930767474E-01 -0.36896302347E-01  0.44861740087E-01  0.67271620710E-01  0.51100000000E-03 0. -1.
         11    1    4    4    0    0 -0.44876900010E-01 -0.23151536456E-01  0.37495494391E-01  0.62897559693E-01  0.51100000000E-03 0.  1.
</event>
<event>
 8    1  0.1114686E+005  0.1043930E+01  0.7957747E-01            NaN
         13   -1    0    0    0    0  0.00000000000E+00  0.00000000000E+00  0.74505805969E-08  0.10566000000E+00  0.10566000000E+00 0. -1.
     999900   -1    0    0    0    0 -0.00000000000E+00 -0.00000000000E+00 -0.74505805969E-08  0.93827000000E+00  0.93827000000E+00 0. -1.
     999902    2    1    2    0    0 -0.17799754874E-01  0.83052184068E-02 -0.12028026449E-01  0.10208978193E+01  0.10206379751E+01 0.  0.
     999903    2    3    3    0    0  0.42977291629E-01  0.11789715791E+00  0.31261838451E-01  0.13096621803E+00  0.20689617750E-01 0.  0.
         14    1    1    2    0    0  0.17799754874E-01 -0.83052184068E-02  0.12028026449E-01  0.23032180674E-01  0.00000000000E+00 0. -1.
     999901    1    3    3    0    0 -0.60777046503E-01 -0.10959193950E+00 -0.43289864901E-01  0.88993160130E+00  0.88000000000E+00 0. -1.
        -11    1    4    4    0    0  0.20398800557E-01  0.37350700564E-01  0.18244617243E-01  0.46306728195E-01  0.51100000000E-03 0. -1.
         11    1    4    4    0    0  0.22578491072E-01  0.80546457344E-01  0.13017221208E-01  0.84659489833E-01  0.51100000000E-03 0.  1.
</event>
<event>
 8    1  0.1114686E+005  0.1043930E+01  0.7957747E-01            NaN
         13   -1    0    0    0    0  0.00000000000E+00  0.00000000000E+00  0.74505805969E-08  0.10566000000E+00  0.10566000000E+00 0. -1.
     999900   -1    0    0    0    0 -0.00000000000E+00 -0.00000000000E+00 -0.74505805969E-08  0.93827000000E+00  0.93827000000E+00 0.  1.
     999902    2    1    2    0    0 -0.19119971176E-01  0.99371998752E-02 -0.86368184497E-02  0.10207154384E+01  0.10204514149E+01 0.  0.
     999903    2    3    3    0    0  0.74812458700E-01 -0.43933457527E-01  0.92394971092E-01  0.12834064512E+00  0.20185089551E-01 0.  0.
         14    1    1    2    0    0  0.19119971176E-01 -0.99371998752E-02  0.86368184497E-02  0.23214561638E-01  0.00000000000E+00 0. -1.
     999901    1    3    3    0    0 -0.93932429876E-01  0.53870657402E-01 -0.10103178954E+00  0.89237479324E+00  0.88000000000E+00 0.  1.
        -11    1    4    4    0    0  0.36844660957E-01 -0.13129514125E-01  0.31360302342E-01  0.50136243040E-01  0.51100000000E-03 0. -1.
         11    1    4    4    0    0  0.37967797743E-01 -0.30803943402E-01  0.61034668750E-01  0.78204402082E-01  0.51100000000E-03 0.  1.
</event>
<event>
 8    1  0.1114686E+005  0.1043930E+01  0.7957747E-01            NaN
         13   -1    0    0    0    0  0.00000000000E+00  0.00000000000E+00  0.74505805969E-08  0.10566000000E+00  0.10566000000E+00 0.  1.
     999900   -1    0    0    0    0 -0.00000000000E+00 -0.00000000000E+00 -0.74505805969E-08  0.93827000000E+00  0.93827000000E+00 0.  1.
     999902    2    1    2    0    0 -0.15758555951E-01  0.91720784574E-02  0.13750094238E-01  0.10210930956E+01  0.10208376883E+01 0.  0.
     999903    2    3    3    0    0 -0.10251475243E+00 -0.26744527223E-01  0.79121771217E-01  0.13368670828E+00  0.19680881294E-01 0.  0.
         14    1    1    2    0    0  0.15758555951E-01 -0.91720784574E-02 -0.13750094238E-01  0.22836904353E-01  0.00000000000E+00 0.  1.
     999901    1    3    3    0    0  0.86756196475E-01  0.35916605680E-01 -0.65371676979E-01  0.88740638737E+00  0.88000000000E+00 0. -1.
        -11    1    4    4    0    0 -0.90454127109E-01 -0.21744633028E-01  0.60632153915E-01  0.11104637493E+00  0.51100000000E-03 0. -1.
         11    1    4    4    0    0 -0.12060625318E-01 -0.49998941952E-02  0.18489617302E-01  0.22640333345E-01  0.51100000000E-03 0.  1.
</event>
<event>
 8    1  0.1114686E+005  0.1043930E+01  0.7957747E-01            NaN
         13   -1    0    0    0    0  0.00000000000E+00  0.00000000000E+00  0.74505805969E-08  0.10566000000E+00  0.10566000000E+00 0. -1.
     999900   -1    0    0    0    0 -0.00000000000E+00 -0.00000000000E+00 -0.74505805969E-08  0.93827000000E+00  0.93827000000E+00 0.  1.
     999902    2    1    2    0    0 -0.24160211965E-01  0.15944337769E-02 -0.87867139971E-03  0.10197012954E+01  0.10194134106E+01 0.  0.
     999903    2    3    3    0    0 -0.59122745089E-02  0.34339281994E-01 -0.12422395713E+00  0.13030865334E+00  0.18292411912E-01 0.  0.
         14    1    1    2    0    0  0.24160211965E-01 -0.15944337769E-02  0.87867139971E-03  0.24228704560E-01  0.00000000000E+00 0.  1.
     999901    1    3    3    0    0 -0.18247937456E-01 -0.32744848217E-01  0.12334528573E+00  0.88939264210E+00  0.88000000000E+00 0.  1.
        -11    1    4    4    0    0 -0.46148341412E-02  0.28774610355E-01 -0.70617653558E-01  0.76396263065E-01  0.51100000000E-03 0. -1.
         11    1    4    4    0    0 -0.12974403677E-02  0.55646716389E-02 -0.53606303570E-01  0.53912390277E-01  0.51100000000E-03 0.  1.
</event>
<event>
 8    1  0.1114686E+005  0.1043930E+01  0.7957747E-01            NaN
         13   -1    0    0    0    0  0.00000000000E+00  0.00000000000E+00  0.74505805969E-08  0.10566000000E+00  0.10566000000E+00 0.  1.
     999900   -1    0    0    0    0 -0.00000000000E+00 -0.00000000000E+00 -0.74505805969E-08  0.93827000000E+00  0.93827000000E+00 0. -1.
     999902    2    1    2    0    0  0.14690095457E-01 -0.16942246700E-01 -0.93600133988E-02  0.10196308544E+01  0.10193412729E+01 0.  0.
     999903    2    3    3    0    0  0.55290306646E-01  0.34364762522E-01  0.10971505842E+00  0.12920418188E+00  0.20454135491E-01 0.  0.
         14    1    1    2    0    0 -0.14690095457E-01  0.16942246700E-01  0.93600133988E-02  0.24299145636E-01  0.00000000000E+00 0.  1.
     999901    1    3    3    0    0 -0.40600211188E-01 -0.51307009222E-01 -0.11907507182E+00  0.89042667248E+00  0.88000000000E+00 0. -1.
        -11    1    4    4    0    0  0.37581518295E-01  0.12371051262E-01  0.56789947232E-01  0.69215407637E-01  0.51100000000E-03 0.  1.
         11    1    4    4    0    0  0.17708788351E-01  0.21993711260E-01  0.52925111188E-01  0.59988774243E-01  0.51100000000E-03 0. -1.
</event>
<event>
 8    1  0.1114686E+005  0.1043930E+01  0.7957747E-01            NaN
         13   -1    0    0    0    0  0.00000000000E+00  0.00000000000E+00  0.74505805969E-08  0.10566000000E+00  0.10566000000E+00 0.  1.
     999900   -1    0    0    0    0 -0.00000000000E+00 -0.00000000000E+00 -0.74505805969E-08  0.93827000000E+00  0.93827000000E+00 0. -1.
     999902    2    1    2    0    0 -0.68978430453E-02 -0.15358962348E-01 -0.15358119886E-01  0.10211407523E+01  0.10208864218E+01 0.  0.
     999903    2    3    3    0    0 -0.46835833127E-01  0.76544922061E-01  0.89695440420E-01  0.12924523291E+00  0.24623928200E-01 0.  0.
         14    1    1    2    0    0  0.68978430453E-02  0.15358962348E-01  0.15358119886E-01  0.22789247673E-01  0.00000000000E+00 0. -1.
     999901    1    3    3    0    0  0.39937990082E-01 -0.91903884409E-01 -0.10505356031E+00  0.89189551942E+00  0.88000000000E+00 0. -1.
        -11    1    4    4    0    0 -0.24065497297E-01  0.57477105929E-01  0.51382582938E-01  0.80766309910E-01  0.51100000000E-03 0. -1.
         11    1    4    4    0    0 -0.22770335830E-01  0.19067816132E-01  0.38312857482E-01  0.48478923001E-01  0.51100000000E-03 0.  1.
</event>
<event>
 8    1  0.1114686E+005  0.1043930E+01  0.7957747E-01            NaN
         13   -1    0    0    0    0  0.00000000000E+00  0.00000000000E+00  0.74505805969E-08  0.10566000000E+00  0.10566000000E+00 0.  1.
     999900   -1    0    0    0    0 -0.00000000000E+00 -0.00000000000E+00 -0.74505805969E-08  0.93827000000E+00  0.93827000000E+00 0. -1.
     999902    2    1    2    0    0 -0.17290181405E-01  0.13665157488E-01 -0.59855632744E-02  0.10210933218E+01  0.10208379196E+01 0.  0.
     999903    2    3    3    0    0 -0.12811780443E+00  0.33605812988E-01 -0.53972021418E-03  0.13390109408E+00  0.19638971989E-01 0.  0.
         14    1    1    2    0    0  0.17290181405E-01 -0.13665157488E-01  0.59855632744E-02  0.22836678171E-01  0.00000000000E+00 0.  1.
     999901    1    3    3    0    0  0.11082762302E+00 -0.19940655500E-01 -0.54458430602E-02  0.88719222775E+00  0.88000000000E+00 0. -1.
        -11    1    4    4    0    0 -0.61401541238E-01  0.70531515167E-02  0.41020363117E-02  0.61943393802E-01  0.51100000000E-03 0.  1.
         11    1    4    4    0    0 -0.66716263189E-01  0.26552661471E-01 -0.46417565259E-02  0.71957700281E-01  0.51100000000E-03 0. -1.
</event>
<event>
 8    1  0.1114686E+005  0.1043930E+01  0.7957747E-01            NaN
         13   -1    0    0    0    0  0.00000000000E+00  0.00000000000E+00  0.74505805969E-08  0.10566000000E+00  0.10566000000E+00 0. -1.
     999900   -1    0    0    0    0 -0.00000000000E+00 -0.00000000000E+00 -0.74505805969E-08  0.93827000000E+00  0.93827000000E+00 0.  1.
     999902    2    1    2    0    0 -0.13953647874E-02  0.12299943690E-02  0.22427179170E-01  0.10214258161E+01  0.10211778784E+01 0.  0.
     999903    2    3    3    0    0  0.48427487387E-01 -0.12034227325E+00 -0.40906889505E-02  0.13127676664E+00  0.19732497509E-01 0.  0.
         14    1    1    2    0    0  0.13953647874E-02 -0.12299943690E-02 -0.22427179170E-01  0.22504183935E-01  0.00000000000E+00 0.  1.
     999901    1    3    3    0    0 -0.49822852175E-01  0.12157226762E+00  0.26517868121E-01  0.89014904942E+00  0.88000000000E+00 0. -1.
        -11    1    4    4    0    0  0.19552062074E-01 -0.30707358578E-01 -0.69323651957E-02  0.37061351977E-01  0.51100000000E-03 0. -1.
         11    1    4    4    0    0  0.28875425313E-01 -0.89634914677E-01  0.28416762452E-02  0.94215414668E-01  0.51100000000E-03 0.  1.
</event>
<event>
 8    1  0.1114686E+005  0.1043930E+01  0.7957747E-01            NaN
         13   -1    0    0    0    0  0.00000000000E+00  0.00000000000E+00  0.74505805969E-08  0.10566000000E+00  0.10566000000E+00 0.  1.
     999900   -1    0    0    0    0 -0.00000000000E+00 -0.00000000000E+00 -0.74505805969E-08  0.93827000000E+00  0.93827000000E+00 0. -1.
     999902    2    1    2    0    0  0.53134905129E-02  0.22016540441E-01 -0.78598745622E-02  0.10199562881E+01  0.10196745024E+01 0.  0.
     999903    2    3    3    0    0  0.76055132915E-01  0.61217528838E-01  0.85464851149E-01  0.13133341989E+00  0.20304120737E-01 0.  0.
         14    1    1    2    0    0 -0.53134905129E-02 -0.22016540441E-01  0.78598745622E-02  0.23973711906E-01  0.00000000000E+00 0.  1.
     999901    1    3    3    0    0 -0.70741642402E-01 -0.39200988397E-01 -0.93324725711E-01  0.88862286820E+00  0.88000000000E+00 0. -1.
        -11    1    4    4    0    0  0.27982169217E-02  0.24218517831E-04  0.77116837991E-02  0.82195980738E-02  0.51100000000E-03 0. -1.
         11    1    4    4    0    0  0.73256915994E-01  0.61193310321E-01  0.77753167349E-01  0.12311382182E+00  0.51100000000E-03 0.  1.
</event>
<event>
 8    1  0.1114686E+005  0.1043930E+01  0.7957747E-01            NaN
         13   -1    0    0    0    0  0.00000000000E+00  0.00000000000E+00  0.74505805969E-08  0.10566000000E+00  0.10566000000E+00 0. -1.
     999900   -1    0    0    0    0 -0.00000000000E+00 -0.00000000000E+00 -0.74505805969E-08  0.93827000000E+00  0.93827000000E+00 0. -1.
     999902    2    1    2    0    0 -0.17143959838E-01  0.93798387413E-02 -0.13001636797E-01  0.10204579039E+01  0.10201879211E+01 0.  0.
     999903    2    3    3    0    0 -0.11900340644E+00 -0.30793780708E-01 -0.46925721115E-01  0.13302333731E+00  0.19573382231E-01 0.  0.
         14    1    1    2    0    0  0.17143959838E-01 -0.93798387413E-02  0.13001636797E-01  0.23472096054E-01  0.00000000000E+00 0. -1.
     999901    1    3    3    0    0  0.10185944660E+00  0.40173619449E-01  0.33924084318E-01  0.88743456664E+00  0.88000000000E+00 0. -1.
        -11    1    4    4    0    0 -0.27538920247E-01 -0.63979871479E-02 -0.19900713983E-01  0.34577823904E-01  0.51100000000E-03 0. -1.
         11    1    4    4    0    0 -0.91464486196E-01 -0.24395793560E-01 -0.27025007132E-01  0.98445513407E-01  0.51100000000E-03 0.  1.
</event>
<event>
 8    1  0.1114686E+005  0.1043930E+01  0.7957747E-01            NaN
         13   -1    0    0    0    0  0.00000000000E+00  0.00000000000E+00  0.74505805969E-08  0.10566000000E+00  0.10566000000E+00 0.  1.
     999900   -1    0    0    0    0 -0.00000000000E+00 -0.00000000000E+00 -0.74505805969E-08  0.93827000000E+00  0.93827000000E+00 0. -1.
     999902    2    1    2    0    0  0.10943117633E-01 -0.14712020786E-01 -0.14038978408E-01  0.10208369644E+01  0.10205757295E+01 0.  0.
     999903    2    3    3    0    0 -0.29216823783E-01 -0.12503243236E+00  0.24681161968E-01  0.13219605638E+00  0.19491168065E-01 0.  0.
         14    1    1    2    0    0 -0.10943117633E-01  0.14712020786E-01  0.14038978408E-01  0.23093035614E-01  0.00000000000E+00 0.  1.
     999901    1    3    3    0    0  0.40159941415E-01  0.11032041158E+00 -0.38720140376E-01  0.88864090800E+00  0.88000000000E+00 0. -1.
        -11    1    4    4    0    0 -0.17114753895E-01 -0.35018229758E-01  0.93474738047E-02  0.40085254194E-01  0.51100000000E-03 0.  1.
         11    1    4    4    0    0 -0.12102069887E-01 -0.90014202605E-01  0.15333688164E-01  0.92110802189E-01  0.51100000000E-03 0. -1.
</event>
<event>
 8    1  0.1114686E+005  0.1043930E+01  0.7957747E-01            NaN
         13   -1    0    0    0    0  0.00000000000E+00  0.00000000000E+00  0.74505805969E-08  0.10566000000E+00  0.10566000000E+00 0. -1.
     999900   -1    0    0    0    0 -0.00000000000E+00 -0.00000000000E+00 -0.74505805969E-08  0.93827000000E+00  0.93827000000E+00 0. -1.
     999902    2    1    2    0    0 -0.37477045576E-02 -0.37750319877E-02 -0.22773125516E-01  0.10205438630E+01  0.10202758769E+01 0.  0.
     999903    2    3    3    0    0 -0.33633353221E-01  0.11376610360E+00 -0.53488138004E-01  0.13169489807E+00  0.20214759292E-01 0.  0.
         14    1    1    2    0    0  0.37477045576E-02  0.37750319877E-02  0.22773125516E-01  0.23386136956E-01  0.00000000000E+00 0. -1.
     999901    1    3    3    0    0  0.29885648663E-01 -0.11754113558E+00  0.30715012488E-01  0.88884896498E+00  0.88000000000E+00 0. -1.
        -11    1    4    4    0    0 -0.55675810315E-02  0.20047275423E-01 -0.13980074924E-02  0.20859212746E-01  0.51100000000E-03 0.  1.
         11    1    4    4    0    0 -0.28065772189E-01  0.93718828173E-01 -0.52090130511E-01  0.11083568532E+00  0.51100000000E-03 0. -1.
</event>
<event>
 8    1  0.1114686E+005  0.1043930E+01  0.7957747E-01            NaN
         13   -1    0    0    0    0  0.00000000000E+00  0.00000000000E+00  0.74505805969E-08  0.10566000000E+00  0.10566000000E+00 0.  1.
     999900   -1    0    0    0    0 -0.00000000000E+00 -0.00000000000E+00 -0.74505805969E-08  0.93827000000E+00  0.93827000000E+00 0.  1.
     999902    2    1    2    0    0 -0.90186806548E-02 -0.20302495160E-01  0.81956686945E-02  0.10202509608E+01  0.10199761400E+01 0.  0.
     999903    2    3    3    0    0  0.78206328242E-01 -0.23468705918E-01 -0.98483983891E-01  0.12952161061E+00  0.20242099652E-01 0.  0.
         14    1    1    2    0    0  0.90186806548E-02  0.20302495160E-01 -0.81956686945E-02  0.23679039166E-01  0.00000000000E+00 0. -1.
     999901    1    3    3    0    0 -0.87225008897E-01  0.31662107573E-02  0.10667965259E+00  0.89072935022E+00  0.88000000000E+00 0. -1.
        -11    1    4    4    0    0  0.45179374128E-01 -0.90127483522E-02 -0.68887586060E-01  0.82874399628E-01  0.51100000000E-03 0.  1.
         11    1    4    4    0    0  0.33026954115E-01 -0.14455957566E-01 -0.29596397831E-01  0.46647210986E-01  0.51100000000E-03 0. -1.
</event>
<event>
 8    1  0.1114686E+005  0.1043930E+01  0.7957747E-01            NaN
         13   -1    0    0    0    0  0.00000000000E+00  0.00000000000E+00  0.74505805969E-08  0.10566000000E+00  0.10566000000E+00 0.  1.
     999900   -1    0    0    0    0 -0.00000000000E+00 -0.00000000000E+00 -0.74505805969E-08  0.93827000000E+00  0.93827000000E+00 0.  1.
     999902    2    1    2    0    0 -0.16882875853E-01  0.10436343386E-01  0.10453114190E-01  0.10214975156E+01  0.10212511728E+01 0.  0.
     999903    2    3    3    0    0  0.10757143991E+00  0.33533168159E-01 -0.61507682070E-01  0.12953300048E+00  0.17306507690E-01 0.  0.
         14    1    1    2    0    0  0.16882875853E-01 -0.10436343386E-01 -0.10453114190E-01  0.22432484405E-01  0.00000000000E+00 0. -1.
     999901    1    3    3    0    0 -0.12445431576E+00 -0.23096824773E-01  0.71960796260E-01  0.89196451512E+00  0.88000000000E+00 0.  1.
        -11    1    4    4    0    0  0.28042583001E-01  0.13775913959E-01 -0.24044073822E-01  0.39427666349E-01  0.51100000000E-03 0.  1.
         11    1    4    4    0    0  0.79528856909E-01  0.19757254200E-01 -0.37463608248E-01  0.90105334130E-01  0.51100000000E-03 0. -1.
</event>
<event>
 8    1  0.1114686E+005  0.1043930E+01  0.7957747E-01            NaN
         13   -1    0    0    0    0  0.00000000000E+00  0.00000000000E+00  0.74505805969E-08  0.10566000000E+00  0.10566000000E+00 0.  1.
     999900   -1    0    0    0    0 -0.00000000000E+00 -0.00000000000E+00 -0.74505805969E-08  0.93827000000E+00  0.93827000000E+00 0.  1.
     999902    2    1    2    0    0 -0.17051564064E-01 -0.13075371356E-01  0.10129490432E-01  0.10201744165E+01  0.10198977950E+01 0.  0.
     999903    2    3    3    0    0  0.68256096189E-01  0.63332403249E-01  0.87555275955E-01  0.12938246702E+00  0.20099961589E-01 0.  0.
         14    1    1    2    0    0  0.17051564064E-01  0.13075371356E-01 -0.10129490432E-01  0.23755583545E-01  0.00000000000E+00 0.  1.
     999901    1    3    3    0    0 -0.85307660253E-01 -0.76407774606E-01 -0.77425785523E-01  0.89079194944E+00  0.88000000000E+00 0. -1.
        -11    1    4    4    0    0  0.94426301654E-02  0.12301428231E-01  0.60355063076E-02  0.16648629323E-01  0.51100000000E-03 0. -1.
         11    1    4    4    0    0  0.58813466023E-01  0.51030975018E-01  0.81519769648E-01  0.11273383769E+00  0.51100000000E-03 0.  1.
</event>
<event>
 8    1  0.1114686E+005  0.1043930E+01  0.7957747E-01            NaN
         13   -1    0    0    0    0  0.00000000000E+00  0.00000000000E+00  0.74505805969E-08  0.10566000000E+00  0.10566000000E+00 0.  1.
     999900   -1    0    0    0    0 -0.00000000000E+00 -0.00000000000E+00 -0.74505805969E-08  0.93827000000E+00  0.93827000000E+00 0.  1.
     999902    2    1    2    0    0  0.36511227033E-02  0.77311340583E-02  0.13825011399E-01  0.10276747833E+01  0.10275462170E+01 0.  0.
     999903    2    3    3    0    0 -0.20044554027E-01 -0.23476797356E-01 -0.13023587934E+00  0.13510043885E+00  0.18379340248E-01 0.  0.
         14    1    1    2    0    0 -0.36511227033E-02 -0.77311340583E-02 -0.13825011399E-01  0.16255216732E-01  0.00000000000E+00 0. -1.
     999901    1    3    3    0    0  0.23695676730E-01  0.31207931414E-01  0.14406089074E+00  0.89257434442E+00  0.88000000000E+00 0. -1.
        -11    1    4    4    0    0 -0.17656697802E-01 -0.13539510457E-01 -0.57652210814E-01  0.61798995570E-01  0.51100000000E-03 0.  1.
         11    1    4    4    0    0 -0.23878562248E-02 -0.99372868983E-02 -0.72583668529E-01  0.73301443276E-01  0.51100000000E-03 0. -1.
</event>
<event>
 8    1  0.1114686E+005  0.1043930E+01  0.7957747E-01            NaN
         13   -1    0    0    0    0  0.00000000000E+00  0.00000000000E+00  0.74505805969E-08  0.10566000000E+00  0.10566000000E+00 0.  1.
     999900   -1    0    0    0    0 -0.00000000000E+00 -0.00000000000E+00 -0.74505805969E-08  0.93827000000E+00  0.93827000000E+00 0. -1.
     999902    2    1    2    0    0  0.24816936339E-02  0.21359761169E-01  0.10274863158E-01  0.10200978576E+01  0.10198194291E+01 0.  0.
     999903    2    3    3    0    0  0.55239441909E-01 -0.11141320220E+00  0.24797078079E-01  0.12845727160E+00  0.20544536476E-01 0.  0.
         14    1    1    2    0    0 -0.24816936339E-02 -0.21359761169E-01 -0.10274863158E-01  0.23832142443E-01  0.00000000000E+00 0. -1.
     999901    1    3    3    0    0 -0.52757748276E-01  0.13277296337E+00 -0.14522214921E-01  0.89164058596E+00  0.88000000000E+00 0.  1.
        -11    1    4    4    0    0  0.24972374723E-01 -0.57119096217E-01  0.24164904494E-02  0.62388389938E-01  0.51100000000E-03 0. -1.
         11    1    4    4    0    0  0.30267067186E-01 -0.54294105980E-01  0.22380587630E-01  0.66068881660E-01  0.51100000000E-03 0.  1.
</event>
<event>
 8    1  0.1114686E+005  0.1043930E+01  0.7957747E-01            NaN
         13   -1    0    0    0    0  0.00000000000E+00  0.00000000000E+00  0.74505805969E-08  0.10566000000E+00  0.10566000000E+00 0. -1.
     999900   -1    0    0    0    0 -0.00000000000E+00 -0.00000000000E+00 -0.74505805969E-08  0.93827000000E+00  0.93827000000E+00 0. -1.
     999902    2    1    2    0    0  0.12941624917E-01 -0.84793148896E-02  0.17701185714E-01  0.10204200784E+01  0.10201492146E+01 0.  0.
     999903    2    3    3    0    0  0.86244534267E-01  0.33135396906E-01  0.93672626718E-01  0.13313390103E+00  0.20346999495E-01 0.  0.
         14    1    1    2    0    0 -0.12941624917E-01  0.84793148896E-02 -0.17701185714E-01  0.23509921569E-01  0.00000000000E+00 0.  1.
     999901    1    3    3    0    0 -0.73302909350E-01 -0.41614711796E-01 -0.75971441004E-01  0.88728617740E+00  0.88000000000E+00 0. -1.
        -11    1    4    4    0    0  0.10935589204E-01 -0.89924766121E-04  0.19342649536E-01  0.22225985013E-01  0.51100000000E-03 0.  1.
         11    1    4    4    0    0  0.75308945063E-01  0.33225321672E-01  0.74329977182E-01  0.11090791602E+00  0.51100000000E-03 0. -1.
</event>
<event>
 8    1  0.1114686E+005  0.1043930E+01  0.7957747E-01            NaN
         13   -1    0    0    0    0  0.00000000000E+00  0.00000000000E+00  0.74505805969E-08  0.10566000000E+00  0.10566000000E+00 0.  1.
     999900   -1    0    0    0    0 -0.00000000000E+00 -0.00000000000E+00 -0.74505805969E-08  0.93827000000E+00  0.93827000000E+00 0.  1.
     999902    2    1    2    0    0  0.69887146073E-02 -0.12664774248E-01 -0.19233518073E-01  0.10198641143E+01  0.10195801316E+01 0.  0.
     999903    2    3    3    0    0 -0.86965732206E-01 -0.69877914150E-01 -0.66853722623E-01  0.13173773512E+00  0.20963042775E-01 0.  0.
         14    1    1    2    0    0 -0.69887146073E-02  0.12664774248E-01  0.19233518073E-01  0.24065885732E-01  0.00000000000E+00 0.  1.
     999901    1    3    3    0    0  0.93954446813E-01  0.57213139902E-01  0.47620204550E-01  0.88812637915E+00  0.88000000000E+00 0. -1.
        -11    1    4    4    0    0 -0.49052678218E-01 -0.48408903957E-01 -0.49420179229E-01  0.84806853842E-01  0.51100000000E-03 0. -1.
         11    1    4    4    0    0 -0.37913053988E-01 -0.21469010193E-01 -0.17433543395E-01  0.46930881280E-01  0.51100000000E-03 0.  1.
</event>
<event>
 8    1  0.1114686E+005  0.1043930E+01  0.7957747E-01            NaN
         13   -1    0    0    0    0  0.00000000000E+00  0.00000000000E+00  0.74505805969E-08  0.10566000000E+00  0.10566000000E+00 0.  1.
     999900   -1    0    0    0    0 -0.00000000000E+00 -0.00000000000E+00 -0.74505805969E-08  0.93827000000E+00  0.93827000000E+00 0.  1.
     999902    2    1    2    0    0  0.71819045063E-02 -0.18640880311E-01  0.10908450522E-01  0.10211691462E+01  0.10209154562E+01 0.  0.
     999903    2    3    3    0    0 -0.67589278841E-01  0.24196511308E-01  0.10867176968E+00  0.13157179993E+00  0.18649483597E-01 0.  0.
         14    1    1    2    0    0 -0.71819045063E-02  0.18640880311E-01 -0.10908450522E-01  0.22760853760E-01  0.00000000000E+00 0. -1.
     999901    1    3    3    0    0  0.74771183348E-01 -0.42837391619E-01 -0.97763319160E-01  0.88959734631E+00  0.88000000000E+00 0.  1.
        -11    1    4    4    0    0 -0.25813875591E-01  0.69315692129E-02  0.56731119907E-01  0.62714303884E-01  0.51100000000E-03 0. -1.
         11    1    4    4    0    0 -0.41775403251E-01  0.17264942095E-01  0.51940649775E-01  0.68857496051E-01  0.51100000000E-03 0.  1.
</event>
<event>
 8    1  0.1114686E+005  0.1043930E+01  0.7957747E-01            NaN
         13   -1    0    0    0    0  0.00000000000E+00  0.00000000000E+00  0.74505805969E-08  0.10566000000E+00  0.10566000000E+00 0. -1.
     999900   -1    0    0    0    0 -0.00000000000E+00 -0.00000000000E+00 -0.74505805969E-08  0.93827000000E+00  0.93827000000E+00 0.  1.
     999902    2    1    2    0    0  0.15467731343E-02  0.10772361356E-01 -0.20961387787E-01  0.10203118702E+01  0.10200384779E+01 0.  0.
     999903    2    3    3    0    0  0.11301442919E+00 -0.46662210557E-02  0.60203491036E-01  0.12944087747E+00  0.18342453590E-01 0.  0.
         14    1    1    2    0    0 -0.15467731343E-02 -0.10772361356E-01  0.20961387787E-01  0.23618129779E-01  0.00000000000E+00 0. -1.
     999901    1    3    3    0    0 -0.11146765605E+00  0.15438582412E-01 -0.81164878823E-01  0.89087099275E+00  0.88000000000E+00 0.  1.
        -11    1    4    4    0    0  0.83546199782E-01  0.18256482198E-02  0.50950843162E-01  0.97875175756E-01  0.51100000000E-03 0. -1.
         11    1    4    4    0    0  0.29468229404E-01 -0.64918692754E-02  0.92526478745E-02  0.31565701712E-01  0.51100000000E-03 0.  1.
</event>
<event>
 8    1  0.1114686E+005  0.1043930E+01  0.7957747E-01            NaN
         13   -1    0    0    0    0  0.00000000000E+00  0.00000000000E+00  0.74505805969E-08  0.10566000000E+00  0.10566000000E+00 0. -1.
     999900   -1    0    0    0    0 -0.00000000000E+00 -0.00000000000E+00 -0.74505805969E-08  0.93827000000E+00  0.93827000000E+00 0. -1.
     999902    2    1    2    0    0  0.47145711375E-02 -0.15112494107E-01  0.17264239276E-01  0.10205063236E+01  0.10202374664E+01 0.  0.
     999903    2    3    3    0    0 -0.99802060471E-01  0.15520803458E-01  0.81955835603E-01  0.13143538837E+00  0.18898563767E-01 0.  0.
         14    1    1    2    0    0 -0.47145711375E-02  0.15112494107E-01 -0.17264239276E-01  0.23423676418E-01  0.00000000000E+00 0.  1.
     999901    1    3    3    0    0  0.10451663161E+00 -0.30633297565E-01 -0.64691596327E-01  0.88907093521E+00  0.88000000000E+00 0. -1.
        -11    1    4    4    0    0 -0.76556444148E-01  0.48171891317E-02  0.55952332769E-01  0.94947454494E-01  0.51100000000E-03 0. -1.
         11    1    4    4    0    0 -0.23245616323E-01  0.10703614326E-01  0.26003502835E-01  0.36487933876E-01  0.51100000000E-03 0.  1.
</event>
<event>
 8    1  0.1114686E+005  0.1043930E+01  0.7957747E-01            NaN
         13   -1    0    0    0    0  0.00000000000E+00  0.00000000000E+00  0.74505805969E-08  0.10566000000E+00  0.10566000000E+00 0. -1.
     999900   -1    0    0    0    0 -0.00000000000E+00 -0.00000000000E+00 -0.74505805969E-08  0.93827000000E+00  0.93827000000E+00 0.  1.
     999902    2    1    2    0    0  0.27690229477E-02 -0.26495863953E-01  0.70391575942E-02  0.10163755442E+01  0.10160019679E+01 0.  0.
     999903    2    3    3    0    0  0.11667865356E+00  0.16761573879E-01 -0.40913218759E-01  0.12668681196E+00  0.21927113394E-01 0.  0.
         14    1    1    2    0    0 -0.27690229477E-02  0.26495863953E-01 -0.70391575942E-02  0.27554455799E-01  0.00000000000E+00 0.  1.
     999901    1    3    3    0    0 -0.11390963061E+00 -0.43257437832E-01  0.47952376353E-01  0.88968873224E+00  0.88000000000E+00 0.  1.
        -11    1    4    4    0    0  0.67509253014E-01  0.27771050176E-03 -0.28987536302E-01  0.73471863645E-01  0.51100000000E-03 0. -1.
         11    1    4    4    0    0  0.49169400542E-01  0.16483863377E-01 -0.11925682457E-01  0.53214948319E-01  0.51100000000E-03 0.  1.
</event>
<event>
 8    1  0.1114686E+005  0.1043930E+01  0.7957747E-01            NaN
         13   -1    0    0    0    0  0.00000000000E+00  0.00000000000E+00  0.74505805969E-08  0.10566000000E+00  0.10566000000E+00 0. -1.
     999900   -1    0    0    0    0 -0.00000000000E+00 -0.00000000000E+00 -0.74505805969E-08  0.93827000000E+00  0.93827000000E+00 0. -1.
     999902    2    1    2    0    0 -0.20803469218E-01 -0.89935368959E-02 -0.74420146585E-02  0.10200751971E+01  0.10197962327E+01 0.  0.
     999903    2    3    3    0    0 -0.24799291014E-01  0.11644362757E+00 -0.48820889420E-01  0.13020854415E+00  0.19916387498E-01 0.  0.
         14    1    1    2    0    0  0.20803469218E-01  0.89935368959E-02  0.74420146585E-02  0.23854802862E-01  0.00000000000E+00 0. -1.
     999901    1    3    3    0    0  0.39958217955E-02 -0.12543716446E+00  0.41378874761E-01  0.88986665299E+00  0.88000000000E+00 0. -1.
        -11    1    4    4    0    0 -0.12014496659E-01  0.87744131754E-01 -0.29630900675E-01  0.93389679210E-01  0.51100000000E-03 0.  1.
         11    1    4    4    0    0 -0.12784794355E-01  0.28699495812E-01 -0.19189988745E-01  0.36818864941E-01  0.51100000000E-03 0. -1.
</event>
<event>
 8    1  0.1114686E+005  0.1043930E+01  0.7957747E-01            NaN
         13   -1    0    0    0    0  0.00000000000E+00  0.00000000000E+00  0.74505805969E-08  0.10566000000E+00  0.10566000000E+00 0. -1.
     999900   -1    0    0    0    0 -0.00000000000E+00 -0.00000000000E+00 -0.74505805969E-08  0.93827000000E+00  0.93827000000E+00 0. -1.
     999902    2    1    2    0    0  0.45040174045E-03  0.22767778855E-01 -0.94865194491E-02  0.10192608154E+01  0.10189622374E+01 0.  0.
     999903    2    3    3    0    0 -0.90968676731E-01  0.73645230923E-01 -0.56786021332E-01  0.13180196799E+00  0.21170412444E-01 0.  0.
         14    1    1    2    0    0 -0.45040174045E-03 -0.22767778855E-01  0.94865194491E-02  0.24669184562E-01  0.00000000000E+00 0. -1.
     999901    1    3    3    0    0  0.91419078472E-01 -0.50877452068E-01  0.47299501882E-01  0.88745884745E+00  0.88000000000E+00 0. -1.
        -11    1    4    4    0    0 -0.40681873194E-01  0.23557385164E-01 -0.14571800979E-01  0.49219545987E-01  0.51100000000E-03 0. -1.
         11    1    4    4    0    0 -0.50286803537E-01  0.50087845759E-01 -0.42214220352E-01  0.82582422002E-01  0.51100000000E-03 0.  1.
</event>
<event>
 8    1  0.1114686E+005  0.1043930E+01  0.7957747E-01            NaN
         13   -1    0    0    0    0  0.00000000000E+00  0.00000000000E+00  0.74505805969E-08  0.10566000000E+00  0.10566000000E+00 0. -1.
     999900   -1    0    0    0    0 -0.00000000000E+00 -0.00000000000E+00 -0.74505805969E-08  0.93827000000E+00  0.93827000000E+00 0.  1.
     999902    2    1    2    0    0 -0.84587648964E-02 -0.22605467348E-01  0.99790269727E-02  0.10178122123E+01  0.10174770565E+01 0.  0.
     999903    2    3    3    0    0  0.11133437262E-01 -0.70870677027E-01  0.10744161460E+00  0.13090052508E+00  0.21086503528E-01 0.  0.
         14    1    1    2    0    0  0.84587648964E-02  0.22605467348E-01 -0.99790269727E-02  0.26117787749E-01  0.00000000000E+00 0. -1.
     999901    1    3    3    0    0 -0.19592202159E-01  0.48265209678E-01 -0.97462587628E-01  0.88691168717E+00  0.88000000000E+00 0.  1.
        -11    1    4    4    0    0 -0.13054990591E-02 -0.52851651593E-01  0.76498020940E-01  0.92990374409E-01  0.51100000000E-03 0.  1.
         11    1    4    4    0    0  0.12438936322E-01 -0.18019025434E-01  0.30943593661E-01  0.37910150673E-01  0.51100000000E-03 0. -1.
</event>
<event>
 8    1  0.1114686E+005  0.1043930E+01  0.7957747E-01            NaN
         13   -1    0    0    0    0  0.00000000000E+00  0.00000000000E+00  0.74505805969E-08  0.10566000000E+00  0.10566000000E+00 0.  1.
     999900   -1    0    0    0    0 -0.00000000000E+00 -0.00000000000E+00 -0.74505805969E-08  0.93827000000E+00  0.93827000000E+00 0. -1.
     999902    2    1    2    0    0  0.15041791332E-01 -0.11438882343E-02 -0.17197133802E-01  0.10210541311E+01  0.10207978415E+01 0.  0.
     999903    2    3    3    0    0 -0.26881897602E-01  0.12468061774E+00  0.19228053355E-01  0.13037113685E+00  0.18947887180E-01 0.  0.
         14    1    1    2    0    0 -0.15041791332E-01  0.11438882343E-02  0.17197133802E-01  0.22875868897E-01  0.00000000000E+00 0.  1.
     999901    1    3    3    0    0  0.41923688934E-01 -0.12582450597E+00 -0.36425187157E-01  0.89068299426E+00  0.88000000000E+00 0. -1.
        -11    1    4    4    0    0  0.81299491856E-03  0.18082179019E-01 -0.19588453792E-02  0.18213301596E-01  0.51100000000E-03 0.  1.
         11    1    4    4    0    0 -0.27694892521E-01  0.10659843872E+00  0.21186898734E-01  0.11215783525E+00  0.51100000000E-03 0. -1.
</event>
<event>
 8    1  0.1114686E+005  0.1043930E+01  0.7957747E-01            NaN
         13   -1    0    0    0    0  0.00000000000E+00  0.00000000000E+00  0.74505805969E-08  0.10566000000E+00  0.10566000000E+00 0.  1.
     999900   -1    0    0    0    0 -0.00000000000E+00 -0.00000000000E+00 -0.74505805969E-08  0.93827000000E+00  0.93827000000E+00 0.  1.
     999902    2    1    2    0    0 -0.17623541205E-01 -0.10220849092E-01 -0.11960207428E-01  0.10203058276E+01  0.10200322937E+01 0.  0.
     999903    2    3    3    0    0  0.25288084906E-01 -0.91174847299E-01 -0.90015470235E-01  0.13211239058E+00  0.19963938610E-01 0.  0.
         14    1    1    2    0    0  0.17623541205E-01  0.10220849092E-01  0.11960207428E-01  0.23624172419E-01  0.00000000000E+00 0.  1.
     999901    1    3    3    0    0 -0.42911626111E-01  0.80953998207E-01  0.78055262807E-01  0.88819343700E+00  0.88000000000E+00 0. -1.
        -11    1    4    4    0    0 -0.16762219492E-02 -0.92795168047E-02 -0.37955098882E-02  0.10177729043E-01  0.51100000000E-03 0. -1.
         11    1    4    4    0    0  0.26964306855E-01 -0.81895330494E-01 -0.86219960347E-01  0.12193466154E+00  0.51100000000E-03 0.  1.
</event>
<event>
 8    1  0.1114686E+005  0.1043930E+01  0.7957747E-01            NaN
         13   -1    0    0    0    0  0.00000000000E+00  0.00000000000E+00  0.74505805969E-08  0.10566000000E+00  0.10566000000E+00 0.  1.
     999900   -1    0    0    0    0 -0.00000000000E+00 -0.00000000000E+00 -0.74505805969E-08  0.93827000000E+00  0.93827000000E+00 0. -1.
     999902    2    1    2    0    0  0.21128025189E-01 -0.60802289959E-02  0.91502937630E-02  0.10201163378E+01  0.10198383460E+01 0.  0.
     999903    2    3    3    0    0 -0.29829395510E-02 -0.65427224930E-01 -0.11000587163E+00  0.12977842647E+00  0.21249199802E-01 0.  0.
         14    1    1    2    0    0 -0.21128025189E-01  0.60802289959E-02 -0.91502937630E-02  0.23813662234E-01  0.00000000000E+00 0. -1.
     999901    1    3    3    0    0  0.24110964740E-01  0.59346995935E-01  0.11915616539E+00  0.89033791130E+00  0.88000000000E+00 0.  1.
        -11    1    4    4    0    0  0.25045606196E-02 -0.25236655021E-01 -0.61621594764E-01  0.66638154557E-01  0.51100000000E-03 0. -1.
         11    1    4    4    0    0 -0.54875001706E-02 -0.40190569909E-01 -0.48384276867E-01  0.63140271909E-01  0.51100000000E-03 0.  1.
</event>
<event>
 8    1  0.1114686E+005  0.1043930E+01  0.7957747E-01            NaN
         13   -1    0    0    0    0  0.00000000000E+00  0.00000000000E+00  0.74505805969E-08  0.10566000000E+00  0.10566000000E+00 0. -1.
     999900   -1    0    0    0    0 -0.00000000000E+00 -0.00000000000E+00 -0.74505805969E-08  0.93827000000E+00  0.93827000000E+00 0. -1.
     999902    2    1    2    0    0 -0.17192061901E-01  0.35180146051E-02 -0.16654266391E-01  0.10197368603E+01  0.10194498302E+01 0.  0.
     999903    2    3    3    0    0 -0.90948586936E-01 -0.20907411883E-02  0.90842926070E-01  0.13011495775E+00  0.20036175993E-01 0.  0.
         14    1    1    2    0    0  0.17192061901E-01 -0.35180146051E-02  0.16654266391E-01  0.24193139693E-01  0.00000000000E+00 0. -1.
     999901    1    3    3    0    0  0.73756525035E-01  0.56087557934E-02 -0.10749719246E+00  0.88962190256E+00  0.88000000000E+00 0. -1.
        -11    1    4    4    0    0 -0.80766653829E-01  0.20362129263E-02  0.71619642864E-01  0.10796774008E+00  0.51100000000E-03 0.  1.
         11    1    4    4    0    0 -0.10181933107E-01 -0.41269541146E-02  0.19223283206E-01  0.22147217664E-01  0.51100000000E-03 0. -1.
</event>
<event>
 8    1  0.1515062E+005  0.1043930E+01  0.7957747E-01            NaN
         13   -1    0    0    0    0  0.00000000000E+00  0.00000000000E+00  0.74505805969E-08  0.10566000000E+00  0.10566000000E+00 0. -1.
     999900   -1    0    0    0    0 -0.00000000000E+00 -0.00000000000E+00 -0.74505805969E-08  0.93827000000E+00  0.93827000000E+00 0. -1.
     999902    2    1    2    0    0 -0.26256422940E-01  0.28099584003E-02 -0.33125309084E-02  0.10173166862E+01  0.10169685204E+01 0.  0.
     999903    2    3    3    0    0  0.77507148209E-01  0.71657870702E-02 -0.97346823761E-01  0.12623402998E+00  0.19997992397E-01 0.  0.
         14    1    1    2    0    0  0.26256422940E-01 -0.28099584003E-02  0.33125309084E-02  0.26613313827E-01  0.00000000000E+00 0. -1.
     999901    1    3    3    0    0 -0.10376357115E+00 -0.43558286699E-02  0.94034292853E-01  0.89108265620E+00  0.88000000000E+00 0.  1.
        -11    1    4    4    0    0  0.41550781517E-01  0.14206302922E-02 -0.36519728833E-01  0.55339293004E-01  0.51100000000E-03 0.  1.
         11    1    4    4    0    0  0.35956366692E-01  0.57451567781E-02 -0.60827094928E-01  0.70894736973E-01  0.51100000000E-03 0. -1.
</event>
<event>
 8    1  0.1114686E+005  0.1043930E+01  0.7957747E-01            NaN
         13   -1    0    0    0    0  0.00000000000E+00  0.00000000000E+00  0.74505805969E-08  0.10566000000E+00  0.10566000000E+00 0. -1.
     999900   -1    0    0    0    0 -0.00000000000E+00 -0.00000000000E+00 -0.74505805969E-08  0.93827000000E+00  0.93827000000E+00 0. -1.
     999902    2    1    2    0    0 -0.23032635827E-01  0.30537882385E-02  0.17586567367E-02  0.10206293389E+01  0.10203633307E+01 0.  0.
     999903    2    3    3    0    0 -0.23812434412E-01 -0.55516424648E-01  0.11507781898E+00  0.13143177339E+00  0.19552524025E-01 0.  0.
         14    1    1    2    0    0  0.23032635827E-01 -0.30537882385E-02 -0.17586567367E-02  0.23300661133E-01  0.00000000000E+00 0. -1.
     999901    1    3    3    0    0  0.77979858525E-03  0.58570212886E-01 -0.11331916224E+00  0.88919756548E+00  0.88000000000E+00 0. -1.
        -11    1    4    4    0    0 -0.37242436281E-02 -0.11952625448E-01  0.43460173674E-01  0.45230333434E-01  0.51100000000E-03 0.  1.
         11    1    4    4    0    0 -0.20088190784E-01 -0.43563799200E-01  0.71617645307E-01  0.86201439953E-01  0.51100000000E-03 0. -1.
</event>
<event>
 8    1  0.1114686E+005  0.1043930E+01  0.7957747E-01            NaN
         13   -1    0    0    0    0  0.00000000000E+00  0.00000000000E+00  0.74505805969E-08  0.10566000000E+00  0.10566000000E+00 0. -1.
     999900   -1    0    0    0    0 -0.00000000000E+00 -0.00000000000E+00 -0.74505805969E-08  0.93827000000E+00  0.93827000000E+00 0. -1.
     999902    2    1    2    0    0 -0.21882335102E-01 -0.55983447441E-02 -0.64465174526E-02  0.10204409464E+01  0.10201705688E+01 0.  0.
     999903    2    3    3    0    0 -0.88581082183E-02  0.84403897473E-01 -0.97796387501E-01  0.13105079978E+00  0.20191451760E-01 0.  0.
         14    1    1    2    0    0  0.21882335102E-01  0.55983447441E-02  0.64465174526E-02  0.23489053634E-01  0.00000000000E+00 0. -1.
     999901    1    3    3    0    0 -0.13024226883E-01 -0.90002242217E-01  0.91349870049E-01  0.88939014659E+00  0.88000000000E+00 0.  1.
        -11    1    4    4    0    0 -0.12092426597E-01  0.34545485647E-01 -0.49452914927E-01  0.61526167404E-01  0.51100000000E-03 0.  1.
         11    1    4    4    0    0  0.32343183786E-02  0.49858411826E-01 -0.48343472574E-01  0.69524632374E-01  0.51100000000E-03 0. -1.
</event>
<event>
 8    1  0.1114686E+005  0.1043930E+01  0.7957747E-01            NaN
         13   -1    0    0    0    0  0.00000000000E+00  0.00000000000E+00  0.74505805969E-08  0.10566000000E+00  0.10566000000E+00 0. -1.
     999900   -1    0    0    0    0 -0.00000000000E+00 -0.00000000000E+00 -0.74505805969E-08  0.93827000000E+00  0.93827000000E+00 0. -1.
     999902    2    1    2    0    0  0.89516543356E-02 -0.17284894748E-01  0.13530278737E-01  0.10202241327E+01  0.10199486815E+01 0.  0.
     999903    2    3    3    0    0  0.11574186306E+00 -0.54682275438E-01  0.29313737519E-01  0.13283930618E+00  0.20016391967E-01 0.  0.
         14    1    1    2    0    0 -0.89516543356E-02  0.17284894748E-01 -0.13530278737E-01  0.23705867301E-01  0.00000000000E+00 0.  1.
     999901    1    3    3    0    0 -0.10679020873E+00  0.37397380690E-01 -0.15783458782E-01  0.88738482652E+00  0.88000000000E+00 0. -1.
        -11    1    4    4    0    0  0.42021149167E-01 -0.30681792451E-01  0.11516643562E-01  0.53292059120E-01  0.51100000000E-03 0.  1.
         11    1    4    4    0    0  0.73720713894E-01 -0.24000482987E-01  0.17797093956E-01  0.79547247061E-01  0.51100000000E-03 0. -1.
</event>
<event>
 8    1  0.1114686E+005  0.1043930E+01  0.7957747E-01            NaN
         13   -1    0    0    0    0  0.00000000000E+00  0.00000000000E+00  0.74505805969E-08  0.10566000000E+00  0.10566000000E+00 0. -1.
     999900   -1    0    0    0    0 -0.00000000000E+00 -0.00000000000E+00 -0.74505805969E-08  0.93827000000E+00  0.93827000000E+00 0. -1.
     999902    2    1    2    0    0 -0.53288405730E-02  0.10631163786E-01  0.17015055267E-01  0.10231711395E+01  0.10229605321E+01 0.  0.
     999903    2    3    3    0    0  0.77048962138E-01 -0.78258785122E-01 -0.68240084679E-01  0.13078335139E+00  0.19662040322E-01 0.  0.
         14    1    1    2    0    0  0.53288405730E-02 -0.10631163786E-01 -0.17015055267E-01  0.20758860543E-01  0.00000000000E+00 0.  1.
     999901    1    3    3    0    0 -0.82377802711E-01  0.88889948908E-01  0.85255139946E-01  0.89238778806E+00  0.88000000000E+00 0.  1.
        -11    1    4    4    0    0  0.47293530578E-01 -0.34754735321E-01 -0.39517781856E-01  0.70756525251E-01  0.51100000000E-03 0. -1.
         11    1    4    4    0    0  0.29755431561E-01 -0.43504049801E-01 -0.28722302823E-01  0.60026826144E-01  0.51100000000E-03 0.  1.
</event>
<event>
 8    1  0.1114686E+005  0.1043930E+01  0.7957747E-01            NaN
         13   -1    0    0    0    0  0.00000000000E+00  0.00000000000E+00  0.74505805969E-08  0.10566000000E+00  0.10566000000E+00 0.  1.
     999900   -1    0    0    0    0 -0.00000000000E+00 -0.00000000000E+00 -0.74505805969E-08  0.93827000000E+00  0.93827000000E+00 0.  1.
     999902    2    1    2    0    0 -0.19162729727E-01  0.46921460287E-02 -0.13209924507E-01  0.10201870316E+01  0.10199107073E+01 0.  0.
     999903    2    3    3    0    0 -0.67724165569E-01  0.11076254701E+00 -0.15312276754E-01  0.13248575134E+00  0.21519852834E-01 0.  0.
         14    1    1    2    0    0  0.19162729727E-01 -0.46921460287E-02  0.13209924507E-01  0.23742968441E-01  0.00000000000E+00 0.  1.
     999901    1    3    3    0    0  0.48561435842E-01 -0.10607040098E+00  0.21023522469E-02  0.88770128022E+00  0.88000000000E+00 0. -1.
        -11    1    4    4    0    0 -0.28536981040E-01  0.40129068670E-01 -0.15768950614E-01  0.51707082335E-01  0.51100000000E-03 0.  1.
         11    1    4    4    0    0 -0.39187184529E-01  0.70633478343E-01  0.45667386025E-03  0.80778669005E-01  0.51100000000E-03 0. -1.
</event>
<event>
 8    1  0.1114686E+005  0.1043930E+01  0.7957747E-01            NaN
         13   -1    0    0    0    0  0.00000000000E+00  0.00000000000E+00  0.74505805969E-08  0.10566000000E+00  0.10566000000E+00 0.  1.
     999900   -1    0    0    0    0 -0.00000000000E+00 -0.00000000000E+00 -0.74505805969E-08  0.93827000000E+00  0.93827000000E+00 0.  1.
     999902    2    1    2    0    0  0.11638714140E-01 -0.56077821715E-02  0.19383438760E-01  0.10206356963E+01  0.10203698349E+01 0.  0.
     999903    2    3    3    0    0 -0.30875851635E-01 -0.11813692877E+00  0.46188966813E-01  0.13204758389E+00  0.19836622779E-01 0.  0.
         14    1    1    2    0    0 -0.11638714140E-01  0.56077821715E-02 -0.19383438760E-01  0.23294303721E-01  0.00000000000E+00 0. -1.
     999901    1    3    3    0    0  0.42514565775E-01  0.11252914660E+00 -0.26805528053E-01  0.88858811238E+00  0.88000000000E+00 0.  1.
        -11    1    4    4    0    0 -0.87192578391E-02 -0.61496970167E-01  0.30689982123E-01  0.69282313188E-01  0.51100000000E-03 0.  1.
         11    1    4    4    0    0 -0.22156593796E-01 -0.56639958605E-01  0.15498984690E-01  0.62765270706E-01  0.51100000000E-03 0. -1.
</event>
<event>
 8    1  0.1114686E+005  0.1043930E+01  0.7957747E-01            NaN
         13   -1    0    0    0    0  0.00000000000E+00  0.00000000000E+00  0.74505805969E-08  0.10566000000E+00  0.10566000000E+00 0.  1.
     999900   -1    0    0    0    0 -0.00000000000E+00 -0.00000000000E+00 -0.74505805969E-08  0.93827000000E+00  0.93827000000E+00 0. -1.
     999902    2    1    2    0    0  0.11951303626E-01 -0.19180177138E-01 -0.79689251191E-02  0.10199671825E+01  0.10196856559E+01 0.  0.
     999903    2    3    3    0    0  0.59114827249E-02  0.43734016787E-01 -0.12105641610E+00  0.13048224401E+00  0.20575477427E-01 0.  0.
         14    1    1    2    0    0 -0.11951303626E-01  0.19180177138E-01  0.79689251191E-02  0.23962817467E-01  0.00000000000E+00 0.  1.
     999901    1    3    3    0    0  0.60398209011E-02 -0.62914193926E-01  0.11308749098E+00  0.88948493852E+00  0.88000000000E+00 0.  1.
        -11    1    4    4    0    0  0.99097319867E-02  0.17715325097E-01 -0.34732339403E-01  0.40232226544E-01  0.51100000000E-03 0. -1.
         11    1    4    4    0    0 -0.39982492618E-02  0.26018691690E-01 -0.86324076699E-01  0.90250017470E-01  0.51100000000E-03 0.  1.
</event>
<event>
 8    1  0.1114686E+005  0.1043930E+01  0.7957747E-01            NaN
         13   -1    0    0    0    0  0.00000000000E+00  0.00000000000E+00  0.74505805969E-08  0.10566000000E+00  0.10566000000E+00 0.  1.
     999900   -1    0    0    0    0 -0.00000000000E+00 -0.00000000000E+00 -0.74505805969E-08  0.93827000000E+00  0.93827000000E+00 0. -1.
     999902    2    1    2    0    0  0.41249975073E-02 -0.20400257812E-02 -0.23495994994E-01  0.10199875880E+01  0.10197065463E+01 0.  0.
     999903    2    3    3    0    0 -0.23372943281E-01  0.17649674819E-01  0.12223593869E+00  0.12736134064E+00  0.20529999557E-01 0.  0.
         14    1    1    2    0    0 -0.41249975073E-02  0.20400257812E-02  0.23495994994E-01  0.23942411959E-01  0.00000000000E+00 0.  1.
     999901    1    3    3    0    0  0.27497940788E-01 -0.19689700600E-01 -0.14573193369E+00  0.89262624740E+00  0.88000000000E+00 0. -1.
        -11    1    4    4    0    0 -0.11503624753E-01  0.14475181233E-01  0.38335316683E-01  0.42564326383E-01  0.51100000000E-03 0. -1.
         11    1    4    4    0    0 -0.11869318528E-01  0.31744935865E-02  0.83900622010E-01  0.84797014255E-01  0.51100000000E-03 0.  1.
</event>
<event>
 8    1  0.1114686E+005  0.1043930E+01  0.7957747E-01            NaN
         13   -1    0    0    0    0  0.00000000000E+00  0.00000000000E+00  0.74505805969E-08  0.10566000000E+00  0.10566000000E+00 0.  1.
     999900   -1    0    0    0    0 -0.00000000000E+00 -0.00000000000E+00 -0.74505805969E-08  0.93827000000E+00  0.93827000000E+00 0.  1.
     999902    2    1    2    0    0 -0.39314858724E-02  0.23367281121E-01 -0.10192602725E-02  0.10202123842E+01  0.10199366566E+01 0.  0.
     999903    2    3    3    0    0  0.12553896911E+00 -0.25024469166E-01 -0.88560650732E-03  0.12942375715E+00  0.19064831344E-01 0.  0.
         14    1    1    2    0    0  0.39314858724E-02 -0.23367281121E-01  0.10192602725E-02  0.23717615809E-01  0.00000000000E+00 0. -1.
     999901    1    3    3    0    0 -0.12947045498E+00  0.48391750287E-01 -0.13365376514E-03  0.89078862704E+00  0.88000000000E+00 0.  1.
        -11    1    4    4    0    0  0.12314001438E+00 -0.26525446183E-01  0.10277868325E-02  0.12596975789E+00  0.51100000000E-03 0. -1.
         11    1    4    4    0    0  0.23989547265E-02  0.15009770174E-02 -0.19133933399E-02  0.34539992559E-02  0.51100000000E-03 0.  1.
</event>
<event>
 8    1  0.1114686E+005  0.1043930E+01  0.7957747E-01            NaN
         13   -1    0    0    0    0  0.00000000000E+00  0.00000000000E+00  0.74505805969E-08  0.10566000000E+00  0.10566000000E+00 0. -1.
     999900   -1    0    0    0    0 -0.00000000000E+00 -0.00000000000E+00 -0.74505805969E-08  0.93827000000E+00  0.93827000000E+00 0.  1.
     999902    2    1    2    0    0 -0.16403373300E-01  0.16195274370E-01  0.13229628954E-02  0.10208408727E+01  0.10205797272E+01 0.  0.
     999903    2    3    3    0    0 -0.13091761022E+00  0.16125565380E-02  0.14377141065E-01  0.13320548717E+00  0.19874069151E-01 0.  0.
         14    1    1    2    0    0  0.16403373300E-01 -0.16195274370E-01 -0.13229628954E-02  0.23089127276E-01  0.00000000000E+00 0. -1.
     999901    1    3    3    0    0  0.11451423691E+00  0.14582717832E-01 -0.13054178169E-01  0.88763538555E+00  0.88000000000E+00 0. -1.
        -11    1    4    4    0    0 -0.10697200376E+00 -0.53154111475E-02  0.76344921601E-02  0.10737695179E+00  0.51100000000E-03 0.  1.
         11    1    4    4    0    0 -0.23945606450E-01  0.69279676855E-02  0.67426489044E-02  0.25828535378E-01  0.51100000000E-03 0. -1.
</event>
<event>
 8    1  0.1114686E+005  0.1043930E+01  0.7957747E-01            NaN
         13   -1    0    0    0    0  0.00000000000E+00  0.00000000000E+00  0.74505805969E-08  0.10566000000E+00  0.10566000000E+00 0. -1.
     999900   -1    0    0    0    0 -0.00000000000E+00 -0.00000000000E+00 -0.74505805969E-08  0.93827000000E+00  0.93827000000E+00 0. -1.
     999902    2    1    2    0    0 -0.20572215185E-01  0.47107181261E-02 -0.10958442656E-01  0.10201498745E+01  0.10198726745E+01 0.  0.
     999903    2    3    3    0    0  0.24733753249E-01 -0.63503252035E-01 -0.10971698249E+00  0.13084732437E+00  0.20947183081E-01 0.  0.
         14    1    1    2    0    0  0.20572215185E-01 -0.47107181261E-02  0.10958442656E-01  0.23780125490E-01  0.00000000000E+00 0. -1.
     999901    1    3    3    0    0 -0.45305968434E-01  0.68213970162E-01  0.98758539831E-01  0.88930255014E+00  0.88000000000E+00 0.  1.
        -11    1    4    4    0    0  0.92195600459E-02 -0.29468705038E-01 -0.68772746940E-01  0.75388040873E-01  0.51100000000E-03 0.  1.
         11    1    4    4    0    0  0.15514193204E-01 -0.34034546997E-01 -0.40944235547E-01  0.55459283494E-01  0.51100000000E-03 0. -1.
</event>
<event>
 8    1  0.1114686E+005  0.1043930E+01  0.7957747E-01            NaN
         13   -1    0    0    0    0  0.00000000000E+00  0.00000000000E+00  0.74505805969E-08  0.10566000000E+00  0.10566000000E+00 0.  1.
     999900   -1    0    0    0    0 -0.00000000000E+00 -0.00000000000E+00 -0.74505805969E-08  0.93827000000E+00  0.93827000000E+00 0. -1.
     999902    2    1    2    0    0 -0.41267509221E-02  0.11433608767E-01 -0.19999960373E-01  0.10205258145E+01  0.10202574098E+01 0.  0.
     999903    2    3    3    0    0 -0.89534645595E-01 -0.32851388091E-01  0.84727237896E-01  0.12910927022E+00  0.19870388844E-01 0.  0.
         14    1    1    2    0    0  0.41267509221E-02 -0.11433608767E-01  0.19999960373E-01  0.23404185471E-01  0.00000000000E+00 0.  1.
     999901    1    3    3    0    0  0.85407894673E-01  0.44284996858E-01 -0.10472719827E+00  0.89141654431E+00  0.88000000000E+00 0. -1.
        -11    1    4    4    0    0 -0.50559704244E-01 -0.12682367702E-01  0.56774244092E-01  0.77075949926E-01  0.51100000000E-03 0.  1.
         11    1    4    4    0    0 -0.38974941351E-01 -0.20169020389E-01  0.27952993804E-01  0.52033320290E-01  0.51100000000E-03 0. -1.
</event>
<event>
 8    1  0.1114686E+005  0.1043930E+01  0.7957747E-01            NaN
         13   -1    0    0    0    0  0.00000000000E+00  0.00000000000E+00  0.74505805969E-08  0.10566000000E+00  0.10566000000E+00 0.  1.
     999900   -1    0    0    0    0 -0.00000000000E+00 -0.00000000000E+00 -0.74505805969E-08  0.93827000000E+00  0.93827000000E+00 0. -1.
     999902    2    1    2    0    0  0.37127941030E-02  0.15216200219E-01 -0.16529076770E-01  0.10211587908E+01  0.10209048673E+01 0.  0.
     999903    2    3    3    0    0  0.12981720718E+00  0.11249373608E-02  0.96095602653E-02  0.13167348175E+00  0.19793670255E-01 0.  0.
         14    1    1    2    0    0 -0.37127941030E-02 -0.15216200219E-01  0.16529076770E-01  0.22771209191E-01  0.00000000000E+00 0. -1.
     999901    1    3    3    0    0 -0.12610441308E+00  0.14091262859E-01 -0.26138637035E-01  0.88948530906E+00  0.88000000000E+00 0. -1.
        -11    1    4    4    0    0  0.65910184102E-01  0.51451114189E-02 -0.39035713663E-02  0.66227815382E-01  0.51100000000E-03 0. -1.
         11    1    4    4    0    0  0.63907023082E-01 -0.40201740581E-02  0.13513131632E-01  0.65445666367E-01  0.51100000000E-03 0.  1.
</event>
<event>
 8    1  0.1114686E+005  0.1043930E+01  0.7957747E-01            NaN
         13   -1    0    0    0    0  0.00000000000E+00  0.00000000000E+00  0.74505805969E-08  0.10566000000E+00  0.10566000000E+00 0. -1.
     999900   -1    0    0    0    0 -0.00000000000E+00 -0.00000000000E+00 -0.74505805969E-08  0.93827000000E+00  0.93827000000E+00 0. -1.
     999902    2    1    2    0    0 -0.13922423240E-01 -0.18426038594E-01  0.40666708403E-02  0.10204802542E+01  0.10202107913E+01 0.  0.
     999903    2    3    3    0    0 -0.97993343061E-01 -0.20050327463E-01  0.84945448812E-01  0.13277989111E+00  0.20249920835E-01 0.  0.
         14    1    1    2    0    0  0.13922423240E-01  0.18426038594E-01 -0.40666708403E-02  0.23449745816E-01  0.00000000000E+00 0. -1.
     999901    1    3    3    0    0  0.84070919821E-01  0.16242888690E-02 -0.80878777972E-01  0.88770036307E+00  0.88000000000E+00 0.  1.
        -11    1    4    4    0    0 -0.45933803006E-01 -0.11780481313E-01  0.53095028373E-01  0.71190147896E-01  0.51100000000E-03 0. -1.
         11    1    4    4    0    0 -0.52059540055E-01 -0.82698461500E-02  0.31850420440E-01  0.61589743215E-01  0.51100000000E-03 0.  1.
</event>
<event>
 8    1  0.1114686E+005  0.1043930E+01  0.7957747E-01            NaN
         13   -1    0    0    0    0  0.00000000000E+00  0.00000000000E+00  0.74505805969E-08  0.10566000000E+00  0.10566000000E+00 0.  1.
     999900   -1    0    0    0    0 -0.00000000000E+00 -0.00000000000E+00 -0.74505805969E-08  0.93827000000E+00  0.93827000000E+00 0. -1.
     999902    2    1    2    0    0  0.12720461375E-01  0.14029463807E-01  0.13045669392E-01  0.10209337942E+01  0.10206747702E+01 0.  0.
     999903    2    3    3    0    0  0.19560456805E-01  0.46163910238E-01 -0.11869786194E+00  0.13052053831E+00  0.20801692504E-01 0.  0.
         14    1    1    2    0    0 -0.12720461375E-01 -0.14029463807E-01 -0.13045669392E-01  0.22996205821E-01  0.00000000000E+00 0. -1.
     999901    1    3    3    0    0 -0.68399954305E-02 -0.32134446431E-01  0.13174353133E+00  0.89041325587E+00  0.88000000000E+00 0.  1.
        -11    1    4    4    0    0  0.23460529222E-01  0.41753234022E-01 -0.99389104222E-01  0.11032762184E+00  0.51100000000E-03 0. -1.
         11    1    4    4    0    0 -0.39000724167E-02  0.44106762167E-02 -0.19308757721E-01  0.20192916462E-01  0.51100000000E-03 0.  1.
</event>
<event>
 8    1  0.1114686E+005  0.1043930E+01  0.7957747E-01            NaN
         13   -1    0    0    0    0  0.00000000000E+00  0.00000000000E+00  0.74505805969E-08  0.10566000000E+00  0.10566000000E+00 0.  1.
     999900   -1    0    0    0    0 -0.00000000000E+00 -0.00000000000E+00 -0.74505805969E-08  0.93827000000E+00  0.93827000000E+00 0.  1.
     999902    2    1    2    0    0  0.19350834062E-01  0.14119351455E-01 -0.86655220959E-03  0.10199599817E+01  0.10196782838E+01 0.  0.
     999903    2    3    3    0    0 -0.35971038600E-01  0.76479881028E-01 -0.97825223124E-01  0.13071854705E+00  0.19351393820E-01 0.  0.
         14    1    1    2    0    0 -0.19350834062E-01 -0.14119351455E-01  0.86655220959E-03  0.23970018297E-01  0.00000000000E+00 0. -1.
     999901    1    3    3    0    0  0.55321872663E-01 -0.62360529573E-01  0.96958670915E-01  0.88924143466E+00  0.88000000000E+00 0. -1.
        -11    1    4    4    0    0 -0.24921023964E-01  0.68957701233E-01 -0.83071819235E-01  0.11080347588E+00  0.51100000000E-03 0.  1.
         11    1    4    4    0    0 -0.11050014636E-01  0.75221797950E-02 -0.14753403889E-01  0.19915071169E-01  0.51100000000E-03 0. -1.
</event>
<event>
 8    1  0.1114686E+005  0.1043930E+01  0.7957747E-01            NaN
         13   -1    0    0    0    0  0.00000000000E+00  0.00000000000E+00  0.74505805969E-08  0.10566000000E+00  0.10566000000E+00 0. -1.
     999900   -1    0    0    0    0 -0.00000000000E+00 -0.00000000000E+00 -0.74505805969E-08  0.93827000000E+00  0.93827000000E+00 0. -1.
     999902    2    1    2    0    0 -0.88022466525E-02  0.12170507401E-01 -0.18212078680E-01  0.10203232085E+01  0.10200500817E+01 0.  0.
     999903    2    3    3    0    0 -0.10686665482E+00  0.46175606956E-01  0.56989490799E-01  0.13103796121E+00  0.19247769384E-01 0.  0.
         14    1    1    2    0    0  0.88022466525E-02 -0.12170507401E-01  0.18212078680E-01  0.23606791531E-01  0.00000000000E+00 0. -1.
     999901    1    3    3    0    0  0.98064408166E-01 -0.34005099555E-01 -0.75201569479E-01  0.88928524726E+00  0.88000000000E+00 0. -1.
        -11    1    4    4    0    0 -0.59965436536E-01  0.29840394352E-01  0.22862000504E-01  0.70775948613E-01  0.51100000000E-03 0. -1.
         11    1    4    4    0    0 -0.46901218282E-01  0.16335212604E-01  0.34127490295E-01  0.60262012595E-01  0.51100000000E-03 0.  1.
</event>
<event>
 8    1  0.1114686E+005  0.1043930E+01  0.7957747E-01            NaN
         13   -1    0    0    0    0  0.00000000000E+00  0.00000000000E+00  0.74505805969E-08  0.10566000000E+00  0.10566000000E+00 0. -1.
     999900   -1    0    0    0    0 -0.00000000000E+00 -0.00000000000E+00 -0.74505805969E-08  0.93827000000E+00  0.93827000000E+00 0.  1.
     999902    2    1    2    0    0  0.23031873155E-01  0.27039080862E-02  0.41422560696E-02  0.10203729080E+01  0.10201009434E+01 0.  0.
     999903    2    3    3    0    0 -0.69588721462E-01 -0.10641366831E+00  0.28470178036E-02  0.12880860985E+00  0.20422867165E-01 0.  0.
         14    1    1    2    0    0 -0.23031873155E-01 -0.27039080862E-02 -0.41422560696E-02  0.23557092039E-01  0.00000000000E+00 0.  1.
     999901    1    3    3    0    0  0.92620594618E-01  0.10911757639E+00  0.12952382659E-02  0.89156429811E+00  0.88000000000E+00 0. -1.
        -11    1    4    4    0    0 -0.41812725340E-01 -0.58256525161E-01  0.11230161289E-01  0.72584463680E-01  0.51100000000E-03 0.  1.
         11    1    4    4    0    0 -0.27775996123E-01 -0.48157143147E-01 -0.83831434851E-02  0.56224146169E-01  0.51100000000E-03 0. -1.
</event>
<event>
 8    1  0.1114686E+005  0.1043930E+01  0.7957747E-01            NaN
         13   -1    0    0    0    0  0.00000000000E+00  0.00000000000E+00  0.74505805969E-08  0.10566000000E+00  0.10566000000E+00 0.  1.
     999900   -1    0    0    0    0 -0.00000000000E+00 -0.00000000000E+00 -0.74505805969E-08  0.93827000000E+00  0.93827000000E+00 0.  1.
     999902    2    1    2    0    0 -0.16683529307E-01  0.15725270562E-01  0.68337842736E-02  0.10200066873E+01  0.10197260991E+01 0.  0.
     999903    2    3    3    0    0 -0.39675496697E-01  0.43275420208E-01 -0.11531638330E+00  0.13084511323E+00  0.19382166244E-01 0.  0.
         14    1    1    2    0    0  0.16683529307E-01 -0.15725270562E-01 -0.68337842736E-02  0.23923312728E-01  0.00000000000E+00 0. -1.
     999901    1    3    3    0    0  0.22991967389E-01 -0.27550149646E-01  0.12215016757E+00  0.88916157404E+00  0.88000000000E+00 0. -1.
        -11    1    4    4    0    0 -0.23382683047E-01  0.35597568727E-01 -0.91968918401E-01  0.10135324286E+00  0.51100000000E-03 0. -1.
         11    1    4    4    0    0 -0.16292813650E-01  0.76778514809E-02 -0.23347464894E-01  0.29491870371E-01  0.51100000000E-03 0.  1.
</event>
<event>
 8    1  0.1114686E+005  0.1043930E+01  0.7957747E-01            NaN
         13   -1    0    0    0    0  0.00000000000E+00  0.00000000000E+00  0.74505805969E-08  0.10566000000E+00  0.10566000000E+00 0. -1.
     999900   -1    0    0    0    0 -0.00000000000E+00 -0.00000000000E+00 -0.74505805969E-08  0.93827000000E+00  0.93827000000E+00 0. -1.
     999902    2    1    2    0    0 -0.94377707347E-02  0.15131959473E-01  0.15831784844E-01  0.10200827124E+01  0.10198039258E+01 0.  0.
     999903    2    3    3    0    0  0.28991456936E-01  0.12691719425E+00  0.10029787164E-01  0.13216018909E+00  0.20426457756E-01 0.  0.
         14    1    1    2    0    0  0.94377707347E-02 -0.15131959473E-01 -0.15831784844E-01  0.23847287587E-01  0.00000000000E+00 0.  1.
     999901    1    3    3    0    0 -0.38429227670E-01 -0.11178523478E+00  0.58019976801E-02  0.88792252333E+00  0.88000000000E+00 0.  1.
        -11    1    4    4    0    0  0.31727843358E-01  0.12255700849E+00  0.93579408777E-02  0.12694372199E+00  0.51100000000E-03 0. -1.
         11    1    4    4    0    0 -0.27363864224E-02  0.43601857662E-02  0.67184628649E-03  0.52164670995E-02  0.51100000000E-03 0.  1.
</event>
<event>
 8    1  0.1114686E+005  0.1043930E+01  0.7957747E-01            NaN
         13   -1    0    0    0    0  0.00000000000E+00  0.00000000000E+00  0.74505805969E-08  0.10566000000E+00  0.10566000000E+00 0. -1.
     999900   -1    0    0    0    0 -0.00000000000E+00 -0.00000000000E+00 -0.74505805969E-08  0.93827000000E+00  0.93827000000E+00 0. -1.
     999902    2    1    2    0    0 -0.51100026518E-02  0.89345033151E-02  0.20183264816E-01  0.10212738385E+01  0.10210225029E+01 0.  0.
     999903    2    3    3    0    0  0.48293864081E-01 -0.10537225731E+00  0.58494677074E-01  0.13145038811E+00  0.20541844344E-01 0.  0.
         14    1    1    2    0    0  0.51100026518E-02 -0.89345033151E-02 -0.20183264816E-01  0.22656161528E-01  0.00000000000E+00 0.  1.
     999901    1    3    3    0    0 -0.53403866733E-01  0.11430676063E+00 -0.38311412259E-01  0.88982345036E+00  0.88000000000E+00 0.  1.
        -11    1    4    4    0    0  0.25950053945E-01 -0.39946223785E-01  0.15788638967E-01  0.50186136889E-01  0.51100000000E-03 0. -1.
         11    1    4    4    0    0  0.22343810136E-01 -0.65426033526E-01  0.42706038107E-01  0.81264251219E-01  0.51100000000E-03 0.  1.
</event>
<event>
 8    1  0.1114686E+005  0.1043930E+01  0.7957747E-01            NaN
         13   -1    0    0    0    0  0.00000000000E+00  0.00000000000E+00  0.74505805969E-08  0.10566000000E+00  0.10566000000E+00 0.  1.
     999900   -1    0    0    0    0 -0.00000000000E+00 -0.00000000000E+00 -0.74505805969E-08  0.93827000000E+00  0.93827000000E+00 0. -1.
     999902    2    1    2    0    0  0.11552152349E-01 -0.19626816138E-01 -0.55519507235E-02  0.10204888334E+01  0.10202195699E+01 0.  0.
     999903    2    3    3    0    0 -0.87778411269E-01 -0.79968122256E-01  0.51669865764E-01  0.13100472988E+00  0.19811970162E-01 0.  0.
         14    1    1    2    0    0 -0.11552152349E-01  0.19626816138E-01  0.55519507235E-02  0.23441166619E-01  0.00000000000E+00 0. -1.
     999901    1    3    3    0    0  0.99330563618E-01  0.60341306119E-01 -0.57221816487E-01  0.88948410350E+00  0.88000000000E+00 0. -1.
        -11    1    4    4    0    0 -0.60691560688E-01 -0.59589376372E-01  0.27578979050E-01  0.89415997012E-01  0.51100000000E-03 0.  1.
         11    1    4    4    0    0 -0.27086850581E-01 -0.20378745884E-01  0.24090886714E-01  0.41588732872E-01  0.51100000000E-03 0. -1.
</event>
<event>
 8    1  0.1114686E+005  0.1043930E+01  0.7957747E-01            NaN
         13   -1    0    0    0    0  0.00000000000E+00  0.00000000000E+00  0.74505805969E-08  0.10566000000E+00  0.10566000000E+00 0. -1.
     999900   -1    0    0    0    0 -0.00000000000E+00 -0.00000000000E+00 -0.74505805969E-08  0.93827000000E+00  0.93827000000E+00 0. -1.
     999902    2    1    2    0    0 -0.86095374829E-02  0.22070144844E-01 -0.19282706337E-02  0.10201616669E+01  0.10198847450E+01 0.  0.
     999903    2    3    3    0    0 -0.10554984058E+00  0.34779500261E-01 -0.69035409311E-01  0.13220766016E+00  0.19041932210E-01 0.  0.
         14    1    1    2    0    0  0.86095374829E-02 -0.22070144844E-01  0.19282706337E-02  0.23768333066E-01  0.00000000000E+00 0. -1.
     999901    1    3    3    0    0  0.96940303096E-01 -0.12709355417E-01  0.67107138678E-01  0.88795400677E+00  0.88000000000E+00 0.  1.
        -11    1    4    4    0    0 -0.89670936967E-01  0.36390892239E-01 -0.59804100067E-01  0.11376275964E+00  0.51100000000E-03 0. -1.
         11    1    4    4    0    0 -0.15878903613E-01 -0.16113919781E-02 -0.92313092440E-02  0.18444900526E-01  0.51100000000E-03 0.  1.
</event>
<event>
 8    1  0.1114686E+005  0.1043930E+01  0.7957747E-01            NaN
         13   -1    0    0    0    0  0.00000000000E+00  0.00000000000E+00  0.74505805969E-08  0.10566000000E+00  0.10566000000E+00 0. -1.
     999900   -1    0    0    0    0 -0.00000000000E+00 -0.00000000000E+00 -0.74505805969E-08  0.93827000000E+00  0.93827000000E+00 0.  1.
     999902    2    1    2    0    0  0.13878120350E-01  0.17879291584E-01  0.44781845187E-02  0.10208578213E+01  0.10205970635E+01 0.  0.
     999903    2    3    3    0    0  0.72972233523E-02 -0.12416964587E+00  0.29977527768E-01  0.12907790154E+00  0.17061713619E-01 0.  0.
         14    1    1    2    0    0 -0.13878120350E-01 -0.17879291584E-01 -0.44781845187E-02  0.23072178670E-01  0.00000000000E+00 0. -1.
     999901    1    3    3    0    0  0.65808969981E-02  0.14204893745E+00 -0.25499343250E-01  0.89177991979E+00  0.88000000000E+00 0.  1.
        -11    1    4    4    0    0  0.26876054857E-02 -0.52122760534E-01  0.21256974210E-01  0.56357124328E-01  0.51100000000E-03 0.  1.
         11    1    4    4    0    0  0.46096178666E-02 -0.72046885332E-01  0.87205535583E-02  0.72720777212E-01  0.51100000000E-03 0. -1.
</event>
<event>
 8    1  0.1114686E+005  0.1043930E+01  0.7957747E-01            NaN
         13   -1    0    0    0    0  0.00000000000E+00  0.00000000000E+00  0.74505805969E-08  0.10566000000E+00  0.10566000000E+00 0. -1.
     999900   -1    0    0    0    0 -0.00000000000E+00 -0.00000000000E+00 -0.74505805969E-08  0.93827000000E+00  0.93827000000E+00 0.  1.
     999902    2    1    2    0    0 -0.15345848833E-01  0.13181857661E-01 -0.12252631469E-01  0.10202787120E+01  0.10200045425E+01 0.  0.
     999903    2    3    3    0    0  0.84159200506E-01  0.58585497422E-01 -0.78945732773E-01  0.13100332430E+00  0.20357080245E-01 0.  0.
         14    1    1    2    0    0  0.15345848833E-01 -0.13181857661E-01  0.12252631469E-01  0.23651288035E-01  0.00000000000E+00 0.  1.
     999901    1    3    3    0    0 -0.99505049339E-01 -0.45403639760E-01  0.66693101305E-01  0.88927538767E+00  0.88000000000E+00 0. -1.
        -11    1    4    4    0    0  0.56462554349E-01  0.49883118824E-01 -0.53635661599E-01  0.92484544132E-01  0.51100000000E-03 0. -1.
         11    1    4    4    0    0  0.27696646157E-01  0.87023785977E-02 -0.25310071175E-01  0.38518780166E-01  0.51100000000E-03 0.  1.
</event>
<event>
 8    1  0.1114686E+005  0.1043930E+01  0.7957747E-01            NaN
         13   -1    0    0    0    0  0.00000000000E+00  0.00000000000E+00  0.74505805969E-08  0.10566000000E+00  0.10566000000E+00 0.  1.
     999900   -1    0    0    0    0 -0.00000000000E+00 -0.00000000000E+00 -0.74505805969E-08  0.93827000000E+00  0.93827000000E+00 0.  1.
     999902    2    1    2    0    0  0.22922763285E-01  0.16084011280E-02 -0.67246785923E-02  0.10199871235E+01  0.10197060708E+01 0.  0.
     999903    2    3    3    0    0  0.58281449723E-01 -0.11346211824E+00  0.20329180487E-01  0.13137957664E+00  0.24019532078E-01 0.  0.
         14    1    1    2    0    0 -0.22922763285E-01 -0.16084011280E-02  0.67246785923E-02  0.23942876456E-01  0.00000000000E+00 0.  1.
     999901    1    3    3    0    0 -0.35358686438E-01  0.11507051936E+00 -0.27053859079E-01  0.88860754691E+00  0.88000000000E+00 0.  1.
        -11    1    4    4    0    0  0.29863446333E-01 -0.51050378750E-01 -0.22232867391E-02  0.59187589259E-01  0.51100000000E-03 0.  1.
         11    1    4    4    0    0  0.28418003390E-01 -0.62411739485E-01  0.22552467226E-01  0.72191987376E-01  0.51100000000E-03 0. -1.
</event>
<event>
 8    1  0.1114686E+005  0.1043930E+01  0.7957747E-01            NaN
         13   -1    0    0    0    0  0.00000000000E+00  0.00000000000E+00  0.74505805969E-08  0.10566000000E+00  0.10566000000E+00 0. -1.
     999900   -1    0    0    0    0 -0.00000000000E+00 -0.00000000000E+00 -0.74505805969E-08  0.93827000000E+00  0.93827000000E+00 0. -1.
     999902    2    1    2    0    0  0.20876103378E-01  0.50033961911E-02 -0.95711900216E-02  0.10204256739E+01  0.10201549405E+01 0.  0.
     999903    2    3    3    0    0 -0.10406602924E+00 -0.30433703220E-01 -0.67169232556E-01  0.12903133974E+00  0.19530286704E-01 0.  0.
         14    1    1    2    0    0 -0.20876103378E-01 -0.50033961911E-02  0.95711900216E-02  0.23504326072E-01  0.00000000000E+00 0. -1.
     999901    1    3    3    0    0  0.12494213262E+00  0.35437099411E-01  0.57598042534E-01  0.89139433419E+00  0.88000000000E+00 0.  1.
        -11    1    4    4    0    0 -0.19456987574E-01 -0.12009273724E-01 -0.83351859957E-02  0.24342010341E-01  0.51100000000E-03 0. -1.
         11    1    4    4    0    0 -0.84609041669E-01 -0.18424429497E-01 -0.58834046560E-01  0.10468932940E+00  0.51100000000E-03 0.  1.
</event>
<event>
 8    1  0.1114686E+005  0.1043930E+01  0.7957747E-01            NaN
         13   -1    0    0    0    0  0.00000000000E+00  0.00000000000E+00  0.74505805969E-08  0.10566000000E+00  0.10566000000E+00 0. -1.
     999900   -1    0    0    0    0 -0.00000000000E+00 -0.00000000000E+00 -0.74505805969E-08  0.93827000000E+00  0.93827000000E+00 0. -1.
     999902    2    1    2    0    0  0.11510428872E-01 -0.16297227071E-01 -0.12635512871E-01  0.10203133582E+01  0.10200400008E+01 0.  0.
     999903    2    3    3    0    0  0.51154708690E-01 -0.12104353878E+00 -0.12262046391E-01  0.13321494305E+00  0.18097534870E-01 0.  0.
         14    1    1    2    0    0 -0.11510428872E-01  0.16297227071E-01  0.12635512871E-01  0.23616641771E-01  0.00000000000E+00 0. -1.
     999901    1    3    3    0    0 -0.39644279819E-01  0.10474631171E+00 -0.37346648081E-03  0.88709841518E+00  0.88000000000E+00 0. -1.
        -11    1    4    4    0    0  0.20861476475E-01 -0.72254449240E-01 -0.77999855701E-02  0.75610895588E-01  0.51100000000E-03 0.  1.
         11    1    4    4    0    0  0.30293232215E-01 -0.48789089540E-01 -0.44620608205E-02  0.57604047461E-01  0.51100000000E-03 0. -1.
</event>
<event>
 8    1  0.1114686E+005  0.1043930E+01  0.7957747E-01            NaN
         13   -1    0    0    0    0  0.00000000000E+00  0.00000000000E+00  0.74505805969E-08  0.10566000000E+00  0.10566000000E+00 0. -1.
     999900   -1    0    0    0    0 -0.00000000000E+00 -0.00000000000E+00 -0.74505805969E-08  0.93827000000E+00  0.93827000000E+00 0.  1.
     999902    2    1    2    0    0  0.16060025755E-01 -0.11997233235E-01  0.10008717628E-01  0.10215239191E+01  0.10212781623E+01 0.  0.
     999903    2    3    3    0    0 -0.86293343233E-01  0.80750644709E-01  0.49593749922E-01  0.12987076020E+00  0.20968228720E-01 0.  0.
         14    1    1    2    0    0 -0.16060025755E-01  0.11997233235E-01 -0.10008717628E-01  0.22406080896E-01  0.00000000000E+00 0.  1.
     999901    1    3    3    0    0  0.10235336899E+00 -0.92747877944E-01 -0.39585032294E-01  0.89165315891E+00  0.88000000000E+00 0.  1.
        -11    1    4    4    0    0 -0.71321480092E-01  0.54607274434E-01  0.39045070630E-01  0.97946345543E-01  0.51100000000E-03 0. -1.
         11    1    4    4    0    0 -0.14971863141E-01  0.26143370275E-01  0.10548679292E-01  0.31924414655E-01  0.51100000000E-03 0.  1.
</event>
<event>
 8    1  0.1114686E+005  0.1043930E+01  0.7957747E-01            NaN
         13   -1    0    0    0    0  0.00000000000E+00  0.00000000000E+00  0.74505805969E-08  0.10566000000E+00  0.10566000000E+00 0.  1.
     999900   -1    0    0    0    0 -0.00000000000E+00 -0.00000000000E+00 -0.74505805969E-08  0.93827000000E+00  0.93827000000E+00 0.  1.
     999902    2    1    2    0    0  0.19656420066E-03 -0.18761852076E-01 -0.19132924640E-01  0.10171323408E+01  0.10167792702E+01 0.  0.
     999903    2    3    3    0    0 -0.10965081530E+00 -0.63907247916E-01 -0.12259017362E-01  0.12912794663E+00  0.20403564901E-01 0.  0.
         14    1    1    2    0    0 -0.19656420066E-03  0.18761852076E-01  0.19132924640E-01  0.26797659153E-01  0.00000000000E+00 0.  1.
     999901    1    3    3    0    0  0.10984737951E+00  0.45145395840E-01 -0.68739072784E-02  0.88800439422E+00  0.88000000000E+00 0. -1.
        -11    1    4    4    0    0 -0.42711541278E-01 -0.33492017726E-01  0.16152839599E-02  0.54303418612E-01  0.51100000000E-03 0.  1.
         11    1    4    4    0    0 -0.66939274026E-01 -0.30415230190E-01 -0.13874301322E-01  0.74824528016E-01  0.51100000000E-03 0. -1.
</event>
<event>
 8    1  0.1114686E+005  0.1043930E+01  0.7957747E-01            NaN
         13   -1    0    0    0    0  0.00000000000E+00  0.00000000000E+00  0.74505805969E-08  0.10566000000E+00  0.10566000000E+00 0. -1.
     999900   -1    0    0    0    0 -0.00000000000E+00 -0.00000000000E+00 -0.74505805969E-08  0.93827000000E+00  0.93827000000E+00 0. -1.
     999902    2    1    2    0    0  0.14731904268E-01  0.15085624116E-01 -0.10321356771E-01  0.10204537255E+01  0.10201836454E+01 0.  0.
     999903    2    3    3    0    0 -0.54913237346E-01  0.24058903769E-01  0.11255070172E+00  0.12914653478E+00  0.20417455803E-01 0.  0.
         14    1    1    2    0    0 -0.14731904268E-01 -0.15085624116E-01  0.10321356771E-01  0.23476274490E-01  0.00000000000E+00 0. -1.
     999901    1    3    3    0    0  0.69645141613E-01 -0.89732796532E-02 -0.12287205849E+00  0.89130719073E+00  0.88000000000E+00 0. -1.
        -11    1    4    4    0    0 -0.36266281216E-01  0.80203577115E-02  0.53063796970E-01  0.64773427892E-01  0.51100000000E-03 0.  1.
         11    1    4    4    0    0 -0.18646956129E-01  0.16038546058E-01  0.59486904746E-01  0.64373106883E-01  0.51100000000E-03 0. -1.
</event>
<event>
 8    1  0.1114686E+005  0.1043930E+01  0.7957747E-01            NaN
         13   -1    0    0    0    0  0.00000000000E+00  0.00000000000E+00  0.74505805969E-08  0.10566000000E+00  0.10566000000E+00 0.  1.
     999900   -1    0    0    0    0 -0.00000000000E+00 -0.00000000000E+00 -0.74505805969E-08  0.93827000000E+00  0.93827000000E+00 0. -1.
     999902    2    1    2    0    0  0.16061338689E-02 -0.86794430176E-02 -0.21895536065E-01  0.10203222280E+01  0.10200490783E+01 0.  0.
     999903    2    3    3    0    0 -0.15445823720E-01 -0.12903072961E+00  0.21104082750E-02  0.13164259690E+00  0.20924073246E-01 0.  0.
         14    1    1    2    0    0 -0.16061338689E-02  0.86794430176E-02  0.21895536065E-01  0.23607771955E-01  0.00000000000E+00 0.  1.
     999901    1    3    3    0    0  0.17051957589E-01  0.12035128660E+00 -0.24005944340E-01  0.88867963114E+00  0.88000000000E+00 0.  1.
        -11    1    4    4    0    0 -0.16184416759E-01 -0.59022426830E-01  0.61537077202E-02  0.61511880595E-01  0.51100000000E-03 0. -1.
         11    1    4    4    0    0  0.73859303904E-03 -0.70008302784E-01 -0.40432994452E-02  0.70130716308E-01  0.51100000000E-03 0.  1.
</event>
<event>
 8    1  0.1114686E+005  0.1043930E+01  0.7957747E-01            NaN
         13   -1    0    0    0    0  0.00000000000E+00  0.00000000000E+00  0.74505805969E-08  0.10566000000E+00  0.10566000000E+00 0.  1.
     999900   -1    0    0    0    0 -0.00000000000E+00 -0.00000000000E+00 -0.74505805969E-08  0.93827000000E+00  0.93827000000E+00 0.  1.
     999902    2    1    2    0    0  0.11738202696E-01 -0.20767793203E-01  0.82932977500E-02  0.10186740022E+01  0.10183608679E+01 0.  0.
     999903    2    3    3    0    0  0.32943717912E-01  0.50635807345E-01 -0.11060864012E+00  0.12755907198E+00  0.19691928291E-01 0.  0.
         14    1    1    2    0    0 -0.11738202696E-01  0.20767793203E-01 -0.82932977500E-02  0.25255997795E-01  0.00000000000E+00 0. -1.
     999901    1    3    3    0    0 -0.21205515216E-01 -0.71403600548E-01  0.11890193787E+00  0.89111493023E+00  0.88000000000E+00 0. -1.
        -11    1    4    4    0    0  0.23725327261E-01  0.28461447860E-01 -0.83418432330E-01  0.91278919479E-01  0.51100000000E-03 0.  1.
         11    1    4    4    0    0  0.92183906505E-02  0.22174359485E-01 -0.27190207787E-01  0.36280152498E-01  0.51100000000E-03 0. -1.
</event>
<event>
 8    1  0.1114686E+005  0.1043930E+01  0.7957747E-01            NaN
         13   -1    0    0    0    0  0.00000000000E+00  0.00000000000E+00  0.74505805969E-08  0.10566000000E+00  0.10566000000E+00 0. -1.
     999900   -1    0    0    0    0 -0.00000000000E+00 -0.00000000000E+00 -0.74505805969E-08  0.93827000000E+00  0.93827000000E+00 0.  1.
     999902    2    1    2    0    0 -0.22361918694E-01 -0.72940341709E-02 -0.52031099528E-02  0.10198399461E+01  0.10195553860E+01 0.  0.
     999903    2    3    3    0    0 -0.23973619052E-01  0.80838248345E-01  0.96406606691E-01  0.12961838308E+00  0.19928236592E-01 0.  0.
         14    1    1    2    0    0  0.22361918694E-01  0.72940341709E-02  0.52031099528E-02  0.24090053867E-01  0.00000000000E+00 0.  1.
     999901    1    3    3    0    0  0.16117003581E-02 -0.88132282516E-01 -0.10160971664E+00  0.89022156305E+00  0.88000000000E+00 0. -1.
        -11    1    4    4    0    0 -0.45802701081E-02  0.46916896871E-01  0.59024830570E-01  0.75540491335E-01  0.51100000000E-03 0. -1.
         11    1    4    4    0    0 -0.19393348944E-01  0.33921351474E-01  0.37381776121E-01  0.54077891750E-01  0.51100000000E-03 0.  1.
</event>
<event>
 8    1  0.1114686E+005  0.1043930E+01  0.7957747E-01            NaN
         13   -1    0    0    0    0  0.00000000000E+00  0.00000000000E+00  0.74505805969E-08  0.10566000000E+00  0.10566000000E+00 0. -1.
     999900   -1    0    0    0    0 -0.00000000000E+00 -0.00000000000E+00 -0.74505805969E-08  0.93827000000E+00  0.93827000000E+00 0. -1.
     999902    2    1    2    0    0 -0.22230345057E-02 -0.67274213467E-02 -0.20457924117E-01  0.10222799021E+01  0.10220506208E+01 0.  0.
     999903    2    3    3    0    0 -0.10584464408E+00  0.16878341712E-01  0.72737383576E-01  0.13099990377E+00  0.19552000390E-01 0.  0.
         14    1    1    2    0    0  0.22230345057E-02  0.67274213467E-02  0.20457924117E-01  0.21650097911E-01  0.00000000000E+00 0. -1.
     999901    1    3    3    0    0  0.10362160958E+00 -0.23605763058E-01 -0.93195307692E-01  0.89127999832E+00  0.88000000000E+00 0. -1.
        -11    1    4    4    0    0 -0.32833638060E-01 -0.95136828027E-03  0.30284217794E-01  0.44680508706E-01  0.51100000000E-03 0.  1.
         11    1    4    4    0    0 -0.73011006024E-01  0.17829709992E-01  0.42453165782E-01  0.86319395068E-01  0.51100000000E-03 0. -1.
</event>
<event>
 8    1  0.1114686E+005  0.1043930E+01  0.7957747E-01            NaN
         13   -1    0    0    0    0  0.00000000000E+00  0.00000000000E+00  0.74505805969E-08  0.10566000000E+00  0.10566000000E+00 0.  1.
     999900   -1    0    0    0    0 -0.00000000000E+00 -0.00000000000E+00 -0.74505805969E-08  0.93827000000E+00  0.93827000000E+00 0.  1.
     999902    2    1    2    0    0  0.14168268304E-01  0.56055756812E-02  0.18366901380E-01  0.10200656883E+01  0.10197864988E+01 0.  0.
     999903    2    3    3    0    0 -0.51624289604E-01 -0.25419222280E-01 -0.11182210819E+00  0.12751855961E+00  0.21109121860E-01 0.  0.
         14    1    1    2    0    0 -0.14168268304E-01 -0.56055756812E-02 -0.18366901380E-01  0.23864311676E-01  0.00000000000E+00 0. -1.
     999901    1    3    3    0    0  0.65792557908E-01  0.31024797962E-01  0.13018900957E+00  0.89254712872E+00  0.88000000000E+00 0. -1.
        -11    1    4    4    0    0 -0.34306603978E-01 -0.23727031792E-01 -0.61864407341E-01  0.74614885450E-01  0.51100000000E-03 0.  1.
         11    1    4    4    0    0 -0.17317685626E-01 -0.16921904880E-02 -0.49957700851E-01  0.52903674158E-01  0.51100000000E-03 0. -1.
</event>
<event>
 8    1  0.1114686E+005  0.1043930E+01  0.7957747E-01            NaN
         13   -1    0    0    0    0  0.00000000000E+00  0.00000000000E+00  0.74505805969E-08  0.10566000000E+00  0.10566000000E+00 0. -1.
     999900   -1    0    0    0    0 -0.00000000000E+00 -0.00000000000E+00 -0.74505805969E-08  0.93827000000E+00  0.93827000000E+00 0.  1.
     999902    2    1    2    0    0  0.15392106186E-01 -0.50532815053E-03  0.19041703846E-01  0.10194400271E+01  0.10191458237E+01 0.  0.
     999903    2    3    3    0    0 -0.11225634678E-01  0.28952789379E-01 -0.12185036179E+00  0.12734874306E+00  0.20147277840E-01 0.  0.
         14    1    1    2    0    0 -0.15392106186E-01  0.50532815053E-03 -0.19041703846E-01  0.24489972943E-01  0.00000000000E+00 0.  1.
     999901    1    3    3    0    0  0.26617740864E-01 -0.29458117529E-01  0.14089206564E+00  0.89209128399E+00  0.88000000000E+00 0. -1.
        -11    1    4    4    0    0 -0.59028645858E-02 -0.37832508448E-04 -0.38179057342E-01  0.38636081351E-01  0.51100000000E-03 0.  1.
         11    1    4    4    0    0 -0.53227700923E-02  0.28990621887E-01 -0.83671304450E-01  0.88712661713E-01  0.51100000000E-03 0. -1.
</event>
<event>
 8    1  0.1114686E+005  0.1043930E+01  0.7957747E-01            NaN
         13   -1    0    0    0    0  0.00000000000E+00  0.00000000000E+00  0.74505805969E-08  0.10566000000E+00  0.10566000000E+00 0.  1.
     999900   -1    0    0    0    0 -0.00000000000E+00 -0.00000000000E+00 -0.74505805969E-08  0.93827000000E+00  0.93827000000E+00 0. -1.
     999902    2    1    2    0    0 -0.10522809593E-01 -0.81764107309E-02  0.18281196814E-01  0.10213073262E+01  0.10210567414E+01 0.  0.
     999903    2    3    3    0    0 -0.70961505923E-01 -0.73483955634E-01 -0.80086039826E-01  0.13136686486E+00  0.20200305682E-01 0.  0.
         14    1    1    2    0    0  0.10522809593E-01  0.81764107309E-02 -0.18281196814E-01  0.22622673828E-01  0.00000000000E+00 0. -1.
     999901    1    3    3    0    0  0.60438696330E-01  0.65307544903E-01  0.98367236640E-01  0.88994046131E+00  0.88000000000E+00 0.  1.
        -11    1    4    4    0    0 -0.61494799921E-01 -0.62647739309E-01 -0.58768508108E-01  0.10564254978E+00  0.51100000000E-03 0.  1.
         11    1    4    4    0    0 -0.94667060019E-02 -0.10836216325E-01 -0.21317531718E-01  0.25724315080E-01  0.51100000000E-03 0. -1.
</event>
<event>
 8    1  0.1114686E+005  0.1043930E+01  0.7957747E-01            NaN
         13   -1    0    0    0    0  0.00000000000E+00  0.00000000000E+00  0.74505805969E-08  0.10566000000E+00  0.10566000000E+00 0.  1.
     999900   -1    0    0    0    0 -0.00000000000E+00 -0.00000000000E+00 -0.74505805969E-08  0.93827000000E+00  0.93827000000E+00 0. -1.
     999902    2    1    2    0    0  0.10242259743E-01 -0.20616912696E-01 -0.19882296132E-02  0.10208234202E+01  0.10205618752E+01 0.  0.
     999903    2    3    3    0    0 -0.80395813097E-01 -0.10060197063E+00  0.11765870007E-01  0.13245297662E+00  0.28655052970E-01 0.  0.
         14    1    1    2    0    0 -0.10242259743E-01  0.20616912696E-01  0.19882296132E-02  0.23106579816E-01  0.00000000000E+00 0.  1.
     999901    1    3    3    0    0  0.90638072840E-01  0.79985057933E-01 -0.13754099620E-01  0.88837044356E+00  0.88000000000E+00 0. -1.
        -11    1    4    4    0    0 -0.49884074139E-01 -0.77225022987E-01  0.17497283342E-01  0.93587077491E-01  0.51100000000E-03 0.  1.
         11    1    4    4    0    0 -0.30511738959E-01 -0.23376947642E-01 -0.57314133351E-02  0.38865899130E-01  0.51100000000E-03 0. -1.
</event>
<event>
 8    1  0.1114686E+005  0.1043930E+01  0.7957747E-01            NaN
         13   -1    0    0    0    0  0.00000000000E+00  0.00000000000E+00  0.74505805969E-08  0.10566000000E+00  0.10566000000E+00 0. -1.
     999900   -1    0    0    0    0 -0.00000000000E+00 -0.00000000000E+00 -0.74505805969E-08  0.93827000000E+00  0.93827000000E+00 0. -1.
     999902    2    1    2    0    0  0.16914855164E-01  0.75050673788E-02  0.11734868253E-01  0.10220177775E+01  0.10217828498E+01 0.  0.
     999903    2    3    3    0    0 -0.11681956926E+00  0.49941157104E-01 -0.19953806340E-01  0.13033964607E+00  0.21197594588E-01 0.  0.
         14    1    1    2    0    0 -0.16914855164E-01 -0.75050673788E-02 -0.11734868253E-01  0.21912222491E-01  0.00000000000E+00 0. -1.
     999901    1    3    3    0    0  0.13373442442E+00 -0.42436089725E-01  0.31688674593E-01  0.89167813144E+00  0.88000000000E+00 0.  1.
        -11    1    4    4    0    0 -0.17988805164E-01  0.32103083197E-02  0.32872380937E-02  0.18573374654E-01  0.51100000000E-03 0. -1.
         11    1    4    4    0    0 -0.98830764093E-01  0.46730848784E-01 -0.23241044434E-01  0.11176627142E+00  0.51100000000E-03 0.  1.
</event>
<event>
 8    1  0.1114686E+005  0.1043930E+01  0.7957747E-01            NaN
         13   -1    0    0    0    0  0.00000000000E+00  0.00000000000E+00  0.74505805969E-08  0.10566000000E+00  0.10566000000E+00 0. -1.
     999900   -1    0    0    0    0 -0.00000000000E+00 -0.00000000000E+00 -0.74505805969E-08  0.93827000000E+00  0.93827000000E+00 0.  1.
     999902    2    1    2    0    0 -0.20275305106E-01 -0.99979850790E-03  0.11833666534E-01  0.10204326968E+01  0.10201621270E+01 0.  0.
     999903    2    3    3    0    0 -0.44830858619E-01  0.14491921894E-01 -0.11974689361E+00  0.13017632225E+00  0.19665570465E-01 0.  0.
         14    1    1    2    0    0  0.20275305106E-01  0.99979850790E-03 -0.11833666534E-01  0.23497303204E-01  0.00000000000E+00 0.  1.
     999901    1    3    3    0    0  0.24555553513E-01 -0.15491720402E-01  0.13158056014E+00  0.89025637454E+00  0.88000000000E+00 0. -1.
        -11    1    4    4    0    0 -0.21365516601E-02 -0.25802954169E-02 -0.20699708178E-01  0.20975266794E-01  0.51100000000E-03 0. -1.
         11    1    4    4    0    0 -0.42694306959E-01  0.17072217311E-01 -0.99047185430E-01  0.10920105546E+00  0.51100000000E-03 0.  1.
</event>
<event>
 8    1  0.1114686E+005  0.1043930E+01  0.7957747E-01            NaN
         13   -1    0    0    0    0  0.00000000000E+00  0.00000000000E+00  0.74505805969E-08  0.10566000000E+00  0.10566000000E+00 0. -1.
     999900   -1    0    0    0    0 -0.00000000000E+00 -0.00000000000E+00 -0.74505805969E-08  0.93827000000E+00  0.93827000000E+00 0.  1.
     999902    2    1    2    0    0  0.17253092896E-01  0.78749427276E-02 -0.12671746325E-01  0.10211208551E+01  0.10208660752E+01 0.  0.
     999903    2    3    3    0    0  0.10328527008E+00 -0.77241587308E-01  0.20911260069E-01  0.13220343623E+00  0.20158321577E-01 0.  0.
         14    1    1    2    0    0 -0.17253092896E-01 -0.78749427276E-02  0.12671746325E-01  0.22809144929E-01  0.00000000000E+00 0. -1.
     999901    1    3    3    0    0 -0.86032177184E-01  0.85116530035E-01 -0.33583006394E-01  0.88891741884E+00  0.88000000000E+00 0.  1.
        -11    1    4    4    0    0  0.55137538136E-01 -0.51188597343E-01  0.60778307540E-02  0.75482592413E-01  0.51100000000E-03 0.  1.
         11    1    4    4    0    0  0.48147731943E-01 -0.26052989965E-01  0.14833429315E-01  0.56720843820E-01  0.51100000000E-03 0. -1.
</event>
<event>
 8    1  0.1114686E+005  0.1043930E+01  0.7957747E-01            NaN
         13   -1    0    0    0    0  0.00000000000E+00  0.00000000000E+00  0.74505805969E-08  0.10566000000E+00  0.10566000000E+00 0. -1.
     999900   -1    0    0    0    0 -0.00000000000E+00 -0.00000000000E+00 -0.74505805969E-08  0.93827000000E+00  0.93827000000E+00 0. -1.
     999902    2    1    2    0    0 -0.15074540113E-01 -0.61010377139E-02  0.17321478548E-01  0.10201708325E+01  0.10198941266E+01 0.  0.
     999903    2    3    3    0    0 -0.60959526894E-01 -0.64773994749E-01  0.98857990663E-01  0.13326827264E+00  0.87060817033E-02 0.  0.
         14    1    1    2    0    0  0.15074540113E-01  0.61010377139E-02 -0.17321478548E-01  0.23759167492E-01  0.00000000000E+00 0.  1.
     999901    1    3    3    0    0  0.45884986780E-01  0.58672957036E-01 -0.81536512115E-01  0.88690255987E+00  0.88000000000E+00 0.  1.
        -11    1    4    4    0    0 -0.35373546331E-01 -0.37024643618E-01  0.63184688163E-01  0.81330670441E-01  0.51100000000E-03 0. -1.
         11    1    4    4    0    0 -0.25585980563E-01 -0.27749351131E-01  0.35673302500E-01  0.51937602195E-01  0.51100000000E-03 0.  1.
</event>
<event>
 8    1  0.1114686E+005  0.1043930E+01  0.7957747E-01            NaN
         13   -1    0    0    0    0  0.00000000000E+00  0.00000000000E+00  0.74505805969E-08  0.10566000000E+00  0.10566000000E+00 0. -1.
     999900   -1    0    0    0    0 -0.00000000000E+00 -0.00000000000E+00 -0.74505805969E-08  0.93827000000E+00  0.93827000000E+00 0. -1.
     999902    2    1    2    0    0 -0.16963772185E-01  0.68394218213E-02  0.14163120868E-01  0.10207968798E+01  0.10205347268E+01 0.  0.
     999903    2    3    3    0    0  0.43610862111E-01  0.86182307301E-01 -0.84873693531E-01  0.12963310674E+00  0.16489424631E-01 0.  0.
         14    1    1    2    0    0  0.16963772185E-01 -0.68394218213E-02 -0.14163120868E-01  0.23133120203E-01  0.00000000000E+00 0.  1.
     999901    1    3    3    0    0 -0.60574634296E-01 -0.79342885479E-01  0.99036814399E-01  0.89116377305E+00  0.88000000000E+00 0.  1.
        -11    1    4    4    0    0  0.25449486122E-01  0.56460764167E-01 -0.44239063712E-01  0.76110775277E-01  0.51100000000E-03 0. -1.
         11    1    4    4    0    0  0.18161375989E-01  0.29721543134E-01 -0.40634629819E-01  0.53522331467E-01  0.51100000000E-03 0.  1.
</event>
<event>
 8    1  0.1114686E+005  0.1043930E+01  0.7957747E-01            NaN
         13   -1    0    0    0    0  0.00000000000E+00  0.00000000000E+00  0.74505805969E-08  0.10566000000E+00  0.10566000000E+00 0.  1.
     999900   -1    0    0    0    0 -0.00000000000E+00 -0.00000000000E+00 -0.74505805969E-08  0.93827000000E+00  0.93827000000E+00 0. -1.
     999902    2    1    2    0    0  0.75682775327E-02  0.21931598285E-01  0.53492965058E-02  0.10201205733E+01  0.10198426816E+01 0.  0.
     999903    2    3    3    0    0  0.71251542215E-01 -0.42549812127E-03  0.10896805769E+00  0.13147427376E+00  0.18288896865E-01 0.  0.
         14    1    1    2    0    0 -0.75682775327E-02 -0.21931598285E-01 -0.53492965058E-02  0.23809426731E-01  0.00000000000E+00 0.  1.
     999901    1    3    3    0    0 -0.63683264682E-01  0.22357096407E-01 -0.10361876118E+00  0.88864629951E+00  0.88000000000E+00 0. -1.
        -11    1    4    4    0    0  0.16718520052E-01 -0.67326046924E-03  0.41312747094E-01  0.44575401129E-01  0.51100000000E-03 0.  1.
         11    1    4    4    0    0  0.54533022163E-01  0.24776234797E-03  0.67655310592E-01  0.86898872632E-01  0.51100000000E-03 0. -1.
</event>
<event>
 8    1  0.1114686E+005  0.1043930E+01  0.7957747E-01            NaN
         13   -1    0    0    0    0  0.00000000000E+00  0.00000000000E+00  0.74505805969E-08  0.10566000000E+00  0.10566000000E+00 0.  1.
     999900   -1    0    0    0    0 -0.00000000000E+00 -0.00000000000E+00 -0.74505805969E-08  0.93827000000E+00  0.93827000000E+00 0. -1.
     999902    2    1    2    0    0 -0.90611639378E-02 -0.63910215317E-02  0.19785549158E-01  0.10212492195E+01  0.10209973313E+01 0.  0.
     999903    2    3    3    0    0  0.49890778093E-01 -0.77687982306E-01  0.93942197197E-01  0.13329775883E+00  0.20460785909E-01 0.  0.
         14    1    1    2    0    0  0.90611639378E-02  0.63910215317E-02 -0.19785549158E-01  0.22680780489E-01  0.00000000000E+00 0. -1.
     999901    1    3    3    0    0 -0.58951942031E-01  0.71296960774E-01 -0.74156648039E-01  0.88795146069E+00  0.88000000000E+00 0. -1.
        -11    1    4    4    0    0  0.31548132303E-01 -0.30379143544E-01  0.45064058595E-01  0.62842720440E-01  0.51100000000E-03 0. -1.
         11    1    4    4    0    0  0.18342645790E-01 -0.47308838762E-01  0.48878138603E-01  0.70455038385E-01  0.51100000000E-03 0.  1.
</event>
<event>
 8    1  0.1114686E+005  0.1043930E+01  0.7957747E-01            NaN
         13   -1    0    0    0    0  0.00000000000E+00  0.00000000000E+00  0.74505805969E-08  0.10566000000E+00  0.10566000000E+00 0.  1.
     999900   -1    0    0    0    0 -0.00000000000E+00 -0.00000000000E+00 -0.74505805969E-08  0.93827000000E+00  0.93827000000E+00 0. -1.
     999902    2    1    2    0    0  0.14096374463E-01  0.16857786924E-01 -0.70247583288E-02  0.10208596731E+01  0.10205989576E+01 0.  0.
     999903    2    3    3    0    0  0.86225764511E-01  0.49155006866E-01 -0.87254741479E-01  0.13368290971E+00  0.20165149968E-01 0.  0.
         14    1    1    2    0    0 -0.14096374463E-01 -0.16857786924E-01  0.70247583288E-02  0.23070326885E-01  0.00000000000E+00 0. -1.
     999901    1    3    3    0    0 -0.72129390048E-01 -0.32297219942E-01  0.80229983150E-01  0.88717676340E+00  0.88000000000E+00 0.  1.
        -11    1    4    4    0    0  0.12017512508E-01  0.83459925581E-02 -0.46070517173E-02  0.15348037177E-01  0.51100000000E-03 0.  1.
         11    1    4    4    0    0  0.74208252003E-01  0.40809014308E-01 -0.82647689761E-01  0.11833487254E+00  0.51100000000E-03 0. -1.
</event>
<event>
 8    1  0.1114686E+005  0.1043930E+01  0.7957747E-01            NaN
         13   -1    0    0    0    0  0.00000000000E+00  0.00000000000E+00  0.74505805969E-08  0.10566000000E+00  0.10566000000E+00 0. -1.
     999900   -1    0    0    0    0 -0.00000000000E+00 -0.00000000000E+00 -0.74505805969E-08  0.93827000000E+00  0.93827000000E+00 0. -1.
     999902    2    1    2    0    0 -0.16087618638E-01 -0.18478549323E-01  0.11822300007E-02  0.10194011206E+01  0.10191059703E+01 0.  0.
     999903    2    3    3    0    0  0.81203183673E-01  0.88296553124E-02 -0.96693696479E-01  0.12822721204E+00  0.20509195912E-01 0.  0.
         14    1    1    2    0    0  0.16087618638E-01  0.18478549323E-01 -0.11822300007E-02  0.24528879434E-01  0.00000000000E+00 0. -1.
     999901    1    3    3    0    0 -0.97290802311E-01 -0.27308204635E-01  0.97875926480E-01  0.89117390853E+00  0.88000000000E+00 0. -1.
        -11    1    4    4    0    0  0.55037186350E-01 -0.11674217020E-02 -0.53656000169E-01  0.76874457590E-01  0.51100000000E-03 0.  1.
         11    1    4    4    0    0  0.26165997323E-01  0.99970770144E-02 -0.43037696310E-01  0.51352754448E-01  0.51100000000E-03 0. -1.
</event>
<event>
 8    1  0.1114686E+005  0.1043930E+01  0.7957747E-01            NaN
         13   -1    0    0    0    0  0.00000000000E+00  0.00000000000E+00  0.74505805969E-08  0.10566000000E+00  0.10566000000E+00 0.  1.
     999900   -1    0    0    0    0 -0.00000000000E+00 -0.00000000000E+00 -0.74505805969E-08  0.93827000000E+00  0.93827000000E+00 0. -1.
     999902    2    1    2    0    0 -0.18143790076E-01 -0.13278437682E-01 -0.79146699236E-02  0.10200939763E+01  0.10198154561E+01 0.  0.
     999903    2    3    3    0    0  0.84478087022E-01 -0.56902953298E-01 -0.77644014948E-01  0.13032067395E+00  0.24091320456E-01 0.  0.
         14    1    1    2    0    0  0.18143790076E-01  0.13278437682E-01  0.79146699236E-02  0.23836023695E-01  0.00000000000E+00 0.  1.
     999901    1    3    3    0    0 -0.10262187710E+00  0.43624515616E-01  0.69729345024E-01  0.88977330235E+00  0.88000000000E+00 0. -1.
        -11    1    4    4    0    0  0.59286202109E-02  0.97872840016E-03 -0.96997514203E-02  0.11421591198E-01  0.51100000000E-03 0.  1.
         11    1    4    4    0    0  0.78549466811E-01 -0.57881681698E-01 -0.67944263527E-01  0.11889908275E+00  0.51100000000E-03 0. -1.
</event>
<event>
 8    1  0.1114686E+005  0.1043930E+01  0.7957747E-01            NaN
         13   -1    0    0    0    0  0.00000000000E+00  0.00000000000E+00  0.74505805969E-08  0.10566000000E+00  0.10566000000E+00 0. -1.
     999900   -1    0    0    0    0 -0.00000000000E+00 -0.00000000000E+00 -0.74505805969E-08  0.93827000000E+00  0.93827000000E+00 0. -1.
     999902    2    1    2    0    0  0.64659297025E-02  0.24009549283E-01 -0.69334359583E-02  0.10181164524E+01  0.10177891587E+01 0.  0.
     999903    2    3    3    0    0 -0.10540079273E+00  0.41691086156E-01  0.57051123375E-01  0.12855429937E+00  0.20588915323E-01 0.  0.
         14    1    1    2    0    0 -0.64659297025E-02 -0.24009549283E-01  0.69334359583E-02  0.25813547565E-01  0.00000000000E+00 0.  1.
     999901    1    3    3    0    0  0.11186672244E+00 -0.17681536872E-01 -0.63984559333E-01  0.88956215307E+00  0.88000000000E+00 0.  1.
        -11    1    4    4    0    0 -0.48798767478E-01  0.18409923617E-01  0.37721664803E-01  0.64369481211E-01  0.51100000000E-03 0.  1.
         11    1    4    4    0    0 -0.56602025256E-01  0.23281162538E-01  0.19329458572E-01  0.64184818157E-01  0.51100000000E-03 0. -1.
</event>
<event>
 8    1  0.1114686E+005  0.1043930E+01  0.7957747E-01            NaN
         13   -1    0    0    0    0  0.00000000000E+00  0.00000000000E+00  0.74505805969E-08  0.10566000000E+00  0.10566000000E+00 0.  1.
     999900   -1    0    0    0    0 -0.00000000000E+00 -0.00000000000E+00 -0.74505805969E-08  0.93827000000E+00  0.93827000000E+00 0.  1.
     999902    2    1    2    0    0 -0.13384773176E-01 -0.10610614981E-01  0.24759722654E-02  0.10266711547E+01  0.10265260796E+01 0.  0.
     999903    2    3    3    0    0 -0.20602496938E-01 -0.63175350519E-01  0.11873725765E+00  0.13744011977E+00  0.19382011632E-01 0.  0.
         14    1    1    2    0    0  0.13384773176E-01  0.10610614981E-01 -0.24759722654E-02  0.17258845324E-01  0.00000000000E+00 0. -1.
     999901    1    3    3    0    0  0.72177237618E-02  0.52564735538E-01 -0.11626128539E+00  0.88923103490E+00  0.88000000000E+00 0.  1.
        -11    1    4    4    0    0 -0.62392856968E-02 -0.45584673634E-01  0.71516167368E-01  0.85039487724E-01  0.51100000000E-03 0.  1.
         11    1    4    4    0    0 -0.14363211241E-01 -0.17590676885E-01  0.47221090283E-01  0.52400632047E-01  0.51100000000E-03 0. -1.
</event>
<event>
 8    1  0.1114686E+005  0.1043930E+01  0.7957747E-01            NaN
         13   -1    0    0    0    0  0.00000000000E+00  0.00000000000E+00  0.74505805969E-08  0.10566000000E+00  0.10566000000E+00 0.  1.
     999900   -1    0    0    0    0 -0.00000000000E+00 -0.00000000000E+00 -0.74505805969E-08  0.93827000000E+00  0.93827000000E+00 0.  1.
     999902    2    1    2    0    0 -0.62683456982E-03  0.22496827560E-01 -0.60328573328E-02  0.10206298811E+01  0.10203638854E+01 0.  0.
     999903    2    3    3    0    0  0.12057582618E+00  0.21743469867E-01  0.42021482910E-01  0.13102329834E+00  0.19748198440E-01 0.  0.
         14    1    1    2    0    0  0.62683456982E-03 -0.22496827560E-01  0.60328573328E-02  0.23300118872E-01  0.00000000000E+00 0.  1.
     999901    1    3    3    0    0 -0.12120266075E+00  0.75335769265E-03 -0.48054340242E-01  0.88960658279E+00  0.88000000000E+00 0.  1.
        -11    1    4    4    0    0  0.25756238705E-01  0.60879357488E-02  0.17845416683E-01  0.31924392108E-01  0.51100000000E-03 0.  1.
         11    1    4    4    0    0  0.94819587475E-01  0.15655534118E-01  0.24176066227E-01  0.99098906234E-01  0.51100000000E-03 0. -1.
</event>
<event>
 8    1  0.1114686E+005  0.1043930E+01  0.7957747E-01            NaN
         13   -1    0    0    0    0  0.00000000000E+00  0.00000000000E+00  0.74505805969E-08  0.10566000000E+00  0.10566000000E+00 0. -1.
     999900   -1    0    0    0    0 -0.00000000000E+00 -0.00000000000E+00 -0.74505805969E-08  0.93827000000E+00  0.93827000000E+00 0. -1.
     999902    2    1    2    0    0  0.22528985920E-01 -0.50160317516E-02 -0.24049281416E-02  0.10207244089E+01  0.10204605918E+01 0.  0.
     999903    2    3    3    0    0 -0.12096951427E+00 -0.30838925323E-01  0.24291707271E-01  0.12832799933E+00  0.17126753064E-01 0.  0.
         14    1    1    2    0    0 -0.22528985920E-01  0.50160317516E-02  0.24049281416E-02  0.23205591147E-01  0.00000000000E+00 0. -1.
     999901    1    3    3    0    0  0.14349850019E+00  0.25822893571E-01 -0.26696635413E-01  0.89239640952E+00  0.88000000000E+00 0. -1.
        -11    1    4    4    0    0 -0.10000173185E+00 -0.24336722278E-01  0.13317820653E-01  0.10377980483E+00  0.51100000000E-03 0.  1.
         11    1    4    4    0    0 -0.20967782428E-01 -0.65022030446E-02  0.10973886618E-01  0.24548194494E-01  0.51100000000E-03 0. -1.
</event>
<event>
 8    1  0.1114686E+005  0.1043930E+01  0.7957747E-01            NaN
         13   -1    0    0    0    0  0.00000000000E+00  0.00000000000E+00  0.74505805969E-08  0.10566000000E+00  0.10566000000E+00 0. -1.
     999900   -1    0    0    0    0 -0.00000000000E+00 -0.00000000000E+00 -0.74505805969E-08  0.93827000000E+00  0.93827000000E+00 0. -1.
     999902    2    1    2    0    0  0.69086974390E-02  0.24317512368E-01  0.76252585309E-02  0.10175251505E+01  0.10171824890E+01 0.  0.
     999903    2    3    3    0    0 -0.63989450060E-01  0.61313075410E-02 -0.10696331649E+00  0.12708266115E+00  0.24012684943E-01 0.  0.
         14    1    1    2    0    0 -0.69086974390E-02 -0.24317512368E-01 -0.76252585309E-02  0.26404849473E-01  0.00000000000E+00 0. -1.
     999901    1    3    3    0    0  0.70898147499E-01  0.18186204827E-01  0.11458857502E+00  0.89044248938E+00  0.88000000000E+00 0.  1.
        -11    1    4    4    0    0 -0.36298283254E-01  0.75608799921E-02 -0.39686463046E-01  0.54313982947E-01  0.51100000000E-03 0. -1.
         11    1    4    4    0    0 -0.27691166806E-01 -0.14295724511E-02 -0.67276853447E-01  0.72768678201E-01  0.51100000000E-03 0.  1.
</event>
<event>
 8    1  0.1114686E+005  0.1043930E+01  0.7957747E-01            NaN
         13   -1    0    0    0    0  0.00000000000E+00  0.00000000000E+00  0.74505805969E-08  0.10566000000E+00  0.10566000000E+00 0. -1.
     999900   -1    0    0    0    0 -0.00000000000E+00 -0.00000000000E+00 -0.74505805969E-08  0.93827000000E+00  0.93827000000E+00 0. -1.
     999902    2    1    2    0    0  0.21924316275E-01  0.28799827748E-02 -0.10247955917E-01  0.10195580788E+01  0.10192667391E+01 0.  0.
     999903    2    3    3    0    0 -0.95062657153E-01  0.47361121718E-01  0.67309316988E-01  0.12732511912E+00  0.20028908347E-01 0.  0.
         14    1    1    2    0    0 -0.21924316275E-01 -0.28799827748E-02  0.10247955917E-01  0.24371921249E-01  0.00000000000E+00 0. -1.
     999901    1    3    3    0    0  0.11698697343E+00 -0.44481138944E-01 -0.77557272906E-01  0.89223295963E+00  0.88000000000E+00 0. -1.
        -11    1    4    4    0    0 -0.69587013441E-01  0.37304601659E-01  0.59420830928E-01  0.98818429525E-01  0.51100000000E-03 0. -1.
         11    1    4    4    0    0 -0.25475643712E-01  0.10056520059E-01  0.78884860605E-02  0.28506689594E-01  0.51100000000E-03 0.  1.
</event>
<event>
 8    1  0.1114686E+005  0.1043930E+01  0.7957747E-01            NaN
         13   -1    0    0    0    0  0.00000000000E+00  0.00000000000E+00  0.74505805969E-08  0.10566000000E+00  0.10566000000E+00 0. -1.
     999900   -1    0    0    0    0 -0.00000000000E+00 -0.00000000000E+00 -0.74505805969E-08  0.93827000000E+00  0.93827000000E+00 0. -1.
     999902    2    1    2    0    0 -0.21022111024E-01 -0.36285386915E-02 -0.20989407415E-01  0.10140025766E+01  0.10135608392E+01 0.  0.
     999903    2    3    3    0    0 -0.41524957501E-01 -0.11121327473E+00 -0.41406764390E-01  0.12697850110E+00  0.17784966448E-01 0.  0.
         14    1    1    2    0    0  0.21022111024E-01  0.36285386915E-02  0.20989407415E-01  0.29927423353E-01  0.00000000000E+00 0.  1.
     999901    1    3    3    0    0  0.20502846477E-01  0.10758473604E+00  0.20417356975E-01  0.88702407555E+00  0.88000000000E+00 0. -1.
        -11    1    4    4    0    0 -0.72239500064E-02 -0.20993970361E-01 -0.68435169828E-03  0.22218499127E-01  0.51100000000E-03 0.  1.
         11    1    4    4    0    0 -0.34301007495E-01 -0.90219304369E-01 -0.40722412691E-01  0.10476000197E+00  0.51100000000E-03 0. -1.
</event>
<event>
 8    1  0.1114686E+005  0.1043930E+01  0.7957747E-01            NaN
         13   -1    0    0    0    0  0.00000000000E+00  0.00000000000E+00  0.74505805969E-08  0.10566000000E+00  0.10566000000E+00 0. -1.
     999900   -1    0    0    0    0 -0.00000000000E+00 -0.00000000000E+00 -0.74505805969E-08  0.93827000000E+00  0.93827000000E+00 0. -1.
     999902    2    1    2    0    0  0.18506862417E-01 -0.13708619430E-01 -0.22148340009E-02  0.10207926775E+01  0.10205304281E+01 0.  0.
     999903    2    3    3    0    0  0.32306798988E-01  0.10180715808E+00 -0.71275830443E-01  0.13045355427E+00  0.23009978723E-01 0.  0.
         14    1    1    2    0    0 -0.18506862417E-01  0.13708619430E-01  0.22148340009E-02  0.23137322508E-01  0.00000000000E+00 0.  1.
     999901    1    3    3    0    0 -0.13799936571E-01 -0.11551577751E+00  0.69060996442E-01  0.89033912322E+00  0.88000000000E+00 0.  1.
        -11    1    4    4    0    0  0.48166088669E-02  0.51674684795E-01 -0.30158940455E-01  0.60027456884E-01  0.51100000000E-03 0. -1.
         11    1    4    4    0    0  0.27490190121E-01  0.50132473283E-01 -0.41116889988E-01  0.70426097390E-01  0.51100000000E-03 0.  1.
</event>
<event>
 8    1  0.1114686E+005  0.1043930E+01  0.7957747E-01            NaN
         13   -1    0    0    0    0  0.00000000000E+00  0.00000000000E+00  0.74505805969E-08  0.10566000000E+00  0.10566000000E+00 0. -1.
     999900   -1    0    0    0    0 -0.00000000000E+00 -0.00000000000E+00 -0.74505805969E-08  0.93827000000E+00  0.93827000000E+00 0.  1.
     999902    2    1    2    0    0  0.95581002514E-03  0.15070046555E-01 -0.18375871712E-01  0.10201457082E+01  0.10198684098E+01 0.  0.
     999903    2    3    3    0    0 -0.47988399951E-01  0.76938399168E-02 -0.12176519707E+00  0.13271159981E+00  0.20579693963E-01 0.  0.
         14    1    1    2    0    0 -0.95581002514E-03 -0.15070046555E-01  0.18375871712E-01  0.23784291815E-01  0.00000000000E+00 0. -1.
     999901    1    3    3    0    0  0.48944209976E-01  0.73762066378E-02  0.10338932536E+00  0.88743410838E+00  0.88000000000E+00 0. -1.
        -11    1    4    4    0    0 -0.30758536087E-01  0.14564715208E-01 -0.73354921133E-01  0.80866705427E-01  0.51100000000E-03 0.  1.
         11    1    4    4    0    0 -0.17229863864E-01 -0.68708752908E-02 -0.48410275937E-01  0.51844894380E-01  0.51100000000E-03 0. -1.
</event>
<event>
 8    1  0.1114686E+005  0.1043930E+01  0.7957747E-01            NaN
         13   -1    0    0    0    0  0.00000000000E+00  0.00000000000E+00  0.74505805969E-08  0.10566000000E+00  0.10566000000E+00 0.  1.
     999900   -1    0    0    0    0 -0.00000000000E+00 -0.00000000000E+00 -0.74505805969E-08  0.93827000000E+00  0.93827000000E+00 0. -1.
     999902    2    1    2    0    0 -0.50077610372E-02 -0.19808614427E-01  0.11108337687E-01  0.10206737311E+01  0.10204087472E+01 0.  0.
     999903    2    3    3    0    0 -0.15957322173E-01 -0.84906911229E-01 -0.97008696280E-01  0.13160288233E+00  0.21090561343E-01 0.  0.
         14    1    1    2    0    0  0.50077610372E-02  0.19808614427E-01 -0.11108337687E-01  0.23256268882E-01  0.00000000000E+00 0.  1.
     999901    1    3    3    0    0  0.10949561136E-01  0.65098296802E-01  0.10811703397E+00  0.88907084879E+00  0.88000000000E+00 0.  1.
        -11    1    4    4    0    0 -0.20001541443E-01 -0.56786623076E-01 -0.70895007354E-01  0.93011533743E-01  0.51100000000E-03 0. -1.
         11    1    4    4    0    0  0.40442192700E-02 -0.28120288153E-01 -0.26113688926E-01  0.38591348585E-01  0.51100000000E-03 0.  1.
</event>
<event>
 8    1  0.1114686E+005  0.1043930E+01  0.7957747E-01            NaN
         13   -1    0    0    0    0  0.00000000000E+00  0.00000000000E+00  0.74505805969E-08  0.10566000000E+00  0.10566000000E+00 0.  1.
     999900   -1    0    0    0    0 -0.00000000000E+00 -0.00000000000E+00 -0.74505805969E-08  0.93827000000E+00  0.93827000000E+00 0.  1.
     999902    2    1    2    0    0  0.18044138376E-01 -0.16001549948E-01  0.69551624673E-02  0.10188299041E+01  0.10185206717E+01 0.  0.
     999903    2    3    3    0    0 -0.97934285268E-01 -0.50201230900E-01  0.63715599925E-01  0.12874993003E+00  0.20138991915E-01 0.  0.
         14    1    1    2    0    0 -0.18044138376E-01  0.16001549948E-01 -0.69551624673E-02  0.25100095924E-01  0.00000000000E+00 0. -1.
     999901    1    3    3    0    0  0.11597842364E+00  0.34199680952E-01 -0.56760437458E-01  0.89007997404E+00  0.88000000000E+00 0.  1.
        -11    1    4    4    0    0 -0.84841099796E-01 -0.49909746274E-01  0.52845704376E-01  0.11172253389E+00  0.51100000000E-03 0.  1.
         11    1    4    4    0    0 -0.13093185472E-01 -0.29148462627E-03  0.10869895549E-01  0.17027396141E-01  0.51100000000E-03 0. -1.
</event>
<event>
 8    1  0.1114686E+005  0.1043930E+01  0.7957747E-01            NaN
         13   -1    0    0    0    0  0.00000000000E+00  0.00000000000E+00  0.74505805969E-08  0.10566000000E+00  0.10566000000E+00 0.  1.
     999900   -1    0    0    0    0 -0.00000000000E+00 -0.00000000000E+00 -0.74505805969E-08  0.93827000000E+00  0.93827000000E+00 0. -1.
     999902    2    1    2    0    0 -0.46966927702E-02 -0.42676976756E-02  0.19185008727E-01  0.10237226566E+01  0.10235232000E+01 0.  0.
     999903    2    3    3    0    0 -0.26597797817E-01  0.63667565128E-01 -0.10959559347E+00  0.13148989449E+00  0.22746352382E-01 0.  0.
         14    1    1    2    0    0  0.46966927702E-02  0.42676976756E-02 -0.19185008727E-01  0.20207343375E-01  0.00000000000E+00 0.  1.
     999901    1    3    3    0    0  0.21901105047E-01 -0.67935262804E-01  0.12878060219E+00  0.89223276214E+00  0.88000000000E+00 0.  1.
        -11    1    4    4    0    0 -0.14512178452E-01  0.51953569020E-01 -0.69326025332E-01  0.87841536682E-01  0.51100000000E-03 0. -1.
         11    1    4    4    0    0 -0.12085619366E-01  0.11713996108E-01 -0.40269568133E-01  0.43648357803E-01  0.51100000000E-03 0.  1.
</event>
<event>
 8    1  0.1114686E+005  0.1043930E+01  0.7957747E-01            NaN
         13   -1    0    0    0    0  0.00000000000E+00  0.00000000000E+00  0.74505805969E-08  0.10566000000E+00  0.10566000000E+00 0.  1.
     999900   -1    0    0    0    0 -0.00000000000E+00 -0.00000000000E+00 -0.74505805969E-08  0.93827000000E+00  0.93827000000E+00 0.  1.
     999902    2    1    2    0    0 -0.10334210228E-01 -0.21243978413E-01 -0.57651547758E-03  0.10202987730E+01  0.10200250738E+01 0.  0.
     999903    2    3    3    0    0  0.47075654864E-01 -0.38069391895E-02 -0.11965005788E+00  0.13025470024E+00  0.20482688199E-01 0.  0.
         14    1    1    2    0    0  0.10334210228E-01  0.21243978413E-01  0.57651547758E-03  0.23631227009E-01  0.00000000000E+00 0.  1.
     999901    1    3    3    0    0 -0.57409865092E-01 -0.17437039223E-01  0.11907354240E+00  0.89004407276E+00  0.88000000000E+00 0. -1.
        -11    1    4    4    0    0  0.56756636212E-02 -0.68907681141E-02 -0.32706694251E-01  0.33907002412E-01  0.51100000000E-03 0.  1.
         11    1    4    4    0    0  0.41399991243E-01  0.30838289246E-02 -0.86943363630E-01  0.96347697824E-01  0.51100000000E-03 0. -1.
</event>
<event>
 8    1  0.1114686E+005  0.1043930E+01  0.7957747E-01            NaN
         13   -1    0    0    0    0  0.00000000000E+00  0.00000000000E+00  0.74505805969E-08  0.10566000000E+00  0.10566000000E+00 0. -1.
     999900   -1    0    0    0    0 -0.00000000000E+00 -0.00000000000E+00 -0.74505805969E-08  0.93827000000E+00  0.93827000000E+00 0. -1.
     999902    2    1    2    0    0 -0.23531796152E-01 -0.10040267133E-01 -0.18090303394E-02  0.10182819009E+01  0.10179588424E+01 0.  0.
     999903    2    3    3    0    0 -0.60504263490E-01  0.27936112761E-01  0.11027706959E+00  0.12959046824E+00  0.13837090869E-01 0.  0.
         14    1    1    2    0    0  0.23531796152E-01  0.10040267133E-01  0.18090303394E-02  0.25648099052E-01  0.00000000000E+00 0.  1.
     999901    1    3    3    0    0  0.36972467339E-01 -0.37976379894E-01 -0.11208609993E+00  0.88869143271E+00  0.88000000000E+00 0. -1.
        -11    1    4    4    0    0 -0.39924985662E-01  0.25393952402E-01  0.76176934112E-01  0.89677442595E-01  0.51100000000E-03 0.  1.
         11    1    4    4    0    0 -0.20579277828E-01  0.25421603586E-02  0.34100135482E-01  0.39913025644E-01  0.51100000000E-03 0. -1.
</event>
<event>
 8    1  0.1114686E+005  0.1043930E+01  0.7957747E-01            NaN
         13   -1    0    0    0    0  0.00000000000E+00  0.00000000000E+00  0.74505805969E-08  0.10566000000E+00  0.10566000000E+00 0. -1.
     999900   -1    0    0    0    0 -0.00000000000E+00 -0.00000000000E+00 -0.74505805969E-08  0.93827000000E+00  0.93827000000E+00 0. -1.
     999902    2    1    2    0    0 -0.23910753124E-01 -0.71467974073E-02 -0.41944685935E-02  0.10186239850E+01  0.10183095936E+01 0.  0.
     999903    2    3    3    0    0 -0.65041284589E-01  0.17054232522E-01 -0.11011376192E+00  0.13098875183E+00  0.22622930704E-01 0.  0.
         14    1    1    2    0    0  0.23910753124E-01  0.71467974073E-02  0.41944685935E-02  0.25306014995E-01  0.00000000000E+00 0. -1.
     999901    1    3    3    0    0  0.41130531465E-01 -0.24201029929E-01  0.10591929333E+00  0.88763523317E+00  0.88000000000E+00 0. -1.
        -11    1    4    4    0    0 -0.39654885677E-01  0.10776974776E-01 -0.86431908028E-01  0.95704696801E-01  0.51100000000E-03 0. -1.
         11    1    4    4    0    0 -0.25386398912E-01  0.62772577464E-02 -0.23681853897E-01  0.35284055033E-01  0.51100000000E-03 0.  1.
</event>
<event>
 8    1  0.1114686E+005  0.1043930E+01  0.7957747E-01            NaN
         13   -1    0    0    0    0  0.00000000000E+00  0.00000000000E+00  0.74505805969E-08  0.10566000000E+00  0.10566000000E+00 0.  1.
     999900   -1    0    0    0    0 -0.00000000000E+00 -0.00000000000E+00 -0.74505805969E-08  0.93827000000E+00  0.93827000000E+00 0. -1.
     999902    2    1    2    0    0  0.19976576628E-01  0.14209138398E-01 -0.37237338839E-02  0.10191342459E+01  0.10188325582E+01 0.  0.
     999903    2    3    3    0    0  0.30368679697E-01 -0.11717262285E+00  0.37283309248E-01  0.12837572610E+00  0.20942818599E-01 0.  0.
         14    1    1    2    0    0 -0.19976576628E-01 -0.14209138398E-01  0.37237338839E-02  0.24795754109E-01  0.00000000000E+00 0. -1.
     999901    1    3    3    0    0 -0.10392103069E-01  0.13138176125E+00 -0.41007043132E-01  0.89075851979E+00  0.88000000000E+00 0. -1.
        -11    1    4    4    0    0 -0.35894313957E-03 -0.28280222706E-01  0.38126252347E-02  0.28542898743E-01  0.51100000000E-03 0.  1.
         11    1    4    4    0    0  0.30727622837E-01 -0.88892400144E-01  0.33470684014E-01  0.99832827356E-01  0.51100000000E-03 0. -1.
</event>
<event>
 8    1  0.1114686E+005  0.1043930E+01  0.7957747E-01            NaN
         13   -1    0    0    0    0  0.00000000000E+00  0.00000000000E+00  0.74505805969E-08  0.10566000000E+00  0.10566000000E+00 0. -1.
     999900   -1    0    0    0    0 -0.00000000000E+00 -0.00000000000E+00 -0.74505805969E-08  0.93827000000E+00  0.93827000000E+00 0.  1.
     999902    2    1    2    0    0 -0.23469743127E-01 -0.10963740722E-02 -0.36162671845E-02  0.10201579940E+01  0.10198809855E+01 0.  0.
     999903    2    3    3    0    0  0.12440188261E+00  0.19329438435E-01 -0.93992845891E-02  0.12756812473E+00  0.18325509819E-01 0.  0.
         14    1    1    2    0    0  0.23469743127E-01  0.10963740722E-02  0.36162671845E-02  0.23772005951E-01  0.00000000000E+00 0. -1.
     999901    1    3    3    0    0 -0.14787162574E+00 -0.20425812507E-01  0.57830174046E-02  0.89258986932E+00  0.88000000000E+00 0. -1.
        -11    1    4    4    0    0  0.36556092124E-02 -0.20336107118E-02  0.14734231638E-02  0.44644314375E-02  0.51100000000E-03 0.  1.
         11    1    4    4    0    0  0.12074627340E+00  0.21363049147E-01 -0.10872707753E-01  0.12310369330E+00  0.51100000000E-03 0. -1.
</event>
<event>
 8    1  0.1114686E+005  0.1043930E+01  0.7957747E-01            NaN
         13   -1    0    0    0    0  0.00000000000E+00  0.00000000000E+00  0.74505805969E-08  0.10566000000E+00  0.10566000000E+00 0.  1.
     999900   -1    0    0    0    0 -0.00000000000E+00 -0.00000000000E+00 -0.74505805969E-08  0.93827000000E+00  0.93827000000E+00 0. -1.
     999902    2    1    2    0    0  0.14983104347E-01  0.15626925868E-01  0.94371673142E-02  0.10203131764E+01  0.10200398147E+01 0.  0.
     999903    2    3    3    0    0 -0.27859299420E-01 -0.56927591586E-01 -0.10954398783E+00  0.12831757957E+00  0.21180762693E-01 0.  0.
         14    1    1    2    0    0 -0.14983104347E-01 -0.15626925868E-01 -0.94371673142E-02  0.23616823556E-01  0.00000000000E+00 0. -1.
     999901    1    3    3    0    0  0.42842403767E-01  0.72554517453E-01  0.11898115515E+00  0.89199559687E+00  0.88000000000E+00 0.  1.
        -11    1    4    4    0    0 -0.17163120847E-01 -0.52499743174E-01 -0.90721348563E-01  0.10621402900E+00  0.51100000000E-03 0.  1.
         11    1    4    4    0    0 -0.10696178574E-01 -0.44278484114E-02 -0.18822639270E-01  0.22103550568E-01  0.51100000000E-03 0. -1.
</event>
<event>
 8    1  0.1114686E+005  0.1043930E+01  0.7957747E-01            NaN
         13   -1    0    0    0    0  0.00000000000E+00  0.00000000000E+00  0.74505805969E-08  0.10566000000E+00  0.10566000000E+00 0.  1.
     999900   -1    0    0    0    0 -0.00000000000E+00 -0.00000000000E+00 -0.74505805969E-08  0.93827000000E+00  0.93827000000E+00 0. -1.
     999902    2    1    2    0    0 -0.53469489594E-02 -0.17425196485E-01  0.15277052539E-01  0.10201473242E+01  0.10198700639E+01 0.  0.
     999903    2    3    3    0    0 -0.21261639116E-01  0.12501202552E+00  0.27493556193E-02  0.12846431840E+00  0.20382794817E-01 0.  0.
         14    1    1    2    0    0  0.53469489594E-02  0.17425196485E-01 -0.15277052539E-01  0.23782675838E-01  0.00000000000E+00 0.  1.
     999901    1    3    3    0    0  0.15914690156E-01 -0.14243722200E+00  0.12527696919E-01  0.89168300576E+00  0.88000000000E+00 0. -1.
        -11    1    4    4    0    0 -0.16490639470E-01  0.40279165433E-01 -0.56864677407E-03  0.43530872243E-01  0.51100000000E-03 0.  1.
         11    1    4    4    0    0 -0.47709996462E-02  0.84732860083E-01  0.33180023933E-02  0.84933446158E-01  0.51100000000E-03 0. -1.
</event>
<event>
 8    1  0.1114686E+005  0.1043930E+01  0.7957747E-01            NaN
         13   -1    0    0    0    0  0.00000000000E+00  0.00000000000E+00  0.74505805969E-08  0.10566000000E+00  0.10566000000E+00 0. -1.
     999900   -1    0    0    0    0 -0.00000000000E+00 -0.00000000000E+00 -0.74505805969E-08  0.93827000000E+00  0.93827000000E+00 0. -1.
     999902    2    1    2    0    0 -0.15739905425E-01 -0.17401987356E-01  0.50494937260E-02  0.10199285173E+01  0.10196460705E+01 0.  0.
     999903    2    3    3    0    0 -0.89868233231E-01  0.76357362647E-01 -0.51145346665E-01  0.13007252623E+00  0.19906516993E-01 0.  0.
         14    1    1    2    0    0  0.15739905425E-01  0.17401987356E-01 -0.50494937260E-02  0.24001482738E-01  0.00000000000E+00 0.  1.
     999901    1    3    3    0    0  0.74128327807E-01 -0.93759350003E-01  0.56194840391E-01  0.88985599104E+00  0.88000000000E+00 0.  1.
        -11    1    4    4    0    0 -0.86043042087E-02  0.27835760152E-02 -0.85781371740E-02  0.12475091371E-01  0.51100000000E-03 0. -1.
         11    1    4    4    0    0 -0.81263929023E-01  0.73573786632E-01 -0.42567209491E-01  0.11759743485E+00  0.51100000000E-03 0.  1.
</event>
<event>
 8    1  0.1114686E+005  0.1043930E+01  0.7957747E-01            NaN
         13   -1    0    0    0    0  0.00000000000E+00  0.00000000000E+00  0.74505805969E-08  0.10566000000E+00  0.10566000000E+00 0. -1.
     999900   -1    0    0    0    0 -0.00000000000E+00 -0.00000000000E+00 -0.74505805969E-08  0.93827000000E+00  0.93827000000E+00 0. -1.
     999902    2    1    2    0    0  0.29630943271E-02 -0.23310415304E-01 -0.67788850094E-02  0.10194737396E+01  0.10191803555E+01 0.  0.
     999903    2    3    3    0    0  0.10395250680E+00 -0.17284002277E-02  0.74912257770E-01  0.12967708442E+00  0.19879356678E-01 0.  0.
         14    1    1    2    0    0 -0.29630943271E-02  0.23310415304E-01  0.67788850094E-02  0.24456260376E-01  0.00000000000E+00 0.  1.
     999901    1    3    3    0    0 -0.10098941247E+00 -0.21582015076E-01 -0.81691142779E-01  0.88979665521E+00  0.88000000000E+00 0.  1.
        -11    1    4    4    0    0  0.61716329041E-01 -0.48562265824E-02  0.33281488290E-01  0.70288027364E-01  0.51100000000E-03 0. -1.
         11    1    4    4    0    0  0.42236177758E-01  0.31278263547E-02  0.41630769480E-01  0.59389057054E-01  0.51100000000E-03 0.  1.
</event>
<event>
 8    1  0.1114686E+005  0.1043930E+01  0.7957747E-01            NaN
         13   -1    0    0    0    0  0.00000000000E+00  0.00000000000E+00  0.74505805969E-08  0.10566000000E+00  0.10566000000E+00 0.  1.
     999900   -1    0    0    0    0 -0.00000000000E+00 -0.00000000000E+00 -0.74505805969E-08  0.93827000000E+00  0.93827000000E+00 0.  1.
     999902    2    1    2    0    0 -0.14513738798E-01 -0.75472785750E-03  0.23106859462E-01  0.10166326525E+01  0.10162661093E+01 0.  0.
     999903    2    3    3    0    0 -0.57940195349E-01 -0.10754330097E+00 -0.30358719710E-01  0.12750486377E+00  0.20327582331E-01 0.  0.
         14    1    1    2    0    0  0.14513738798E-01  0.75472785750E-03 -0.23106859462E-01  0.27297347531E-01  0.00000000000E+00 0. -1.
     999901    1    3    3    0    0  0.43426456551E-01  0.10678857311E+00  0.53465579172E-01  0.88912778870E+00  0.88000000000E+00 0. -1.
        -11    1    4    4    0    0 -0.39581151710E-02 -0.10670653885E-01  0.28435147895E-02  0.11742070830E-01  0.51100000000E-03 0. -1.
         11    1    4    4    0    0 -0.53982080178E-01 -0.96872647083E-01 -0.33202234499E-01  0.11576279294E+00  0.51100000000E-03 0.  1.
</event>
<event>
 8    1  0.1114686E+005  0.1043930E+01  0.7957747E-01            NaN
         13   -1    0    0    0    0  0.00000000000E+00  0.00000000000E+00  0.74505805969E-08  0.10566000000E+00  0.10566000000E+00 0.  1.
     999900   -1    0    0    0    0 -0.00000000000E+00 -0.00000000000E+00 -0.74505805969E-08  0.93827000000E+00  0.93827000000E+00 0. -1.
     999902    2    1    2    0    0  0.30568690336E-02  0.23672830757E-01 -0.31131815256E-02  0.10198584553E+01  0.10195743375E+01 0.  0.
     999903    2    3    3    0    0 -0.77781288987E-02 -0.78078020344E-01 -0.99971518120E-01  0.12865019108E+00  0.19997266781E-01 0.  0.
         14    1    1    2    0    0 -0.30568690336E-02 -0.23672830757E-01  0.31131815256E-02  0.24071544686E-01  0.00000000000E+00 0.  1.
     999901    1    3    3    0    0  0.10834997932E-01  0.10175085110E+00  0.96858336594E-01  0.89120826424E+00  0.88000000000E+00 0.  1.
        -11    1    4    4    0    0 -0.11815608726E-01 -0.62663219678E-01 -0.88172127070E-01  0.10881577470E+00  0.51100000000E-03 0.  1.
         11    1    4    4    0    0  0.40374798270E-02 -0.15414800666E-01 -0.11799391049E-01  0.19834416378E-01  0.51100000000E-03 0. -1.
</event>
<event>
 7    1  0.1200353E+005  0.1043930E+01  0.7957747E-01            NaN
         13   -1    0    0    0    0  0.00000000000E+00  0.00000000000E+00  0.74505805969E-08  0.10566000000E+00  0.10566000000E+00 0.  1.
     999900   -1    0    0    0    0 -0.00000000000E+00 -0.00000000000E+00 -0.74505805969E-08  0.93827000000E+00  0.93827000000E+00 0.  1.
     999903    2    1    2    0    0 -0.83113346114E-02  0.18428099650E-01 -0.53919525119E-01  0.60478412167E-01  0.18483776924E-01 0.  0.
         14    1    1    2    0    0 -0.75660008724E-01 -0.22829479688E-01 -0.49751128126E-01  0.93385206606E-01  0.00000000000E+00 0. -1.
     999901    1    1    2    0    0  0.83971343335E-01  0.44013800384E-02  0.10367065325E+00  0.89006638123E+00  0.88000000000E+00 0. -1.
        -11    1    3    3    0    0 -0.57012907627E-03 -0.18522742983E-02 -0.20669106483E-01  0.20766055259E-01  0.51100000000E-03 0. -1.
         11    1    3    3    0    0 -0.77412055351E-02  0.20280373948E-01 -0.33250418636E-01  0.39712356907E-01  0.51100000000E-03 0.  1.
</event>
<event>
 8    1  0.1114686E+005  0.1043930E+01  0.7957747E-01            NaN
         13   -1    0    0    0    0  0.00000000000E+00  0.00000000000E+00  0.74505805969E-08  0.10566000000E+00  0.10566000000E+00 0.  1.
     999900   -1    0    0    0    0 -0.00000000000E+00 -0.00000000000E+00 -0.74505805969E-08  0.93827000000E+00  0.93827000000E+00 0.  1.
     999902    2    1    2    0    0 -0.21177096643E-01  0.10472536070E-01 -0.39396756912E-02  0.10199787061E+01  0.10196974534E+01 0.  0.
     999903    2    3    3    0    0 -0.80146046960E-02 -0.68254877396E-01 -0.10872164461E+00  0.13017506608E+00  0.20054666409E-01 0.  0.
         14    1    1    2    0    0  0.21177096643E-01 -0.10472536070E-01  0.39396756912E-02  0.23951293879E-01  0.00000000000E+00 0.  1.
     999901    1    3    3    0    0 -0.13162491947E-01  0.78727413466E-01  0.10478196892E+00  0.88980364004E+00  0.88000000000E+00 0. -1.
        -11    1    4    4    0    0  0.43136896312E-02 -0.29676430631E-01 -0.57713142460E-01  0.65041266800E-01  0.51100000000E-03 0. -1.
         11    1    4    4    0    0 -0.12328294327E-01 -0.38578446765E-01 -0.51008502149E-01  0.65133799277E-01  0.51100000000E-03 0.  1.
</event>
<event>
 8    1  0.1114686E+005  0.1043930E+01  0.7957747E-01            NaN
         13   -1    0    0    0    0  0.00000000000E+00  0.00000000000E+00  0.74505805969E-08  0.10566000000E+00  0.10566000000E+00 0. -1.
     999900   -1    0    0    0    0 -0.00000000000E+00 -0.00000000000E+00 -0.74505805969E-08  0.93827000000E+00  0.93827000000E+00 0. -1.
     999902    2    1    2    0    0 -0.16095995424E-01  0.59572657295E-03 -0.17736177841E-01  0.10199715367E+01  0.10196901136E+01 0.  0.
     999903    2    3    3    0    0  0.50517294936E-01 -0.98063599684E-01  0.62474301109E-01  0.12834116820E+00  0.19998762108E-01 0.  0.
         14    1    1    2    0    0  0.16095995424E-01 -0.59572657295E-03  0.17736177841E-01  0.23958463291E-01  0.00000000000E+00 0. -1.
     999901    1    3    3    0    0 -0.66613290360E-01  0.98659326257E-01 -0.80210478950E-01  0.89163036851E+00  0.88000000000E+00 0. -1.
        -11    1    4    4    0    0  0.39173759845E-01 -0.54889319419E-01  0.36135092961E-01  0.76507691841E-01  0.51100000000E-03 0. -1.
         11    1    4    4    0    0  0.11343535092E-01 -0.43174280266E-01  0.26339208148E-01  0.51833476361E-01  0.51100000000E-03 0.  1.
</event>
<event>
 8    1  0.1114686E+005  0.1043930E+01  0.7957747E-01            NaN
         13   -1    0    0    0    0  0.00000000000E+00  0.00000000000E+00  0.74505805969E-08  0.10566000000E+00  0.10566000000E+00 0. -1.
     999900   -1    0    0    0    0 -0.00000000000E+00 -0.00000000000E+00 -0.74505805969E-08  0.93827000000E+00  0.93827000000E+00 0. -1.
     999902    2    1    2    0    0 -0.18797883291E-02  0.12635881915E-01 -0.19548786236E-01  0.10205771809E+01  0.10203099666E+01 0.  0.
     999903    2    3    3    0    0  0.87584735239E-01  0.72845905264E-01  0.60010465532E-01  0.13043178693E+00  0.20822663327E-01 0.  0.
         14    1    1    2    0    0  0.18797883291E-02 -0.12635881915E-01  0.19548786236E-01  0.23352819085E-01  0.00000000000E+00 0. -1.
     999901    1    3    3    0    0 -0.89464523568E-01 -0.60210023348E-01 -0.79559251768E-01  0.89014539398E+00  0.88000000000E+00 0. -1.
        -11    1    4    4    0    0  0.45037144476E-01  0.49331312640E-01  0.39991167087E-01  0.77855490207E-01  0.51100000000E-03 0.  1.
         11    1    4    4    0    0  0.42547590762E-01  0.23514592623E-01  0.20019298445E-01  0.52576296723E-01  0.51100000000E-03 0. -1.
</event>
<event>
 8    1  0.1114686E+005  0.1043930E+01  0.7957747E-01            NaN
         13   -1    0    0    0    0  0.00000000000E+00  0.00000000000E+00  0.74505805969E-08  0.10566000000E+00  0.10566000000E+00 0.  1.
     999900   -1    0    0    0    0 -0.00000000000E+00 -0.00000000000E+00 -0.74505805969E-08  0.93827000000E+00  0.93827000000E+00 0. -1.
     999902    2    1    2    0    0  0.27207152815E-02  0.57863861219E-02  0.22489400250E-01  0.10205492883E+01  0.10202814279E+01 0.  0.
     999903    2    3    3    0    0 -0.74379590126E-01 -0.87275678798E-01  0.60823152425E-01  0.13146296989E+00  0.20825202167E-01 0.  0.
         14    1    1    2    0    0 -0.27207152815E-02 -0.57863861219E-02 -0.22489400250E-01  0.23380711700E-01  0.00000000000E+00 0. -1.
     999901    1    3    3    0    0  0.77100305408E-01  0.93062064920E-01 -0.38333752175E-01  0.88908631841E+00  0.88000000000E+00 0. -1.
        -11    1    4    4    0    0 -0.32704463390E-01 -0.44868272073E-01  0.18679870597E-01  0.58582782889E-01  0.51100000000E-03 0. -1.
         11    1    4    4    0    0 -0.41675126736E-01 -0.42407406725E-01  0.42143281829E-01  0.72880187005E-01  0.51100000000E-03 0.  1.
</event>
<event>
 8    1  0.1114686E+005  0.1043930E+01  0.7957747E-01            NaN
         13   -1    0    0    0    0  0.00000000000E+00  0.00000000000E+00  0.74505805969E-08  0.10566000000E+00  0.10566000000E+00 0. -1.
     999900   -1    0    0    0    0 -0.00000000000E+00 -0.00000000000E+00 -0.74505805969E-08  0.93827000000E+00  0.93827000000E+00 0.  1.
     999902    2    1    2    0    0 -0.12083459154E-01  0.10089685681E-01  0.18870158793E-01  0.10193557323E+01  0.10190594753E+01 0.  0.
     999903    2    3    3    0    0  0.10232764163E+00  0.19634830868E-01 -0.70753286747E-01  0.12738411176E+00  0.19084326539E-01 0.  0.
         14    1    1    2    0    0  0.12083459154E-01 -0.10089685681E-01 -0.18870158793E-01  0.24574267744E-01  0.00000000000E+00 0.  1.
     999901    1    3    3    0    0 -0.11441110078E+00 -0.95451451872E-02  0.89623445541E-01  0.89197162050E+00  0.88000000000E+00 0.  1.
        -11    1    4    4    0    0  0.31031575931E-01  0.14225885633E-01 -0.18570023819E-01  0.38864398007E-01  0.51100000000E-03 0.  1.
         11    1    4    4    0    0  0.71296065695E-01  0.54089452353E-02 -0.52183262928E-01  0.88519713754E-01  0.51100000000E-03 0. -1.
</event>
<event>
 8    1  0.1114686E+005  0.1043930E+01  0.7957747E-01            NaN
         13   -1    0    0    0    0  0.00000000000E+00  0.00000000000E+00  0.74505805969E-08  0.10566000000E+00  0.10566000000E+00 0.  1.
     999900   -1    0    0    0    0 -0.00000000000E+00 -0.00000000000E+00 -0.74505805969E-08  0.93827000000E+00  0.93827000000E+00 0. -1.
     999902    2    1    2    0    0  0.19410706262E-01 -0.19863278286E-01  0.79058503275E-02  0.10150539232E+01  0.10146431093E+01 0.  0.
     999903    2    3    3    0    0  0.12515590081E+00 -0.72088770748E-02 -0.17930651150E-01  0.12825648024E+00  0.20303917258E-01 0.  0.
         14    1    1    2    0    0 -0.19410706262E-01  0.19863278286E-01 -0.79058503275E-02  0.28876076798E-01  0.00000000000E+00 0. -1.
     999901    1    3    3    0    0 -0.10574519455E+00 -0.12654401211E-01  0.25836501477E-01  0.88679744296E+00  0.88000000000E+00 0.  1.
        -11    1    4    4    0    0  0.71833977620E-01  0.16220567192E-02 -0.19020811952E-02  0.71879276865E-01  0.51100000000E-03 0.  1.
         11    1    4    4    0    0  0.53321923190E-01 -0.88309337940E-02 -0.16028569955E-01  0.56377203373E-01  0.51100000000E-03 0. -1.
</event>
<event>
 8    1  0.1114686E+005  0.1043930E+01  0.7957747E-01            NaN
         13   -1    0    0    0    0  0.00000000000E+00  0.00000000000E+00  0.74505805969E-08  0.10566000000E+00  0.10566000000E+00 0.  1.
     999900   -1    0    0    0    0 -0.00000000000E+00 -0.00000000000E+00 -0.74505805969E-08  0.93827000000E+00  0.93827000000E+00 0.  1.
     999902    2    1    2    0    0 -0.12361320626E-01 -0.17148824240E-01 -0.11484361414E-01  0.10198722574E+01  0.10195884692E+01 0.  0.
     999903    2    3    3    0    0 -0.28155321149E-01 -0.12360138300E+00  0.31926407863E-01  0.13225404412E+00  0.20045265714E-01 0.  0.
         14    1    1    2    0    0  0.12361320626E-01  0.17148824240E-01  0.11484361414E-01  0.24057742569E-01  0.00000000000E+00 0.  1.
     999901    1    3    3    0    0  0.15794000522E-01  0.10645255876E+00 -0.43410769277E-01  0.88761821331E+00  0.88000000000E+00 0.  1.
        -11    1    4    4    0    0 -0.40174521490E-03 -0.29685684910E-01  0.13438216352E-01  0.32592147329E-01  0.51100000000E-03 0. -1.
         11    1    4    4    0    0 -0.27753575934E-01 -0.93915698090E-01  0.18488191511E-01  0.99661896787E-01  0.51100000000E-03 0.  1.
</event>
<event>
 8    1  0.1114686E+005  0.1043930E+01  0.7957747E-01            NaN
         13   -1    0    0    0    0  0.00000000000E+00  0.00000000000E+00  0.74505805969E-08  0.10566000000E+00  0.10566000000E+00 0.  1.
     999900   -1    0    0    0    0 -0.00000000000E+00 -0.00000000000E+00 -0.74505805969E-08  0.93827000000E+00  0.93827000000E+00 0. -1.
     999902    2    1    2    0    0  0.12925041037E-01 -0.10799628295E-01  0.16764669537E-01  0.10201656822E+01  0.10198888549E+01 0.  0.
     999903    2    3    3    0    0 -0.10797650540E+00 -0.20089637452E-01 -0.63518630564E-01  0.12823020442E+00  0.18597033272E-01 0.  0.
         14    1    1    2    0    0 -0.12925041037E-01  0.10799628295E-01 -0.16764669537E-01  0.23764317827E-01  0.00000000000E+00 0. -1.
     999901    1    3    3    0    0  0.12090154643E+00  0.92900091578E-02  0.80283300101E-01  0.89193547775E+00  0.88000000000E+00 0.  1.
        -11    1    4    4    0    0 -0.62644476186E-01 -0.20078203706E-01 -0.33170022348E-01  0.73674800062E-01  0.51100000000E-03 0.  1.
         11    1    4    4    0    0 -0.45332029209E-01 -0.11433746198E-04 -0.30348608216E-01  0.54555404358E-01  0.51100000000E-03 0. -1.
</event>
<event>
 8    1  0.1114686E+005  0.1043930E+01  0.7957747E-01            NaN
         13   -1    0    0    0    0  0.00000000000E+00  0.00000000000E+00  0.74505805969E-08  0.10566000000E+00  0.10566000000E+00 0.  1.
     999900   -1    0    0    0    0 -0.00000000000E+00 -0.00000000000E+00 -0.74505805969E-08  0.93827000000E+00  0.93827000000E+00 0. -1.
     999902    2    1    2    0    0 -0.61895933431E-02 -0.60311663856E-02  0.21103504763E-01  0.10211255279E+01  0.10208708536E+01 0.  0.
     999903    2    3    3    0    0 -0.82701233684E-01  0.19211698839E-01 -0.95856708053E-01  0.12973844885E+00  0.20856011248E-01 0.  0.
         14    1    1    2    0    0  0.61895933431E-02  0.60311663856E-02 -0.21103504763E-01  0.22804472083E-01  0.00000000000E+00 0. -1.
     999901    1    3    3    0    0  0.76511640341E-01 -0.25242865225E-01  0.11696021282E+00  0.89138707907E+00  0.88000000000E+00 0.  1.
        -11    1    4    4    0    0 -0.51527155100E-01  0.14615187251E-02 -0.56420278537E-01  0.76424424766E-01  0.51100000000E-03 0. -1.
         11    1    4    4    0    0 -0.31174078584E-01  0.17750180114E-01 -0.39436429516E-01  0.53314024080E-01  0.51100000000E-03 0.  1.
</event>
<event>
 8    1  0.1114686E+005  0.1043930E+01  0.7957747E-01            NaN
         13   -1    0    0    0    0  0.00000000000E+00  0.00000000000E+00  0.74505805969E-08  0.10566000000E+00  0.10566000000E+00 0. -1.
     999900   -1    0    0    0    0 -0.00000000000E+00 -0.00000000000E+00 -0.74505805969E-08  0.93827000000E+00  0.93827000000E+00 0.  1.
     999902    2    1    2    0    0 -0.18025779344E-01 -0.15466982249E-01 -0.46257210930E-02  0.10197317861E+01  0.10194446341E+01 0.  0.
     999903    2    3    3    0    0 -0.65142277778E-01 -0.90407236494E-01 -0.69555887998E-01  0.13291053426E+00  0.20253488494E-01 0.  0.
         14    1    1    2    0    0  0.18025779344E-01  0.15466982249E-01  0.46257210930E-02  0.24198213910E-01  0.00000000000E+00 0. -1.
     999901    1    3    3    0    0  0.47116498435E-01  0.74940254245E-01  0.64930166905E-01  0.88682125183E+00  0.88000000000E+00 0. -1.
        -11    1    4    4    0    0 -0.31342196092E-01 -0.49023768525E-01 -0.47452720631E-01  0.75084518728E-01  0.51100000000E-03 0.  1.
         11    1    4    4    0    0 -0.33800081686E-01 -0.41383467969E-01 -0.22103167367E-01  0.57826015527E-01  0.51100000000E-03 0. -1.
</event>
<event>
 8    1  0.1530949E+005  0.1043930E+01  0.7957747E-01            NaN
         13   -1    0    0    0    0  0.00000000000E+00  0.00000000000E+00  0.74505805969E-08  0.10566000000E+00  0.10566000000E+00 0.  1.
     999900   -1    0    0    0    0 -0.00000000000E+00 -0.00000000000E+00 -0.74505805969E-08  0.93827000000E+00  0.93827000000E+00 0. -1.
     999902    2    1    2    0    0  0.68623233795E-02  0.23583133285E-01 -0.18069746295E-01  0.10134378471E+01  0.10129790218E+01 0.  0.
     999903    2    3    3    0    0 -0.38281782003E-01  0.10483787288E+00 -0.58877195887E-01  0.12760176130E+00  0.18952859106E-01 0.  0.
         14    1    1    2    0    0 -0.68623233795E-02 -0.23583133285E-01  0.18069746295E-01  0.30492152906E-01  0.00000000000E+00 0. -1.
     999901    1    3    3    0    0  0.45144105382E-01 -0.81254739590E-01  0.40807449592E-01  0.88583608580E+00  0.88000000000E+00 0.  1.
        -11    1    4    4    0    0 -0.29843412751E-01  0.59004287553E-01 -0.28738113475E-01  0.72099067410E-01  0.51100000000E-03 0. -1.
         11    1    4    4    0    0 -0.84383692516E-02  0.45833585322E-01 -0.30139082412E-01  0.55502693887E-01  0.51100000000E-03 0.  1.
</event>
<event>
 8    1  0.1114686E+005  0.1043930E+01  0.7957747E-01            NaN
         13   -1    0    0    0    0  0.00000000000E+00  0.00000000000E+00  0.74505805969E-08  0.10566000000E+00  0.10566000000E+00 0.  1.
     999900   -1    0    0    0    0 -0.00000000000E+00 -0.00000000000E+00 -0.74505805969E-08  0.93827000000E+00  0.93827000000E+00 0.  1.
     999902    2    1    2    0    0 -0.16198171813E-01  0.10174789896E-01  0.18583842153E-01  0.10172604235E+01  0.10169107645E+01 0.  0.
     999903    2    3    3    0    0 -0.59842898127E-01  0.10426375965E+00  0.47106189330E-01  0.13071030050E+00  0.20349092190E-01 0.  0.
         14    1    1    2    0    0  0.16198171813E-01 -0.10174789896E-01 -0.18583842153E-01  0.26669576462E-01  0.00000000000E+00 0. -1.
     999901    1    3    3    0    0  0.43644726314E-01 -0.94088969749E-01 -0.28522347178E-01  0.88655012303E+00  0.88000000000E+00 0.  1.
        -11    1    4    4    0    0 -0.17049295720E-01  0.32613207057E-01  0.47222794871E-02  0.37106075023E-01  0.51100000000E-03 0.  1.
         11    1    4    4    0    0 -0.42793602407E-01  0.71650552588E-01  0.42383909843E-01  0.93604225480E-01  0.51100000000E-03 0. -1.
</event>
<event>
 8    1  0.1114686E+005  0.1043930E+01  0.7957747E-01            NaN
         13   -1    0    0    0    0  0.00000000000E+00  0.00000000000E+00  0.74505805969E-08  0.10566000000E+00  0.10566000000E+00 0. -1.
     999900   -1    0    0    0    0 -0.00000000000E+00 -0.00000000000E+00 -0.74505805969E-08  0.93827000000E+00  0.93827000000E+00 0.  1.
     999902    2    1    2    0    0 -0.15520839507E-01 -0.13911199370E-01 -0.10892447201E-01  0.10204127014E+01  0.10201416656E+01 0.  0.
     999903    2    3    3    0    0 -0.10027280357E+00  0.74176819623E-01 -0.36607892519E-01  0.13159119029E+00  0.20476031380E-01 0.  0.
         14    1    1    2    0    0  0.15520839507E-01  0.13911199370E-01  0.10892447201E-01  0.23517298589E-01  0.00000000000E+00 0. -1.
     999901    1    3    3    0    0  0.84751964067E-01 -0.88088018993E-01  0.25715445318E-01  0.88882151112E+00  0.88000000000E+00 0. -1.
        -11    1    4    4    0    0 -0.46705576561E-01  0.25094016272E-01 -0.85560728420E-02  0.53708360970E-01  0.51100000000E-03 0. -1.
         11    1    4    4    0    0 -0.53567227013E-01  0.49082803351E-01 -0.28051819677E-01  0.77882829320E-01  0.51100000000E-03 0.  1.
</event>
<event>
 7    1  0.1469360E+005  0.1043930E+01  0.7957747E-01            NaN
         13   -1    0    0    0    0  0.00000000000E+00  0.00000000000E+00  0.74505805969E-08  0.10566000000E+00  0.10566000000E+00 0. -1.
     999900   -1    0    0    0    0 -0.00000000000E+00 -0.00000000000E+00 -0.74505805969E-08  0.93827000000E+00  0.93827000000E+00 0.  1.
     999903    2    1    2    0    0  0.10465469618E-01  0.62112100993E-02  0.71176342311E-01  0.74470277448E-01  0.18211132124E-01 0.  0.
         14    1    1    2    0    0  0.14539223784E-01  0.45740237441E-01  0.61112099338E-01  0.77706158282E-01  0.00000000000E+00 0. -1.
     999901    1    1    2    0    0 -0.25004693402E-01 -0.51951447541E-01 -0.13228844165E+00  0.89175356427E+00  0.88000000000E+00 0.  1.
        -11    1    3    3    0    0 -0.18771407861E-02  0.38735610047E-02  0.47190584142E-01  0.47389244403E-01  0.51100000000E-03 0. -1.
         11    1    3    3    0    0  0.12342610405E-01  0.23376490946E-02  0.23985758169E-01  0.27081033046E-01  0.51100000000E-03 0.  1.
</event>
<event>
 8    1  0.1114686E+005  0.1043930E+01  0.7957747E-01            NaN
         13   -1    0    0    0    0  0.00000000000E+00  0.00000000000E+00  0.74505805969E-08  0.10566000000E+00  0.10566000000E+00 0.  1.
     999900   -1    0    0    0    0 -0.00000000000E+00 -0.00000000000E+00 -0.74505805969E-08  0.93827000000E+00  0.93827000000E+00 0. -1.
     999902    2    1    2    0    0  0.18241410471E-01  0.12289549075E-01  0.73746371581E-02  0.10207315659E+01  0.10204679134E+01 0.  0.
     999903    2    3    3    0    0 -0.31501305201E-01 -0.94532914329E-01  0.80745319406E-01  0.12985074699E+00  0.20312699654E-01 0.  0.
         14    1    1    2    0    0 -0.18241410471E-01 -0.12289549075E-01 -0.73746371581E-02  0.23198434121E-01  0.00000000000E+00 0. -1.
     999901    1    3    3    0    0  0.49742715672E-01  0.10682246340E+00 -0.73370682248E-01  0.89088081889E+00  0.88000000000E+00 0. -1.
        -11    1    4    4    0    0 -0.16458487825E-01 -0.32065977419E-01  0.19044328475E-01  0.40768324682E-01  0.51100000000E-03 0. -1.
         11    1    4    4    0    0 -0.15042817376E-01 -0.62466936910E-01  0.61700990931E-01  0.89082422309E-01  0.51100000000E-03 0.  1.
</event>
<event>
 8    1  0.1114686E+005  0.1043930E+01  0.7957747E-01            NaN
         13   -1    0    0    0    0  0.00000000000E+00  0.00000000000E+00  0.74505805969E-08  0.10566000000E+00  0.10566000000E+00 0. -1.
     999900   -1    0    0    0    0 -0.00000000000E+00 -0.00000000000E+00 -0.74505805969E-08  0.93827000000E+00  0.93827000000E+00 0. -1.
     999902    2    1    2    0    0 -0.11646917330E-01  0.14460004032E-01 -0.17480322083E-01  0.10184289400E+01  0.10181096217E+01 0.  0.
     999903    2    3    3    0    0 -0.56699073137E-01  0.10972306213E+00  0.36780377525E-01  0.13048244923E+00  0.20467978145E-01 0.  0.
         14    1    1    2    0    0  0.11646917330E-01 -0.14460004032E-01  0.17480322083E-01  0.25501059978E-01  0.00000000000E+00 0. -1.
     999901    1    3    3    0    0  0.45052155807E-01 -0.95263058098E-01 -0.54260699608E-01  0.88794649079E+00  0.88000000000E+00 0. -1.
        -11    1    4    4    0    0 -0.31370320092E-01  0.79595624068E-01  0.29156683728E-01  0.90387685447E-01  0.51100000000E-03 0. -1.
         11    1    4    4    0    0 -0.25328753045E-01  0.30127438062E-01  0.76236937972E-02  0.40094763787E-01  0.51100000000E-03 0.  1.
</event>
<event>
 8    1  0.1114686E+005  0.1043930E+01  0.7957747E-01            NaN
         13   -1    0    0    0    0  0.00000000000E+00  0.00000000000E+00  0.74505805969E-08  0.10566000000E+00  0.10566000000E+00 0. -1.
     999900   -1    0    0    0    0 -0.00000000000E+00 -0.00000000000E+00 -0.74505805969E-08  0.93827000000E+00  0.93827000000E+00 0. -1.
     999902    2    1    2    0    0  0.18340194998E-01  0.13527408309E-01  0.50043361287E-02  0.10205976853E+01  0.10203309455E+01 0.  0.
     999903    2    3    3    0    0 -0.35873351159E-01  0.77225155005E-01 -0.97586054611E-01  0.13069808436E+00  0.17559308409E-01 0.  0.
         14    1    1    2    0    0 -0.18340194998E-01 -0.13527408309E-01 -0.50043361287E-02  0.23332314678E-01  0.00000000000E+00 0.  1.
     999901    1    3    3    0    0  0.54213546157E-01 -0.63697746696E-01  0.10259039074E+00  0.88989960096E+00  0.88000000000E+00 0.  1.
        -11    1    4    4    0    0 -0.12319492551E-01  0.17687748857E-01 -0.15314039598E-01  0.26446309499E-01  0.51100000000E-03 0.  1.
         11    1    4    4    0    0 -0.23553858608E-01  0.59537406149E-01 -0.82272015013E-01  0.10425177486E+00  0.51100000000E-03 0. -1.
</event>
<event>
 8    1  0.1114686E+005  0.1043930E+01  0.7957747E-01            NaN
         13   -1    0    0    0    0  0.00000000000E+00  0.00000000000E+00  0.74505805969E-08  0.10566000000E+00  0.10566000000E+00 0.  1.
     999900   -1    0    0    0    0 -0.00000000000E+00 -0.00000000000E+00 -0.74505805969E-08  0.93827000000E+00  0.93827000000E+00 0.  1.
     999902    2    1    2    0    0 -0.16124994598E-01 -0.15786511120E-01  0.28579539168E-03  0.10213620789E+01  0.10211127191E+01 0.  0.
     999903    2    3    3    0    0 -0.12527150000E+00  0.19605641441E-01 -0.35451547566E-01  0.13319389562E+00  0.20161143743E-01 0.  0.
         14    1    1    2    0    0  0.16124994598E-01  0.15786511120E-01 -0.28579539168E-03  0.22567921107E-01  0.00000000000E+00 0.  1.
     999901    1    3    3    0    0  0.10914650540E+00 -0.35392152561E-01  0.35737342958E-01  0.88816818328E+00  0.88000000000E+00 0.  1.
        -11    1    4    4    0    0 -0.62201926530E-01  0.56410099330E-03 -0.21762551195E-01  0.65903472059E-01  0.51100000000E-03 0. -1.
         11    1    4    4    0    0 -0.63069573466E-01  0.19041540448E-01 -0.13688996371E-01  0.67290423557E-01  0.51100000000E-03 0.  1.
</event>
<event>
 8    1  0.1114686E+005  0.1043930E+01  0.7957747E-01            NaN
         13   -1    0    0    0    0  0.00000000000E+00  0.00000000000E+00  0.74505805969E-08  0.10566000000E+00  0.10566000000E+00 0. -1.
     999900   -1    0    0    0    0 -0.00000000000E+00 -0.00000000000E+00 -0.74505805969E-08  0.93827000000E+00  0.93827000000E+00 0.  1.
     999902    2    1    2    0    0  0.16721208267E-01  0.13241304593E-01 -0.12093078772E-01  0.10194111602E+01  0.10191162544E+01 0.  0.
     999903    2    3    3    0    0  0.73788151737E-01 -0.19806276818E-01 -0.10579272161E+00  0.13198319026E+00  0.19760633298E-01 0.  0.
         14    1    1    2    0    0 -0.16721208267E-01 -0.13241304593E-01  0.12093078772E-01  0.24518839847E-01  0.00000000000E+00 0. -1.
     999901    1    3    3    0    0 -0.57066943470E-01  0.33047581411E-01  0.93699642838E-01  0.88742796989E+00  0.88000000000E+00 0. -1.
        -11    1    4    4    0    0  0.46556482665E-01 -0.16679213197E-01 -0.52966125876E-01  0.72466363523E-01  0.51100000000E-03 0. -1.
         11    1    4    4    0    0  0.27231669072E-01 -0.31270636205E-02 -0.52826595735E-01  0.59516826741E-01  0.51100000000E-03 0.  1.
</event>
<event>
 8    1  0.1114686E+005  0.1043930E+01  0.7957747E-01            NaN
         13   -1    0    0    0    0  0.00000000000E+00  0.00000000000E+00  0.74505805969E-08  0.10566000000E+00  0.10566000000E+00 0. -1.
     999900   -1    0    0    0    0 -0.00000000000E+00 -0.00000000000E+00 -0.74505805969E-08  0.93827000000E+00  0.93827000000E+00 0. -1.
     999902    2    1    2    0    0 -0.53766249467E-02  0.89815981426E-02  0.21398268857E-01  0.10201085158E+01  0.10198303392E+01 0.  0.
     999903    2    3    3    0    0  0.25345519420E-01 -0.55623392330E-01  0.11564258741E+00  0.13218979959E+00  0.19093924826E-01 0.  0.
         14    1    1    2    0    0  0.53766249467E-02 -0.89815981426E-02 -0.21398268857E-01  0.23821484234E-01  0.00000000000E+00 0.  1.
     999901    1    3    3    0    0 -0.30722144367E-01  0.64604990473E-01 -0.94244318551E-01  0.88791871617E+00  0.88000000000E+00 0. -1.
        -11    1    4    4    0    0  0.21237209700E-01 -0.43373326376E-01  0.72203428651E-01  0.86866913993E-01  0.51100000000E-03 0. -1.
         11    1    4    4    0    0  0.41083097205E-02 -0.12250065954E-01  0.43439158758E-01  0.45322885602E-01  0.51100000000E-03 0.  1.
</event>
<event>
 8    1  0.1114686E+005  0.1043930E+01  0.7957747E-01            NaN
         13   -1    0    0    0    0  0.00000000000E+00  0.00000000000E+00  0.74505805969E-08  0.10566000000E+00  0.10566000000E+00 0.  1.
     999900   -1    0    0    0    0 -0.00000000000E+00 -0.00000000000E+00 -0.74505805969E-08  0.93827000000E+00  0.93827000000E+00 0.  1.
     999902    2    1    2    0    0 -0.22985265663E-01  0.56661468729E-02  0.20919077446E-03  0.10202557224E+01  0.10199810134E+01 0.  0.
     999903    2    3    3    0    0  0.40922383880E-01  0.12049501059E+00  0.19138798409E-01  0.13029606847E+00  0.20422604530E-01 0.  0.
         14    1    1    2    0    0  0.22985265663E-01 -0.56661468729E-02 -0.20919077446E-03  0.23674277576E-01  0.00000000000E+00 0.  1.
     999901    1    3    3    0    0 -0.63907649543E-01 -0.11482886372E+00 -0.18929607634E-01  0.88995965395E+00  0.88000000000E+00 0.  1.
        -11    1    4    4    0    0  0.30883938878E-01  0.11008662626E+00  0.15571285663E-01  0.11539327979E+00  0.51100000000E-03 0. -1.
         11    1    4    4    0    0  0.10038445002E-01  0.10408384326E-01  0.35675127455E-02  0.14902788682E-01  0.51100000000E-03 0.  1.
</event>
<event>
 8    1  0.1114686E+005  0.1043930E+01  0.7957747E-01            NaN
         13   -1    0    0    0    0  0.00000000000E+00  0.00000000000E+00  0.74505805969E-08  0.10566000000E+00  0.10566000000E+00 0.  1.
     999900   -1    0    0    0    0 -0.00000000000E+00 -0.00000000000E+00 -0.74505805969E-08  0.93827000000E+00  0.93827000000E+00 0. -1.
     999902    2    1    2    0    0 -0.11934865699E-01  0.26678493773E-02  0.21166239946E-01  0.10194847928E+01  0.10191916771E+01 0.  0.
     999903    2    3    3    0    0 -0.49983805852E-01 -0.10308522582E+00 -0.55767289695E-01  0.12900727895E+00  0.20197593740E-01 0.  0.
         14    1    1    2    0    0  0.11934865699E-01 -0.26678493773E-02 -0.21166239946E-01  0.24445207158E-01  0.00000000000E+00 0. -1.
     999901    1    3    3    0    0  0.38048940153E-01  0.10575307520E+00  0.76933529641E-01  0.89047751389E+00  0.88000000000E+00 0.  1.
        -11    1    4    4    0    0 -0.14124454015E-01 -0.12601484457E-01 -0.10678400263E-01  0.21739065411E-01  0.51100000000E-03 0.  1.
         11    1    4    4    0    0 -0.35859351837E-01 -0.90483741363E-01 -0.45088889431E-01  0.10726821354E+00  0.51100000000E-03 0. -1.
</event>
<event>
 8    1  0.1114686E+005  0.1043930E+01  0.7957747E-01            NaN
         13   -1    0    0    0    0  0.00000000000E+00  0.00000000000E+00  0.74505805969E-08  0.10566000000E+00  0.10566000000E+00 0. -1.
     999900   -1    0    0    0    0 -0.00000000000E+00 -0.00000000000E+00 -0.74505805969E-08  0.93827000000E+00  0.93827000000E+00 0. -1.
     999902    2    1    2    0    0  0.79713550232E-02  0.20157861743E-01  0.10133661577E-01  0.10200015026E+01  0.10197207914E+01 0.  0.
     999903    2    3    3    0    0 -0.71780762038E-01  0.92363268436E-01  0.58505206659E-01  0.13213111380E+00  0.18770212373E-01 0.  0.
         14    1    1    2    0    0 -0.79713550232E-02 -0.20157861743E-01 -0.10133661577E-01  0.23928497402E-01  0.00000000000E+00 0.  1.
     999901    1    3    3    0    0  0.79752117061E-01 -0.72205406693E-01 -0.48371545082E-01  0.88787038880E+00  0.88000000000E+00 0. -1.
        -11    1    4    4    0    0 -0.51577104636E-01  0.71348872246E-01  0.52028294984E-01  0.10226467569E+00  0.51100000000E-03 0. -1.
         11    1    4    4    0    0 -0.20203657402E-01  0.21014396191E-01  0.64769116757E-02  0.29866438113E-01  0.51100000000E-03 0.  1.
</event>
<event>
 8    1  0.1114686E+005  0.1043930E+01  0.7957747E-01            NaN
         13   -1    0    0    0    0  0.00000000000E+00  0.00000000000E+00  0.74505805969E-08  0.10566000000E+00  0.10566000000E+00 0.  1.
     999900   -1    0    0    0    0 -0.00000000000E+00 -0.00000000000E+00 -0.74505805969E-08  0.93827000000E+00  0.93827000000E+00 0. -1.
     999902    2    1    2    0    0  0.10429392090E-01  0.12921401165E-01  0.18029472818E-01  0.10194188450E+01  0.10191241263E+01 0.  0.
     999903    2    3    3    0    0 -0.23103906442E-01  0.84954805343E-01 -0.92352023728E-01  0.12897099805E+00  0.18801930952E-01 0.  0.
         14    1    1    2    0    0 -0.10429392090E-01 -0.12921401165E-01 -0.18029472818E-01  0.24511154961E-01  0.00000000000E+00 0. -1.
     999901    1    3    3    0    0  0.33533298532E-01 -0.72033404178E-01  0.11038149655E+00  0.89044784699E+00  0.88000000000E+00 0.  1.
        -11    1    4    4    0    0 -0.10870564141E-01  0.69238737024E-01 -0.72857792834E-01  0.10109743304E+00  0.51100000000E-03 0. -1.
         11    1    4    4    0    0 -0.12233342301E-01  0.15716068319E-01 -0.19494230894E-01  0.27873565011E-01  0.51100000000E-03 0.  1.
</event>
<event>
 8    1  0.1114686E+005  0.1043930E+01  0.7957747E-01            NaN
         13   -1    0    0    0    0  0.00000000000E+00  0.00000000000E+00  0.74505805969E-08  0.10566000000E+00  0.10566000000E+00 0. -1.
     999900   -1    0    0    0    0 -0.00000000000E+00 -0.00000000000E+00 -0.74505805969E-08  0.93827000000E+00  0.93827000000E+00 0.  1.
     999902    2    1    2    0    0 -0.53755164507E-02 -0.16998662861E-01  0.17027718761E-01  0.10192765231E+01  0.10189783298E+01 0.  0.
     999903    2    3    3    0    0  0.83988821941E-01  0.77996178262E-01 -0.51091634055E-01  0.12706004095E+00  0.19909116064E-01 0.  0.
         14    1    1    2    0    0  0.53755164507E-02  0.16998662861E-01 -0.17027718761E-01  0.24653476882E-01  0.00000000000E+00 0.  1.
     999901    1    3    3    0    0 -0.89364338392E-01 -0.94994841123E-01  0.68119352816E-01  0.89221648216E+00  0.88000000000E+00 0. -1.
        -11    1    4    4    0    0  0.59870625050E-01  0.61841661858E-01 -0.29923118577E-01  0.91129232585E-01  0.51100000000E-03 0.  1.
         11    1    4    4    0    0  0.24118196891E-01  0.16154516405E-01 -0.21168515478E-01  0.35930808369E-01  0.51100000000E-03 0. -1.
</event>
<event>
 8    1  0.1114686E+005  0.1043930E+01  0.7957747E-01            NaN
         13   -1    0    0    0    0  0.00000000000E+00  0.00000000000E+00  0.74505805969E-08  0.10566000000E+00  0.10566000000E+00 0.  1.
     999900   -1    0    0    0    0 -0.00000000000E+00 -0.00000000000E+00 -0.74505805969E-08  0.93827000000E+00  0.93827000000E+00 0.  1.
     999902    2    1    2    0    0 -0.61938009935E-02 -0.21877740923E-01  0.82830334404E-02  0.10197306744E+01  0.10194434957E+01 0.  0.
     999903    2    3    3    0    0 -0.11341910507E+00  0.52632344234E-01  0.28433265488E-01  0.12986829709E+00  0.20573452476E-01 0.  0.
         14    1    1    2    0    0  0.61938009935E-02  0.21877740923E-01 -0.82830334404E-02  0.24199325644E-01  0.00000000000E+00 0. -1.
     999901    1    3    3    0    0  0.10722530408E+00 -0.74510085157E-01 -0.20150232048E-01  0.88986237727E+00  0.88000000000E+00 0. -1.
        -11    1    4    4    0    0 -0.75370835501E-01  0.34933666337E-01  0.28726058965E-01  0.87900918497E-01  0.51100000000E-03 0.  1.
         11    1    4    4    0    0 -0.38048269573E-01  0.17698677897E-01 -0.29279347682E-03  0.41967378591E-01  0.51100000000E-03 0. -1.
</event>
<event>
 8    1  0.1114686E+005  0.1043930E+01  0.7957747E-01            NaN
         13   -1    0    0    0    0  0.00000000000E+00  0.00000000000E+00  0.74505805969E-08  0.10566000000E+00  0.10566000000E+00 0.  1.
     999900   -1    0    0    0    0 -0.00000000000E+00 -0.00000000000E+00 -0.74505805969E-08  0.93827000000E+00  0.93827000000E+00 0. -1.
     999902    2    1    2    0    0  0.16228114000E-01 -0.14480619205E-01 -0.11994631404E-01  0.10190923029E+01  0.10187895811E+01 0.  0.
     999903    2    3    3    0    0 -0.46322414973E-01 -0.41640336061E-02 -0.11993376404E+00  0.13023356439E+00  0.20336377054E-01 0.  0.
         14    1    1    2    0    0 -0.16228114000E-01  0.14480619205E-01  0.11994631404E-01  0.24837697137E-01  0.00000000000E+00 0. -1.
     999901    1    3    3    0    0  0.62550528973E-01 -0.10316585599E-01  0.10793913263E+00  0.88885873848E+00  0.88000000000E+00 0.  1.
        -11    1    4    4    0    0 -0.36162987379E-01  0.31145983159E-02 -0.71193806558E-01  0.79914213955E-01  0.51100000000E-03 0. -1.
         11    1    4    4    0    0 -0.10159427595E-01 -0.72786319220E-02 -0.48739957480E-01  0.50319350431E-01  0.51100000000E-03 0.  1.
</event>
<event>
 8    1  0.1114686E+005  0.1043930E+01  0.7957747E-01            NaN
         13   -1    0    0    0    0  0.00000000000E+00  0.00000000000E+00  0.74505805969E-08  0.10566000000E+00  0.10566000000E+00 0. -1.
     999900   -1    0    0    0    0 -0.00000000000E+00 -0.00000000000E+00 -0.74505805969E-08  0.93827000000E+00  0.93827000000E+00 0.  1.
     999902    2    1    2    0    0 -0.16744666635E-01 -0.16095794257E-01  0.20257212950E-02  0.10206155839E+01  0.10203492579E+01 0.  0.
     999903    2    3    3    0    0  0.10880218953E+00  0.39340748825E-01  0.51499229983E-01  0.12860501695E+00  0.22393497510E-01 0.  0.
         14    1    1    2    0    0  0.16744666635E-01  0.16095794257E-01 -0.20257212950E-02  0.23314416147E-01  0.00000000000E+00 0.  1.
     999901    1    3    3    0    0 -0.12554685617E+00 -0.55436543083E-01 -0.49473508688E-01  0.89201056690E+00  0.88000000000E+00 0.  1.
        -11    1    4    4    0    0  0.54853992518E-01  0.31692575598E-01  0.27777437507E-01  0.69175335191E-01  0.51100000000E-03 0.  1.
         11    1    4    4    0    0  0.53948197015E-01  0.76481732270E-02  0.23721792476E-01  0.59429681761E-01  0.51100000000E-03 0. -1.
</event>
<event>
 8    1  0.1114686E+005  0.1043930E+01  0.7957747E-01            NaN
         13   -1    0    0    0    0  0.00000000000E+00  0.00000000000E+00  0.74505805969E-08  0.10566000000E+00  0.10566000000E+00 0.  1.
     999900   -1    0    0    0    0 -0.00000000000E+00 -0.00000000000E+00 -0.74505805969E-08  0.93827000000E+00  0.93827000000E+00 0.  1.
     999902    2    1    2    0    0  0.15815685075E-01 -0.15393818936E-01  0.59398434631E-02  0.10210742065E+01  0.10208183716E+01 0.  0.
     999903    2    3    3    0    0 -0.11296738822E+00 -0.60333770123E-01 -0.14584783518E-01  0.13032960816E+00  0.19269048590E-01 0.  0.
         14    1    1    2    0    0 -0.15815685075E-01  0.15393818936E-01 -0.59398434631E-02  0.22855793493E-01  0.00000000000E+00 0.  1.
     999901    1    3    3    0    0  0.12878307329E+00  0.44939951188E-01  0.20524626981E-01  0.89074459835E+00  0.88000000000E+00 0. -1.
        -11    1    4    4    0    0 -0.97868000125E-01 -0.44142806165E-01 -0.12373704637E-01  0.10807452277E+00  0.51100000000E-03 0.  1.
         11    1    4    4    0    0 -0.15099388093E-01 -0.16190963958E-01 -0.22110788803E-02  0.22255085385E-01  0.51100000000E-03 0. -1.
</event>
<event>
 8    1  0.1114686E+005  0.1043930E+01  0.7957747E-01            NaN
         13   -1    0    0    0    0  0.00000000000E+00  0.00000000000E+00  0.74505805969E-08  0.10566000000E+00  0.10566000000E+00 0. -1.
     999900   -1    0    0    0    0 -0.00000000000E+00 -0.00000000000E+00 -0.74505805969E-08  0.93827000000E+00  0.93827000000E+00 0.  1.
     999902    2    1    2    0    0  0.15487416238E-02  0.87580771599E-03 -0.24189551105E-01  0.10196751031E+01  0.10193865881E+01 0.  0.
     999903    2    3    3    0    0  0.30428164162E-01  0.11382409495E+00  0.48588954396E-01  0.12900791079E+00  0.20008917789E-01 0.  0.
         14    1    1    2    0    0 -0.15487416238E-02 -0.87580771599E-03  0.24189551105E-01  0.24254896875E-01  0.00000000000E+00 0. -1.
     999901    1    3    3    0    0 -0.28879422539E-01 -0.11294828724E+00 -0.72778505501E-01  0.89066719233E+00  0.88000000000E+00 0. -1.
        -11    1    4    4    0    0  0.30318083178E-01  0.96981873163E-01  0.47377625827E-01  0.11211409563E+00  0.51100000000E-03 0.  1.
         11    1    4    4    0    0  0.11008098417E-03  0.16842221791E-01  0.12113285695E-02  0.16893815158E-01  0.51100000000E-03 0. -1.
</event>
<event>
 8    1  0.1114686E+005  0.1043930E+01  0.7957747E-01            NaN
         13   -1    0    0    0    0  0.00000000000E+00  0.00000000000E+00  0.74505805969E-08  0.10566000000E+00  0.10566000000E+00 0.  1.
     999900   -1    0    0    0    0 -0.00000000000E+00 -0.00000000000E+00 -0.74505805969E-08  0.93827000000E+00  0.93827000000E+00 0. -1.
     999902    2    1    2    0    0  0.16552928415E-01 -0.16101990332E-01 -0.15585481269E-02  0.10207847499E+01  0.10205223187E+01 0.  0.
     999903    2    3    3    0    0  0.11434591163E+00  0.61143925074E-01  0.13900084702E-01  0.13187003610E+00  0.19568520291E-01 0.  0.
         14    1    1    2    0    0 -0.16552928415E-01  0.16101990332E-01  0.15585481269E-02  0.23145250139E-01  0.00000000000E+00 0. -1.
     999901    1    3    3    0    0 -0.97792983214E-01 -0.77245915406E-01 -0.15458632829E-01  0.88891471376E+00  0.88000000000E+00 0. -1.
        -11    1    4    4    0    0  0.10002543880E+00  0.51896212068E-01  0.18522816830E-01  0.11420009238E+00  0.51100000000E-03 0.  1.
         11    1    4    4    0    0  0.14320472828E-01  0.92477130061E-02 -0.46227321282E-02  0.17669943724E-01  0.51100000000E-03 0. -1.
</event>
<event>
 8    1  0.1114686E+005  0.1043930E+01  0.7957747E-01            NaN
         13   -1    0    0    0    0  0.00000000000E+00  0.00000000000E+00  0.74505805969E-08  0.10566000000E+00  0.10566000000E+00 0.  1.
     999900   -1    0    0    0    0 -0.00000000000E+00 -0.00000000000E+00 -0.74505805969E-08  0.93827000000E+00  0.93827000000E+00 0.  1.
     999902    2    1    2    0    0 -0.56207671311E-02 -0.18865479127E-01 -0.17172776851E-01  0.10178071443E+01  0.10174718568E+01 0.  0.
     999903    2    3    3    0    0  0.49056306576E-01  0.16982400197E-01  0.11291268721E+00  0.12584476795E+00  0.19816850280E-01 0.  0.
         14    1    1    2    0    0  0.56207671311E-02  0.18865479127E-01  0.17172776851E-01  0.26122855713E-01  0.00000000000E+00 0.  1.
     999901    1    3    3    0    0 -0.54677073707E-01 -0.35847879324E-01 -0.13008546406E+00  0.89196237634E+00  0.88000000000E+00 0.  1.
        -11    1    4    4    0    0  0.18935274186E-01  0.36159457596E-02  0.64174548513E-01  0.67009353601E-01  0.51100000000E-03 0. -1.
         11    1    4    4    0    0  0.30121032390E-01  0.13366454438E-01  0.48738138701E-01  0.58835414348E-01  0.51100000000E-03 0.  1.
</event>
<event>
 8    1  0.1114686E+005  0.1043930E+01  0.7957747E-01            NaN
         13   -1    0    0    0    0  0.00000000000E+00  0.00000000000E+00  0.74505805969E-08  0.10566000000E+00  0.10566000000E+00 0. -1.
     999900   -1    0    0    0    0 -0.00000000000E+00 -0.00000000000E+00 -0.74505805969E-08  0.93827000000E+00  0.93827000000E+00 0. -1.
     999902    2    1    2    0    0  0.32909657385E-02 -0.23534985313E-01  0.31850949824E-02  0.10199535361E+01  0.10196716849E+01 0.  0.
     999903    2    3    3    0    0 -0.59129701703E-02  0.12510396338E+00  0.12161020723E-01  0.12739607763E+00  0.19897369195E-01 0.  0.
         14    1    1    2    0    0 -0.32909657385E-02  0.23534985313E-01 -0.31850949824E-02  0.23976463859E-01  0.00000000000E+00 0. -1.
     999901    1    3    3    0    0  0.92039359088E-02 -0.14863894869E+00 -0.89759257403E-02  0.89255745851E+00  0.88000000000E+00 0. -1.
        -11    1    4    4    0    0 -0.99557093566E-02  0.32816076257E-01  0.59556891345E-02  0.34810089971E-01  0.51100000000E-03 0. -1.
         11    1    4    4    0    0  0.40427391863E-02  0.92287887121E-01  0.62053315881E-02  0.92585987657E-01  0.51100000000E-03 0.  1.
</event>
<event>
 8    1  0.1114686E+005  0.1043930E+01  0.7957747E-01            NaN
         13   -1    0    0    0    0  0.00000000000E+00  0.00000000000E+00  0.74505805969E-08  0.10566000000E+00  0.10566000000E+00 0.  1.
     999900   -1    0    0    0    0 -0.00000000000E+00 -0.00000000000E+00 -0.74505805969E-08  0.93827000000E+00  0.93827000000E+00 0. -1.
     999902    2    1    2    0    0  0.93892390582E-02 -0.42255074392E-02  0.34376711074E-01  0.10080444738E+01  0.10074055242E+01 0.  0.
     999903    2    3    3    0    0 -0.28895732920E-01 -0.73216628436E-01  0.91931083030E-01  0.12264172956E+00  0.19850232791E-01 0.  0.
         14    1    1    2    0    0 -0.93892390582E-02  0.42255074392E-02 -0.34376711074E-01  0.35885526155E-01  0.00000000000E+00 0. -1.
     999901    1    3    3    0    0  0.38284971978E-01  0.68991120997E-01 -0.57554371956E-01  0.88540274428E+00  0.88000000000E+00 0. -1.
        -11    1    4    4    0    0 -0.11078373451E-01 -0.40199278462E-01  0.34918675535E-01  0.54390140369E-01  0.51100000000E-03 0. -1.
         11    1    4    4    0    0 -0.17817359469E-01 -0.33017349974E-01  0.57012407495E-01  0.68251589191E-01  0.51100000000E-03 0.  1.
</event>
<event>
 8    1  0.1114686E+005  0.1043930E+01  0.7957747E-01            NaN
         13   -1    0    0    0    0  0.00000000000E+00  0.00000000000E+00  0.74505805969E-08  0.10566000000E+00  0.10566000000E+00 0. -1.
     999900   -1    0    0    0    0 -0.00000000000E+00 -0.00000000000E+00 -0.74505805969E-08  0.93827000000E+00  0.93827000000E+00 0.  1.
     999902    2    1    2    0    0 -0.52947258602E-02 -0.10738669029E-01  0.20559971251E-01  0.10201378678E+01  0.10198603845E+01 0.  0.
     999903    2    3    3    0    0 -0.12406878792E-01  0.63080049345E-01 -0.10851691697E+00  0.12763541464E+00  0.19541098636E-01 0.  0.
         14    1    1    2    0    0  0.52947258602E-02  0.10738669029E-01 -0.20559971251E-01  0.23792132151E-01  0.00000000000E+00 0.  1.
     999901    1    3    3    0    0  0.71121529315E-02 -0.73818718375E-01  0.12907688822E+00  0.89250245320E+00  0.88000000000E+00 0. -1.
        -11    1    4    4    0    0 -0.69462662401E-02  0.43610964263E-02 -0.13096557791E-01  0.15461265268E-01  0.51100000000E-03 0. -1.
         11    1    4    4    0    0 -0.54606125516E-02  0.58718952919E-01 -0.95420359180E-01  0.11217414938E+00  0.51100000000E-03 0.  1.
</event>
<event>
 8    1  0.1114686E+005  0.1043930E+01  0.7957747E-01            NaN
         13   -1    0    0    0    0  0.00000000000E+00  0.00000000000E+00  0.74505805969E-08  0.10566000000E+00  0.10566000000E+00 0.  1.
     999900   -1    0    0    0    0 -0.00000000000E+00 -0.00000000000E+00 -0.74505805969E-08  0.93827000000E+00  0.93827000000E+00 0.  1.
     999902    2    1    2    0    0 -0.63542398280E-02 -0.19146979913E-01  0.11549848151E-01  0.10206838778E+01  0.10204191277E+01 0.  0.
     999903    2    3    3    0    0 -0.98159856994E-01  0.52450641618E-01 -0.63848905266E-01  0.12981943092E+00  0.19747774801E-01 0.  0.
         14    1    1    2    0    0  0.63542398280E-02  0.19146979913E-01 -0.11549848151E-01  0.23246122169E-01  0.00000000000E+00 0.  1.
     999901    1    3    3    0    0  0.91805617166E-01 -0.71597621531E-01  0.75398753417E-01  0.89086444691E+00  0.88000000000E+00 0. -1.
        -11    1    4    4    0    0 -0.38117100616E-01  0.30455120508E-01 -0.23022076307E-01  0.53950948491E-01  0.51100000000E-03 0. -1.
         11    1    4    4    0    0 -0.60042756378E-01  0.21995521109E-01 -0.40826828959E-01  0.75868482429E-01  0.51100000000E-03 0.  1.
</event>
<event>
 8    1  0.1114686E+005  0.1043930E+01  0.7957747E-01            NaN
         13   -1    0    0    0    0  0.00000000000E+00  0.00000000000E+00  0.74505805969E-08  0.10566000000E+00  0.10566000000E+00 0. -1.
     999900   -1    0    0    0    0 -0.00000000000E+00 -0.00000000000E+00 -0.74505805969E-08  0.93827000000E+00  0.93827000000E+00 0.  1.
     999902    2    1    2    0    0 -0.59026147159E-03 -0.64871174416E-02  0.22850730438E-01  0.10201689608E+01  0.10198922108E+01 0.  0.
     999903    2    3    3    0    0 -0.11713825537E+00  0.45938181287E-01 -0.23898297749E-01  0.12970991153E+00  0.20538869091E-01 0.  0.
         14    1    1    2    0    0  0.59026147159E-03  0.64871174416E-02 -0.22850730438E-01  0.23761039179E-01  0.00000000000E+00 0.  1.
     999901    1    3    3    0    0  0.11654799390E+00 -0.52425298729E-01  0.46749028187E-01  0.89045904929E+00  0.88000000000E+00 0. -1.
        -11    1    4    4    0    0 -0.41738378525E-01  0.64129619503E-02 -0.10635579168E-01  0.43549913756E-01  0.51100000000E-03 0. -1.
         11    1    4    4    0    0 -0.75399876842E-01  0.39525219337E-01 -0.13262718580E-01  0.86159997775E-01  0.51100000000E-03 0.  1.
</event>
<event>
 8    1  0.1114686E+005  0.1043930E+01  0.7957747E-01            NaN
         13   -1    0    0    0    0  0.00000000000E+00  0.00000000000E+00  0.74505805969E-08  0.10566000000E+00  0.10566000000E+00 0.  1.
     999900   -1    0    0    0    0 -0.00000000000E+00 -0.00000000000E+00 -0.74505805969E-08  0.93827000000E+00  0.93827000000E+00 0.  1.
     999902    2    1    2    0    0  0.17271826040E-01 -0.47079303306E-02  0.14019064085E-01  0.10211920419E+01  0.10209388677E+01 0.  0.
     999903    2    3    3    0    0 -0.22097578055E-01  0.64266100153E-01  0.11155417902E+00  0.13224858724E+00  0.20662027589E-01 0.  0.
         14    1    1    2    0    0 -0.17271826040E-01  0.47079303306E-02 -0.14019064085E-01  0.22737958145E-01  0.00000000000E+00 0. -1.
     999901    1    3    3    0    0  0.39369404096E-01 -0.68974030484E-01 -0.97535114939E-01  0.88894345462E+00  0.88000000000E+00 0.  1.
        -11    1    4    4    0    0 -0.17046827305E-01  0.25047734538E-01  0.60553289951E-01  0.67712224683E-01  0.51100000000E-03 0.  1.
         11    1    4    4    0    0 -0.50507507501E-02  0.39218365615E-01  0.51000889073E-01  0.64536362556E-01  0.51100000000E-03 0. -1.
</event>
<event>
 8    1  0.1114686E+005  0.1043930E+01  0.7957747E-01            NaN
         13   -1    0    0    0    0  0.00000000000E+00  0.00000000000E+00  0.74505805969E-08  0.10566000000E+00  0.10566000000E+00 0.  1.
     999900   -1    0    0    0    0 -0.00000000000E+00 -0.00000000000E+00 -0.74505805969E-08  0.93827000000E+00  0.93827000000E+00 0. -1.
     999902    2    1    2    0    0 -0.53328822493E-02 -0.17004606809E-01 -0.19340477321E-01  0.10176307538E+01  0.10172908634E+01 0.  0.
     999903    2    3    3    0    0  0.86502293434E-01 -0.79189179693E-01 -0.52530919586E-01  0.13004851761E+00  0.19988658565E-01 0.  0.
         14    1    1    2    0    0  0.53328822493E-02  0.17004606809E-01  0.19340477321E-01  0.26299246165E-01  0.00000000000E+00 0.  1.
     999901    1    3    3    0    0 -0.91835175683E-01  0.62184572884E-01  0.33190442265E-01  0.88758223622E+00  0.88000000000E+00 0.  1.
        -11    1    4    4    0    0  0.50037588828E-01 -0.32969282584E-01 -0.23048834714E-01  0.64204702261E-01  0.51100000000E-03 0. -1.
         11    1    4    4    0    0  0.36464704607E-01 -0.46219897109E-01 -0.29482084872E-01  0.65843815353E-01  0.51100000000E-03 0.  1.
</event>
<event>
 8    1  0.1114686E+005  0.1043930E+01  0.7957747E-01            NaN
         13   -1    0    0    0    0  0.00000000000E+00  0.00000000000E+00  0.74505805969E-08  0.10566000000E+00  0.10566000000E+00 0.  1.
     999900   -1    0    0    0    0 -0.00000000000E+00 -0.00000000000E+00 -0.74505805969E-08  0.93827000000E+00  0.93827000000E+00 0.  1.
     999902    2    1    2    0    0  0.57854836816E-03 -0.12813222498E-01  0.21255131312E-01  0.10191047307E+01  0.10188023155E+01 0.  0.
     999903    2    3    3    0    0 -0.65318948022E-01  0.66686574311E-01 -0.83406838182E-01  0.12690698043E+00  0.20857057832E-01 0.  0.
         14    1    1    2    0    0 -0.57854836816E-03  0.12813222498E-01 -0.21255131312E-01  0.24825269306E-01  0.00000000000E+00 0. -1.
     999901    1    3    3    0    0  0.65897496390E-01 -0.79499796810E-01  0.10466196949E+00  0.89219775027E+00  0.88000000000E+00 0. -1.
        -11    1    4    4    0    0 -0.31137944674E-01  0.17896077341E-01 -0.27892565664E-01  0.45476340255E-01  0.51100000000E-03 0.  1.
         11    1    4    4    0    0 -0.34181003348E-01  0.48790496970E-01 -0.55514272519E-01  0.81430640172E-01  0.51100000000E-03 0. -1.
</event>
<event>
 8    1  0.1114686E+005  0.1043930E+01  0.7957747E-01            NaN
         13   -1    0    0    0    0  0.00000000000E+00  0.00000000000E+00  0.74505805969E-08  0.10566000000E+00  0.10566000000E+00 0.  1.
     999900   -1    0    0    0    0 -0.00000000000E+00 -0.00000000000E+00 -0.74505805969E-08  0.93827000000E+00  0.93827000000E+00 0.  1.
     999902    2    1    2    0    0  0.27823545074E-02 -0.22748177104E-01 -0.56041146570E-02  0.10203370528E+01  0.10200642500E+01 0.  0.
     999903    2    3    3    0    0  0.86007412803E-01  0.68615888807E-01 -0.65537542790E-01  0.12968233927E+00  0.20418725445E-01 0.  0.
         14    1    1    2    0    0 -0.27823545074E-02  0.22748177104E-01  0.56041146570E-02  0.23592947235E-01  0.00000000000E+00 0. -1.
     999901    1    3    3    0    0 -0.83225058296E-01 -0.91364065911E-01  0.59933428133E-01  0.89065471350E+00  0.88000000000E+00 0. -1.
        -11    1    4    4    0    0  0.52437710612E-01  0.49991974793E-01 -0.34170755807E-01  0.80105010526E-01  0.51100000000E-03 0. -1.
         11    1    4    4    0    0  0.33569702191E-01  0.18623914014E-01 -0.31366786983E-01  0.49577328741E-01  0.51100000000E-03 0.  1.
</event>
<event>
 8    1  0.1114686E+005  0.1043930E+01  0.7957747E-01            NaN
         13   -1    0    0    0    0  0.00000000000E+00  0.00000000000E+00  0.74505805969E-08  0.10566000000E+00  0.10566000000E+00 0.  1.
     999900   -1    0    0    0    0 -0.00000000000E+00 -0.00000000000E+00 -0.74505805969E-08  0.93827000000E+00  0.93827000000E+00 0. -1.
     999902    2    1    2    0    0  0.59465152898E-02 -0.14251640037E-01  0.18325096199E-01  0.10199658718E+01  0.10196843140E+01 0.  0.
     999903    2    3    3    0    0  0.30647763252E-01  0.34116358869E-01  0.12217289977E+00  0.13219676826E+00  0.21131889748E-01 0.  0.
         14    1    1    2    0    0 -0.59465152898E-02  0.14251640037E-01 -0.18325096199E-01  0.23964128162E-01  0.00000000000E+00 0. -1.
     999901    1    3    3    0    0 -0.24701247962E-01 -0.48367998906E-01 -0.10384780357E+00  0.88776910358E+00  0.88000000000E+00 0.  1.
        -11    1    4    4    0    0  0.20919136824E-01  0.29910938477E-01  0.11072695789E+00  0.11658899970E+00  0.51100000000E-03 0. -1.
         11    1    4    4    0    0  0.97286264278E-02  0.42054203913E-02  0.11445941880E-01  0.15607768558E-01  0.51100000000E-03 0.  1.
</event>
<event>
 8    1  0.1114686E+005  0.1043930E+01  0.7957747E-01            NaN
         13   -1    0    0    0    0  0.00000000000E+00  0.00000000000E+00  0.74505805969E-08  0.10566000000E+00  0.10566000000E+00 0. -1.
     999900   -1    0    0    0    0 -0.00000000000E+00 -0.00000000000E+00 -0.74505805969E-08  0.93827000000E+00  0.93827000000E+00 0.  1.
     999902    2    1    2    0    0 -0.15845542177E-01  0.18407776622E-01 -0.79545319592E-03  0.10196285557E+01  0.10193389189E+01 0.  0.
     999903    2    3    3    0    0 -0.59867804477E-01  0.40402059408E-01  0.10803680576E+00  0.13155976976E+00  0.20482704966E-01 0.  0.
         14    1    1    2    0    0  0.15845542177E-01 -0.18407776622E-01  0.79545319592E-03  0.24301444254E-01  0.00000000000E+00 0.  1.
     999901    1    3    3    0    0  0.44022262300E-01 -0.21994282786E-01 -0.10883225896E+00  0.88806878599E+00  0.88000000000E+00 0.  1.
        -11    1    4    4    0    0 -0.21678311917E-01  0.15017774808E-01  0.57829711565E-01  0.63561147161E-01  0.51100000000E-03 0.  1.
         11    1    4    4    0    0 -0.38189492559E-01  0.25384284599E-01  0.50207094197E-01  0.67998622598E-01  0.51100000000E-03 0. -1.
</event>
<event>
 8    1  0.1114686E+005  0.1043930E+01  0.7957747E-01            NaN
         13   -1    0    0    0    0  0.00000000000E+00  0.00000000000E+00  0.74505805969E-08  0.10566000000E+00  0.10566000000E+00 0.  1.
     999900   -1    0    0    0    0 -0.00000000000E+00 -0.00000000000E+00 -0.74505805969E-08  0.93827000000E+00  0.93827000000E+00 0.  1.
     999902    2    1    2    0    0 -0.11080425814E-01 -0.14240079725E-01 -0.15379846525E-01  0.10202214491E+01  0.10199459347E+01 0.  0.
     999903    2    3    3    0    0 -0.19771463098E-01  0.10157855018E+00 -0.76795354834E-01  0.13046791366E+00  0.20377373736E-01 0.  0.
         14    1    1    2    0    0  0.11080425814E-01  0.14240079725E-01  0.15379846525E-01  0.23708550903E-01  0.00000000000E+00 0.  1.
     999901    1    3    3    0    0  0.86910372842E-02 -0.11581862991E+00  0.61415508309E-01  0.88975353544E+00  0.88000000000E+00 0.  1.
        -11    1    4    4    0    0 -0.21043555153E-01  0.63625864134E-01 -0.42963764139E-01  0.79606707948E-01  0.51100000000E-03 0.  1.
         11    1    4    4    0    0  0.12720920555E-02  0.37952686049E-01 -0.33831590695E-01  0.50861205712E-01  0.51100000000E-03 0. -1.
</event>
<event>
 8    1  0.1114686E+005  0.1043930E+01  0.7957747E-01            NaN
         13   -1    0    0    0    0  0.00000000000E+00  0.00000000000E+00  0.74505805969E-08  0.10566000000E+00  0.10566000000E+00 0.  1.
     999900   -1    0    0    0    0 -0.00000000000E+00 -0.00000000000E+00 -0.74505805969E-08  0.93827000000E+00  0.93827000000E+00 0.  1.
     999902    2    1    2    0    0  0.16874290621E-01  0.13386816803E-01 -0.78490495020E-02  0.10210049891E+01  0.10207475847E+01 0.  0.
     999903    2    3    3    0    0  0.12820682016E+00  0.32189706187E-01  0.15118438746E-02  0.13374172086E+00  0.20282906757E-01 0.  0.
         14    1    1    2    0    0 -0.16874290621E-01 -0.13386816803E-01  0.78490495020E-02  0.22925010930E-01  0.00000000000E+00 0.  1.
     999901    1    3    3    0    0 -0.11133252954E+00 -0.18802889384E-01 -0.93608933766E-02  0.88726326821E+00  0.88000000000E+00 0.  1.
        -11    1    4    4    0    0  0.31861307937E-01  0.44434692307E-03  0.49006007656E-02  0.32243098433E-01  0.51100000000E-03 0.  1.
         11    1    4    4    0    0  0.96345512227E-01  0.31745359264E-01 -0.33887568910E-02  0.10149862243E+00  0.51100000000E-03 0. -1.
</event>
<event>
 8    1  0.1114686E+005  0.1043930E+01  0.7957747E-01            NaN
         13   -1    0    0    0    0  0.00000000000E+00  0.00000000000E+00  0.74505805969E-08  0.10566000000E+00  0.10566000000E+00 0.  1.
     999900   -1    0    0    0    0 -0.00000000000E+00 -0.00000000000E+00 -0.74505805969E-08  0.93827000000E+00  0.93827000000E+00 0.  1.
     999902    2    1    2    0    0 -0.75498788874E-02 -0.22283595333E-01 -0.49845610739E-02  0.10198799451E+01  0.10195963403E+01 0.  0.
     999903    2    3    3    0    0 -0.65838749892E-01 -0.62126833233E-01  0.93309501402E-01  0.13159688277E+00  0.20410588107E-01 0.  0.
         14    1    1    2    0    0  0.75498788874E-02  0.22283595333E-01  0.49845610739E-02  0.24050054913E-01  0.00000000000E+00 0. -1.
     999901    1    3    3    0    0  0.58288871005E-01  0.39843237899E-01 -0.98294062476E-01  0.88828306232E+00  0.88000000000E+00 0.  1.
        -11    1    4    4    0    0 -0.42704185150E-01 -0.36923608098E-01  0.43988233938E-01  0.71569729008E-01  0.51100000000E-03 0.  1.
         11    1    4    4    0    0 -0.23134564743E-01 -0.25203225135E-01  0.49321267464E-01  0.60027153758E-01  0.51100000000E-03 0. -1.
</event>
<event>
 8    1  0.1114686E+005  0.1043930E+01  0.7957747E-01            NaN
         13   -1    0    0    0    0  0.00000000000E+00  0.00000000000E+00  0.74505805969E-08  0.10566000000E+00  0.10566000000E+00 0.  1.
     999900   -1    0    0    0    0 -0.00000000000E+00 -0.00000000000E+00 -0.74505805969E-08  0.93827000000E+00  0.93827000000E+00 0. -1.
     999902    2    1    2    0    0 -0.18723970029E-01 -0.15435080131E-01  0.12531393424E-02  0.10196318702E+01  0.10193423133E+01 0.  0.
     999903    2    3    3    0    0  0.15092365577E-01 -0.26665262587E-01  0.12504832700E+00  0.13025292397E+00  0.19746503279E-01 0.  0.
         14    1    1    2    0    0  0.18723970029E-01  0.15435080131E-01 -0.12531393424E-02  0.24298129774E-01  0.00000000000E+00 0.  1.
     999901    1    3    3    0    0 -0.33816335606E-01  0.11230182456E-01 -0.12379518765E+00  0.88937894625E+00  0.88000000000E+00 0. -1.
        -11    1    4    4    0    0  0.35841860277E-02 -0.21876140666E-01  0.97835306816E-01  0.10031660032E+00  0.51100000000E-03 0. -1.
         11    1    4    4    0    0  0.11508179550E-01 -0.47891219214E-02  0.27213020179E-01  0.29936323649E-01  0.51100000000E-03 0.  1.
</event>
<event>
 8    1  0.1114686E+005  0.1043930E+01  0.7957747E-01            NaN
         13   -1    0    0    0    0  0.00000000000E+00  0.00000000000E+00  0.74505805969E-08  0.10566000000E+00  0.10566000000E+00 0. -1.
     999900   -1    0    0    0    0 -0.00000000000E+00 -0.00000000000E+00 -0.74505805969E-08  0.93827000000E+00  0.93827000000E+00 0. -1.
     999902    2    1    2    0    0  0.20879384209E-01 -0.33857182818E-02 -0.25862775191E-02  0.10226203636E+01  0.10223983115E+01 0.  0.
     999903    2    3    3    0    0 -0.66703584872E-01  0.85778676542E-01 -0.70697791442E-01  0.13118318457E+00  0.20087324748E-01 0.  0.
         14    1    1    2    0    0 -0.20879384209E-01  0.33857182818E-02  0.25862775191E-02  0.21309636427E-01  0.00000000000E+00 0. -1.
     999901    1    3    3    0    0  0.87582969081E-01 -0.89164394824E-01  0.68111513923E-01  0.89143717900E+00  0.88000000000E+00 0.  1.
        -11    1    4    4    0    0 -0.16739013149E-01  0.32163172390E-01 -0.15514102463E-01  0.39441256517E-01  0.51100000000E-03 0.  1.
         11    1    4    4    0    0 -0.49964571722E-01  0.53615504152E-01 -0.55183688978E-01  0.91741928054E-01  0.51100000000E-03 0. -1.
</event>
<event>
 8    1  0.1114686E+005  0.1043930E+01  0.7957747E-01            NaN
         13   -1    0    0    0    0  0.00000000000E+00  0.00000000000E+00  0.74505805969E-08  0.10566000000E+00  0.10566000000E+00 0.  1.
     999900   -1    0    0    0    0 -0.00000000000E+00 -0.00000000000E+00 -0.74505805969E-08  0.93827000000E+00  0.93827000000E+00 0. -1.
     999902    2    1    2    0    0 -0.14287576890E-01 -0.27986915071E-02 -0.23251455485E-01  0.10164964856E+01  0.10161262262E+01 0.  0.
     999903    2    3    3    0    0  0.81003221225E-01 -0.76111689292E-01  0.53608073869E-01  0.12500194326E+00  0.19928601048E-01 0.  0.
         14    1    1    2    0    0  0.14287576890E-01  0.27986915071E-02  0.23251455485E-01  0.27433514352E-01  0.00000000000E+00 0.  1.
     999901    1    3    3    0    0 -0.95290798115E-01  0.73312997785E-01 -0.76859529354E-01  0.89149454238E+00  0.88000000000E+00 0. -1.
        -11    1    4    4    0    0  0.47232815736E-01 -0.57313357278E-01  0.35289530024E-01  0.82227561408E-01  0.51100000000E-03 0. -1.
         11    1    4    4    0    0  0.33770405489E-01 -0.18798332014E-01  0.18318543845E-01  0.42774381854E-01  0.51100000000E-03 0.  1.
</event>
<event>
 8    1  0.1114686E+005  0.1043930E+01  0.7957747E-01            NaN
         13   -1    0    0    0    0  0.00000000000E+00  0.00000000000E+00  0.74505805969E-08  0.10566000000E+00  0.10566000000E+00 0.  1.
     999900   -1    0    0    0    0 -0.00000000000E+00 -0.00000000000E+00 -0.74505805969E-08  0.93827000000E+00  0.93827000000E+00 0. -1.
     999902    2    1    2    0    0  0.14293832110E-01  0.10751795351E-01 -0.13995281127E-01  0.10212191516E+01  0.10209665876E+01 0.  0.
     999903    2    3    3    0    0 -0.47485109318E-01  0.12150455375E+00 -0.90320139817E-02  0.13211429555E+00  0.18825982617E-01 0.  0.
         14    1    1    2    0    0 -0.14293832110E-01 -0.10751795351E-01  0.13995281127E-01  0.22710848365E-01  0.00000000000E+00 0. -1.
     999901    1    3    3    0    0  0.61778941427E-01 -0.11075275840E+00 -0.49632671451E-02  0.88910485609E+00  0.88000000000E+00 0. -1.
        -11    1    4    4    0    0 -0.19769170492E-01  0.38264927975E-01 -0.10631260955E-01  0.44365635862E-01  0.51100000000E-03 0. -1.
         11    1    4    4    0    0 -0.27715938826E-01  0.83239625779E-01  0.15992469735E-02  0.87748659686E-01  0.51100000000E-03 0.  1.
</event>
<event>
 8    1  0.1114686E+005  0.1043930E+01  0.7957747E-01            NaN
         13   -1    0    0    0    0  0.00000000000E+00  0.00000000000E+00  0.74505805969E-08  0.10566000000E+00  0.10566000000E+00 0.  1.
     999900   -1    0    0    0    0 -0.00000000000E+00 -0.00000000000E+00 -0.74505805969E-08  0.93827000000E+00  0.93827000000E+00 0. -1.
     999902    2    1    2    0    0 -0.18387157359E-02 -0.19013796316E-01 -0.12757572647E-01  0.10209591274E+01  0.10207006804E+01 0.  0.
     999903    2    3    3    0    0  0.91121054467E-01  0.82806764796E-02 -0.93135494197E-01  0.13200068219E+00  0.19451057805E-01 0.  0.
         14    1    1    2    0    0  0.18387157359E-02  0.19013796316E-01  0.12757572647E-01  0.22970872551E-01  0.00000000000E+00 0.  1.
     999901    1    3    3    0    0 -0.92959770203E-01 -0.27294472796E-01  0.80377921550E-01  0.88895844526E+00  0.88000000000E+00 0. -1.
        -11    1    4    4    0    0  0.36366489125E-01  0.92411562710E-02 -0.48669956363E-01  0.61456865149E-01  0.51100000000E-03 0.  1.
         11    1    4    4    0    0  0.54754565342E-01 -0.96047979148E-03 -0.44465537833E-01  0.70543817043E-01  0.51100000000E-03 0. -1.
</event>
<event>
 8    1  0.1114686E+005  0.1043930E+01  0.7957747E-01            NaN
         13   -1    0    0    0    0  0.00000000000E+00  0.00000000000E+00  0.74505805969E-08  0.10566000000E+00  0.10566000000E+00 0. -1.
     999900   -1    0    0    0    0 -0.00000000000E+00 -0.00000000000E+00 -0.74505805969E-08  0.93827000000E+00  0.93827000000E+00 0.  1.
     999902    2    1    2    0    0  0.53182427797E-03  0.22973497583E-01  0.63746053932E-02  0.10200825678E+01  0.10198037778E+01 0.  0.
     999903    2    3    3    0    0 -0.34910299230E-01  0.11948859818E+00  0.45001676192E-01  0.13325487352E+00  0.15344587576E-01 0.  0.
         14    1    1    2    0    0 -0.53182427797E-03 -0.22973497583E-01 -0.63746053932E-02  0.23847432192E-01  0.00000000000E+00 0.  1.
     999901    1    3    3    0    0  0.35442123508E-01 -0.96515100600E-01 -0.38627070799E-01  0.88682769429E+00  0.88000000000E+00 0. -1.
        -11    1    4    4    0    0 -0.19269302477E-01  0.62010403745E-01  0.15416364843E-01  0.66742202665E-01  0.51100000000E-03 0.  1.
         11    1    4    4    0    0 -0.15640996753E-01  0.57478194438E-01  0.29585311349E-01  0.66512670852E-01  0.51100000000E-03 0. -1.
</event>
<event>
 7    1  0.1114686E+005  0.1043930E+01  0.7957747E-01            NaN
         13   -1    0    0    0    0  0.00000000000E+00  0.00000000000E+00  0.74505805969E-08  0.10566000000E+00  0.10566000000E+00 0.  1.
     999900   -1    0    0    0    0 -0.00000000000E+00 -0.00000000000E+00 -0.74505805969E-08  0.93827000000E+00  0.93827000000E+00 0.  1.
     999903    2    1    2    0    0  0.36077476131E-01  0.93289855244E-01 -0.40550420713E-01  0.10970940197E+00  0.19678284631E-01 0.  0.
         14    1    1    2    0    0  0.35225330524E-01  0.70531549269E-02  0.28027744436E-01  0.45564518686E-01  0.00000000000E+00 0.  1.
     999901    1    1    2    0    0 -0.71302806655E-01 -0.10034301017E+00  0.12522676277E-01  0.88865607934E+00  0.88000000000E+00 0. -1.
        -11    1    3    3    0    0  0.40252006714E-02  0.16526496698E-01  0.32767296511E-03  0.17020453112E-01  0.51100000000E-03 0.  1.
         11    1    3    3    0    0  0.32052275460E-01  0.76763358546E-01 -0.40878093678E-01  0.92688948862E-01  0.51100000000E-03 0. -1.
</event>
<event>
 8    1  0.1114686E+005  0.1043930E+01  0.7957747E-01            NaN
         13   -1    0    0    0    0  0.00000000000E+00  0.00000000000E+00  0.74505805969E-08  0.10566000000E+00  0.10566000000E+00 0. -1.
     999900   -1    0    0    0    0 -0.00000000000E+00 -0.00000000000E+00 -0.74505805969E-08  0.93827000000E+00  0.93827000000E+00 0. -1.
     999902    2    1    2    0    0  0.21491888985E-01 -0.14259775323E-01  0.20107542889E-02  0.10180594450E+01  0.10177306853E+01 0.  0.
     999903    2    3    3    0    0  0.48632809968E-01  0.11127553670E+00  0.35332355985E-01  0.12811221435E+00  0.20419814247E-01 0.  0.
         14    1    1    2    0    0 -0.21491888985E-01  0.14259775323E-01 -0.20107542889E-02  0.25870555023E-01  0.00000000000E+00 0.  1.
     999901    1    3    3    0    0 -0.27140920983E-01 -0.12553531202E+00 -0.33321601696E-01  0.88994723062E+00  0.88000000000E+00 0.  1.
        -11    1    4    4    0    0  0.22438742077E-01  0.46308239537E-01  0.47598803427E-02  0.51680439016E-01  0.51100000000E-03 0. -1.
         11    1    4    4    0    0  0.26194067891E-01  0.64967297162E-01  0.30572475642E-01  0.76431775337E-01  0.51100000000E-03 0.  1.
</event>
<event>
 8    1  0.1114686E+005  0.1043930E+01  0.7957747E-01            NaN
         13   -1    0    0    0    0  0.00000000000E+00  0.00000000000E+00  0.74505805969E-08  0.10566000000E+00  0.10566000000E+00 0. -1.
     999900   -1    0    0    0    0 -0.00000000000E+00 -0.00000000000E+00 -0.74505805969E-08  0.93827000000E+00  0.93827000000E+00 0.  1.
     999902    2    1    2    0    0 -0.83792023986E-03  0.15639995041E-01 -0.18362452147E-01  0.10197951455E+01  0.10195095132E+01 0.  0.
     999903    2    3    3    0    0  0.10719091883E+00  0.23585932570E-01  0.65810979508E-01  0.12916697692E+00  0.17516666534E-01 0.  0.
         14    1    1    2    0    0  0.83792023986E-03 -0.15639995041E-01  0.18362452147E-01  0.24134854548E-01  0.00000000000E+00 0. -1.
     999901    1    3    3    0    0 -0.10802883907E+00 -0.79459375293E-02 -0.84173431655E-01  0.89062816854E+00  0.88000000000E+00 0.  1.
        -11    1    4    4    0    0  0.47440655543E-01  0.19222144583E-01  0.32115913798E-01  0.60430122296E-01  0.51100000000E-03 0.  1.
         11    1    4    4    0    0  0.59750263289E-01  0.43637879872E-02  0.33695065710E-01  0.68736854619E-01  0.51100000000E-03 0. -1.
</event>
<event>
 7    1  0.1114686E+005  0.1043930E+01  0.7957747E-01            NaN
         13   -1    0    0    0    0  0.00000000000E+00  0.00000000000E+00  0.74505805969E-08  0.10566000000E+00  0.10566000000E+00 0.  1.
     999900   -1    0    0    0    0 -0.00000000000E+00 -0.00000000000E+00 -0.74505805969E-08  0.93827000000E+00  0.93827000000E+00 0. -1.
     999902    2    1    2    0    0  0.14652421769E-01  0.18457962241E-01 -0.24496919132E-02  0.10202363126E+01  0.10199611476E+01 0.  0.
         14    1    1    2    0    0 -0.14652421769E-01 -0.18457962241E-01  0.24496919132E-02  0.23693687435E-01  0.00000000000E+00 0. -1.
     999901    1    3    3    0    0  0.13501757252E+00  0.68674078599E-02  0.26375630011E-01  0.89071464569E+00  0.88000000000E+00 0.  1.
        -11    1    3    3    0    0 -0.10291775089E+00 -0.24521817853E-02 -0.29557093269E-01  0.10710723378E+00  0.51100000000E-03 0. -1.
         11    1    3    3    0    0 -0.17447399860E-01  0.14042736167E-01  0.73177134512E-03  0.22414433101E-01  0.51100000000E-03 0.  1.
</event>
<event>
 8    1  0.1114686E+005  0.1043930E+01  0.7957747E-01            NaN
         13   -1    0    0    0    0  0.00000000000E+00  0.00000000000E+00  0.74505805969E-08  0.10566000000E+00  0.10566000000E+00 0.  1.
     999900   -1    0    0    0    0 -0.00000000000E+00 -0.00000000000E+00 -0.74505805969E-08  0.93827000000E+00  0.93827000000E+00 0.  1.
     999902    2    1    2    0    0 -0.10585551978E-02  0.19346213854E-01 -0.14197292086E-01  0.10199100160E+01  0.10196271284E+01 0.  0.
     999903    2    3    3    0    0 -0.42219021976E-01 -0.80329400846E-01 -0.90705068553E-01  0.13003201757E+00  0.21110605784E-01 0.  0.
         14    1    1    2    0    0  0.10585551978E-02 -0.19346213854E-01  0.14197292086E-01  0.24019984017E-01  0.00000000000E+00 0.  1.
     999901    1    3    3    0    0  0.41160466778E-01  0.99675614700E-01  0.76507776466E-01  0.88987799841E+00  0.88000000000E+00 0. -1.
        -11    1    4    4    0    0 -0.23692661100E-01 -0.64487191600E-01 -0.69365121903E-01  0.97630534814E-01  0.51100000000E-03 0.  1.
         11    1    4    4    0    0 -0.18526360875E-01 -0.15842209245E-01 -0.21339946650E-01  0.32401482760E-01  0.51100000000E-03 0. -1.
</event>
<event>
 8    1  0.1114686E+005  0.1043930E+01  0.7957747E-01            NaN
         13   -1    0    0    0    0  0.00000000000E+00  0.00000000000E+00  0.74505805969E-08  0.10566000000E+00  0.10566000000E+00 0. -1.
     999900   -1    0    0    0    0 -0.00000000000E+00 -0.00000000000E+00 -0.74505805969E-08  0.93827000000E+00  0.93827000000E+00 0.  1.
     999902    2    1    2    0    0 -0.22956287769E-02  0.23882318344E-01  0.36438997864E-02  0.10196624693E+01  0.10193736500E+01 0.  0.
     999903    2    3    3    0    0  0.11773484647E+00  0.53145485096E-01  0.81156792060E-02  0.13102100913E+00  0.20364280581E-01 0.  0.
         14    1    1    2    0    0  0.22956287769E-02 -0.23882318344E-01 -0.36438997864E-02  0.24267530707E-01  0.00000000000E+00 0.  1.
     999901    1    3    3    0    0 -0.12003047525E+00 -0.29263166752E-01 -0.44717794195E-02  0.88864146017E+00  0.88000000000E+00 0.  1.
        -11    1    4    4    0    0  0.38900736263E-01  0.17940886657E-01 -0.68763376040E-02  0.43389950861E-01  0.51100000000E-03 0. -1.
         11    1    4    4    0    0  0.78834110208E-01  0.35204598439E-01  0.14992016810E-01  0.87631058265E-01  0.51100000000E-03 0.  1.
</event>
<event>
 8    1  0.1114686E+005  0.1043930E+01  0.7957747E-01            NaN
         13   -1    0    0    0    0  0.00000000000E+00  0.00000000000E+00  0.74505805969E-08  0.10566000000E+00  0.10566000000E+00 0.  1.
     999900   -1    0    0    0    0 -0.00000000000E+00 -0.00000000000E+00 -0.74505805969E-08  0.93827000000E+00  0.93827000000E+00 0.  1.
     999902    2    1    2    0    0 -0.20551961303E-02  0.20354771005E-01  0.12807320824E-01  0.10197935545E+01  0.10195078841E+01 0.  0.
     999903    2    3    3    0    0  0.51429882748E-01 -0.11376876468E+00  0.18952524469E-01  0.12800459966E+00  0.20919242171E-01 0.  0.
         14    1    1    2    0    0  0.20551961303E-02 -0.20354771005E-01 -0.12807320824E-01  0.24136445481E-01  0.00000000000E+00 0. -1.
     999901    1    3    3    0    0 -0.53485078879E-01  0.13412353568E+00 -0.61452036455E-02  0.89178895486E+00  0.88000000000E+00 0.  1.
        -11    1    4    4    0    0  0.37919977589E-01 -0.61219343618E-01  0.15299403078E-01  0.73621094728E-01  0.51100000000E-03 0. -1.
         11    1    4    4    0    0  0.13509905159E-01 -0.52549421062E-01  0.36531213907E-02  0.54383504928E-01  0.51100000000E-03 0.  1.
</event>
<event>
 7    1  0.1700325E+005  0.1043930E+01  0.7957747E-01            NaN
         13   -1    0    0    0    0  0.00000000000E+00  0.00000000000E+00  0.74505805969E-08  0.10566000000E+00  0.10566000000E+00 0. -1.
     999900   -1    0    0    0    0 -0.00000000000E+00 -0.00000000000E+00 -0.74505805969E-08  0.93827000000E+00  0.93827000000E+00 0.  1.
     999903    2    1    2    0    0  0.36883744702E-01  0.38589472694E-01 -0.77391857252E-01  0.96126171096E-01  0.20029557522E-01 0.  0.
         14    1    1    2    0    0 -0.21098551491E-01 -0.27641925285E-01 -0.47404622804E-01  0.58791352865E-01  0.00000000000E+00 0.  1.
     999901    1    1    2    0    0 -0.15785193211E-01 -0.10947547409E-01  0.12479648006E+00  0.88901247604E+00  0.88000000000E+00 0. -1.
        -11    1    3    3    0    0  0.25276363339E-01  0.27465408113E-01 -0.36605631775E-01  0.52282660464E-01  0.51100000000E-03 0. -1.
         11    1    3    3    0    0  0.11607381363E-01  0.11124064581E-01 -0.40786225477E-01  0.43843510632E-01  0.51100000000E-03 0.  1.
</event>
<event>
 8    1  0.1114686E+005  0.1043930E+01  0.7957747E-01            NaN
         13   -1    0    0    0    0  0.00000000000E+00  0.00000000000E+00  0.74505805969E-08  0.10566000000E+00  0.10566000000E+00 0. -1.
     999900   -1    0    0    0    0 -0.00000000000E+00 -0.00000000000E+00 -0.74505805969E-08  0.93827000000E+00  0.93827000000E+00 0. -1.
     999902    2    1    2    0    0 -0.19032223654E-01  0.10070059627E-01  0.62928612795E-02  0.10214971727E+01  0.10212508223E+01 0.  0.
     999903    2    3    3    0    0  0.10774172315E+00  0.32218479855E-01  0.62897452709E-01  0.13033710521E+00  0.19630641481E-01 0.  0.
         14    1    1    2    0    0  0.19032223654E-01 -0.10070059627E-01 -0.62928612795E-02  0.22432827311E-01  0.00000000000E+00 0.  1.
     999901    1    3    3    0    0 -0.12677394680E+00 -0.22148420228E-01 -0.56604591430E-01  0.89116006748E+00  0.88000000000E+00 0. -1.
        -11    1    4    4    0    0  0.35901821643E-01  0.19675307695E-01  0.27076653834E-01  0.49086299861E-01  0.51100000000E-03 0. -1.
         11    1    4    4    0    0  0.71839901504E-01  0.12543172159E-01  0.35820798875E-01  0.81250805344E-01  0.51100000000E-03 0.  1.
</event>
<event>
 8    1  0.1114686E+005  0.1043930E+01  0.7957747E-01            NaN
         13   -1    0    0    0    0  0.00000000000E+00  0.00000000000E+00  0.74505805969E-08  0.10566000000E+00  0.10566000000E+00 0. -1.
     999900   -1    0    0    0    0 -0.00000000000E+00 -0.00000000000E+00 -0.74505805969E-08  0.93827000000E+00  0.93827000000E+00 0. -1.
     999902    2    1    2    0    0 -0.17424364857E-01  0.15896678273E-01  0.23421224470E-02  0.10202277130E+01  0.10199523459E+01 0.  0.
     999903    2    3    3    0    0 -0.10066179469E+00 -0.78487754571E-01 -0.21794796635E-01  0.13094739627E+00  0.19470051415E-01 0.  0.
         14    1    1    2    0    0  0.17424364857E-01 -0.15896678273E-01 -0.23421224470E-02  0.23702286986E-01  0.00000000000E+00 0. -1.
     999901    1    3    3    0    0  0.83237429830E-01  0.94384432844E-01  0.24136919081E-01  0.88928031675E+00  0.88000000000E+00 0.  1.
        -11    1    4    4    0    0 -0.41814028458E-01 -0.21412777000E-01 -0.11076909384E-01  0.48268820550E-01  0.51100000000E-03 0. -1.
         11    1    4    4    0    0 -0.58847766228E-01 -0.57074977571E-01 -0.10717887250E-01  0.82678575719E-01  0.51100000000E-03 0.  1.
</event>
<event>
 8    1  0.1114686E+005  0.1043930E+01  0.7957747E-01            NaN
         13   -1    0    0    0    0  0.00000000000E+00  0.00000000000E+00  0.74505805969E-08  0.10566000000E+00  0.10566000000E+00 0. -1.
     999900   -1    0    0    0    0 -0.00000000000E+00 -0.00000000000E+00 -0.74505805969E-08  0.93827000000E+00  0.93827000000E+00 0.  1.
     999902    2    1    2    0    0 -0.46728864942E-02  0.18812150234E-01  0.12379573663E-01  0.10209302889E+01  0.10206711851E+01 0.  0.
     999903    2    3    3    0    0  0.98766773362E-02 -0.24019490571E-01  0.12802900168E+00  0.13221153171E+00  0.20346477880E-01 0.  0.
         14    1    1    2    0    0  0.46728864942E-02 -0.18812150234E-01 -0.12379573663E-01  0.22999711056E-01  0.00000000000E+00 0.  1.
     999901    1    3    3    0    0 -0.14549563830E-01  0.42831640805E-01 -0.11564942802E+00  0.88871875724E+00  0.88000000000E+00 0.  1.
        -11    1    4    4    0    0  0.12834189719E-01 -0.24426711722E-01  0.91864737520E-01  0.95920653625E-01  0.51100000000E-03 0. -1.
         11    1    4    4    0    0 -0.29575123830E-02  0.40722115046E-03  0.36164264163E-01  0.36290878082E-01  0.51100000000E-03 0.  1.
</event>
<event>
 8    1  0.1114686E+005  0.1043930E+01  0.7957747E-01            NaN
         13   -1    0    0    0    0  0.00000000000E+00  0.00000000000E+00  0.74505805969E-08  0.10566000000E+00  0.10566000000E+00 0.  1.
     999900   -1    0    0    0    0 -0.00000000000E+00 -0.00000000000E+00 -0.74505805969E-08  0.93827000000E+00  0.93827000000E+00 0.  1.
     999902    2    1    2    0    0  0.15004565117E-01  0.27879419946E-01  0.48110035487E-02  0.10119058718E+01  0.10113990056E+01 0.  0.
     999903    2    3    3    0    0  0.77361345749E-01 -0.86783853571E-01 -0.29397259273E-01  0.12162151296E+00  0.20282467897E-01 0.  0.
         14    1    1    2    0    0 -0.15004565117E-01 -0.27879419946E-01 -0.48110035487E-02  0.32024128185E-01  0.00000000000E+00 0.  1.
     999901    1    3    3    0    0 -0.62356780632E-01  0.11466327352E+00  0.34208262822E-01  0.89028435886E+00  0.88000000000E+00 0. -1.
        -11    1    4    4    0    0  0.20079493188E-01 -0.22302435343E-01  0.13735113800E-02  0.30045504213E-01  0.51100000000E-03 0.  1.
         11    1    4    4    0    0  0.57281852561E-01 -0.64481418228E-01 -0.30770770653E-01  0.91576008742E-01  0.51100000000E-03 0. -1.
</event>
<event>
 8    1  0.1247354E+005  0.1043930E+01  0.7957747E-01            NaN
         13   -1    0    0    0    0  0.00000000000E+00  0.00000000000E+00  0.74505805969E-08  0.10566000000E+00  0.10566000000E+00 0.  1.
     999900   -1    0    0    0    0 -0.00000000000E+00 -0.00000000000E+00 -0.74505805969E-08  0.93827000000E+00  0.93827000000E+00 0.  1.
     999902    2    1    2    0    0  0.64978878952E-02  0.20632146153E-01 -0.17294620367E-01  0.10162350204E+01  0.10158575711E+01 0.  0.
     999903    2    3    3    0    0  0.26284855475E-01  0.10496552721E-01 -0.12464952183E+00  0.12943215097E+00  0.20349623246E-01 0.  0.
         14    1    1    2    0    0 -0.64978878952E-02 -0.20632146153E-01  0.17294620367E-01  0.27694979610E-01  0.00000000000E+00 0. -1.
     999901    1    3    3    0    0 -0.19786967580E-01  0.10135593431E-01  0.10735490146E+00  0.88680286942E+00  0.88000000000E+00 0. -1.
        -11    1    4    4    0    0  0.26314592627E-01  0.29906251274E-02 -0.83511046946E-01  0.87611401694E-01  0.51100000000E-03 0.  1.
         11    1    4    4    0    0 -0.29737151916E-04  0.75059275939E-02 -0.41138474884E-01  0.41820749278E-01  0.51100000000E-03 0. -1.
</event>
<event>
 8    1  0.1114686E+005  0.1043930E+01  0.7957747E-01            NaN
         13   -1    0    0    0    0  0.00000000000E+00  0.00000000000E+00  0.74505805969E-08  0.10566000000E+00  0.10566000000E+00 0. -1.
     999900   -1    0    0    0    0 -0.00000000000E+00 -0.00000000000E+00 -0.74505805969E-08  0.93827000000E+00  0.93827000000E+00 0. -1.
     999902    2    1    2    0    0  0.35733287617E-02 -0.18061464460E-01 -0.15231155931E-01  0.10200349526E+01  0.10197550350E+01 0.  0.
     999903    2    3    3    0    0  0.10131668872E+00 -0.12921931986E-01  0.76960833327E-01  0.12982175229E+00  0.22330914952E-01 0.  0.
         14    1    1    2    0    0 -0.35733287617E-02  0.18061464460E-01  0.15231155931E-01  0.23895047350E-01  0.00000000000E+00 0. -1.
     999901    1    3    3    0    0 -0.97743359955E-01 -0.51395324739E-02 -0.92191989258E-01  0.89021320036E+00  0.88000000000E+00 0. -1.
        -11    1    4    4    0    0  0.79425978957E-01 -0.18589354514E-01  0.55673541875E-01  0.98761604991E-01  0.51100000000E-03 0.  1.
         11    1    4    4    0    0  0.21890709760E-01  0.56674225278E-02  0.21287291452E-01  0.31060147300E-01  0.51100000000E-03 0. -1.
</event>
<event>
 8    1  0.1114686E+005  0.1043930E+01  0.7957747E-01            NaN
         13   -1    0    0    0    0  0.00000000000E+00  0.00000000000E+00  0.74505805969E-08  0.10566000000E+00  0.10566000000E+00 0.  1.
     999900   -1    0    0    0    0 -0.00000000000E+00 -0.00000000000E+00 -0.74505805969E-08  0.93827000000E+00  0.93827000000E+00 0. -1.
     999902    2    1    2    0    0  0.77703621484E-02  0.22010354803E-01 -0.32825643071E-02  0.10203586302E+01  0.10200863320E+01 0.  0.
     999903    2    3    3    0    0 -0.11406508578E+00  0.61459479930E-01 -0.92904338658E-03  0.13108609103E+00  0.19864256121E-01 0.  0.
         14    1    1    2    0    0 -0.77703621484E-02 -0.22010354803E-01  0.32825643071E-02  0.23571369814E-01  0.00000000000E+00 0.  1.
     999901    1    3    3    0    0  0.12183544793E+00 -0.39449125127E-01 -0.23535209205E-02  0.88927253916E+00  0.88000000000E+00 0. -1.
        -11    1    4    4    0    0 -0.58767046051E-01  0.40555531092E-01  0.55122314087E-02  0.71616776107E-01  0.51100000000E-03 0.  1.
         11    1    4    4    0    0 -0.55298039729E-01  0.20903948838E-01 -0.64412747953E-02  0.59469314919E-01  0.51100000000E-03 0. -1.
</event>
<event>
 8    1  0.1114686E+005  0.1043930E+01  0.7957747E-01            NaN
         13   -1    0    0    0    0  0.00000000000E+00  0.00000000000E+00  0.74505805969E-08  0.10566000000E+00  0.10566000000E+00 0.  1.
     999900   -1    0    0    0    0 -0.00000000000E+00 -0.00000000000E+00 -0.74505805969E-08  0.93827000000E+00  0.93827000000E+00 0. -1.
     999902    2    1    2    0    0  0.19183913507E-01 -0.55150564023E-02 -0.11240780567E-01  0.10210216275E+01  0.10207646008E+01 0.  0.
     999903    2    3    3    0    0 -0.15815450000E-02 -0.10264466531E+00 -0.78489498563E-01  0.13288438848E+00  0.30971450019E-01 0.  0.
         14    1    1    2    0    0 -0.19183913507E-01  0.55150564023E-02  0.11240780567E-01  0.22908372537E-01  0.00000000000E+00 0.  1.
     999901    1    3    3    0    0  0.20765458507E-01  0.97129608907E-01  0.67248717996E-01  0.88813723898E+00  0.88000000000E+00 0.  1.
        -11    1    4    4    0    0  0.10474217759E-01 -0.66006800210E-01 -0.37658061323E-01  0.76713738112E-01  0.51100000000E-03 0. -1.
         11    1    4    4    0    0 -0.12055762759E-01 -0.36637865100E-01 -0.40831437240E-01  0.56170650369E-01  0.51100000000E-03 0.  1.
</event>
<event>
 8    1  0.1114686E+005  0.1043930E+01  0.7957747E-01            NaN
         13   -1    0    0    0    0  0.00000000000E+00  0.00000000000E+00  0.74505805969E-08  0.10566000000E+00  0.10566000000E+00 0.  1.
     999900   -1    0    0    0    0 -0.00000000000E+00 -0.00000000000E+00 -0.74505805969E-08  0.93827000000E+00  0.93827000000E+00 0. -1.
     999902    2    1    2    0    0 -0.53824437987E-03 -0.74938974525E-02 -0.22571726271E-01  0.10201406950E+01  0.10198632784E+01 0.  0.
     999903    2    3    3    0    0 -0.40252848606E-01 -0.11284851623E+00 -0.52752061536E-01  0.13245398329E+00  0.20154360730E-01 0.  0.
         14    1    1    2    0    0  0.53824437987E-03  0.74938974525E-02  0.22571726271E-01  0.23789305011E-01  0.00000000000E+00 0.  1.
     999901    1    3    3    0    0  0.39714604226E-01  0.10535461878E+00  0.30180335265E-01  0.88768671170E+00  0.88000000000E+00 0.  1.
        -11    1    4    4    0    0 -0.27988633172E-01 -0.51393801452E-01 -0.20796379744E-01  0.62108267936E-01  0.51100000000E-03 0. -1.
         11    1    4    4    0    0 -0.12264215434E-01 -0.61454714782E-01 -0.31955681792E-01  0.70345715356E-01  0.51100000000E-03 0.  1.
</event>
<event>
 8    1  0.1114686E+005  0.1043930E+01  0.7957747E-01            NaN
         13   -1    0    0    0    0  0.00000000000E+00  0.00000000000E+00  0.74505805969E-08  0.10566000000E+00  0.10566000000E+00 0. -1.
     999900   -1    0    0    0    0 -0.00000000000E+00 -0.00000000000E+00 -0.74505805969E-08  0.93827000000E+00  0.93827000000E+00 0. -1.
     999902    2    1    2    0    0  0.50700400322E-02 -0.10843801200E-01 -0.20659336666E-01  0.10200532012E+01  0.10197737159E+01 0.  0.
     999903    2    3    3    0    0  0.16683613844E-01  0.69023903134E-01  0.10451352325E+00  0.12753879225E+00  0.17332767005E-01 0.  0.
         14    1    1    2    0    0 -0.50700400322E-02  0.10843801200E-01  0.20659336666E-01  0.23876798820E-01  0.00000000000E+00 0. -1.
     999901    1    3    3    0    0 -0.11613573812E-01 -0.79867704334E-01 -0.12517285991E+00  0.89251440893E+00  0.88000000000E+00 0. -1.
        -11    1    4    4    0    0  0.17308798040E-01  0.61826114746E-01  0.10049929667E+00  0.11925784128E+00  0.51100000000E-03 0. -1.
         11    1    4    4    0    0 -0.62518419524E-03  0.71977883881E-02  0.40142265751E-02  0.82809509692E-02  0.51100000000E-03 0.  1.
</event>
<event>
 7    1  0.1114686E+005  0.1043930E+01  0.7957747E-01            NaN
         13   -1    0    0    0    0  0.00000000000E+00  0.00000000000E+00  0.74505805969E-08  0.10566000000E+00  0.10566000000E+00 0.  1.
     999900   -1    0    0    0    0 -0.00000000000E+00 -0.00000000000E+00 -0.74505805969E-08  0.93827000000E+00  0.93827000000E+00 0. -1.
     999903    2    1    2    0    0  0.12565695905E-01 -0.63944815908E-01 -0.89426872581E-01  0.11241041001E+00  0.19801478339E-01 0.  0.
         14    1    1    2    0    0  0.46204911676E-02 -0.13288757427E-01  0.44674026948E-01  0.46837044060E-01  0.00000000000E+00 0.  1.
     999901    1    1    2    0    0 -0.17186187073E-01  0.77233573335E-01  0.44752845633E-01  0.88468254593E+00  0.88000000000E+00 0. -1.
        -11    1    3    3    0    0  0.79977987583E-02 -0.66208273835E-02 -0.17036483337E-01  0.19957530552E-01  0.51100000000E-03 0. -1.
         11    1    3    3    0    0  0.45678971471E-02 -0.57323988525E-01 -0.72390389244E-01  0.92452879461E-01  0.51100000000E-03 0.  1.
</event>
<event>
 8    1  0.1114686E+005  0.1043930E+01  0.7957747E-01            NaN
         13   -1    0    0    0    0  0.00000000000E+00  0.00000000000E+00  0.74505805969E-08  0.10566000000E+00  0.10566000000E+00 0. -1.
     999900   -1    0    0    0    0 -0.00000000000E+00 -0.00000000000E+00 -0.74505805969E-08  0.93827000000E+00  0.93827000000E+00 0. -1.
     999902    2    1    2    0    0 -0.23810536682E-01 -0.55765602113E-03 -0.25390242682E-02  0.10199779796E+01  0.10196967096E+01 0.  0.
     999903    2    3    3    0    0 -0.30245832856E-01 -0.11677840422E+00  0.46693670046E-01  0.13094899607E+00  0.20379760891E-01 0.  0.
         14    1    1    2    0    0  0.23810536682E-01  0.55765602113E-03  0.25390242682E-02  0.23952020407E-01  0.00000000000E+00 0. -1.
     999901    1    3    3    0    0  0.64352961735E-02  0.11622074820E+00 -0.49232694314E-01  0.88902898352E+00  0.88000000000E+00 0.  1.
        -11    1    4    4    0    0 -0.14223590405E-01 -0.89530437680E-01  0.32630245649E-01  0.96348346365E-01  0.51100000000E-03 0. -1.
         11    1    4    4    0    0 -0.16022242451E-01 -0.27247966537E-01  0.14063424396E-01  0.34600649709E-01  0.51100000000E-03 0.  1.
</event>
<event>
 8    1  0.1114686E+005  0.1043930E+01  0.7957747E-01            NaN
         13   -1    0    0    0    0  0.00000000000E+00  0.00000000000E+00  0.74505805969E-08  0.10566000000E+00  0.10566000000E+00 0. -1.
     999900   -1    0    0    0    0 -0.00000000000E+00 -0.00000000000E+00 -0.74505805969E-08  0.93827000000E+00  0.93827000000E+00 0. -1.
     999902    2    1    2    0    0  0.22098772694E-01 -0.12252503372E-02 -0.85545099318E-02  0.10202016070E+01  0.10199256259E+01 0.  0.
     999903    2    3    3    0    0 -0.59356050189E-01 -0.90470357251E-01  0.67178346433E-01  0.12872247501E+00  0.18668666503E-01 0.  0.
         14    1    1    2    0    0 -0.22098772694E-01  0.12252503372E-02  0.85545099318E-02  0.23728392974E-01  0.00000000000E+00 0.  1.
     999901    1    3    3    0    0  0.81454822883E-01  0.89245106914E-01 -0.75732856365E-01  0.89147913201E+00  0.88000000000E+00 0.  1.
        -11    1    4    4    0    0 -0.15001124960E-01 -0.14635680202E-01  0.64957682894E-02  0.21947505820E-01  0.51100000000E-03 0. -1.
         11    1    4    4    0    0 -0.44354925229E-01 -0.75834677049E-01  0.60682578144E-01  0.10677496919E+00  0.51100000000E-03 0.  1.
</event>
<event>
 8    1  0.1114686E+005  0.1043930E+01  0.7957747E-01            NaN
         13   -1    0    0    0    0  0.00000000000E+00  0.00000000000E+00  0.74505805969E-08  0.10566000000E+00  0.10566000000E+00 0. -1.
     999900   -1    0    0    0    0 -0.00000000000E+00 -0.00000000000E+00 -0.74505805969E-08  0.93827000000E+00  0.93827000000E+00 0. -1.
     999902    2    1    2    0    0 -0.98493965268E-02  0.82284799236E-02 -0.12729728189E-01  0.10258533722E+01  0.10256940951E+01 0.  0.
     999903    2    3    3    0    0  0.96448037369E-01  0.90757596423E-01 -0.20474107183E-01  0.13558926814E+00  0.20642077153E-01 0.  0.
         14    1    1    2    0    0  0.98493965268E-02 -0.82284799236E-02  0.12729728189E-01  0.18076627826E-01  0.00000000000E+00 0. -1.
     999901    1    3    3    0    0 -0.10629743390E+00 -0.82529116500E-01  0.77443789936E-02  0.89026410403E+00  0.88000000000E+00 0.  1.
        -11    1    4    4    0    0  0.39161361254E-01  0.41516344034E-01 -0.18580661855E-01  0.60022671993E-01  0.51100000000E-03 0. -1.
         11    1    4    4    0    0  0.57286676115E-01  0.49241252389E-01 -0.18934453280E-02  0.75566596148E-01  0.51100000000E-03 0.  1.
</event>
<event>
 8    1  0.1114686E+005  0.1043930E+01  0.7957747E-01            NaN
         13   -1    0    0    0    0  0.00000000000E+00  0.00000000000E+00  0.74505805969E-08  0.10566000000E+00  0.10566000000E+00 0. -1.
     999900   -1    0    0    0    0 -0.00000000000E+00 -0.00000000000E+00 -0.74505805969E-08  0.93827000000E+00  0.93827000000E+00 0.  1.
     999902    2    1    2    0    0 -0.10867793842E-01  0.50390487195E-02 -0.21907542291E-01  0.10189611922E+01  0.10186552262E+01 0.  0.
     999903    2    3    3    0    0 -0.70050669573E-02  0.11462873288E+00  0.54902881982E-01  0.12883498718E+00  0.19882406992E-01 0.  0.
         14    1    1    2    0    0  0.10867793842E-01 -0.50390487195E-02  0.21907542291E-01  0.24968807825E-01  0.00000000000E+00 0. -1.
     999901    1    3    3    0    0 -0.38627268843E-02 -0.10958968416E+00 -0.76810424273E-01  0.89012620499E+00  0.88000000000E+00 0.  1.
        -11    1    4    4    0    0 -0.53962045152E-02  0.26278198567E-01  0.48147852889E-02  0.27259971047E-01  0.51100000000E-03 0.  1.
         11    1    4    4    0    0 -0.16088624420E-02  0.88350534314E-01  0.50088096693E-01  0.10157501614E+00  0.51100000000E-03 0. -1.
</event>
<event>
 8    1  0.1114686E+005  0.1043930E+01  0.7957747E-01            NaN
         13   -1    0    0    0    0  0.00000000000E+00  0.00000000000E+00  0.74505805969E-08  0.10566000000E+00  0.10566000000E+00 0. -1.
     999900   -1    0    0    0    0 -0.00000000000E+00 -0.00000000000E+00 -0.74505805969E-08  0.93827000000E+00  0.93827000000E+00 0.  1.
     999902    2    1    2    0    0 -0.12135929883E-01 -0.85688509649E-02  0.17744835796E-01  0.10207872863E+01  0.10205249133E+01 0.  0.
     999903    2    3    3    0    0 -0.39495081378E-01  0.10491560633E+00  0.66601274509E-01  0.13173487116E+00  0.18740347101E-01 0.  0.
         14    1    1    2    0    0  0.12135929883E-01  0.85688509649E-02 -0.17744835796E-01  0.23142713721E-01  0.00000000000E+00 0.  1.
     999901    1    3    3    0    0  0.27359151495E-01 -0.11348445730E+00 -0.48856438713E-01  0.88905241512E+00  0.88000000000E+00 0. -1.
        -11    1    4    4    0    0 -0.32016843436E-02  0.18058831070E-01  0.18366419146E-01  0.25960713309E-01  0.51100000000E-03 0. -1.
         11    1    4    4    0    0 -0.36293397034E-01  0.86856775261E-01  0.48234855362E-01  0.10577415785E+00  0.51100000000E-03 0.  1.
</event>
<event>
 8    1  0.1114686E+005  0.1043930E+01  0.7957747E-01            NaN
         13   -1    0    0    0    0  0.00000000000E+00  0.00000000000E+00  0.74505805969E-08  0.10566000000E+00  0.10566000000E+00 0.  1.
     999900   -1    0    0    0    0 -0.00000000000E+00 -0.00000000000E+00 -0.74505805969E-08  0.93827000000E+00  0.93827000000E+00 0.  1.
     999902    2    1    2    0    0  0.20475377366E-02 -0.31180727721E-01 -0.98530355320E-02  0.10111654994E+01  0.10106345307E+01 0.  0.
     999903    2    3    3    0    0 -0.82462966669E-01 -0.88360319522E-01 -0.25644689964E-01  0.12512887066E+00  0.19796393908E-01 0.  0.
         14    1    1    2    0    0 -0.20475377366E-02  0.31180727721E-01  0.98530355320E-02  0.32764500625E-01  0.00000000000E+00 0.  1.
     999901    1    3    3    0    0  0.84510504405E-01  0.57179591801E-01  0.15791654432E-01  0.88603662871E+00  0.88000000000E+00 0.  1.
        -11    1    4    4    0    0 -0.60708994930E-01 -0.51277613019E-01 -0.17352625574E-01  0.81340951542E-01  0.51100000000E-03 0.  1.
         11    1    4    4    0    0 -0.21753971738E-01 -0.37082706503E-01 -0.82920643898E-02  0.43787919119E-01  0.51100000000E-03 0. -1.
</event>
<event>
 8    1  0.1114686E+005  0.1043930E+01  0.7957747E-01            NaN
         13   -1    0    0    0    0  0.00000000000E+00  0.00000000000E+00  0.74505805969E-08  0.10566000000E+00  0.10566000000E+00 0.  1.
     999900   -1    0    0    0    0 -0.00000000000E+00 -0.00000000000E+00 -0.74505805969E-08  0.93827000000E+00  0.93827000000E+00 0. -1.
     999902    2    1    2    0    0  0.67930207792E-02  0.18461391377E-01 -0.14956994599E-01  0.10192180638E+01  0.10189184373E+01 0.  0.
     999903    2    3    3    0    0  0.38149426399E-01 -0.10120697271E+00  0.63765030102E-01  0.12708528294E+00  0.19658586278E-01 0.  0.
         14    1    1    2    0    0 -0.67930207792E-02 -0.18461391377E-01  0.14956994599E-01  0.24711936191E-01  0.00000000000E+00 0. -1.
     999901    1    3    3    0    0 -0.31356405619E-01  0.11966836409E+00 -0.78722024701E-01  0.89213278087E+00  0.88000000000E+00 0.  1.
        -11    1    4    4    0    0  0.12841487938E-01 -0.33036263979E-01  0.31911985405E-01  0.47696273267E-01  0.51100000000E-03 0.  1.
         11    1    4    4    0    0  0.25307938461E-01 -0.68170708735E-01  0.31853044697E-01  0.79389009668E-01  0.51100000000E-03 0. -1.
</event>
<event>
 8    1  0.1114686E+005  0.1043930E+01  0.7957747E-01            NaN
         13   -1    0    0    0    0  0.00000000000E+00  0.00000000000E+00  0.74505805969E-08  0.10566000000E+00  0.10566000000E+00 0. -1.
     999900   -1    0    0    0    0 -0.00000000000E+00 -0.00000000000E+00 -0.74505805969E-08  0.93827000000E+00  0.93827000000E+00 0.  1.
     999902    2    1    2    0    0  0.14628541539E-01  0.89750452134E-02 -0.15466855629E-01  0.10208265525E+01  0.10205650792E+01 0.  0.
     999903    2    3    3    0    0  0.47229217388E-01  0.10141305791E+00 -0.70111593744E-01  0.13369993375E+00  0.21090979521E-01 0.  0.
         14    1    1    2    0    0 -0.14628541539E-01 -0.89750452134E-02  0.15466855629E-01  0.23103447517E-01  0.00000000000E+00 0. -1.
     999901    1    3    3    0    0 -0.32600675849E-01 -0.92438012701E-01  0.54644738115E-01  0.88712661873E+00  0.88000000000E+00 0. -1.
        -11    1    4    4    0    0  0.43358813752E-01  0.71233228507E-01 -0.50318528924E-01  0.97398023838E-01  0.51100000000E-03 0.  1.
         11    1    4    4    0    0  0.38704036359E-02  0.30179829408E-01 -0.19793064820E-01  0.36301909913E-01  0.51100000000E-03 0. -1.
</event>
<event>
 8    1  0.1114686E+005  0.1043930E+01  0.7957747E-01            NaN
         13   -1    0    0    0    0  0.00000000000E+00  0.00000000000E+00  0.74505805969E-08  0.10566000000E+00  0.10566000000E+00 0. -1.
     999900   -1    0    0    0    0 -0.00000000000E+00 -0.00000000000E+00 -0.74505805969E-08  0.93827000000E+00  0.93827000000E+00 0.  1.
     999902    2    1    2    0    0  0.18876052336E-01  0.15630659901E-01 -0.70435677893E-03  0.10194122717E+01  0.10191173930E+01 0.  0.
     999903    2    3    3    0    0  0.52758317773E-01  0.11138037932E+00  0.44279181456E-01  0.13242888103E+00  0.19690952950E-01 0.  0.
         14    1    1    2    0    0 -0.18876052336E-01 -0.15630659901E-01  0.70435677893E-03  0.24517728263E-01  0.00000000000E+00 0. -1.
     999901    1    3    3    0    0 -0.33882265437E-01 -0.95749719421E-01 -0.44983538234E-01  0.88698339071E+00  0.88000000000E+00 0.  1.
        -11    1    4    4    0    0  0.15413558730E-01  0.41331650787E-01  0.25121895509E-01  0.50766661348E-01  0.51100000000E-03 0. -1.
         11    1    4    4    0    0  0.37344759042E-01  0.70048728535E-01  0.19157285947E-01  0.81662219680E-01  0.51100000000E-03 0.  1.
</event>
<event>
 8    1  0.1114686E+005  0.1043930E+01  0.7957747E-01            NaN
         13   -1    0    0    0    0  0.00000000000E+00  0.00000000000E+00  0.74505805969E-08  0.10566000000E+00  0.10566000000E+00 0.  1.
     999900   -1    0    0    0    0 -0.00000000000E+00 -0.00000000000E+00 -0.74505805969E-08  0.93827000000E+00  0.93827000000E+00 0.  1.
     999902    2    1    2    0    0  0.13669759352E-01  0.18769856069E-01 -0.14449433391E-02  0.10206650547E+01  0.10203998708E+01 0.  0.
     999903    2    3    3    0    0 -0.41982419607E-01 -0.78493093991E-01  0.90884492115E-01  0.12876709468E+00  0.19931994496E-01 0.  0.
         14    1    1    2    0    0 -0.13669759352E-01 -0.18769856069E-01  0.14449433391E-02  0.23264945279E-01  0.00000000000E+00 0.  1.
     999901    1    3    3    0    0  0.55652178958E-01  0.97262950060E-01 -0.92329435454E-01  0.89189796004E+00  0.88000000000E+00 0.  1.
        -11    1    4    4    0    0 -0.16431212645E-01 -0.26913701546E-01  0.19555762358E-01  0.37108234158E-01  0.51100000000E-03 0.  1.
         11    1    4    4    0    0 -0.25551206962E-01 -0.51579392445E-01  0.71328729757E-01  0.91658860520E-01  0.51100000000E-03 0. -1.
</event>
<event>
 8    1  0.1114686E+005  0.1043930E+01  0.7957747E-01            NaN
         13   -1    0    0    0    0  0.00000000000E+00  0.00000000000E+00  0.74505805969E-08  0.10566000000E+00  0.10566000000E+00 0. -1.
     999900   -1    0    0    0    0 -0.00000000000E+00 -0.00000000000E+00 -0.74505805969E-08  0.93827000000E+00  0.93827000000E+00 0.  1.
     999902    2    1    2    0    0  0.25254371567E-01 -0.11431242126E-01  0.79702524165E-02  0.10150859104E+01  0.10146760192E+01 0.  0.
     999903    2    3    3    0    0  0.81287867370E-01  0.93334492132E-01 -0.19074895594E-01  0.12669013615E+00  0.19170136974E-01 0.  0.
         14    1    1    2    0    0 -0.25254371567E-01  0.11431242126E-01 -0.79702524165E-02  0.28844089575E-01  0.00000000000E+00 0.  1.
     999901    1    3    3    0    0 -0.56033495803E-01 -0.10476573426E+00  0.27045148010E-01  0.88839577428E+00  0.88000000000E+00 0. -1.
        -11    1    4    4    0    0  0.37100244782E-01  0.36419932924E-01 -0.16653534146E-01  0.54593415332E-01  0.51100000000E-03 0.  1.
         11    1    4    4    0    0  0.44187622588E-01  0.56914559208E-01 -0.24213614479E-02  0.72096720814E-01  0.51100000000E-03 0. -1.
</event>
<event>
 8    1  0.1114686E+005  0.1043930E+01  0.7957747E-01            NaN
         13   -1    0    0    0    0  0.00000000000E+00  0.00000000000E+00  0.74505805969E-08  0.10566000000E+00  0.10566000000E+00 0. -1.
     999900   -1    0    0    0    0 -0.00000000000E+00 -0.00000000000E+00 -0.74505805969E-08  0.93827000000E+00  0.93827000000E+00 0.  1.
     999902    2    1    2    0    0  0.17825127581E-01  0.10705610999E-01 -0.10662700467E-01  0.10205625341E+01  0.10202949807E+01 0.  0.
     999903    2    3    3    0    0 -0.29530117618E-01  0.93440024852E-01  0.83730140306E-01  0.13039540888E+00  0.19727142970E-01 0.  0.
         14    1    1    2    0    0 -0.17825127581E-01 -0.10705610999E-01  0.10662700467E-01  0.23367465874E-01  0.00000000000E+00 0.  1.
     999901    1    3    3    0    0  0.47355245199E-01 -0.82734413853E-01 -0.94392840774E-01  0.89016712525E+00  0.88000000000E+00 0.  1.
        -11    1    4    4    0    0 -0.16822104927E-01  0.68048797711E-01  0.69176777250E-01  0.98485073569E-01  0.51100000000E-03 0. -1.
         11    1    4    4    0    0 -0.12708012691E-01  0.25391227141E-01  0.14553363056E-01  0.31910335309E-01  0.51100000000E-03 0.  1.
</event>
<event>
 8    1  0.1114686E+005  0.1043930E+01  0.7957747E-01            NaN
         13   -1    0    0    0    0  0.00000000000E+00  0.00000000000E+00  0.74505805969E-08  0.10566000000E+00  0.10566000000E+00 0. -1.
     999900   -1    0    0    0    0 -0.00000000000E+00 -0.00000000000E+00 -0.74505805969E-08  0.93827000000E+00  0.93827000000E+00 0. -1.
     999902    2    1    2    0    0 -0.57583476708E-02 -0.54494374463E-03  0.23240908679E-01  0.10199801489E+01  0.10196989305E+01 0.  0.
     999903    2    3    3    0    0 -0.41430604611E-01  0.60976413369E-01  0.10874270683E+00  0.13298074372E+00  0.20598153483E-01 0.  0.
         14    1    1    2    0    0  0.57583476708E-02  0.54494374463E-03 -0.23240908679E-01  0.23949851102E-01  0.00000000000E+00 0.  1.
     999901    1    3    3    0    0  0.35672256941E-01 -0.61521357113E-01 -0.85501798148E-01  0.88699940518E+00  0.88000000000E+00 0. -1.
        -11    1    4    4    0    0 -0.17332473609E-01  0.36780293981E-01  0.72886761154E-01  0.83462241398E-01  0.51100000000E-03 0. -1.
         11    1    4    4    0    0 -0.24098131002E-01  0.24196119387E-01  0.35855945674E-01  0.49518502323E-01  0.51100000000E-03 0.  1.
</event>
<event>
 8    1  0.1114686E+005  0.1043930E+01  0.7957747E-01            NaN
         13   -1    0    0    0    0  0.00000000000E+00  0.00000000000E+00  0.74505805969E-08  0.10566000000E+00  0.10566000000E+00 0.  1.
     999900   -1    0    0    0    0 -0.00000000000E+00 -0.00000000000E+00 -0.74505805969E-08  0.93827000000E+00  0.93827000000E+00 0. -1.
     999902    2    1    2    0    0  0.25403139814E-02  0.12339304856E-01 -0.19742730707E-01  0.10205101995E+01  0.10202414323E+01 0.  0.
     999903    2    3    3    0    0 -0.78109019205E-01 -0.64996435913E-01 -0.80751397398E-01  0.13134925279E+00  0.20156449718E-01 0.  0.
         14    1    1    2    0    0 -0.25403139814E-02 -0.12339304856E-01  0.19742730707E-01  0.23419800495E-01  0.00000000000E+00 0.  1.
     999901    1    3    3    0    0  0.80649333187E-01  0.77335740769E-01  0.61008666691E-01  0.88916094671E+00  0.88000000000E+00 0.  1.
        -11    1    4    4    0    0 -0.50324826327E-01 -0.29151103097E-01 -0.42821637398E-01  0.72224155980E-01  0.51100000000E-03 0.  1.
         11    1    4    4    0    0 -0.27784192878E-01 -0.35845332816E-01 -0.37929760001E-01  0.59125096814E-01  0.51100000000E-03 0. -1.
</event>
<event>
 8    1  0.1114686E+005  0.1043930E+01  0.7957747E-01            NaN
         13   -1    0    0    0    0  0.00000000000E+00  0.00000000000E+00  0.74505805969E-08  0.10566000000E+00  0.10566000000E+00 0.  1.
     999900   -1    0    0    0    0 -0.00000000000E+00 -0.00000000000E+00 -0.74505805969E-08  0.93827000000E+00  0.93827000000E+00 0. -1.
     999902    2    1    2    0    0  0.23332274692E-01  0.18434496768E-03 -0.32222296887E-02  0.10203755569E+01  0.10201036542E+01 0.  0.
     999903    2    3    3    0    0  0.76393597351E-01 -0.10156614845E+00  0.30717718320E-01  0.13227613288E+00  0.20043275290E-01 0.  0.
         14    1    1    2    0    0 -0.23332274692E-01 -0.18434496768E-03  0.32222296887E-02  0.23554443095E-01  0.00000000000E+00 0.  1.
     999901    1    3    3    0    0 -0.53061322659E-01  0.10175049342E+00 -0.33939948009E-01  0.88809942402E+00  0.88000000000E+00 0. -1.
        -11    1    4    4    0    0  0.40809501605E-01 -0.42478739007E-01  0.69361093513E-02  0.59314664484E-01  0.51100000000E-03 0.  1.
         11    1    4    4    0    0  0.35584095745E-01 -0.59087409446E-01  0.23781608969E-01  0.72961468401E-01  0.51100000000E-03 0. -1.
</event>
<event>
 8    1  0.1114686E+005  0.1043930E+01  0.7957747E-01            NaN
         13   -1    0    0    0    0  0.00000000000E+00  0.00000000000E+00  0.74505805969E-08  0.10566000000E+00  0.10566000000E+00 0.  1.
     999900   -1    0    0    0    0 -0.00000000000E+00 -0.00000000000E+00 -0.74505805969E-08  0.93827000000E+00  0.93827000000E+00 0.  1.
     999902    2    1    2    0    0  0.87004625980E-03 -0.92947445244E-02 -0.21320884607E-01  0.10206549194E+01  0.10203895017E+01 0.  0.
     999903    2    3    3    0    0  0.11014972545E+00  0.37891373028E-01 -0.58546851510E-01  0.13186115785E+00  0.19771518902E-01 0.  0.
         14    1    1    2    0    0 -0.87004625980E-03  0.92947445244E-02  0.21320884607E-01  0.23275080594E-01  0.00000000000E+00 0.  1.
     999901    1    3    3    0    0 -0.10927967919E+00 -0.47186117552E-01  0.37225966904E-01  0.88879376156E+00  0.88000000000E+00 0. -1.
        -11    1    4    4    0    0  0.55320578146E-01  0.27278633363E-01 -0.23979016408E-01  0.66179638511E-01  0.51100000000E-03 0.  1.
         11    1    4    4    0    0  0.54829147307E-01  0.10612739665E-01 -0.34567835103E-01  0.65681519336E-01  0.51100000000E-03 0. -1.
</event>
<event>
 8    1  0.1114686E+005  0.1043930E+01  0.7957747E-01            NaN
         13   -1    0    0    0    0  0.00000000000E+00  0.00000000000E+00  0.74505805969E-08  0.10566000000E+00  0.10566000000E+00 0.  1.
     999900   -1    0    0    0    0 -0.00000000000E+00 -0.00000000000E+00 -0.74505805969E-08  0.93827000000E+00  0.93827000000E+00 0.  1.
     999902    2    1    2    0    0  0.41179799139E-02 -0.23314827649E-01  0.87437686331E-03  0.10202381558E+01  0.10199630342E+01 0.  0.
     999903    2    3    3    0    0  0.57465401370E-01 -0.84210329443E-01  0.82711721982E-01  0.13274079773E+00  0.19627493213E-01 0.  0.
         14    1    1    2    0    0 -0.41179799139E-02  0.23314827649E-01 -0.87437686331E-03  0.23691844204E-01  0.00000000000E+00 0. -1.
     999901    1    3    3    0    0 -0.53347421456E-01  0.60895501794E-01 -0.81837345119E-01  0.88749735806E+00  0.88000000000E+00 0. -1.
        -11    1    4    4    0    0  0.37974672622E-01 -0.65555227495E-01  0.68995020585E-01  0.10247017907E+00  0.51100000000E-03 0. -1.
         11    1    4    4    0    0  0.19490728747E-01 -0.18655101948E-01  0.13716701397E-01  0.30270618659E-01  0.51100000000E-03 0.  1.
</event>
<event>
 8    1  0.1114686E+005  0.1043930E+01  0.7957747E-01            NaN
         13   -1    0    0    0    0  0.00000000000E+00  0.00000000000E+00  0.74505805969E-08  0.10566000000E+00  0.10566000000E+00 0.  1.
     999900   -1    0    0    0    0 -0.00000000000E+00 -0.00000000000E+00 -0.74505805969E-08  0.93827000000E+00  0.93827000000E+00 0. -1.
     999902    2    1    2    0    0  0.17013110332E-01 -0.14396347645E-01 -0.89719366390E-02  0.10199050880E+01  0.10196220830E+01 0.  0.
     999903    2    3    3    0    0  0.95744734829E-01 -0.54770255327E-01  0.69580644220E-01  0.13198660692E+00  0.20301803857E-01 0.  0.
         14    1    1    2    0    0 -0.17013110332E-01  0.14396347645E-01  0.89719366390E-02  0.24024911982E-01  0.00000000000E+00 0. -1.
     999901    1    3    3    0    0 -0.78731624497E-01  0.40373907682E-01 -0.78552580859E-01  0.88791848110E+00  0.88000000000E+00 0. -1.
        -11    1    4    4    0    0  0.39722127300E-01 -0.33231926585E-01  0.37374560258E-01  0.63869611063E-01  0.51100000000E-03 0. -1.
         11    1    4    4    0    0  0.56022607529E-01 -0.21538328742E-01  0.32206083962E-01  0.68116995856E-01  0.51100000000E-03 0.  1.
</event>
<event>
 8    1  0.1114686E+005  0.1043930E+01  0.7957747E-01            NaN
         13   -1    0    0    0    0  0.00000000000E+00  0.00000000000E+00  0.74505805969E-08  0.10566000000E+00  0.10566000000E+00 0.  1.
     999900   -1    0    0    0    0 -0.00000000000E+00 -0.00000000000E+00 -0.74505805969E-08  0.93827000000E+00  0.93827000000E+00 0.  1.
     999902    2    1    2    0    0 -0.16796015678E-01  0.23045186943E-01  0.16044440903E-01  0.10112098095E+01  0.10106802996E+01 0.  0.
     999903    2    3    3    0    0 -0.91532352161E-01  0.61432603198E-02  0.82911436121E-01  0.12535294171E+00  0.20570430651E-01 0.  0.
         14    1    1    2    0    0  0.16796015678E-01 -0.23045186943E-01 -0.16044440903E-01  0.32720190522E-01  0.00000000000E+00 0. -1.
     999901    1    3    3    0    0  0.74736336483E-01  0.16901926624E-01 -0.66866995218E-01  0.88585686776E+00  0.88000000000E+00 0.  1.
        -11    1    4    4    0    0 -0.11434761900E-01 -0.14472933883E-02  0.20510000494E-01  0.23532311386E-01  0.51100000000E-03 0.  1.
         11    1    4    4    0    0 -0.80097590261E-01  0.75905537081E-02  0.62401435627E-01  0.10182063033E+00  0.51100000000E-03 0. -1.
</event>
<event>
 8    1  0.1114686E+005  0.1043930E+01  0.7957747E-01            NaN
         13   -1    0    0    0    0  0.00000000000E+00  0.00000000000E+00  0.74505805969E-08  0.10566000000E+00  0.10566000000E+00 0. -1.
     999900   -1    0    0    0    0 -0.00000000000E+00 -0.00000000000E+00 -0.74505805969E-08  0.93827000000E+00  0.93827000000E+00 0. -1.
     999902    2    1    2    0    0 -0.17599713688E-01  0.82630559996E-02  0.13630172022E-01  0.10201853247E+01  0.10199089602E+01 0.  0.
     999903    2    3    3    0    0 -0.81965956784E-01 -0.47768411175E-01  0.90634503013E-01  0.13271013881E+00  0.19928086406E-01 0.  0.
         14    1    1    2    0    0  0.17599713688E-01 -0.82630559996E-02 -0.13630172022E-01  0.23744675313E-01  0.00000000000E+00 0.  1.
     999901    1    3    3    0    0  0.64366243096E-01  0.56031467175E-01 -0.77004330991E-01  0.88747518588E+00  0.88000000000E+00 0.  1.
        -11    1    4    4    0    0 -0.52961182902E-01 -0.27524721636E-01  0.43885208848E-01  0.74085557784E-01  0.51100000000E-03 0.  1.
         11    1    4    4    0    0 -0.29004773882E-01 -0.20243689539E-01  0.46749294164E-01  0.58624581022E-01  0.51100000000E-03 0. -1.
</event>
<event>
 8    1  0.1114686E+005  0.1043930E+01  0.7957747E-01            NaN
         13   -1    0    0    0    0  0.00000000000E+00  0.00000000000E+00  0.74505805969E-08  0.10566000000E+00  0.10566000000E+00 0.  1.
     999900   -1    0    0    0    0 -0.00000000000E+00 -0.00000000000E+00 -0.74505805969E-08  0.93827000000E+00  0.93827000000E+00 0. -1.
     999902    2    1    2    0    0  0.14565428591E-01  0.79838299947E-02  0.16632407958E-01  0.10204240381E+01  0.10201532665E+01 0.  0.
     999903    2    3    3    0    0  0.68293599163E-01  0.83237973444E-01  0.76747855936E-01  0.13353973361E+00  0.18709654004E-01 0.  0.
         14    1    1    2    0    0 -0.14565428591E-01 -0.79838299947E-02 -0.16632407958E-01  0.23505961923E-01  0.00000000000E+00 0. -1.
     999901    1    3    3    0    0 -0.53728170572E-01 -0.75254143449E-01 -0.60115447978E-01  0.88688430446E+00  0.88000000000E+00 0. -1.
        -11    1    4    4    0    0  0.62822854749E-01  0.75498983038E-01  0.75669180484E-01  0.12398747322E+00  0.51100000000E-03 0.  1.
         11    1    4    4    0    0  0.54707444138E-02  0.77389904061E-02  0.10786754524E-02  0.95522603963E-02  0.51100000000E-03 0. -1.
</event>
<event>
 8    1  0.1114686E+005  0.1043930E+01  0.7957747E-01            NaN
         13   -1    0    0    0    0  0.00000000000E+00  0.00000000000E+00  0.74505805969E-08  0.10566000000E+00  0.10566000000E+00 0. -1.
     999900   -1    0    0    0    0 -0.00000000000E+00 -0.00000000000E+00 -0.74505805969E-08  0.93827000000E+00  0.93827000000E+00 0.  1.
     999902    2    1    2    0    0  0.15132729503E-01 -0.27289037880E-02  0.17674103865E-01  0.10205030846E+01  0.10202341522E+01 0.  0.
     999903    2    3    3    0    0  0.68843479912E-01  0.45611514684E-02 -0.10823882381E+00  0.12988978188E+00  0.19886770187E-01 0.  0.
         14    1    1    2    0    0 -0.15132729503E-01  0.27289037880E-02 -0.17674103865E-01  0.23426915408E-01  0.00000000000E+00 0.  1.
     999901    1    3    3    0    0 -0.53710750409E-01 -0.72900552565E-02  0.12591292767E+00  0.89061330271E+00  0.88000000000E+00 0. -1.
        -11    1    4    4    0    0  0.99896298440E-02 -0.31518209822E-02 -0.29318883259E-01  0.31138155316E-01  0.51100000000E-03 0.  1.
         11    1    4    4    0    0  0.58853850068E-01  0.77129724507E-02 -0.78919940547E-01  0.98751626563E-01  0.51100000000E-03 0. -1.
</event>
<event>
 8    1  0.1114686E+005  0.1043930E+01  0.7957747E-01            NaN
         13   -1    0    0    0    0  0.00000000000E+00  0.00000000000E+00  0.74505805969E-08  0.10566000000E+00  0.10566000000E+00 0. -1.
     999900   -1    0    0    0    0 -0.00000000000E+00 -0.00000000000E+00 -0.74505805969E-08  0.93827000000E+00  0.93827000000E+00 0. -1.
     999902    2    1    2    0    0  0.10047922777E-01  0.15330780343E-01  0.14487727676E-01  0.10205657574E+01  0.10202982786E+01 0.  0.
     999903    2    3    3    0    0  0.10786206332E+00  0.42690783517E-01 -0.59243196913E-01  0.13166057401E+00  0.19183916877E-01 0.  0.
         14    1    1    2    0    0 -0.10047922777E-01 -0.15330780343E-01 -0.14487727676E-01  0.23364242579E-01  0.00000000000E+00 0.  1.
     999901    1    3    3    0    0 -0.97814140539E-01 -0.27360003174E-01  0.73730924590E-01  0.88890518342E+00  0.88000000000E+00 0. -1.
        -11    1    4    4    0    0  0.76753634389E-01  0.34830284507E-01 -0.51044007293E-01  0.98539438360E-01  0.51100000000E-03 0. -1.
         11    1    4    4    0    0  0.31108428927E-01  0.78604990098E-02 -0.81991896206E-02  0.33121135645E-01  0.51100000000E-03 0.  1.
</event>
<event>
 8    1  0.1114686E+005  0.1043930E+01  0.7957747E-01            NaN
         13   -1    0    0    0    0  0.00000000000E+00  0.00000000000E+00  0.74505805969E-08  0.10566000000E+00  0.10566000000E+00 0.  1.
     999900   -1    0    0    0    0 -0.00000000000E+00 -0.00000000000E+00 -0.74505805969E-08  0.93827000000E+00  0.93827000000E+00 0. -1.
     999902    2    1    2    0    0  0.79909662262E-02  0.21685217889E-01  0.26613034781E-02  0.10206665791E+01  0.10204014303E+01 0.  0.
     999903    2    3    3    0    0  0.80710732116E-02  0.74684903119E-01 -0.10695261382E+00  0.13228367521E+00  0.20423813224E-01 0.  0.
         14    1    1    2    0    0 -0.79909662262E-02 -0.21685217889E-01 -0.26613034781E-02  0.23263420908E-01  0.00000000000E+00 0.  1.
     999901    1    3    3    0    0 -0.80106985355E-04 -0.52999685230E-01  0.10961391730E+00  0.88838290389E+00  0.88000000000E+00 0.  1.
        -11    1    4    4    0    0 -0.65664390552E-02  0.14851022811E-01 -0.22469710246E-01  0.27727603574E-01  0.51100000000E-03 0. -1.
         11    1    4    4    0    0  0.14637512267E-01  0.59833880307E-01 -0.84482903573E-01  0.10455607163E+00  0.51100000000E-03 0.  1.
</event>
<event>
 8    1  0.1114686E+005  0.1043930E+01  0.7957747E-01            NaN
         13   -1    0    0    0    0  0.00000000000E+00  0.00000000000E+00  0.74505805969E-08  0.10566000000E+00  0.10566000000E+00 0. -1.
     999900   -1    0    0    0    0 -0.00000000000E+00 -0.00000000000E+00 -0.74505805969E-08  0.93827000000E+00  0.93827000000E+00 0. -1.
     999902    2    1    2    0    0  0.13355352332E-01 -0.17698748685E-02 -0.19428321041E-01  0.10202877169E+01  0.10200137586E+01 0.  0.
     999903    2    3    3    0    0  0.58750570644E-01  0.10863568114E+00 -0.42907988360E-01  0.13191763216E+00  0.17544954854E-01 0.  0.
         14    1    1    2    0    0 -0.13355352332E-01  0.17698748685E-02  0.19428321041E-01  0.23642283127E-01  0.00000000000E+00 0. -1.
     999901    1    3    3    0    0 -0.45395218312E-01 -0.11040555601E+00  0.23479667319E-01  0.88837008472E+00  0.88000000000E+00 0.  1.
        -11    1    4    4    0    0  0.26781715551E-01  0.32741563152E-01 -0.12231107244E-01  0.44035569156E-01  0.51100000000E-03 0.  1.
         11    1    4    4    0    0  0.31968855093E-01  0.75894117988E-01 -0.30676881116E-01  0.87882063000E-01  0.51100000000E-03 0. -1.
</event>
<event>
 8    1  0.1232133E+005  0.1043930E+01  0.7957747E-01            NaN
         13   -1    0    0    0    0  0.00000000000E+00  0.00000000000E+00  0.74505805969E-08  0.10566000000E+00  0.10566000000E+00 0. -1.
     999900   -1    0    0    0    0 -0.00000000000E+00 -0.00000000000E+00 -0.74505805969E-08  0.93827000000E+00  0.93827000000E+00 0.  1.
     999902    2    1    2    0    0  0.17665475620E-01 -0.89333765307E-02  0.11922306611E-01  0.10208212216E+01  0.10205596263E+01 0.  0.
     999903    2    3    3    0    0  0.65078077420E-01  0.59048155761E-01  0.95732615470E-01  0.13296221734E+00  0.28149186763E-01 0.  0.
         14    1    1    2    0    0 -0.17665475620E-01  0.89333765307E-02 -0.11922306611E-01  0.23108778420E-01  0.00000000000E+00 0.  1.
     999901    1    3    3    0    0 -0.47412601800E-01 -0.67981532291E-01 -0.83810308859E-01  0.88785900424E+00  0.88000000000E+00 0.  1.
        -11    1    4    4    0    0  0.74361763113E-02  0.20396999798E-01  0.32408834100E-01  0.39011895207E-01  0.51100000000E-03 0.  1.
         11    1    4    4    0    0  0.57641901109E-01  0.38651155963E-01  0.63323781370E-01  0.93950322132E-01  0.51100000000E-03 0. -1.
</event>
<event>
 8    1  0.1114686E+005  0.1043930E+01  0.7957747E-01            NaN
         13   -1    0    0    0    0  0.00000000000E+00  0.00000000000E+00  0.74505805969E-08  0.10566000000E+00  0.10566000000E+00 0.  1.
     999900   -1    0    0    0    0 -0.00000000000E+00 -0.00000000000E+00 -0.74505805969E-08  0.93827000000E+00  0.93827000000E+00 0. -1.
     999902    2    1    2    0    0 -0.47550851858E-02  0.21727140357E-01  0.79552702028E-02  0.10203087006E+01  0.10200352340E+01 0.  0.
     999903    2    3    3    0    0  0.18676151187E-03 -0.22542710291E-01 -0.12556002526E+00  0.12912377270E+00  0.19985496366E-01 0.  0.
         14    1    1    2    0    0  0.47550851858E-02 -0.21727140357E-01 -0.79552702028E-02  0.23621299440E-01  0.00000000000E+00 0. -1.
     999901    1    3    3    0    0 -0.49418466976E-02  0.44269850648E-01  0.13351529546E+00  0.89118492786E+00  0.88000000000E+00 0.  1.
        -11    1    4    4    0    0 -0.55671399871E-02 -0.21388449913E-01 -0.74092584215E-01  0.77320314239E-01  0.51100000000E-03 0. -1.
         11    1    4    4    0    0  0.57539014990E-02 -0.11542603783E-02 -0.51467441047E-01  0.51803458460E-01  0.51100000000E-03 0.  1.
</event>
<event>
 8    1  0.1114686E+005  0.1043930E+01  0.7957747E-01            NaN
         13   -1    0    0    0    0  0.00000000000E+00  0.00000000000E+00  0.74505805969E-08  0.10566000000E+00  0.10566000000E+00 0.  1.
     999900   -1    0    0    0    0 -0.00000000000E+00 -0.00000000000E+00 -0.74505805969E-08  0.93827000000E+00  0.93827000000E+00 0.  1.
     999902    2    1    2    0    0 -0.25760817213E-01  0.95816893145E-02  0.37687601592E-02  0.10161877574E+01  0.10158090008E+01 0.  0.
     999903    2    3    3    0    0 -0.10234614720E+00 -0.74876433083E-01 -0.10749126485E-01  0.12871423311E+00  0.19250870284E-01 0.  0.
         14    1    1    2    0    0  0.25760817213E-01 -0.95816893145E-02 -0.37687601592E-02  0.27742242641E-01  0.00000000000E+00 0.  1.
     999901    1    3    3    0    0  0.76585329989E-01  0.84458122398E-01  0.14517886644E-01  0.88747352425E+00  0.88000000000E+00 0.  1.
        -11    1    4    4    0    0 -0.44787883557E-01 -0.22408177592E-01  0.52659608495E-04  0.50083378785E-01  0.51100000000E-03 0.  1.
         11    1    4    4    0    0 -0.57558263645E-01 -0.52468255492E-01 -0.10801786094E-01  0.78630854326E-01  0.51100000000E-03 0. -1.
</event>
<event>
 8    1  0.1114686E+005  0.1043930E+01  0.7957747E-01            NaN
         13   -1    0    0    0    0  0.00000000000E+00  0.00000000000E+00  0.74505805969E-08  0.10566000000E+00  0.10566000000E+00 0.  1.
     999900   -1    0    0    0    0 -0.00000000000E+00 -0.00000000000E+00 -0.74505805969E-08  0.93827000000E+00  0.93827000000E+00 0. -1.
     999902    2    1    2    0    0 -0.13916541096E-01  0.19370530598E-03  0.19032113048E-01  0.10203518541E+01  0.10200793975E+01 0.  0.
     999903    2    3    3    0    0  0.35331154119E-01 -0.72589459574E-01 -0.97643706580E-01  0.12831151225E+00  0.20298538077E-01 0.  0.
         14    1    1    2    0    0  0.13916541096E-01 -0.19370530598E-03 -0.19032113048E-01  0.23578145917E-01  0.00000000000E+00 0. -1.
     999901    1    3    3    0    0 -0.49247695215E-01  0.72783164880E-01  0.11667581963E+00  0.89204034183E+00  0.88000000000E+00 0.  1.
        -11    1    4    4    0    0  0.30594545885E-01 -0.44012922576E-01 -0.55401304983E-01  0.77089099790E-01  0.51100000000E-03 0. -1.
         11    1    4    4    0    0  0.47366082346E-02 -0.28576536998E-01 -0.42242401598E-01  0.51222412459E-01  0.51100000000E-03 0.  1.
</event>
<event>
 8    1  0.1114686E+005  0.1043930E+01  0.7957747E-01            NaN
         13   -1    0    0    0    0  0.00000000000E+00  0.00000000000E+00  0.74505805969E-08  0.10566000000E+00  0.10566000000E+00 0.  1.
     999900   -1    0    0    0    0 -0.00000000000E+00 -0.00000000000E+00 -0.74505805969E-08  0.93827000000E+00  0.93827000000E+00 0. -1.
     999902    2    1    2    0    0 -0.13924280194E-01  0.10275119253E-01 -0.15557360651E-01  0.10206599522E+01  0.10203946506E+01 0.  0.
     999903    2    3    3    0    0  0.84242953774E-01 -0.29405827550E-01  0.89634756112E-01  0.12809243945E+00  0.20290529501E-01 0.  0.
         14    1    1    2    0    0  0.13924280194E-01 -0.10275119253E-01  0.15557360651E-01  0.23270047809E-01  0.00000000000E+00 0. -1.
     999901    1    3    3    0    0 -0.98167233969E-01  0.39680946803E-01 -0.10519211676E+00  0.89256751274E+00  0.88000000000E+00 0. -1.
        -11    1    4    4    0    0  0.58144785833E-01 -0.15858358649E-01  0.47647572197E-01  0.76830045658E-01  0.51100000000E-03 0.  1.
         11    1    4    4    0    0  0.26098167942E-01 -0.13547468901E-01  0.41987183915E-01  0.51262393796E-01  0.51100000000E-03 0. -1.
</event>
<event>
 8    1  0.1114686E+005  0.1043930E+01  0.7957747E-01            NaN
         13   -1    0    0    0    0  0.00000000000E+00  0.00000000000E+00  0.74505805969E-08  0.10566000000E+00  0.10566000000E+00 0. -1.
     999900   -1    0    0    0    0 -0.00000000000E+00 -0.00000000000E+00 -0.74505805969E-08  0.93827000000E+00  0.93827000000E+00 0.  1.
     999902    2    1    2    0    0 -0.23494811419E-02  0.24321577162E-01  0.18350153007E-01  0.10133720666E+01  0.10129112291E+01 0.  0.
     999903    2    3    3    0    0  0.10935753708E+00  0.57970736395E-01 -0.60000097472E-02  0.12533847814E+00  0.18816396868E-01 0.  0.
         14    1    1    2    0    0  0.23494811419E-02 -0.24321577162E-01 -0.18350153007E-01  0.30557933383E-01  0.00000000000E+00 0. -1.
     999901    1    3    3    0    0 -0.11170701822E+00 -0.33649159233E-01  0.24350162754E-01  0.88803358848E+00  0.88000000000E+00 0. -1.
        -11    1    4    4    0    0  0.79562343078E-01  0.42160650098E-01 -0.12730878501E-01  0.90939668139E-01  0.51100000000E-03 0. -1.
         11    1    4    4    0    0  0.29795194002E-01  0.15810086297E-01  0.67308687535E-02  0.34398810001E-01  0.51100000000E-03 0.  1.
</event>
<event>
 8    1  0.1114686E+005  0.1043930E+01  0.7957747E-01            NaN
         13   -1    0    0    0    0  0.00000000000E+00  0.00000000000E+00  0.74505805969E-08  0.10566000000E+00  0.10566000000E+00 0. -1.
     999900   -1    0    0    0    0 -0.00000000000E+00 -0.00000000000E+00 -0.74505805969E-08  0.93827000000E+00  0.93827000000E+00 0. -1.
     999902    2    1    2    0    0  0.10802445852E-01  0.17408929476E-01 -0.11484072258E-01  0.10204428210E+01  0.10201724871E+01 0.  0.
     999903    2    3    3    0    0 -0.51125987124E-01 -0.30369613848E-01 -0.11494538495E+00  0.13093612443E+00  0.19890881203E-01 0.  0.
         14    1    1    2    0    0 -0.10802445852E-01 -0.17408929476E-01  0.11484072258E-01  0.23487179003E-01  0.00000000000E+00 0. -1.
     999901    1    3    3    0    0  0.61928432975E-01  0.47778543324E-01  0.10346131269E+00  0.88950669657E+00  0.88000000000E+00 0.  1.
        -11    1    4    4    0    0 -0.11276886035E-01 -0.40959585067E-02 -0.99342116026E-02  0.15585079913E-01  0.51100000000E-03 0.  1.
         11    1    4    4    0    0 -0.39849101089E-01 -0.26273655341E-01 -0.10501117335E+00  0.11535104452E+00  0.51100000000E-03 0. -1.
</event>
<event>
 8    1  0.1114686E+005  0.1043930E+01  0.7957747E-01            NaN
         13   -1    0    0    0    0  0.00000000000E+00  0.00000000000E+00  0.74505805969E-08  0.10566000000E+00  0.10566000000E+00 0.  1.
     999900   -1    0    0    0    0 -0.00000000000E+00 -0.00000000000E+00 -0.74505805969E-08  0.93827000000E+00  0.93827000000E+00 0. -1.
     999902    2    1    2    0    0  0.13127692052E-01  0.17079800093E-01 -0.96214990789E-02  0.10203370113E+01  0.10200642076E+01 0.  0.
     999903    2    3    3    0    0  0.82801452166E-01  0.16951698369E-01  0.98107418487E-01  0.13103393086E+00  0.20034592969E-01 0.  0.
         14    1    1    2    0    0 -0.13127692052E-01 -0.17079800093E-01  0.96214990789E-02  0.23592988669E-01  0.00000000000E+00 0.  1.
     999901    1    3    3    0    0 -0.69673760114E-01  0.12810172362E-03 -0.10772891757E+00  0.88930308047E+00  0.88000000000E+00 0. -1.
        -11    1    4    4    0    0  0.17382389552E-01  0.12241191893E-01  0.24579728534E-01  0.32502590994E-01  0.51100000000E-03 0.  1.
         11    1    4    4    0    0  0.65419062614E-01  0.47105064759E-02  0.73527689953E-01  0.98531339864E-01  0.51100000000E-03 0. -1.
</event>
<event>
 7    1  0.1114686E+005  0.1043930E+01  0.7957747E-01            NaN
         13   -1    0    0    0    0  0.00000000000E+00  0.00000000000E+00  0.74505805969E-08  0.10566000000E+00  0.10566000000E+00 0. -1.
     999900   -1    0    0    0    0 -0.00000000000E+00 -0.00000000000E+00 -0.74505805969E-08  0.93827000000E+00  0.93827000000E+00 0. -1.
     999903    2    1    2    0    0 -0.88115781781E-01 -0.41815769447E-01 -0.27245879429E-01  0.10312098009E+00  0.19458905829E-01 0.  0.
         14    1    1    2    0    0  0.38551107729E-01  0.43535656577E-01 -0.80534698133E-02  0.58706044636E-01  0.00000000000E+00 0.  1.
     999901    1    1    2    0    0  0.49564674053E-01 -0.17198871301E-02  0.35299349243E-01  0.88210297527E+00  0.88000000000E+00 0.  1.
        -11    1    3    3    0    0 -0.47009252437E-01 -0.11558476051E-01 -0.13152769616E-01  0.50166967746E-01  0.51100000000E-03 0.  1.
         11    1    3    3    0    0 -0.41106529345E-01 -0.30257293396E-01 -0.14093109813E-01  0.52954012347E-01  0.51100000000E-03 0. -1.
</event>
<event>
 8    1  0.1114686E+005  0.1043930E+01  0.7957747E-01            NaN
         13   -1    0    0    0    0  0.00000000000E+00  0.00000000000E+00  0.74505805969E-08  0.10566000000E+00  0.10566000000E+00 0. -1.
     999900   -1    0    0    0    0 -0.00000000000E+00 -0.00000000000E+00 -0.74505805969E-08  0.93827000000E+00  0.93827000000E+00 0. -1.
     999902    2    1    2    0    0  0.11396947739E-01 -0.16381267805E-01 -0.10853991345E-01  0.10212133655E+01  0.10209606714E+01 0.  0.
     999903    2    3    3    0    0  0.11850755161E-01  0.40998457228E-01  0.12076018997E+00  0.12957726741E+00  0.19645122923E-01 0.  0.
         14    1    1    2    0    0 -0.11396947739E-01  0.16381267805E-01  0.10853991345E-01  0.22716634451E-01  0.00000000000E+00 0.  1.
     999901    1    3    3    0    0 -0.45380742183E-03 -0.57379725034E-01 -0.13161418131E+00  0.89163609814E+00  0.88000000000E+00 0.  1.
        -11    1    4    4    0    0  0.13661013158E-01  0.36690066870E-01  0.85913619154E-01  0.94415016627E-01  0.51100000000E-03 0. -1.
         11    1    4    4    0    0 -0.18102579963E-02  0.43083903581E-02  0.34846570814E-01  0.35162250781E-01  0.51100000000E-03 0.  1.
</event>
<event>
 8    1  0.1114686E+005  0.1043930E+01  0.7957747E-01            NaN
         13   -1    0    0    0    0  0.00000000000E+00  0.00000000000E+00  0.74505805969E-08  0.10566000000E+00  0.10566000000E+00 0.  1.
     999900   -1    0    0    0    0 -0.00000000000E+00 -0.00000000000E+00 -0.74505805969E-08  0.93827000000E+00  0.93827000000E+00 0.  1.
     999902    2    1    2    0    0 -0.23317062758E-01  0.12527309815E-01  0.74229452004E-02  0.10164396558E+01  0.10160678397E+01 0.  0.
     999903    2    3    3    0    0 -0.12511416489E+00 -0.24582542592E-01 -0.12539289989E-01  0.12956972062E+00  0.19318981676E-01 0.  0.
         14    1    1    2    0    0  0.23317062758E-01 -0.12527309815E-01 -0.74229452004E-02  0.27490344166E-01  0.00000000000E+00 0. -1.
     999901    1    3    3    0    0  0.10179710213E+00  0.37109852407E-01  0.19962235190E-01  0.88686993521E+00  0.88000000000E+00 0.  1.
        -11    1    4    4    0    0 -0.62404228289E-01 -0.24615942666E-02 -0.53716863128E-02  0.62685431238E-01  0.51100000000E-03 0.  1.
         11    1    4    4    0    0 -0.62709936599E-01 -0.22120948325E-01 -0.71676036766E-02  0.66884289385E-01  0.51100000000E-03 0. -1.
</event>
<event>
 8    1  0.1114686E+005  0.1043930E+01  0.7957747E-01            NaN
         13   -1    0    0    0    0  0.00000000000E+00  0.00000000000E+00  0.74505805969E-08  0.10566000000E+00  0.10566000000E+00 0.  1.
     999900   -1    0    0    0    0 -0.00000000000E+00 -0.00000000000E+00 -0.74505805969E-08  0.93827000000E+00  0.93827000000E+00 0. -1.
     999902    2    1    2    0    0 -0.10019961487E-01 -0.17732576408E-01  0.11954542328E-01  0.10203131633E+01  0.10200398013E+01 0.  0.
     999903    2    3    3    0    0  0.58438286829E-01 -0.70111402065E-01 -0.91239391424E-01  0.13010023308E+00  0.16456063699E-01 0.  0.
         14    1    1    2    0    0  0.10019961487E-01  0.17732576408E-01 -0.11954542328E-01  0.23616836717E-01  0.00000000000E+00 0. -1.
     999901    1    3    3    0    0 -0.68458248316E-01  0.52378825657E-01  0.10319393375E+00  0.89021293020E+00  0.88000000000E+00 0. -1.
        -11    1    4    4    0    0  0.14149276769E-01 -0.89449880062E-02 -0.21960049138E-01  0.27617380807E-01  0.51100000000E-03 0.  1.
         11    1    4    4    0    0  0.44289010060E-01 -0.61166414059E-01 -0.69279342286E-01  0.10248285227E+00  0.51100000000E-03 0. -1.
</event>
<event>
 8    1  0.1114686E+005  0.1043930E+01  0.7957747E-01            NaN
         13   -1    0    0    0    0  0.00000000000E+00  0.00000000000E+00  0.74505805969E-08  0.10566000000E+00  0.10566000000E+00 0.  1.
     999900   -1    0    0    0    0 -0.00000000000E+00 -0.00000000000E+00 -0.74505805969E-08  0.93827000000E+00  0.93827000000E+00 0. -1.
     999902    2    1    2    0    0  0.13667165575E-01 -0.15432816634E-01  0.12649761418E-01  0.10197436462E+01  0.10194567790E+01 0.  0.
     999903    2    3    3    0    0 -0.63877244724E-02  0.35685349473E-01 -0.12104479734E+00  0.12795359216E+00  0.20150225624E-01 0.  0.
         14    1    1    2    0    0 -0.13667165575E-01  0.15432816634E-01 -0.12649761418E-01  0.24186353757E-01  0.00000000000E+00 0. -1.
     999901    1    3    3    0    0  0.20054890047E-01 -0.51118166107E-01  0.13369455876E+00  0.89179005408E+00  0.88000000000E+00 0.  1.
        -11    1    4    4    0    0  0.24533333900E-02  0.17390615269E-01 -0.30902956404E-01  0.35548645258E-01  0.51100000000E-03 0.  1.
         11    1    4    4    0    0 -0.88410578625E-02  0.18294734204E-01 -0.90141840935E-01  0.92404946902E-01  0.51100000000E-03 0. -1.
</event>
<event>
 8    1  0.1114686E+005  0.1043930E+01  0.7957747E-01            NaN
         13   -1    0    0    0    0  0.00000000000E+00  0.00000000000E+00  0.74505805969E-08  0.10566000000E+00  0.10566000000E+00 0.  1.
     999900   -1    0    0    0    0 -0.00000000000E+00 -0.00000000000E+00 -0.74505805969E-08  0.93827000000E+00  0.93827000000E+00 0. -1.
     999902    2    1    2    0    0  0.21244452323E-01  0.10570256611E-01  0.27290570226E-02  0.10200447570E+01  0.10197650717E+01 0.  0.
     999903    2    3    3    0    0  0.16799697974E-01 -0.48137351052E-01 -0.11778054381E+00  0.12988246681E+00  0.19944028320E-01 0.  0.
         14    1    1    2    0    0 -0.21244452323E-01 -0.10570256611E-01 -0.27290570226E-02  0.23885242966E-01  0.00000000000E+00 0.  1.
     999901    1    3    3    0    0  0.44447543488E-02  0.58707607664E-01  0.12050960084E+00  0.89016229022E+00  0.88000000000E+00 0.  1.
        -11    1    4    4    0    0  0.20938808016E-01 -0.34699824069E-01 -0.91423573225E-01  0.10000521153E+00  0.51100000000E-03 0. -1.
         11    1    4    4    0    0 -0.41391100415E-02 -0.13437526983E-01 -0.26356970589E-01  0.29877255279E-01  0.51100000000E-03 0.  1.
</event>
<event>
 8    1  0.1114686E+005  0.1043930E+01  0.7957747E-01            NaN
         13   -1    0    0    0    0  0.00000000000E+00  0.00000000000E+00  0.74505805969E-08  0.10566000000E+00  0.10566000000E+00 0.  1.
     999900   -1    0    0    0    0 -0.00000000000E+00 -0.00000000000E+00 -0.74505805969E-08  0.93827000000E+00  0.93827000000E+00 0.  1.
     999902    2    1    2    0    0  0.63410464642E-03  0.97992443416E-02 -0.21840015348E-01  0.10199839450E+01  0.10197028168E+01 0.  0.
     999903    2    3    3    0    0  0.66897227657E-01  0.36936078349E-01 -0.10685373265E+00  0.13299209537E+00  0.20728345265E-01 0.  0.
         14    1    1    2    0    0 -0.63410464642E-03 -0.97992443416E-02  0.21840015348E-01  0.23946054973E-01  0.00000000000E+00 0.  1.
     999901    1    3    3    0    0 -0.66263123011E-01 -0.27136834007E-01  0.85013717302E-01  0.88699184966E+00  0.88000000000E+00 0. -1.
        -11    1    4    4    0    0  0.32971779908E-01  0.14673097380E-01 -0.33930169352E-01  0.49537415862E-01  0.51100000000E-03 0. -1.
         11    1    4    4    0    0  0.33925447749E-01  0.22262980969E-01 -0.72923563297E-01  0.83454679507E-01  0.51100000000E-03 0.  1.
</event>
<event>
 8    1  0.1114686E+005  0.1043930E+01  0.7957747E-01            NaN
         13   -1    0    0    0    0  0.00000000000E+00  0.00000000000E+00  0.74505805969E-08  0.10566000000E+00  0.10566000000E+00 0.  1.
     999900   -1    0    0    0    0 -0.00000000000E+00 -0.00000000000E+00 -0.74505805969E-08  0.93827000000E+00  0.93827000000E+00 0.  1.
     999902    2    1    2    0    0 -0.10371866787E-01 -0.13189449573E-01 -0.16252343966E-01  0.10205702936E+01  0.10203029198E+01 0.  0.
     999903    2    3    3    0    0  0.16389111539E-01  0.12231526644E+00 -0.31817880225E-01  0.12966066630E+00  0.23872232876E-01 0.  0.
         14    1    1    2    0    0  0.10371866787E-01  0.13189449573E-01  0.16252343966E-01  0.23359706443E-01  0.00000000000E+00 0.  1.
     999901    1    3    3    0    0 -0.26760978326E-01 -0.13550471601E+00  0.15565536259E-01  0.89090962726E+00  0.88000000000E+00 0. -1.
        -11    1    4    4    0    0  0.11701480384E-01  0.90016195371E-01 -0.34030758678E-01  0.96944281571E-01  0.51100000000E-03 0. -1.
         11    1    4    4    0    0  0.46876311549E-02  0.32299071067E-01  0.22128784530E-02  0.32716384728E-01  0.51100000000E-03 0.  1.
</event>
<event>
 8    1  0.1114686E+005  0.1043930E+01  0.7957747E-01            NaN
         13   -1    0    0    0    0  0.00000000000E+00  0.00000000000E+00  0.74505805969E-08  0.10566000000E+00  0.10566000000E+00 0. -1.
     999900   -1    0    0    0    0 -0.00000000000E+00 -0.00000000000E+00 -0.74505805969E-08  0.93827000000E+00  0.93827000000E+00 0.  1.
     999902    2    1    2    0    0 -0.11170689812E-01  0.12810984376E-01  0.13242712401E-01  0.10223829570E+01  0.10221558764E+01 0.  0.
     999903    2    3    3    0    0  0.42473263710E-02 -0.12619670898E+00 -0.26013179750E-01  0.13047383654E+00  0.20077035740E-01 0.  0.
         14    1    1    2    0    0  0.11170689812E-01 -0.12810984376E-01 -0.13242712401E-01  0.21547043029E-01  0.00000000000E+00 0.  1.
     999901    1    3    3    0    0 -0.15418016183E-01  0.13900769335E+00  0.39255892151E-01  0.89190912043E+00  0.88000000000E+00 0. -1.
        -11    1    4    4    0    0 -0.21934428416E-02 -0.50724641687E-01 -0.12824866047E-02  0.50790809786E-01  0.51100000000E-03 0. -1.
         11    1    4    4    0    0  0.64407692125E-02 -0.75472067288E-01 -0.24730693145E-01  0.79683026757E-01  0.51100000000E-03 0.  1.
</event>
<event>
 8    1  0.1114686E+005  0.1043930E+01  0.7957747E-01            NaN
         13   -1    0    0    0    0  0.00000000000E+00  0.00000000000E+00  0.74505805969E-08  0.10566000000E+00  0.10566000000E+00 0. -1.
     999900   -1    0    0    0    0 -0.00000000000E+00 -0.00000000000E+00 -0.74505805969E-08  0.93827000000E+00  0.93827000000E+00 0.  1.
     999902    2    1    2    0    0  0.92108801034E-03 -0.22433784831E-01 -0.52560055959E-02  0.10208703231E+01  0.10206098509E+01 0.  0.
     999903    2    3    3    0    0  0.10769207188E+00  0.53906676371E-01  0.44004557354E-01  0.12977295911E+00  0.20027674449E-01 0.  0.
         14    1    1    2    0    0 -0.92108801034E-03  0.22433784831E-01  0.52560055959E-02  0.23059676923E-01  0.00000000000E+00 0.  1.
     999901    1    3    3    0    0 -0.10677098387E+00 -0.76340461202E-01 -0.49260562950E-01  0.89109736397E+00  0.88000000000E+00 0. -1.
        -11    1    4    4    0    0  0.11036283402E-01  0.39923346432E-02 -0.15234326930E-02  0.11845685096E-01  0.51100000000E-03 0.  1.
         11    1    4    4    0    0  0.96655788479E-01  0.49914341728E-01  0.45527990047E-01  0.11792727401E+00  0.51100000000E-03 0. -1.
</event>
<event>
 8    1  0.1114686E+005  0.1043930E+01  0.7957747E-01            NaN
         13   -1    0    0    0    0  0.00000000000E+00  0.00000000000E+00  0.74505805969E-08  0.10566000000E+00  0.10566000000E+00 0. -1.
     999900   -1    0    0    0    0 -0.00000000000E+00 -0.00000000000E+00 -0.74505805969E-08  0.93827000000E+00  0.93827000000E+00 0. -1.
     999902    2    1    2    0    0  0.23320400361E-01 -0.39524941421E-02 -0.12651529412E-01  0.10171060465E+01  0.10167522734E+01 0.  0.
     999903    2    3    3    0    0 -0.12227187040E+00 -0.11210443688E-01  0.99436588541E-02  0.12482787821E+00  0.20175194878E-01 0.  0.
         14    1    1    2    0    0 -0.23320400361E-01  0.39524941421E-02  0.12651529412E-01  0.26823953464E-01  0.00000000000E+00 0. -1.
     999901    1    3    3    0    0  0.14559227076E+00  0.72579495464E-02 -0.22595188266E-01  0.89227816833E+00  0.88000000000E+00 0. -1.
        -11    1    4    4    0    0 -0.54354120681E-01 -0.11890674515E-03 -0.43830504786E-02  0.54533080111E-01  0.51100000000E-03 0. -1.
         11    1    4    4    0    0 -0.67917749719E-01 -0.11091536943E-01  0.14326709333E-01  0.70294798100E-01  0.51100000000E-03 0.  1.
</event>
<event>
 7    1  0.1114686E+005  0.1043930E+01  0.7957747E-01            NaN
         13   -1    0    0    0    0  0.00000000000E+00  0.00000000000E+00  0.74505805969E-08  0.10566000000E+00  0.10566000000E+00 0. -1.
     999900   -1    0    0    0    0 -0.00000000000E+00 -0.00000000000E+00 -0.74505805969E-08  0.93827000000E+00  0.93827000000E+00 0. -1.
     999903    2    1    2    0    0  0.73063129916E-01  0.89118402241E-01 -0.24002894367E-02  0.11708570757E+00  0.20566743954E-01 0.  0.
         14    1    1    2    0    0 -0.20617641246E-01  0.80678948841E-02 -0.32420179681E-01  0.39258707429E-01  0.00000000000E+00 0.  1.
     999901    1    1    2    0    0 -0.52445488670E-01 -0.97186297125E-01  0.34820469118E-01  0.88758558500E+00  0.88000000000E+00 0.  1.
        -11    1    3    3    0    0  0.34458260947E-01  0.29257257678E-01 -0.68155867655E-02  0.45717307645E-01  0.51100000000E-03 0.  1.
         11    1    3    3    0    0  0.38604868969E-01  0.59861144563E-01  0.44152973288E-02  0.71368399926E-01  0.51100000000E-03 0. -1.
</event>
<event>
 8    1  0.1114686E+005  0.1043930E+01  0.7957747E-01            NaN
         13   -1    0    0    0    0  0.00000000000E+00  0.00000000000E+00  0.74505805969E-08  0.10566000000E+00  0.10566000000E+00 0.  1.
     999900   -1    0    0    0    0 -0.00000000000E+00 -0.00000000000E+00 -0.74505805969E-08  0.93827000000E+00  0.93827000000E+00 0. -1.
     999902    2    1    2    0    0  0.46870606453E-02  0.36732261845E-02  0.23529708703E-01  0.10196584463E+01  0.10193695300E+01 0.  0.
     999903    2    3    3    0    0  0.10118396865E+00  0.40645601898E-01  0.72275006652E-01  0.13227199502E+00  0.19543377740E-01 0.  0.
         14    1    1    2    0    0 -0.46870606453E-02 -0.36732261845E-02 -0.23529708703E-01  0.24271553715E-01  0.00000000000E+00 0. -1.
     999901    1    3    3    0    0 -0.96496908007E-01 -0.36972375714E-01 -0.48745297948E-01  0.88738645127E+00  0.88000000000E+00 0. -1.
        -11    1    4    4    0    0  0.18747524915E-01  0.27840945372E-03  0.91416581672E-02  0.20865719190E-01  0.51100000000E-03 0. -1.
         11    1    4    4    0    0  0.82436443737E-01  0.40367192444E-01  0.63133348484E-01  0.11140627583E+00  0.51100000000E-03 0.  1.
</event>
<event>
 8    1  0.1114686E+005  0.1043930E+01  0.7957747E-01            NaN
         13   -1    0    0    0    0  0.00000000000E+00  0.00000000000E+00  0.74505805969E-08  0.10566000000E+00  0.10566000000E+00 0. -1.
     999900   -1    0    0    0    0 -0.00000000000E+00 -0.00000000000E+00 -0.74505805969E-08  0.93827000000E+00  0.93827000000E+00 0. -1.
     999902    2    1    2    0    0 -0.21395136807E-01 -0.82598104911E-02 -0.65940068424E-02  0.10200666961E+01  0.10197875304E+01 0.  0.
     999903    2    3    3    0    0 -0.10514010429E+00 -0.39294159600E-01  0.67358310189E-01  0.13246019790E+00  0.20250668272E-01 0.  0.
         14    1    1    2    0    0  0.21395136807E-01  0.82598104911E-02  0.65940068424E-02  0.23863303932E-01  0.00000000000E+00 0. -1.
     999901    1    3    3    0    0  0.83744967487E-01  0.31034349109E-01 -0.73952317031E-01  0.88760649817E+00  0.88000000000E+00 0. -1.
        -11    1    4    4    0    0 -0.30821120472E-01 -0.21628274446E-01  0.22955163611E-01  0.44101296807E-01  0.51100000000E-03 0. -1.
         11    1    4    4    0    0 -0.74318983821E-01 -0.17665885154E-01  0.44403146578E-01  0.88358901088E-01  0.51100000000E-03 0.  1.
</event>
<event>
 8    1  0.1114686E+005  0.1043930E+01  0.7957747E-01            NaN
         13   -1    0    0    0    0  0.00000000000E+00  0.00000000000E+00  0.74505805969E-08  0.10566000000E+00  0.10566000000E+00 0. -1.
     999900   -1    0    0    0    0 -0.00000000000E+00 -0.00000000000E+00 -0.74505805969E-08  0.93827000000E+00  0.93827000000E+00 0.  1.
     999902    2    1    2    0    0  0.13710708909E-01 -0.10101923685E-01  0.16298427072E-01  0.10203573225E+01  0.10200849937E+01 0.  0.
     999903    2    3    3    0    0 -0.31337383584E-01 -0.12335297068E+00  0.28276127386E-01  0.13187626156E+00  0.19844948921E-01 0.  0.
         14    1    1    2    0    0 -0.13710708909E-01  0.10101923685E-01 -0.16298427072E-01  0.23572677530E-01  0.00000000000E+00 0.  1.
     999901    1    3    3    0    0  0.45048092492E-01  0.11325104700E+00 -0.11977700314E-01  0.88848106091E+00  0.88000000000E+00 0. -1.
        -11    1    4    4    0    0 -0.33071633876E-01 -0.10451878631E+00  0.21094938184E-01  0.11163855605E+00  0.51100000000E-03 0.  1.
         11    1    4    4    0    0  0.17342502925E-02 -0.18834184379E-01  0.71811892017E-02  0.20237705518E-01  0.51100000000E-03 0. -1.
</event>
<event>
 8    1  0.1114686E+005  0.1043930E+01  0.7957747E-01            NaN
         13   -1    0    0    0    0  0.00000000000E+00  0.00000000000E+00  0.74505805969E-08  0.10566000000E+00  0.10566000000E+00 0. -1.
     999900   -1    0    0    0    0 -0.00000000000E+00 -0.00000000000E+00 -0.74505805969E-08  0.93827000000E+00  0.93827000000E+00 0.  1.
     999902    2    1    2    0    0 -0.12316241066E-01  0.18883774370E-01 -0.66904668991E-02  0.10204130045E+01  0.10201419758E+01 0.  0.
     999903    2    3    3    0    0 -0.21139092454E-01  0.26210650444E-01 -0.12639867865E+00  0.13223420396E+00  0.19375224047E-01 0.  0.
         14    1    1    2    0    0  0.12316241066E-01 -0.18883774370E-01  0.66904668991E-02  0.23516995467E-01  0.00000000000E+00 0. -1.
     999901    1    3    3    0    0  0.88228513880E-02 -0.73268760738E-02  0.11970821175E+00  0.88817880057E+00  0.88000000000E+00 0. -1.
        -11    1    4    4    0    0 -0.96664527187E-02  0.18063669536E-01 -0.42746292495E-01  0.47405095805E-01  0.51100000000E-03 0. -1.
         11    1    4    4    0    0 -0.11472639736E-01  0.81469809083E-02 -0.83652386156E-01  0.84829108159E-01  0.51100000000E-03 0.  1.
</event>
<event>
 8    1  0.1114686E+005  0.1043930E+01  0.7957747E-01            NaN
         13   -1    0    0    0    0  0.00000000000E+00  0.00000000000E+00  0.74505805969E-08  0.10566000000E+00  0.10566000000E+00 0. -1.
     999900   -1    0    0    0    0 -0.00000000000E+00 -0.00000000000E+00 -0.74505805969E-08  0.93827000000E+00  0.93827000000E+00 0. -1.
     999902    2    1    2    0    0  0.14710381443E-01  0.14859790256E-01  0.91422134852E-02  0.10211092034E+01  0.10208541603E+01 0.  0.
     999903    2    3    3    0    0  0.91290115126E-01 -0.82011567578E-01 -0.41260267233E-01  0.13105924661E+00  0.20355199156E-01 0.  0.
         14    1    1    2    0    0 -0.14710381443E-01 -0.14859790256E-01 -0.91422134852E-02  0.22820796569E-01  0.00000000000E+00 0.  1.
     999901    1    3    3    0    0 -0.76579733683E-01  0.96871357834E-01  0.50402480719E-01  0.89004995682E+00  0.88000000000E+00 0.  1.
        -11    1    4    4    0    0  0.82121104179E-01 -0.69404386652E-01 -0.29413724946E-01  0.11147319397E+00  0.51100000000E-03 0. -1.
         11    1    4    4    0    0  0.91690109468E-02 -0.12607180926E-01 -0.11846542287E-01  0.19586052635E-01  0.51100000000E-03 0.  1.
</event>
<event>
 8    1  0.1114686E+005  0.1043930E+01  0.7957747E-01            NaN
         13   -1    0    0    0    0  0.00000000000E+00  0.00000000000E+00  0.74505805969E-08  0.10566000000E+00  0.10566000000E+00 0.  1.
     999900   -1    0    0    0    0 -0.00000000000E+00 -0.00000000000E+00 -0.74505805969E-08  0.93827000000E+00  0.93827000000E+00 0. -1.
     999902    2    1    2    0    0 -0.61599036710E-02 -0.15612380983E-01 -0.16805770495E-01  0.10201786890E+01  0.10199021682E+01 0.  0.
     999903    2    3    3    0    0 -0.11897077548E+00  0.19730091016E-01  0.44858021002E-01  0.13013497865E+00  0.19482009910E-01 0.  0.
         14    1    1    2    0    0  0.61599036710E-02  0.15612380983E-01  0.16805770495E-01  0.23751311019E-01  0.00000000000E+00 0.  1.
     999901    1    3    3    0    0  0.11281087181E+00 -0.35342472000E-01 -0.61663791497E-01  0.89004371033E+00  0.88000000000E+00 0.  1.
        -11    1    4    4    0    0 -0.86888499179E-01  0.13415816650E-01  0.23258997904E-01  0.90944145114E-01  0.51100000000E-03 0.  1.
         11    1    4    4    0    0 -0.32082276297E-01  0.63142743666E-02  0.21599023098E-01  0.39190833532E-01  0.51100000000E-03 0. -1.
</event>
<event>
 8    1  0.1114686E+005  0.1043930E+01  0.7957747E-01            NaN
         13   -1    0    0    0    0  0.00000000000E+00  0.00000000000E+00  0.74505805969E-08  0.10566000000E+00  0.10566000000E+00 0. -1.
     999900   -1    0    0    0    0 -0.00000000000E+00 -0.00000000000E+00 -0.74505805969E-08  0.93827000000E+00  0.93827000000E+00 0. -1.
     999902    2    1    2    0    0 -0.37008126990E-02 -0.12677187916E-01 -0.15692708566E-01  0.10234198023E+01  0.10232142608E+01 0.  0.
     999903    2    3    3    0    0 -0.80575896597E-01 -0.54526300095E-01  0.84662208590E-01  0.13340169230E+00  0.34098818596E-01 0.  0.
         14    1    1    2    0    0  0.37008126990E-02  0.12677187916E-01  0.15692708566E-01  0.20510197713E-01  0.00000000000E+00 0. -1.
     999901    1    3    3    0    0  0.76875083898E-01  0.41849112178E-01 -0.10035491716E+00  0.89001810999E+00  0.88000000000E+00 0. -1.
        -11    1    4    4    0    0 -0.14188230080E-01 -0.28229801185E-01  0.23472186325E-01  0.39362827637E-01  0.51100000000E-03 0. -1.
         11    1    4    4    0    0 -0.66387666517E-01 -0.26296498910E-01  0.61190022265E-01  0.94038864659E-01  0.51100000000E-03 0.  1.
</event>
<event>
 8    1  0.1114686E+005  0.1043930E+01  0.7957747E-01            NaN
         13   -1    0    0    0    0  0.00000000000E+00  0.00000000000E+00  0.74505805969E-08  0.10566000000E+00  0.10566000000E+00 0. -1.
     999900   -1    0    0    0    0 -0.00000000000E+00 -0.00000000000E+00 -0.74505805969E-08  0.93827000000E+00  0.93827000000E+00 0.  1.
     999902    2    1    2    0    0  0.10616778514E-01  0.16170067095E-01  0.11187426403E-01  0.10215839586E+01  0.10213395317E+01 0.  0.
     999903    2    3    3    0    0  0.95123840732E-01  0.18362561830E-01  0.90119354067E-01  0.13401621484E+00  0.21286594589E-01 0.  0.
         14    1    1    2    0    0 -0.10616778514E-01 -0.16170067095E-01 -0.11187426403E-01  0.22346041381E-01  0.00000000000E+00 0.  1.
     999901    1    3    3    0    0 -0.84507062218E-01 -0.21924947354E-02 -0.78931927665E-01  0.88756774378E+00  0.88000000000E+00 0. -1.
        -11    1    4    4    0    0  0.76583466546E-01  0.14929835871E-01  0.59793702741E-01  0.98302977349E-01  0.51100000000E-03 0.  1.
         11    1    4    4    0    0  0.18540374186E-01  0.34327259595E-02  0.30325651326E-01  0.35713237488E-01  0.51100000000E-03 0. -1.
</event>
<event>
 8    1  0.1114686E+005  0.1043930E+01  0.7957747E-01            NaN
         13   -1    0    0    0    0  0.00000000000E+00  0.00000000000E+00  0.74505805969E-08  0.10566000000E+00  0.10566000000E+00 0.  1.
     999900   -1    0    0    0    0 -0.00000000000E+00 -0.00000000000E+00 -0.74505805969E-08  0.93827000000E+00  0.93827000000E+00 0. -1.
     999902    2    1    2    0    0 -0.91520990798E-02 -0.15635798029E-01 -0.15232538617E-01  0.10202599909E+01  0.10199853821E+01 0.  0.
     999903    2    3    3    0    0  0.70029969366E-01  0.46047145862E-01 -0.98445189430E-01  0.13065393721E+00  0.18827101063E-01 0.  0.
         14    1    1    2    0    0  0.91520990798E-02  0.15635798029E-01  0.15232538617E-01  0.23670009089E-01  0.00000000000E+00 0.  1.
     999901    1    3    3    0    0 -0.79182068446E-01 -0.61682943891E-01  0.83212650814E-01  0.88960605370E+00  0.88000000000E+00 0.  1.
        -11    1    4    4    0    0  0.52502478980E-01  0.38995728740E-01 -0.64823513544E-01  0.92084342796E-01  0.51100000000E-03 0. -1.
         11    1    4    4    0    0  0.17527490386E-01  0.70514171221E-02 -0.33621675886E-01  0.38569594411E-01  0.51100000000E-03 0.  1.
</event>
<event>
 8    1  0.1114686E+005  0.1043930E+01  0.7957747E-01            NaN
         13   -1    0    0    0    0  0.00000000000E+00  0.00000000000E+00  0.74505805969E-08  0.10566000000E+00  0.10566000000E+00 0. -1.
     999900   -1    0    0    0    0 -0.00000000000E+00 -0.00000000000E+00 -0.74505805969E-08  0.93827000000E+00  0.93827000000E+00 0.  1.
     999902    2    1    2    0    0  0.22135498510E-01 -0.66256980331E-02 -0.13511663908E-01  0.10171635055E+01  0.10168112665E+01 0.  0.
     999903    2    3    3    0    0  0.11405612058E+00 -0.54239244898E-01 -0.28402103822E-01  0.13097042502E+00  0.19896693173E-01 0.  0.
         14    1    1    2    0    0 -0.22135498510E-01  0.66256980331E-02  0.13511663908E-01  0.26766494546E-01  0.00000000000E+00 0. -1.
     999901    1    3    3    0    0 -0.91920622072E-01  0.47613546865E-01  0.14890439914E-01  0.88619308043E+00  0.88000000000E+00 0. -1.
        -11    1    4    4    0    0  0.80194700704E-01 -0.44542825706E-01 -0.27358834008E-01  0.95728889382E-01  0.51100000000E-03 0. -1.
         11    1    4    4    0    0  0.33861419878E-01 -0.96964191921E-02 -0.10432698133E-02  0.35241535639E-01  0.51100000000E-03 0.  1.
</event>
<event>
 8    1  0.1114686E+005  0.1043930E+01  0.7957747E-01            NaN
         13   -1    0    0    0    0  0.00000000000E+00  0.00000000000E+00  0.74505805969E-08  0.10566000000E+00  0.10566000000E+00 0. -1.
     999900   -1    0    0    0    0 -0.00000000000E+00 -0.00000000000E+00 -0.74505805969E-08  0.93827000000E+00  0.93827000000E+00 0. -1.
     999902    2    1    2    0    0 -0.85551659757E-02  0.17225527225E-01 -0.10315855244E-01  0.10221050940E+01  0.10218720549E+01 0.  0.
     999903    2    3    3    0    0  0.11004574742E-04  0.11296949256E+00 -0.67011103484E-01  0.13505682171E+00  0.31428501878E-01 0.  0.
         14    1    1    2    0    0  0.85551659757E-02 -0.17225527225E-01  0.10315855244E-01  0.21824906013E-01  0.00000000000E+00 0. -1.
     999901    1    3    3    0    0 -0.85661705505E-02 -0.95743965334E-01  0.56695248240E-01  0.88704827228E+00  0.88000000000E+00 0.  1.
        -11    1    4    4    0    0  0.10581439415E-01  0.15881866526E-01 -0.64988581644E-02  0.20166725636E-01  0.51100000000E-03 0. -1.
         11    1    4    4    0    0 -0.10570434840E-01  0.97087626033E-01 -0.60512245320E-01  0.11489009607E+00  0.51100000000E-03 0.  1.
</event>
<event>
 8    1  0.1114686E+005  0.1043930E+01  0.7957747E-01            NaN
         13   -1    0    0    0    0  0.00000000000E+00  0.00000000000E+00  0.74505805969E-08  0.10566000000E+00  0.10566000000E+00 0. -1.
     999900   -1    0    0    0    0 -0.00000000000E+00 -0.00000000000E+00 -0.74505805969E-08  0.93827000000E+00  0.93827000000E+00 0. -1.
     999902    2    1    2    0    0 -0.13152917613E-01  0.16747293206E-01  0.90688742374E-02  0.10207844702E+01  0.10205220326E+01 0.  0.
     999903    2    3    3    0    0 -0.12092245656E+00  0.52621692819E-01  0.21668115526E-02  0.13345765070E+00  0.20370724146E-01 0.  0.
         14    1    1    2    0    0  0.13152917613E-01 -0.16747293206E-01 -0.90688742374E-02  0.23145529836E-01  0.00000000000E+00 0.  1.
     999901    1    3    3    0    0  0.10776953895E+00 -0.35874399613E-01  0.69020626848E-02  0.88732681946E+00  0.88000000000E+00 0.  1.
        -11    1    4    4    0    0 -0.62012397655E-01  0.22646929570E-01  0.10446246999E-01  0.66841649286E-01  0.51100000000E-03 0. -1.
         11    1    4    4    0    0 -0.58910058904E-01  0.29974763249E-01 -0.82794354465E-02  0.66616001413E-01  0.51100000000E-03 0.  1.
</event>
<event>
 7    1  0.1114686E+005  0.1043930E+01  0.7957747E-01            NaN
         13   -1    0    0    0    0  0.00000000000E+00  0.00000000000E+00  0.74505805969E-08  0.10566000000E+00  0.10566000000E+00 0. -1.
     999900   -1    0    0    0    0 -0.00000000000E+00 -0.00000000000E+00 -0.74505805969E-08  0.93827000000E+00  0.93827000000E+00 0. -1.
     999903    2    1    2    0    0 -0.74858048235E-01 -0.17380467705E-02 -0.46983396005E-01  0.90663098282E-01  0.20139754165E-01 0.  0.
         14    1    1    2    0    0  0.59587128915E-01  0.38635856527E-01  0.84688029820E-02  0.71519759269E-01  0.00000000000E+00 0. -1.
     999901    1    1    2    0    0  0.15270919320E-01 -0.36897809757E-01  0.38514593023E-01  0.88174714245E+00  0.88000000000E+00 0.  1.
        -11    1    3    3    0    0 -0.53291375711E-01 -0.65847737275E-02 -0.41544304211E-01  0.67893448164E-01  0.51100000000E-03 0. -1.
         11    1    3    3    0    0 -0.21566672524E-01  0.48467269571E-02 -0.54390917940E-02  0.22769650118E-01  0.51100000000E-03 0.  1.
</event>
<event>
 8    1  0.1114686E+005  0.1043930E+01  0.7957747E-01            NaN
         13   -1    0    0    0    0  0.00000000000E+00  0.00000000000E+00  0.74505805969E-08  0.10566000000E+00  0.10566000000E+00 0. -1.
     999900   -1    0    0    0    0 -0.00000000000E+00 -0.00000000000E+00 -0.74505805969E-08  0.93827000000E+00  0.93827000000E+00 0.  1.
     999902    2    1    2    0    0 -0.12974727980E-01  0.18933864848E-01 -0.60715602811E-02  0.10201876613E+01  0.10199113518E+01 0.  0.
     999903    2    3    3    0    0  0.12052374510E+00 -0.24198047111E-01 -0.32152118195E-01  0.12869318588E+00  0.20412221135E-01 0.  0.
         14    1    1    2    0    0  0.12974727980E-01 -0.18933864848E-01  0.60715602811E-02  0.23742338732E-01  0.00000000000E+00 0. -1.
     999901    1    3    3    0    0 -0.13349847308E+00  0.43131911958E-01  0.26080557914E-01  0.89149447539E+00  0.88000000000E+00 0. -1.
        -11    1    4    4    0    0  0.74959698056E-01 -0.12727860052E-01 -0.98131609430E-02  0.76664946376E-01  0.51100000000E-03 0. -1.
         11    1    4    4    0    0  0.45564047042E-01 -0.11470187059E-01 -0.22338957252E-01  0.52028239506E-01  0.51100000000E-03 0.  1.
</event>
<event>
 8    1  0.1114686E+005  0.1043930E+01  0.7957747E-01            NaN
         13   -1    0    0    0    0  0.00000000000E+00  0.00000000000E+00  0.74505805969E-08  0.10566000000E+00  0.10566000000E+00 0. -1.
     999900   -1    0    0    0    0 -0.00000000000E+00 -0.00000000000E+00 -0.74505805969E-08  0.93827000000E+00  0.93827000000E+00 0.  1.
     999902    2    1    2    0    0  0.22615902992E-01 -0.76107672714E-02 -0.37379900530E-02  0.10197768342E+01  0.10194907632E+01 0.  0.
     999903    2    3    3    0    0  0.35102114625E-01  0.94292272549E-02  0.12358395918E+00  0.13036290043E+00  0.20010548806E-01 0.  0.
         14    1    1    2    0    0 -0.22615902992E-01  0.76107672714E-02  0.37379900530E-02  0.24153165760E-01  0.00000000000E+00 0.  1.
     999901    1    3    3    0    0 -0.12486211633E-01 -0.17039994526E-01 -0.12732194924E+00  0.88941393381E+00  0.88000000000E+00 0.  1.
        -11    1    4    4    0    0  0.12487480701E-01  0.68516588158E-03  0.75272693964E-01  0.76306265825E-01  0.51100000000E-03 0. -1.
         11    1    4    4    0    0  0.22614633924E-01  0.87440613733E-02  0.48311265220E-01  0.54056634607E-01  0.51100000000E-03 0.  1.
</event>
<event>
 8    1  0.1114686E+005  0.1043930E+01  0.7957747E-01            NaN
         13   -1    0    0    0    0  0.00000000000E+00  0.00000000000E+00  0.74505805969E-08  0.10566000000E+00  0.10566000000E+00 0.  1.
     999900   -1    0    0    0    0 -0.00000000000E+00 -0.00000000000E+00 -0.74505805969E-08  0.93827000000E+00  0.93827000000E+00 0.  1.
     999902    2    1    2    0    0  0.44090369394E-02  0.72853619886E-03 -0.23837872027E-01  0.10196768659E+01  0.10193883933E+01 0.  0.
     999903    2    3    3    0    0  0.59485441002E-01 -0.56920423717E-01  0.96261200133E-01  0.12794787118E+00  0.18055103450E-01 0.  0.
         14    1    1    2    0    0 -0.44090369394E-02 -0.72853619886E-03  0.23837872027E-01  0.24253134117E-01  0.00000000000E+00 0.  1.
     999901    1    3    3    0    0 -0.55076404063E-01  0.57648959916E-01 -0.12009907216E+00  0.89172899470E+00  0.88000000000E+00 0. -1.
        -11    1    4    4    0    0  0.30075127921E-01 -0.16998863545E-01  0.35812020416E-01  0.49761798687E-01  0.51100000000E-03 0. -1.
         11    1    4    4    0    0  0.29410313081E-01 -0.39921560172E-01  0.60449179717E-01  0.78186072491E-01  0.51100000000E-03 0.  1.
</event>
<event>
 8    1  0.1114686E+005  0.1043930E+01  0.7957747E-01            NaN
         13   -1    0    0    0    0  0.00000000000E+00  0.00000000000E+00  0.74505805969E-08  0.10566000000E+00  0.10566000000E+00 0. -1.
     999900   -1    0    0    0    0 -0.00000000000E+00 -0.00000000000E+00 -0.74505805969E-08  0.93827000000E+00  0.93827000000E+00 0.  1.
     999902    2    1    2    0    0  0.22879015936E-02 -0.60896308101E-02  0.24691175715E-01  0.10183962526E+01  0.10180761048E+01 0.  0.
     999903    2    3    3    0    0  0.54084481088E-02  0.12059182187E+00 -0.34834237326E-01  0.12732880115E+00  0.20677540979E-01 0.  0.
         14    1    1    2    0    0 -0.22879015936E-02  0.60896308101E-02 -0.24691175715E-01  0.25533747381E-01  0.00000000000E+00 0.  1.
     999901    1    3    3    0    0 -0.31205465152E-02 -0.12668145268E+00  0.59525413041E-01  0.89106745147E+00  0.88000000000E+00 0.  1.
        -11    1    4    4    0    0  0.11739546140E-01  0.45027380120E-01 -0.10696469805E-01  0.47748900420E-01  0.51100000000E-03 0.  1.
         11    1    4    4    0    0 -0.63310980313E-02  0.75564441747E-01 -0.24137767521E-01  0.79579900734E-01  0.51100000000E-03 0. -1.
</event>
<event>
 8    1  0.1114686E+005  0.1043930E+01  0.7957747E-01            NaN
         13   -1    0    0    0    0  0.00000000000E+00  0.00000000000E+00  0.74505805969E-08  0.10566000000E+00  0.10566000000E+00 0.  1.
     999900   -1    0    0    0    0 -0.00000000000E+00 -0.00000000000E+00 -0.74505805969E-08  0.93827000000E+00  0.93827000000E+00 0.  1.
     999902    2    1    2    0    0  0.81507054273E-02  0.35381635404E-02  0.22282920356E-01  0.10199408120E+01  0.10196586580E+01 0.  0.
     999903    2    3    3    0    0  0.74465467632E-01  0.10115853984E+00 -0.29470629021E-01  0.13055573489E+00  0.19953092113E-01 0.  0.
         14    1    1    2    0    0 -0.81507054273E-02 -0.35381635404E-02 -0.22282920356E-01  0.23989187977E-01  0.00000000000E+00 0. -1.
     999901    1    3    3    0    0 -0.66314762205E-01 -0.97620376301E-01  0.51753549377E-01  0.88938507713E+00  0.88000000000E+00 0.  1.
        -11    1    4    4    0    0  0.51738539847E-01  0.53742697627E-01 -0.17497842391E-01  0.76626298769E-01  0.51100000000E-03 0. -1.
         11    1    4    4    0    0  0.22726927785E-01  0.47415842215E-01 -0.11972786630E-01  0.53929436120E-01  0.51100000000E-03 0.  1.
</event>
<event>
 8    1  0.1114686E+005  0.1043930E+01  0.7957747E-01            NaN
         13   -1    0    0    0    0  0.00000000000E+00  0.00000000000E+00  0.74505805969E-08  0.10566000000E+00  0.10566000000E+00 0.  1.
     999900   -1    0    0    0    0 -0.00000000000E+00 -0.00000000000E+00 -0.74505805969E-08  0.93827000000E+00  0.93827000000E+00 0.  1.
     999902    2    1    2    0    0 -0.18053776823E-01 -0.19853826849E-01 -0.10181536275E-01  0.10152284847E+01  0.10148226935E+01 0.  0.
     999903    2    3    3    0    0 -0.10702305594E+00  0.59915391717E-01  0.23520973471E-01  0.12651338976E+00  0.20214176444E-01 0.  0.
         14    1    1    2    0    0  0.18053776823E-01  0.19853826849E-01  0.10181536275E-01  0.28701515274E-01  0.00000000000E+00 0.  1.
     999901    1    3    3    0    0  0.88969279113E-01 -0.79769218565E-01 -0.33702509746E-01  0.88871509497E+00  0.88000000000E+00 0. -1.
        -11    1    4    4    0    0 -0.90638321431E-01  0.55836697401E-01  0.25601921949E-01  0.10949320352E+00  0.51100000000E-03 0. -1.
         11    1    4    4    0    0 -0.16384734504E-01  0.40786943154E-02 -0.20809484779E-02  0.17020186241E-01  0.51100000000E-03 0.  1.
</event>
<event>
 8    1  0.1114686E+005  0.1043930E+01  0.7957747E-01            NaN
         13   -1    0    0    0    0  0.00000000000E+00  0.00000000000E+00  0.74505805969E-08  0.10566000000E+00  0.10566000000E+00 0. -1.
     999900   -1    0    0    0    0 -0.00000000000E+00 -0.00000000000E+00 -0.74505805969E-08  0.93827000000E+00  0.93827000000E+00 0.  1.
     999902    2    1    2    0    0 -0.25691208175E-02 -0.19319113355E-01  0.13879799025E-01  0.10200035012E+01  0.10197228374E+01 0.  0.
     999903    2    3    3    0    0 -0.25030233015E-01  0.91888925800E-01 -0.82425964741E-01  0.12750894681E+00  0.19859622421E-01 0.  0.
         14    1    1    2    0    0  0.25691208175E-02  0.19319113355E-01 -0.13879799025E-01  0.23926498774E-01  0.00000000000E+00 0. -1.
     999901    1    3    3    0    0  0.22461112198E-01 -0.11120803916E+00  0.96305763766E-01  0.89249455442E+00  0.88000000000E+00 0. -1.
        -11    1    4    4    0    0 -0.15339990529E-01  0.22974848889E-01 -0.21399714943E-01  0.34948074504E-01  0.51100000000E-03 0. -1.
         11    1    4    4    0    0 -0.96902424860E-02  0.68914076911E-01 -0.61026249798E-01  0.92560872302E-01  0.51100000000E-03 0.  1.
</event>
<event>
 8    1  0.1114686E+005  0.1043930E+01  0.7957747E-01            NaN
         13   -1    0    0    0    0  0.00000000000E+00  0.00000000000E+00  0.74505805969E-08  0.10566000000E+00  0.10566000000E+00 0. -1.
     999900   -1    0    0    0    0 -0.00000000000E+00 -0.00000000000E+00 -0.74505805969E-08  0.93827000000E+00  0.93827000000E+00 0. -1.
     999902    2    1    2    0    0 -0.17562119062E-02 -0.22256476156E-01 -0.86190445262E-02  0.10199983695E+01  0.10197175838E+01 0.  0.
     999903    2    3    3    0    0 -0.97503360766E-01 -0.58774601279E-01 -0.64266065016E-01  0.13230603490E+00  0.20332256170E-01 0.  0.
         14    1    1    2    0    0  0.17562119062E-02  0.22256476156E-01  0.86190445262E-02  0.23931630528E-01  0.00000000000E+00 0.  1.
     999901    1    3    3    0    0  0.95747148860E-01  0.36518125122E-01  0.55647020490E-01  0.88769233458E+00  0.88000000000E+00 0.  1.
        -11    1    4    4    0    0 -0.54079906702E-01 -0.42955580646E-01 -0.43613478487E-01  0.81683626537E-01  0.51100000000E-03 0.  1.
         11    1    4    4    0    0 -0.43423454065E-01 -0.15819020632E-01 -0.20652586530E-01  0.50622408359E-01  0.51100000000E-03 0. -1.
</event>
<event>
 8    1  0.1114686E+005  0.1043930E+01  0.7957747E-01            NaN
         13   -1    0    0    0    0  0.00000000000E+00  0.00000000000E+00  0.74505805969E-08  0.10566000000E+00  0.10566000000E+00 0. -1.
     999900   -1    0    0    0    0 -0.00000000000E+00 -0.00000000000E+00 -0.74505805969E-08  0.93827000000E+00  0.93827000000E+00 0.  1.
     999902    2    1    2    0    0  0.17016936689E-01 -0.30012977209E-03 -0.16776292219E-01  0.10200320881E+01  0.10197521025E+01 0.  0.
     999903    2    3    3    0    0 -0.64220663906E-01 -0.76139858884E-01 -0.81876250020E-01  0.13065634256E+00  0.21113686332E-01 0.  0.
         14    1    1    2    0    0 -0.17016936689E-01  0.30012977209E-03  0.16776292219E-01  0.23897911892E-01  0.00000000000E+00 0. -1.
     999901    1    3    3    0    0  0.81237600595E-01  0.75839729112E-01  0.65099957801E-01  0.88937574555E+00  0.88000000000E+00 0. -1.
        -11    1    4    4    0    0 -0.52918270979E-01 -0.65036710719E-01 -0.77580288702E-01  0.11423256743E+00  0.51100000000E-03 0. -1.
         11    1    4    4    0    0 -0.11302392926E-01 -0.11103148165E-01 -0.42959613189E-02  0.16423775135E-01  0.51100000000E-03 0.  1.
</event>
<event>
 8    1  0.1114686E+005  0.1043930E+01  0.7957747E-01            NaN
         13   -1    0    0    0    0  0.00000000000E+00  0.00000000000E+00  0.74505805969E-08  0.10566000000E+00  0.10566000000E+00 0.  1.
     999900   -1    0    0    0    0 -0.00000000000E+00 -0.00000000000E+00 -0.74505805969E-08  0.93827000000E+00  0.93827000000E+00 0.  1.
     999902    2    1    2    0    0  0.10411916349E-01  0.20639691015E-01  0.56490137634E-02  0.10201326009E+01  0.10198549932E+01 0.  0.
     999903    2    3    3    0    0 -0.56724090700E-01 -0.60729779294E-01 -0.95411070342E-01  0.12808923047E+00  0.19946179051E-01 0.  0.
         14    1    1    2    0    0 -0.10411916349E-01 -0.20639691015E-01 -0.56490137634E-02  0.23797399096E-01  0.00000000000E+00 0.  1.
     999901    1    3    3    0    0  0.67136007049E-01  0.81369470310E-01  0.10106008411E+00  0.89204337044E+00  0.88000000000E+00 0. -1.
        -11    1    4    4    0    0 -0.22714610281E-01 -0.38428095289E-01 -0.53655155885E-01  0.69798344549E-01  0.51100000000E-03 0.  1.
         11    1    4    4    0    0 -0.34009480420E-01 -0.22301684005E-01 -0.41755914458E-01  0.58290885918E-01  0.51100000000E-03 0. -1.
</event>
<event>
 8    1  0.1114686E+005  0.1043930E+01  0.7957747E-01            NaN
         13   -1    0    0    0    0  0.00000000000E+00  0.00000000000E+00  0.74505805969E-08  0.10566000000E+00  0.10566000000E+00 0. -1.
     999900   -1    0    0    0    0 -0.00000000000E+00 -0.00000000000E+00 -0.74505805969E-08  0.93827000000E+00  0.93827000000E+00 0.  1.
     999902    2    1    2    0    0  0.12230058039E-01 -0.20881005132E-01  0.40571695394E-02  0.10193932659E+01  0.10190979243E+01 0.  0.
     999903    2    3    3    0    0  0.43828006381E-01 -0.11413495439E+00 -0.46831300268E-01  0.13244097534E+00  0.19993981814E-01 0.  0.
         14    1    1    2    0    0 -0.12230058039E-01  0.20881005132E-01 -0.40571695394E-02  0.24536734087E-01  0.00000000000E+00 0.  1.
     999901    1    3    3    0    0 -0.31597948343E-01  0.93253949253E-01  0.50888469807E-01  0.88695229057E+00  0.88000000000E+00 0. -1.
        -11    1    4    4    0    0  0.65548396127E-03 -0.21529926107E-01 -0.56145556973E-02  0.22265483019E-01  0.51100000000E-03 0. -1.
         11    1    4    4    0    0  0.43172522420E-01 -0.92605028279E-01 -0.41216744571E-01  0.11017549232E+00  0.51100000000E-03 0.  1.
</event>
<event>
 8    1  0.1114686E+005  0.1043930E+01  0.7957747E-01            NaN
         13   -1    0    0    0    0  0.00000000000E+00  0.00000000000E+00  0.74505805969E-08  0.10566000000E+00  0.10566000000E+00 0. -1.
     999900   -1    0    0    0    0 -0.00000000000E+00 -0.00000000000E+00 -0.74505805969E-08  0.93827000000E+00  0.93827000000E+00 0.  1.
     999902    2    1    2    0    0  0.14667881414E-01  0.47953698263E-02 -0.85635783478E-02  0.10262812836E+01  0.10261295220E+01 0.  0.
     999903    2    3    3    0    0 -0.90395536729E-01 -0.95779924665E-01  0.15251872210E-01  0.13402521755E+00  0.19621220752E-01 0.  0.
         14    1    1    2    0    0 -0.14667881414E-01 -0.47953698263E-02  0.85635783478E-02  0.17648716414E-01  0.00000000000E+00 0. -1.
     999901    1    3    3    0    0  0.10506341814E+00  0.10057529449E+00 -0.23815450558E-01  0.89225606604E+00  0.88000000000E+00 0. -1.
        -11    1    4    4    0    0 -0.28546086687E-01 -0.27690172115E-01  0.13561689634E-01  0.42021485500E-01  0.51100000000E-03 0. -1.
         11    1    4    4    0    0 -0.61849450042E-01 -0.68089752550E-01  0.16901825763E-02  0.92003732049E-01  0.51100000000E-03 0.  1.
</event>
<event>
 8    1  0.1114686E+005  0.1043930E+01  0.7957747E-01            NaN
         13   -1    0    0    0    0  0.00000000000E+00  0.00000000000E+00  0.74505805969E-08  0.10566000000E+00  0.10566000000E+00 0. -1.
     999900   -1    0    0    0    0 -0.00000000000E+00 -0.00000000000E+00 -0.74505805969E-08  0.93827000000E+00  0.93827000000E+00 0.  1.
     999902    2    1    2    0    0 -0.96441988264E-02  0.80210511133E-02  0.19754206961E-01  0.10205296469E+01  0.10202613311E+01 0.  0.
     999903    2    3    3    0    0 -0.82442755029E-01 -0.17805124623E-01 -0.95559211381E-01  0.12965153764E+00  0.23751379159E-01 0.  0.
         14    1    1    2    0    0  0.96441988264E-02 -0.80210511133E-02 -0.19754206961E-01  0.23400353088E-01  0.00000000000E+00 0.  1.
     999901    1    3    3    0    0  0.72798556203E-01  0.25826175736E-01  0.11531341834E+00  0.89087810928E+00  0.88000000000E+00 0. -1.
        -11    1    4    4    0    0 -0.73571554426E-01 -0.16291970078E-01 -0.94045517797E-01  0.12051150339E+00  0.51100000000E-03 0. -1.
         11    1    4    4    0    0 -0.88712006029E-02 -0.15131545448E-02 -0.15136935837E-02  0.91400342493E-02  0.51100000000E-03 0.  1.
</event>
<event>
 8    1  0.1114686E+005  0.1043930E+01  0.7957747E-01            NaN
         13   -1    0    0    0    0  0.00000000000E+00  0.00000000000E+00  0.74505805969E-08  0.10566000000E+00  0.10566000000E+00 0.  1.
     999900   -1    0    0    0    0 -0.00000000000E+00 -0.00000000000E+00 -0.74505805969E-08  0.93827000000E+00  0.93827000000E+00 0.  1.
     999902    2    1    2    0    0 -0.20727450964E-01  0.73052730724E-02  0.26705510684E-02  0.10217912087E+01  0.10215513438E+01 0.  0.
     999903    2    3    3    0    0 -0.43748082091E-01 -0.38287447467E-01 -0.11774190110E+00  0.13212396512E+00  0.14620655445E-01 0.  0.
         14    1    1    2    0    0  0.20727450964E-01 -0.73052730724E-02 -0.26705510684E-02  0.22138791320E-01  0.00000000000E+00 0. -1.
     999901    1    3    3    0    0  0.23020631128E-01  0.45592720540E-01  0.12041245216E+00  0.88966724356E+00  0.88000000000E+00 0. -1.
        -11    1    4    4    0    0 -0.23750905983E-01 -0.12151972790E-01 -0.45697212223E-01  0.52917599187E-01  0.51100000000E-03 0. -1.
         11    1    4    4    0    0 -0.19997176108E-01 -0.26135474677E-01 -0.72044688873E-01  0.79206365935E-01  0.51100000000E-03 0.  1.
</event>
<event>
 8    1  0.1114686E+005  0.1043930E+01  0.7957747E-01            NaN
         13   -1    0    0    0    0  0.00000000000E+00  0.00000000000E+00  0.74505805969E-08  0.10566000000E+00  0.10566000000E+00 0. -1.
     999900   -1    0    0    0    0 -0.00000000000E+00 -0.00000000000E+00 -0.74505805969E-08  0.93827000000E+00  0.93827000000E+00 0.  1.
     999902    2    1    2    0    0  0.18541649323E-02 -0.11546769344E-01 -0.20354407840E-01  0.10204551682E+01  0.10201851217E+01 0.  0.
     999903    2    3    3    0    0  0.24512161087E-01  0.11793710911E+00  0.40413610449E-01  0.12861874170E+00  0.19987822788E-01 0.  0.
         14    1    1    2    0    0 -0.18541649323E-02  0.11546769344E-01  0.20354407840E-01  0.23474831808E-01  0.00000000000E+00 0. -1.
     999901    1    3    3    0    0 -0.22657996154E-01 -0.12948387846E+00 -0.60768018289E-01  0.89183642649E+00  0.88000000000E+00 0. -1.
        -11    1    4    4    0    0  0.47551447371E-02  0.70932723072E-01  0.24694212530E-01  0.75260400327E-01  0.51100000000E-03 0.  1.
         11    1    4    4    0    0  0.19757016349E-01  0.47004386042E-01  0.15719397919E-01  0.53358341374E-01  0.51100000000E-03 0. -1.
</event>
<event>
 8    1  0.1114686E+005  0.1043930E+01  0.7957747E-01            NaN
         13   -1    0    0    0    0  0.00000000000E+00  0.00000000000E+00  0.74505805969E-08  0.10566000000E+00  0.10566000000E+00 0.  1.
     999900   -1    0    0    0    0 -0.00000000000E+00 -0.00000000000E+00 -0.74505805969E-08  0.93827000000E+00  0.93827000000E+00 0.  1.
     999902    2    1    2    0    0 -0.80770569176E-02 -0.23107744393E-02 -0.22004937762E-01  0.10203758960E+01  0.10201040013E+01 0.  0.
     999903    2    3    3    0    0 -0.14524634879E-01 -0.12837214372E+00  0.74175882462E-02  0.13088237436E+00  0.19616396276E-01 0.  0.
         14    1    1    2    0    0  0.80770569176E-02  0.23107744393E-02  0.22004937762E-01  0.23554103950E-01  0.00000000000E+00 0.  1.
     999901    1    3    3    0    0  0.64475779617E-02  0.12606136928E+00 -0.29422526009E-01  0.88949352169E+00  0.88000000000E+00 0.  1.
        -11    1    4    4    0    0  0.16154710407E-02 -0.44443819493E-01  0.91027546483E-02  0.45398062745E-01  0.51100000000E-03 0.  1.
         11    1    4    4    0    0 -0.16140105920E-01 -0.83928324223E-01 -0.16851664021E-02  0.85484311618E-01  0.51100000000E-03 0. -1.
</event>
<event>
 8    1  0.1114686E+005  0.1043930E+01  0.7957747E-01            NaN
         13   -1    0    0    0    0  0.00000000000E+00  0.00000000000E+00  0.74505805969E-08  0.10566000000E+00  0.10566000000E+00 0. -1.
     999900   -1    0    0    0    0 -0.00000000000E+00 -0.00000000000E+00 -0.74505805969E-08  0.93827000000E+00  0.93827000000E+00 0. -1.
     999902    2    1    2    0    0  0.80684232129E-02 -0.21478013890E-01  0.40180056829E-02  0.10206373208E+01  0.10203714969E+01 0.  0.
     999903    2    3    3    0    0  0.36368077845E-01  0.54068234048E-01  0.11126225307E+00  0.13046349811E+00  0.19885280051E-01 0.  0.
         14    1    1    2    0    0 -0.80684232129E-02  0.21478013890E-01 -0.40180056829E-02  0.23292679182E-01  0.00000000000E+00 0.  1.
     999901    1    3    3    0    0 -0.28299654632E-01 -0.75546247937E-01 -0.10724424739E+00  0.89017382270E+00  0.88000000000E+00 0. -1.
        -11    1    4    4    0    0  0.24167559266E-01  0.35548050554E-01  0.89981501712E-01  0.99722949166E-01  0.51100000000E-03 0.  1.
         11    1    4    4    0    0  0.12200518579E-01  0.18520183494E-01  0.21280751358E-01  0.30740548948E-01  0.51100000000E-03 0. -1.
</event>
<event>
 8    1  0.1114686E+005  0.1043930E+01  0.7957747E-01            NaN
         13   -1    0    0    0    0  0.00000000000E+00  0.00000000000E+00  0.74505805969E-08  0.10566000000E+00  0.10566000000E+00 0.  1.
     999900   -1    0    0    0    0 -0.00000000000E+00 -0.00000000000E+00 -0.74505805969E-08  0.93827000000E+00  0.93827000000E+00 0. -1.
     999902    2    1    2    0    0 -0.15110884081E-01 -0.14331629783E-01  0.11108413083E-01  0.10203263717E+01  0.10200533189E+01 0.  0.
     999903    2    3    3    0    0 -0.91210010046E-01  0.20382547317E-01  0.92003812571E-01  0.13266640482E+00  0.20023967430E-01 0.  0.
         14    1    1    2    0    0  0.15110884081E-01  0.14331629783E-01 -0.11108413083E-01  0.23603628348E-01  0.00000000000E+00 0. -1.
     999901    1    3    3    0    0  0.76099125965E-01 -0.34714177100E-01 -0.80895399488E-01  0.88765996684E+00  0.88000000000E+00 0. -1.
        -11    1    4    4    0    0 -0.33031683534E-01  0.27143113550E-02  0.44592705482E-01  0.55562848257E-01  0.51100000000E-03 0.  1.
         11    1    4    4    0    0 -0.58178326512E-01  0.17668235962E-01  0.47411107089E-01  0.77103556560E-01  0.51100000000E-03 0. -1.
</event>
<event>
 8    1  0.1114686E+005  0.1043930E+01  0.7957747E-01            NaN
         13   -1    0    0    0    0  0.00000000000E+00  0.00000000000E+00  0.74505805969E-08  0.10566000000E+00  0.10566000000E+00 0.  1.
     999900   -1    0    0    0    0 -0.00000000000E+00 -0.00000000000E+00 -0.74505805969E-08  0.93827000000E+00  0.93827000000E+00 0.  1.
     999902    2    1    2    0    0 -0.16448113350E-01  0.15942584145E-02 -0.15628257126E-01  0.10211852311E+01  0.10209319035E+01 0.  0.
     999903    2    3    3    0    0  0.81374706140E-01 -0.94878006921E-01  0.27555304310E-01  0.12947842838E+00  0.19536878559E-01 0.  0.
         14    1    1    2    0    0  0.16448113350E-01 -0.15942584145E-02  0.15628257126E-01  0.22744768925E-01  0.00000000000E+00 0.  1.
     999901    1    3    3    0    0 -0.97822819490E-01  0.96472265335E-01 -0.43183561436E-01  0.89170680269E+00  0.88000000000E+00 0.  1.
        -11    1    4    4    0    0  0.42401342756E-01 -0.61480596031E-01  0.21952717843E-01  0.77845491183E-01  0.51100000000E-03 0. -1.
         11    1    4    4    0    0  0.38973363383E-01 -0.33397410890E-01  0.56025864675E-02  0.51632937198E-01  0.51100000000E-03 0.  1.
</event>
<event>
 8    1  0.1114686E+005  0.1043930E+01  0.7957747E-01            NaN
         13   -1    0    0    0    0  0.00000000000E+00  0.00000000000E+00  0.74505805969E-08  0.10566000000E+00  0.10566000000E+00 0.  1.
     999900   -1    0    0    0    0 -0.00000000000E+00 -0.00000000000E+00 -0.74505805969E-08  0.93827000000E+00  0.93827000000E+00 0. -1.
     999902    2    1    2    0    0  0.21477210645E-01  0.36992784553E-02 -0.94630890365E-02  0.10201706799E+01  0.10198939704E+01 0.  0.
     999903    2    3    3    0    0 -0.67927632153E-01 -0.26652335460E-03  0.10660569567E+00  0.12804909833E+00  0.20434358032E-01 0.  0.
         14    1    1    2    0    0 -0.21477210645E-01 -0.36992784553E-02  0.94630890365E-02  0.23759320115E-01  0.00000000000E+00 0.  1.
     999901    1    3    3    0    0  0.89404842799E-01  0.39658018099E-02 -0.11606878471E+00  0.89212158156E+00  0.88000000000E+00 0. -1.
        -11    1    4    4    0    0 -0.22451593602E-01  0.60995239980E-02  0.50062835161E-01  0.55207126656E-01  0.51100000000E-03 0.  1.
         11    1    4    4    0    0 -0.45476038552E-01 -0.63660473526E-02  0.56542860509E-01  0.72841971670E-01  0.51100000000E-03 0. -1.
</event>
<event>
 8    1  0.1114686E+005  0.1043930E+01  0.7957747E-01            NaN
         13   -1    0    0    0    0  0.00000000000E+00  0.00000000000E+00  0.74505805969E-08  0.10566000000E+00  0.10566000000E+00 0.  1.
     999900   -1    0    0    0    0 -0.00000000000E+00 -0.00000000000E+00 -0.74505805969E-08  0.93827000000E+00  0.93827000000E+00 0. -1.
     999902    2    1    2    0    0  0.14645727487E-01  0.18460577609E-01  0.37386088697E-02  0.10200706736E+01  0.10197916021E+01 0.  0.
     999903    2    3    3    0    0  0.32769018501E-01  0.30598369024E-01  0.12233762295E+00  0.13184688098E+00  0.20175164843E-01 0.  0.
         14    1    1    2    0    0 -0.14645727487E-01 -0.18460577609E-01 -0.37386088697E-02  0.23859326385E-01  0.00000000000E+00 0. -1.
     999901    1    3    3    0    0 -0.18123291014E-01 -0.12137791416E-01 -0.11859901408E+00  0.88822379263E+00  0.88000000000E+00 0. -1.
        -11    1    4    4    0    0  0.65275796265E-02  0.19476433600E-01  0.46923270913E-01  0.51224947396E-01  0.51100000000E-03 0. -1.
         11    1    4    4    0    0  0.26241438875E-01  0.11121935425E-01  0.75414352033E-01  0.80621933587E-01  0.51100000000E-03 0.  1.
</event>
<event>
 8    1  0.1114686E+005  0.1043930E+01  0.7957747E-01            NaN
         13   -1    0    0    0    0  0.00000000000E+00  0.00000000000E+00  0.74505805969E-08  0.10566000000E+00  0.10566000000E+00 0. -1.
     999900   -1    0    0    0    0 -0.00000000000E+00 -0.00000000000E+00 -0.74505805969E-08  0.93827000000E+00  0.93827000000E+00 0.  1.
     999902    2    1    2    0    0 -0.34704468267E-02 -0.43788414483E-02  0.22978778372E-01  0.10202816912E+01  0.10200075916E+01 0.  0.
     999903    2    3    3    0    0 -0.10144898395E+00  0.61906547962E-01  0.53719184831E-01  0.13183443943E+00  0.19241922339E-01 0.  0.
         14    1    1    2    0    0  0.34704468267E-02  0.43788414483E-02 -0.22978778372E-01  0.23648308799E-01  0.00000000000E+00 0.  1.
     999901    1    3    3    0    0  0.97978537128E-01 -0.66285389411E-01 -0.30740406460E-01  0.88844725177E+00  0.88000000000E+00 0.  1.
        -11    1    4    4    0    0 -0.43899279446E-01  0.34963536510E-01  0.32414599472E-01  0.64811750486E-01  0.51100000000E-03 0. -1.
         11    1    4    4    0    0 -0.57549704509E-01  0.26943011452E-01  0.21304585360E-01  0.67022688946E-01  0.51100000000E-03 0.  1.
</event>
<event>
 8    1  0.1114686E+005  0.1043930E+01  0.7957747E-01            NaN
         13   -1    0    0    0    0  0.00000000000E+00  0.00000000000E+00  0.74505805969E-08  0.10566000000E+00  0.10566000000E+00 0. -1.
     999900   -1    0    0    0    0 -0.00000000000E+00 -0.00000000000E+00 -0.74505805969E-08  0.93827000000E+00  0.93827000000E+00 0.  1.
     999902    2    1    2    0    0  0.11345210418E-01  0.13396154042E-01  0.15989410710E-01  0.10201848532E+01  0.10199084776E+01 0.  0.
     999903    2    3    3    0    0 -0.12241012426E+00  0.23919817202E-01  0.29532401655E-01  0.12991261974E+00  0.21183244420E-01 0.  0.
         14    1    1    2    0    0 -0.11345210418E-01 -0.13396154042E-01 -0.15989410710E-01  0.23745146818E-01  0.00000000000E+00 0.  1.
     999901    1    3    3    0    0  0.13375533467E+00 -0.10523663161E-01 -0.13542990944E-01  0.89027223345E+00  0.88000000000E+00 0. -1.
        -11    1    4    4    0    0 -0.10394581637E+00  0.26513369623E-01  0.29510056876E-01  0.11126003814E+00  0.51100000000E-03 0. -1.
         11    1    4    4    0    0 -0.18464307884E-01 -0.25935524210E-02  0.22344778308E-04  0.18652581593E-01  0.51100000000E-03 0.  1.
</event>
<event>
 8    1  0.1114686E+005  0.1043930E+01  0.7957747E-01            NaN
         13   -1    0    0    0    0  0.00000000000E+00  0.00000000000E+00  0.74505805969E-08  0.10566000000E+00  0.10566000000E+00 0. -1.
     999900   -1    0    0    0    0 -0.00000000000E+00 -0.00000000000E+00 -0.74505805969E-08  0.93827000000E+00  0.93827000000E+00 0. -1.
     999902    2    1    2    0    0 -0.16435699081E-01  0.16187546186E-01  0.18995456850E-02  0.10207831400E+01  0.10205206719E+01 0.  0.
     999903    2    3    3    0    0  0.88681851898E-01 -0.68136549796E-01  0.61007693782E-01  0.12856454239E+00  0.17315963285E-01 0.  0.
         14    1    1    2    0    0  0.16435699081E-01 -0.16187546186E-01 -0.18995456850E-02  0.23146860038E-01  0.00000000000E+00 0. -1.
     999901    1    3    3    0    0 -0.10511755098E+00  0.84324095983E-01 -0.59108148097E-01  0.89221859757E+00  0.88000000000E+00 0. -1.
        -11    1    4    4    0    0  0.41811173874E-01 -0.35345649529E-01  0.20471957282E-01  0.58453839543E-01  0.51100000000E-03 0.  1.
         11    1    4    4    0    0  0.46870678024E-01 -0.32790900268E-01  0.40535736499E-01  0.70110702844E-01  0.51100000000E-03 0. -1.
</event>
<event>
 8    1  0.1114686E+005  0.1043930E+01  0.7957747E-01            NaN
         13   -1    0    0    0    0  0.00000000000E+00  0.00000000000E+00  0.74505805969E-08  0.10566000000E+00  0.10566000000E+00 0. -1.
     999900   -1    0    0    0    0 -0.00000000000E+00 -0.00000000000E+00 -0.74505805969E-08  0.93827000000E+00  0.93827000000E+00 0. -1.
     999902    2    1    2    0    0  0.19446995590E-01 -0.36742459738E-03  0.15566447222E-01  0.10190174546E+01  0.10187128830E+01 0.  0.
     999903    2    3    3    0    0 -0.61362431192E-01  0.93946919866E-01  0.60659543949E-01  0.12915300067E+00  0.20237232906E-01 0.  0.
         14    1    1    2    0    0 -0.19446995590E-01  0.36742459738E-03 -0.15566447222E-01  0.24912545382E-01  0.00000000000E+00 0. -1.
     999901    1    3    3    0    0  0.80809426782E-01 -0.94314344463E-01 -0.45093096727E-01  0.88986445395E+00  0.88000000000E+00 0. -1.
        -11    1    4    4    0    0 -0.17439105075E-01  0.43906397509E-01  0.21514050211E-01  0.51913481925E-01  0.51100000000E-03 0. -1.
         11    1    4    4    0    0 -0.43923326117E-01  0.50040522356E-01  0.39145493738E-01  0.77239518745E-01  0.51100000000E-03 0.  1.
</event>
<event>
 8    1  0.1114686E+005  0.1043930E+01  0.7957747E-01            NaN
         13   -1    0    0    0    0  0.00000000000E+00  0.00000000000E+00  0.74505805969E-08  0.10566000000E+00  0.10566000000E+00 0. -1.
     999900   -1    0    0    0    0 -0.00000000000E+00 -0.00000000000E+00 -0.74505805969E-08  0.93827000000E+00  0.93827000000E+00 0.  1.
     999902    2    1    2    0    0  0.14972520399E-01  0.14184168102E-01 -0.13914216276E-01  0.10190508439E+01  0.10187470982E+01 0.  0.
     999903    2    3    3    0    0  0.85706145587E-02 -0.82069989439E-01  0.94570123965E-01  0.12715696050E+00  0.20407000152E-01 0.  0.
         14    1    1    2    0    0 -0.14972520399E-01 -0.14184168102E-01  0.13914216276E-01  0.24879156063E-01  0.00000000000E+00 0. -1.
     999901    1    3    3    0    0  0.64019058404E-02  0.96254157541E-01 -0.10848434024E+00  0.89189388344E+00  0.88000000000E+00 0.  1.
        -11    1    4    4    0    0  0.43131356291E-02 -0.76732338856E-01  0.79350374917E-01  0.11046808628E+00  0.51100000000E-03 0. -1.
         11    1    4    4    0    0  0.42574789296E-02 -0.53376505830E-02  0.15219749048E-01  0.16688874218E-01  0.51100000000E-03 0.  1.
</event>
<event>
 8    1  0.1114686E+005  0.1043930E+01  0.7957747E-01            NaN
         13   -1    0    0    0    0  0.00000000000E+00  0.00000000000E+00  0.74505805969E-08  0.10566000000E+00  0.10566000000E+00 0. -1.
     999900   -1    0    0    0    0 -0.00000000000E+00 -0.00000000000E+00 -0.74505805969E-08  0.93827000000E+00  0.93827000000E+00 0.  1.
     999902    2    1    2    0    0 -0.18812750625E-01  0.24337434452E-02  0.14458044338E-01  0.10200788420E+01  0.10197999638E+01 0.  0.
     999903    2    3    3    0    0 -0.25635069288E-01 -0.86708435910E-01  0.94169716337E-01  0.13196464727E+00  0.19267148711E-01 0.  0.
         14    1    1    2    0    0  0.18812750625E-01 -0.24337434452E-02 -0.14458044338E-01  0.23851158029E-01  0.00000000000E+00 0.  1.
     999901    1    3    3    0    0  0.68223186629E-02  0.89142179355E-01 -0.79711671999E-01  0.88811419470E+00  0.88000000000E+00 0.  1.
        -11    1    4    4    0    0 -0.11508427873E-01 -0.38305783932E-01  0.55533800783E-01  0.68440055122E-01  0.51100000000E-03 0.  1.
         11    1    4    4    0    0 -0.14126641415E-01 -0.48402651978E-01  0.38635915554E-01  0.63524592151E-01  0.51100000000E-03 0. -1.
</event>
<event>
 8    1  0.1114686E+005  0.1043930E+01  0.7957747E-01            NaN
         13   -1    0    0    0    0  0.00000000000E+00  0.00000000000E+00  0.74505805969E-08  0.10566000000E+00  0.10566000000E+00 0.  1.
     999900   -1    0    0    0    0 -0.00000000000E+00 -0.00000000000E+00 -0.74505805969E-08  0.93827000000E+00  0.93827000000E+00 0. -1.
     999902    2    1    2    0    0  0.22759449501E-02 -0.97127427837E-02 -0.20821729752E-01  0.10208418704E+01  0.10205807477E+01 0.  0.
     999903    2    3    3    0    0 -0.77619413204E-01 -0.77550204125E-01 -0.72780136260E-01  0.13310042978E+00  0.19492786039E-01 0.  0.
         14    1    1    2    0    0 -0.22759449501E-02  0.97127427837E-02  0.20821729752E-01  0.23088129584E-01  0.00000000000E+00 0.  1.
     999901    1    3    3    0    0  0.79895358155E-01  0.67837461342E-01  0.51958406508E-01  0.88774144064E+00  0.88000000000E+00 0.  1.
        -11    1    4    4    0    0 -0.63036652871E-01 -0.70781876289E-01 -0.57194223051E-01  0.11070290822E+00  0.51100000000E-03 0.  1.
         11    1    4    4    0    0 -0.14582760333E-01 -0.67683278367E-02 -0.15585913209E-01  0.22397521564E-01  0.51100000000E-03 0. -1.
</event>
<event>
 8    1  0.1114686E+005  0.1043930E+01  0.7957747E-01            NaN
         13   -1    0    0    0    0  0.00000000000E+00  0.00000000000E+00  0.74505805969E-08  0.10566000000E+00  0.10566000000E+00 0.  1.
     999900   -1    0    0    0    0 -0.00000000000E+00 -0.00000000000E+00 -0.74505805969E-08  0.93827000000E+00  0.93827000000E+00 0.  1.
     999902    2    1    2    0    0 -0.53728672460E-02 -0.20948708806E-01 -0.60247202815E-02  0.10214797582E+01  0.10212330209E+01 0.  0.
     999903    2    3    3    0    0 -0.11132238519E+00  0.63138321654E-01  0.16203279049E-01  0.13086760186E+00  0.22015037101E-01 0.  0.
         14    1    1    2    0    0  0.53728672460E-02  0.20948708806E-01  0.60247202815E-02  0.22450241815E-01  0.00000000000E+00 0.  1.
     999901    1    3    3    0    0  0.10594951794E+00 -0.84087030460E-01 -0.22227999330E-01  0.89061215633E+00  0.88000000000E+00 0. -1.
        -11    1    4    4    0    0 -0.22596463609E-01  0.18194855565E-01  0.11757572659E-01  0.31307420407E-01  0.51100000000E-03 0. -1.
         11    1    4    4    0    0 -0.88725921579E-01  0.44943466088E-01  0.44457063901E-02  0.99560181450E-01  0.51100000000E-03 0.  1.
</event>
<event>
 8    1  0.1114686E+005  0.1043930E+01  0.7957747E-01            NaN
         13   -1    0    0    0    0  0.00000000000E+00  0.00000000000E+00  0.74505805969E-08  0.10566000000E+00  0.10566000000E+00 0. -1.
     999900   -1    0    0    0    0 -0.00000000000E+00 -0.00000000000E+00 -0.74505805969E-08  0.93827000000E+00  0.93827000000E+00 0. -1.
     999902    2    1    2    0    0 -0.13547433157E-01 -0.15780518666E-01 -0.90699023062E-02  0.10212403362E+01  0.10209882485E+01 0.  0.
     999903    2    3    3    0    0  0.45886674387E-01  0.11795945952E+00  0.11411331037E-01  0.12891849080E+00  0.21673435707E-01 0.  0.
         14    1    1    2    0    0  0.13547433157E-01  0.15780518666E-01  0.90699023062E-02  0.22689663779E-01  0.00000000000E+00 0.  1.
     999901    1    3    3    0    0 -0.59434107544E-01 -0.13373997819E+00 -0.20481233343E-01  0.89232184543E+00  0.88000000000E+00 0. -1.
        -11    1    4    4    0    0  0.12099873607E-01  0.48665707896E-01 -0.39646758291E-02  0.50306439366E-01  0.51100000000E-03 0.  1.
         11    1    4    4    0    0  0.33786800780E-01  0.69293751628E-01  0.15376006866E-01  0.78612051429E-01  0.51100000000E-03 0. -1.
</event>
<event>
 8    1  0.1114686E+005  0.1043930E+01  0.7957747E-01            NaN
         13   -1    0    0    0    0  0.00000000000E+00  0.00000000000E+00  0.74505805969E-08  0.10566000000E+00  0.10566000000E+00 0. -1.
     999900   -1    0    0    0    0 -0.00000000000E+00 -0.00000000000E+00 -0.74505805969E-08  0.93827000000E+00  0.93827000000E+00 0.  1.
     999902    2    1    2    0    0  0.23000205145E-01 -0.43220012904E-02 -0.15901609458E-03  0.10205267007E+01  0.10202583165E+01 0.  0.
     999903    2    3    3    0    0  0.48554979464E-01 -0.11113066966E+00  0.49113972980E-01  0.13233248456E+00  0.19801322163E-01 0.  0.
         14    1    1    2    0    0 -0.23000205145E-01  0.43220012904E-02  0.15901609458E-03  0.23403299297E-01  0.00000000000E+00 0.  1.
     999901    1    3    3    0    0 -0.25554774319E-01  0.10680866837E+00 -0.49272989075E-01  0.88819421614E+00  0.88000000000E+00 0.  1.
        -11    1    4    4    0    0  0.12332226884E-01 -0.50889885651E-01  0.24905897050E-01  0.57986456267E-01  0.51100000000E-03 0.  1.
         11    1    4    4    0    0  0.36222752580E-01 -0.60240784008E-01  0.24208075930E-01  0.74346028297E-01  0.51100000000E-03 0. -1.
</event>
<event>
 8    1  0.1114686E+005  0.1043930E+01  0.7957747E-01            NaN
         13   -1    0    0    0    0  0.00000000000E+00  0.00000000000E+00  0.74505805969E-08  0.10566000000E+00  0.10566000000E+00 0.  1.
     999900   -1    0    0    0    0 -0.00000000000E+00 -0.00000000000E+00 -0.74505805969E-08  0.93827000000E+00  0.93827000000E+00 0. -1.
     999902    2    1    2    0    0 -0.12715891982E-01 -0.55420316202E-02 -0.19444935798E-01  0.10200445745E+01  0.10197648849E+01 0.  0.
     999903    2    3    3    0    0 -0.40837699848E-01  0.24799000326E-02 -0.12502226615E+00  0.13325161097E+00  0.21249874395E-01 0.  0.
         14    1    1    2    0    0  0.12715891982E-01  0.55420316202E-02  0.19444935798E-01  0.23885425506E-01  0.00000000000E+00 0.  1.
     999901    1    3    3    0    0  0.28121807867E-01 -0.80219316528E-02  0.10557733035E+00  0.88679296352E+00  0.88000000000E+00 0.  1.
        -11    1    4    4    0    0 -0.21539469101E-01 -0.50874692955E-02 -0.88764798190E-01  0.91483777752E-01  0.51100000000E-03 0. -1.
         11    1    4    4    0    0 -0.19298230747E-01  0.75673693281E-02 -0.36257467956E-01  0.41767833223E-01  0.51100000000E-03 0.  1.
</event>
<event>
 8    1  0.1114686E+005  0.1043930E+01  0.7957747E-01            NaN
         13   -1    0    0    0    0  0.00000000000E+00  0.00000000000E+00  0.74505805969E-08  0.10566000000E+00  0.10566000000E+00 0. -1.
     999900   -1    0    0    0    0 -0.00000000000E+00 -0.00000000000E+00 -0.74505805969E-08  0.93827000000E+00  0.93827000000E+00 0.  1.
     999902    2    1    2    0    0  0.17226967826E-01 -0.13354140425E-01  0.58857034343E-02  0.10213525114E+01  0.10211029378E+01 0.  0.
     999903    2    3    3    0    0 -0.71569806391E-02 -0.88117135827E-01 -0.95500657080E-01  0.13204757127E+00  0.22368137552E-01 0.  0.
         14    1    1    2    0    0 -0.17226967826E-01  0.13354140425E-01 -0.58857034343E-02  0.22577488609E-01  0.00000000000E+00 0.  1.
     999901    1    3    3    0    0  0.24383948465E-01  0.74762995403E-01  0.10138636051E+00  0.88930494012E+00  0.88000000000E+00 0. -1.
        -11    1    4    4    0    0 -0.42777060408E-02 -0.23086381335E-01 -0.12626214367E-01  0.26663874107E-01  0.51100000000E-03 0.  1.
         11    1    4    4    0    0 -0.28792745983E-02 -0.65030754492E-01 -0.82874442713E-01  0.10538369716E+00  0.51100000000E-03 0. -1.
</event>
<event>
 8    1  0.1114686E+005  0.1043930E+01  0.7957747E-01            NaN
         13   -1    0    0    0    0  0.00000000000E+00  0.00000000000E+00  0.74505805969E-08  0.10566000000E+00  0.10566000000E+00 0.  1.
     999900   -1    0    0    0    0 -0.00000000000E+00 -0.00000000000E+00 -0.74505805969E-08  0.93827000000E+00  0.93827000000E+00 0. -1.
     999902    2    1    2    0    0  0.13055475148E-01 -0.12186365360E-01 -0.15934711194E-01  0.10199953399E+01  0.10197144824E+01 0.  0.
     999903    2    3    3    0    0 -0.82967964182E-01  0.43061026084E-01 -0.88229353902E-01  0.13010810520E+00  0.20143611915E-01 0.  0.
         14    1    1    2    0    0 -0.13055475148E-01  0.12186365360E-01  0.15934711194E-01  0.23934660074E-01  0.00000000000E+00 0. -1.
     999901    1    3    3    0    0  0.96023439330E-01 -0.55247391444E-01  0.72294642708E-01  0.88988723472E+00  0.88000000000E+00 0.  1.
        -11    1    4    4    0    0 -0.21031897863E-01  0.17822080039E-01 -0.16962136491E-01  0.32371939392E-01  0.51100000000E-03 0. -1.
         11    1    4    4    0    0 -0.61936066319E-01  0.25238946046E-01 -0.71267217411E-01  0.97736165809E-01  0.51100000000E-03 0.  1.
</event>
<event>
 8    1  0.1114686E+005  0.1043930E+01  0.7957747E-01            NaN
         13   -1    0    0    0    0  0.00000000000E+00  0.00000000000E+00  0.74505805969E-08  0.10566000000E+00  0.10566000000E+00 0. -1.
     999900   -1    0    0    0    0 -0.00000000000E+00 -0.00000000000E+00 -0.74505805969E-08  0.93827000000E+00  0.93827000000E+00 0. -1.
     999902    2    1    2    0    0  0.95148177607E-02 -0.22929506013E-01  0.10243126545E-01  0.10170745416E+01  0.10167199258E+01 0.  0.
     999903    2    3    3    0    0 -0.11489598570E+00 -0.26901067516E-01  0.44400922580E-01  0.12765867919E+00  0.20013532507E-01 0.  0.
         14    1    1    2    0    0 -0.95148177607E-02  0.22929506013E-01 -0.10243126545E-01  0.26855458374E-01  0.00000000000E+00 0. -1.
     999901    1    3    3    0    0  0.12441080346E+00  0.39715615026E-02 -0.34157796035E-01  0.88941586243E+00  0.88000000000E+00 0.  1.
        -11    1    4    4    0    0 -0.63708906287E-01 -0.16385287130E-01  0.14194500499E-01  0.67298197153E-01  0.51100000000E-03 0. -1.
         11    1    4    4    0    0 -0.51187079415E-01 -0.10515780386E-01  0.30206422081E-01  0.60360482040E-01  0.51100000000E-03 0.  1.
</event>
<event>
 7    1  0.1114686E+005  0.1043930E+01  0.7957747E-01            NaN
         13   -1    0    0    0    0  0.00000000000E+00  0.00000000000E+00  0.74505805969E-08  0.10566000000E+00  0.10566000000E+00 0. -1.
     999900   -1    0    0    0    0 -0.00000000000E+00 -0.00000000000E+00 -0.74505805969E-08  0.93827000000E+00  0.93827000000E+00 0. -1.
     999903    2    1    2    0    0 -0.30277302283E-01 -0.66390324820E-01 -0.91957013440E-01  0.11913693824E+00  0.20325537378E-01 0.  0.
         14    1    1    2    0    0  0.35810096459E-01  0.12156929151E-01  0.11066060987E-01  0.39403193279E-01  0.00000000000E+00 0. -1.
     999901    1    1    2    0    0 -0.55327941757E-02  0.54233395668E-01  0.80890952453E-01  0.88538986848E+00  0.88000000000E+00 0. -1.
        -11    1    3    3    0    0 -0.76684574341E-02 -0.21192894309E-01 -0.44131582416E-01  0.49556046010E-01  0.51100000000E-03 0.  1.
         11    1    3    3    0    0 -0.22608844849E-01 -0.45197430511E-01 -0.47825431024E-01  0.69580892232E-01  0.51100000000E-03 0. -1.
</event>
<event>
 8    1  0.1114686E+005  0.1043930E+01  0.7957747E-01            NaN
         13   -1    0    0    0    0  0.00000000000E+00  0.00000000000E+00  0.74505805969E-08  0.10566000000E+00  0.10566000000E+00 0. -1.
     999900   -1    0    0    0    0 -0.00000000000E+00 -0.00000000000E+00 -0.74505805969E-08  0.93827000000E+00  0.93827000000E+00 0.  1.
     999902    2    1    2    0    0 -0.12982068151E-01 -0.16926392729E-01 -0.96430344059E-02  0.10205200667E+01  0.10202515286E+01 0.  0.
     999903    2    3    3    0    0  0.80224208371E-01 -0.81815879012E-01 -0.61865316722E-01  0.13168643650E+00  0.19602001886E-01 0.  0.
         14    1    1    2    0    0  0.12982068151E-01  0.16926392729E-01  0.96430344059E-02  0.23409933294E-01  0.00000000000E+00 0. -1.
     999901    1    3    3    0    0 -0.93206276521E-01  0.64889486283E-01  0.52222282316E-01  0.88883363021E+00  0.88000000000E+00 0. -1.
        -11    1    4    4    0    0  0.64327067046E-02 -0.15278355803E-01 -0.12300671713E-01  0.20648862371E-01  0.51100000000E-03 0.  1.
         11    1    4    4    0    0  0.73791501666E-01 -0.66537523209E-01 -0.49564645009E-01  0.11103757413E+00  0.51100000000E-03 0. -1.
</event>
<event>
 8    1  0.1114686E+005  0.1043930E+01  0.7957747E-01            NaN
         13   -1    0    0    0    0  0.00000000000E+00  0.00000000000E+00  0.74505805969E-08  0.10566000000E+00  0.10566000000E+00 0. -1.
     999900   -1    0    0    0    0 -0.00000000000E+00 -0.00000000000E+00 -0.74505805969E-08  0.93827000000E+00  0.93827000000E+00 0.  1.
     999902    2    1    2    0    0 -0.14704230731E-01  0.11168433036E-01  0.14779237031E-01  0.10202789082E+01  0.10200047433E+01 0.  0.
     999903    2    3    3    0    0 -0.87388028099E-01  0.95424976957E-01  0.23327111259E-01  0.13323033805E+00  0.21530795940E-01 0.  0.
         14    1    1    2    0    0  0.14704230731E-01 -0.11168433036E-01 -0.14779237031E-01  0.23651091837E-01  0.00000000000E+00 0.  1.
     999901    1    3    3    0    0  0.72683797368E-01 -0.84256543922E-01 -0.85478742277E-02  0.88704857012E+00  0.88000000000E+00 0.  1.
        -11    1    4    4    0    0 -0.74651559787E-02  0.26077624058E-02  0.50274301611E-02  0.93843035744E-02  0.51100000000E-03 0. -1.
         11    1    4    4    0    0 -0.79922872120E-01  0.92817214552E-01  0.18299681098E-01  0.12384603447E+00  0.51100000000E-03 0.  1.
</event>
<event>
 8    1  0.1114686E+005  0.1043930E+01  0.7957747E-01            NaN
         13   -1    0    0    0    0  0.00000000000E+00  0.00000000000E+00  0.74505805969E-08  0.10566000000E+00  0.10566000000E+00 0.  1.
     999900   -1    0    0    0    0 -0.00000000000E+00 -0.00000000000E+00 -0.74505805969E-08  0.93827000000E+00  0.93827000000E+00 0.  1.
     999902    2    1    2    0    0  0.10055969560E-01 -0.21427629872E-01  0.92136144328E-03  0.10202421391E+01  0.10199671111E+01 0.  0.
     999903    2    3    3    0    0 -0.52659813885E-01 -0.49650519159E-01 -0.10788564950E+00  0.13087789058E+00  0.15858083799E-01 0.  0.
         14    1    1    2    0    0 -0.10055969560E-01  0.21427629872E-01 -0.92136144328E-03  0.23687860871E-01  0.00000000000E+00 0.  1.
     999901    1    3    3    0    0  0.62715783445E-01  0.28222889287E-01  0.10880701095E+00  0.88936424855E+00  0.88000000000E+00 0. -1.
        -11    1    4    4    0    0 -0.20261093280E-01 -0.22494223218E-01 -0.58471625729E-01  0.65845987846E-01  0.51100000000E-03 0.  1.
         11    1    4    4    0    0 -0.32398720606E-01 -0.27156295941E-01 -0.49414023774E-01  0.65031902730E-01  0.51100000000E-03 0. -1.
</event>
<event>
 8    1  0.1114686E+005  0.1043930E+01  0.7957747E-01            NaN
         13   -1    0    0    0    0  0.00000000000E+00  0.00000000000E+00  0.74505805969E-08  0.10566000000E+00  0.10566000000E+00 0. -1.
     999900   -1    0    0    0    0 -0.00000000000E+00 -0.00000000000E+00 -0.74505805969E-08  0.93827000000E+00  0.93827000000E+00 0.  1.
     999902    2    1    2    0    0 -0.37188912041E-02  0.11399208229E-01  0.19249732471E-01  0.10212512809E+01  0.10209994390E+01 0.  0.
     999903    2    3    3    0    0  0.65740375066E-01 -0.10902294470E+00  0.19180799266E-01  0.13033821592E+00  0.20306355776E-01 0.  0.
         14    1    1    2    0    0  0.37188912041E-02 -0.11399208229E-01 -0.19249732471E-01  0.22678719105E-01  0.00000000000E+00 0.  1.
     999901    1    3    3    0    0 -0.69459266270E-01  0.12042215293E+00  0.68933204955E-04  0.89091306497E+00  0.88000000000E+00 0. -1.
        -11    1    4    4    0    0  0.34611444413E-01 -0.55652815975E-01  0.20073047386E-01  0.68544703389E-01  0.51100000000E-03 0. -1.
         11    1    4    4    0    0  0.31128930653E-01 -0.53370128723E-01 -0.89224812026E-03  0.61793512533E-01  0.51100000000E-03 0.  1.
</event>
<event>
 8    1  0.1114686E+005  0.1043930E+01  0.7957747E-01            NaN
         13   -1    0    0    0    0  0.00000000000E+00  0.00000000000E+00  0.74505805969E-08  0.10566000000E+00  0.10566000000E+00 0.  1.
     999900   -1    0    0    0    0 -0.00000000000E+00 -0.00000000000E+00 -0.74505805969E-08  0.93827000000E+00  0.93827000000E+00 0.  1.
     999902    2    1    2    0    0 -0.19864196187E-01 -0.15652534830E-01  0.97747569427E-02  0.10168166452E+01  0.10164550929E+01 0.  0.
     999903    2    3    3    0    0 -0.81341870036E-01 -0.20757105444E-01  0.97724789890E-01  0.13028363997E+00  0.19399356598E-01 0.  0.
         14    1    1    2    0    0  0.19864196187E-01  0.15652534830E-01 -0.97747569427E-02  0.27113354829E-01  0.00000000000E+00 0. -1.
     999901    1    3    3    0    0  0.61477673849E-01  0.51045706138E-02 -0.87950032947E-01  0.88653300521E+00  0.88000000000E+00 0.  1.
        -11    1    4    4    0    0 -0.28366532469E-01 -0.13899644030E-01  0.26396496648E-01  0.41169119795E-01  0.51100000000E-03 0.  1.
         11    1    4    4    0    0 -0.52975337567E-01 -0.68574614143E-02  0.71328293242E-01  0.89114520171E-01  0.51100000000E-03 0. -1.
</event>
<event>
 8    1  0.1114686E+005  0.1043930E+01  0.7957747E-01            NaN
         13   -1    0    0    0    0  0.00000000000E+00  0.00000000000E+00  0.74505805969E-08  0.10566000000E+00  0.10566000000E+00 0. -1.
     999900   -1    0    0    0    0 -0.00000000000E+00 -0.00000000000E+00 -0.74505805969E-08  0.93827000000E+00  0.93827000000E+00 0.  1.
     999902    2    1    2    0    0 -0.14161005850E-01 -0.11956385826E-02 -0.20078413398E-01  0.10193310910E+01  0.10190342324E+01 0.  0.
     999903    2    3    3    0    0  0.58067618427E-01  0.40915040931E-01  0.10179235695E+00  0.12700672838E+00  0.26891192548E-01 0.  0.
         14    1    1    2    0    0  0.14161005850E-01  0.11956385826E-02  0.20078413398E-01  0.24598908978E-01  0.00000000000E+00 0. -1.
     999901    1    3    3    0    0 -0.72228624277E-01 -0.42110679513E-01 -0.12187077035E+00  0.89232436264E+00  0.88000000000E+00 0.  1.
        -11    1    4    4    0    0  0.20023536678E-01  0.23421476793E-01  0.25597222251E-01  0.40062282813E-01  0.51100000000E-03 0. -1.
         11    1    4    4    0    0  0.38044081749E-01  0.17493564138E-01  0.76195134701E-01  0.86944445570E-01  0.51100000000E-03 0.  1.
</event>
<event>
 8    1  0.1114686E+005  0.1043930E+01  0.7957747E-01            NaN
         13   -1    0    0    0    0  0.00000000000E+00  0.00000000000E+00  0.74505805969E-08  0.10566000000E+00  0.10566000000E+00 0. -1.
     999900   -1    0    0    0    0 -0.00000000000E+00 -0.00000000000E+00 -0.74505805969E-08  0.93827000000E+00  0.93827000000E+00 0.  1.
     999902    2    1    2    0    0 -0.12692985155E-01  0.32790002948E-02  0.20255294191E-01  0.10198024088E+01  0.10195169505E+01 0.  0.
     999903    2    3    3    0    0 -0.11583010586E+00 -0.30570109363E-01 -0.47363461620E-01  0.13055816560E+00  0.21236574558E-01 0.  0.
         14    1    1    2    0    0  0.12692985155E-01 -0.32790002948E-02 -0.20255294191E-01  0.24127591215E-01  0.00000000000E+00 0.  1.
     999901    1    3    3    0    0  0.10313712071E+00  0.33849109658E-01  0.67618755811E-01  0.88924424318E+00  0.88000000000E+00 0.  1.
        -11    1    4    4    0    0 -0.81733961025E-01 -0.15678712534E-01 -0.23982000142E-01  0.86612123074E-01  0.51100000000E-03 0. -1.
         11    1    4    4    0    0 -0.34096144837E-01 -0.14891396829E-01 -0.23381461477E-01  0.43946042530E-01  0.51100000000E-03 0.  1.
</event>
<event>
 8    1  0.1114686E+005  0.1043930E+01  0.7957747E-01            NaN
         13   -1    0    0    0    0  0.00000000000E+00  0.00000000000E+00  0.74505805969E-08  0.10566000000E+00  0.10566000000E+00 0.  1.
     999900   -1    0    0    0    0 -0.00000000000E+00 -0.00000000000E+00 -0.74505805969E-08  0.93827000000E+00  0.93827000000E+00 0. -1.
     999902    2    1    2    0    0  0.15493179008E-01  0.16246985243E-01 -0.56426794118E-02  0.10207817181E+01  0.10205192174E+01 0.  0.
     999903    2    3    3    0    0 -0.39045017944E-01 -0.87323699939E-01 -0.84584966274E-01  0.12952800200E+00  0.21747293754E-01 0.  0.
         14    1    1    2    0    0 -0.15493179008E-01 -0.16246985243E-01  0.56426794118E-02  0.23148281927E-01  0.00000000000E+00 0. -1.
     999901    1    3    3    0    0  0.54538196951E-01  0.10357068518E+00  0.78942286862E-01  0.89125371607E+00  0.88000000000E+00 0.  1.
        -11    1    4    4    0    0 -0.32430798217E-01 -0.81087105026E-01 -0.82602645950E-01  0.12020954003E+00  0.51100000000E-03 0. -1.
         11    1    4    4    0    0 -0.66142197264E-02 -0.62365949129E-02 -0.19823203233E-02  0.93184619739E-02  0.51100000000E-03 0.  1.
</event>
<event>
 8    1  0.1114686E+005  0.1043930E+01  0.7957747E-01            NaN
         13   -1    0    0    0    0  0.00000000000E+00  0.00000000000E+00  0.74505805969E-08  0.10566000000E+00  0.10566000000E+00 0. -1.
     999900   -1    0    0    0    0 -0.00000000000E+00 -0.00000000000E+00 -0.74505805969E-08  0.93827000000E+00  0.93827000000E+00 0. -1.
     999902    2    1    2    0    0 -0.36526890404E-02  0.21144988683E-02 -0.23555550536E-01  0.10199993250E+01  0.10197185621E+01 0.  0.
     999903    2    3    3    0    0  0.12350126176E-01 -0.87136221076E-01  0.90082798362E-01  0.12807138208E+00  0.23283507188E-01 0.  0.
         14    1    1    2    0    0  0.36526890404E-02 -0.21144988683E-02  0.23555550536E-01  0.23930674954E-01  0.00000000000E+00 0. -1.
     999901    1    3    3    0    0 -0.16002815217E-01  0.89250719945E-01 -0.11363834890E+00  0.89192794297E+00  0.88000000000E+00 0. -1.
        -11    1    4    4    0    0  0.12887293841E-02 -0.30293548681E-01  0.46827119494E-01  0.55788889183E-01  0.51100000000E-03 0.  1.
         11    1    4    4    0    0  0.11061396792E-01 -0.56842672395E-01  0.43255678867E-01  0.72282492896E-01  0.51100000000E-03 0. -1.
</event>
<event>
 8    1  0.1114686E+005  0.1043930E+01  0.7957747E-01            NaN
         13   -1    0    0    0    0  0.00000000000E+00  0.00000000000E+00  0.74505805969E-08  0.10566000000E+00  0.10566000000E+00 0. -1.
     999900   -1    0    0    0    0 -0.00000000000E+00 -0.00000000000E+00 -0.74505805969E-08  0.93827000000E+00  0.93827000000E+00 0.  1.
     999902    2    1    2    0    0  0.46066399247E-02  0.14230653035E-01  0.18657399549E-01  0.10200170082E+01  0.10197366650E+01 0.  0.
     999903    2    3    3    0    0  0.33663800955E-01  0.12294260934E+00 -0.26385724937E-01  0.13170878970E+00  0.20071425407E-01 0.  0.
         14    1    1    2    0    0 -0.46066399247E-02 -0.14230653035E-01 -0.18657399549E-01  0.23912991765E-01  0.00000000000E+00 0.  1.
     999901    1    3    3    0    0 -0.29057161030E-01 -0.10871195631E+00  0.45043124486E-01  0.88830821853E+00  0.88000000000E+00 0. -1.
        -11    1    4    4    0    0  0.33059056139E-01  0.11199173911E+00 -0.29217257118E-01  0.12037009619E+00  0.51100000000E-03 0.  1.
         11    1    4    4    0    0  0.60474481530E-03  0.10950870232E-01  0.28315321810E-02  0.11338693514E-01  0.51100000000E-03 0. -1.
</event>
<event>
 8    1  0.1114686E+005  0.1043930E+01  0.7957747E-01            NaN
         13   -1    0    0    0    0  0.00000000000E+00  0.00000000000E+00  0.74505805969E-08  0.10566000000E+00  0.10566000000E+00 0. -1.
     999900   -1    0    0    0    0 -0.00000000000E+00 -0.00000000000E+00 -0.74505805969E-08  0.93827000000E+00  0.93827000000E+00 0.  1.
     999902    2    1    2    0    0 -0.21537873083E-01  0.82930434269E-02  0.11102224841E-01  0.10183191831E+01  0.10179970750E+01 0.  0.
     999903    2    3    3    0    0 -0.62520683635E-02 -0.95324475059E-01  0.84431867689E-01  0.12907934903E+00  0.20171617703E-01 0.  0.
         14    1    1    2    0    0  0.21537873083E-01 -0.82930434269E-02 -0.11102224841E-01  0.25610816907E-01  0.00000000000E+00 0. -1.
     999901    1    3    3    0    0 -0.15285804719E-01  0.10361751849E+00 -0.73329642848E-01  0.88923983406E+00  0.88000000000E+00 0.  1.
        -11    1    4    4    0    0  0.81366825429E-03 -0.32149286219E-01  0.40900256640E-01  0.52032016822E-01  0.51100000000E-03 0.  1.
         11    1    4    4    0    0 -0.70657366178E-02 -0.63175188840E-01  0.43531611049E-01  0.77047332209E-01  0.51100000000E-03 0. -1.
</event>
<event>
 8    1  0.1114686E+005  0.1043930E+01  0.7957747E-01            NaN
         13   -1    0    0    0    0  0.00000000000E+00  0.00000000000E+00  0.74505805969E-08  0.10566000000E+00  0.10566000000E+00 0. -1.
     999900   -1    0    0    0    0 -0.00000000000E+00 -0.00000000000E+00 -0.74505805969E-08  0.93827000000E+00  0.93827000000E+00 0.  1.
     999902    2    1    2    0    0 -0.45185560324E-02  0.13371491724E-01 -0.19168529192E-01  0.10201256590E+01  0.10198478874E+01 0.  0.
     999903    2    3    3    0    0  0.30315973733E-03  0.12918959434E+00 -0.21750855602E-01  0.13252003133E+00  0.19960355557E-01 0.  0.
         14    1    1    2    0    0  0.45185560324E-02 -0.13371491724E-01  0.19168529192E-01  0.23804341010E-01  0.00000000000E+00 0.  1.
     999901    1    3    3    0    0 -0.48217157697E-02 -0.11581810262E+00  0.25823264094E-02  0.88760562766E+00  0.88000000000E+00 0.  1.
        -11    1    4    4    0    0  0.45052547729E-02  0.39769411960E-01  0.14108898139E-02  0.40051906063E-01  0.51100000000E-03 0.  1.
         11    1    4    4    0    0 -0.42020950355E-02  0.89420182380E-01 -0.23161745415E-01  0.92468125271E-01  0.51100000000E-03 0. -1.
</event>
<event>
 8    1  0.1114686E+005  0.1043930E+01  0.7957747E-01            NaN
         13   -1    0    0    0    0  0.00000000000E+00  0.00000000000E+00  0.74505805969E-08  0.10566000000E+00  0.10566000000E+00 0.  1.
     999900   -1    0    0    0    0 -0.00000000000E+00 -0.00000000000E+00 -0.74505805969E-08  0.93827000000E+00  0.93827000000E+00 0.  1.
     999902    2    1    2    0    0  0.13977352905E-01  0.67916756360E-02 -0.18014490856E-01  0.10201389275E+01  0.10198614691E+01 0.  0.
     999903    2    3    3    0    0 -0.68064347982E-01  0.63044755462E-01 -0.91216799679E-01  0.13151424420E+00  0.19185807919E-01 0.  0.
         14    1    1    2    0    0 -0.13977352905E-01 -0.67916756360E-02  0.18014490856E-01  0.23791072548E-01  0.00000000000E+00 0.  1.
     999901    1    3    3    0    0  0.82041700886E-01 -0.56253079826E-01  0.73202308823E-01  0.88862468326E+00  0.88000000000E+00 0.  1.
        -11    1    4    4    0    0 -0.31103412158E-01  0.20994730533E-01 -0.47164254676E-01  0.60273783672E-01  0.51100000000E-03 0. -1.
         11    1    4    4    0    0 -0.36960935824E-01  0.42050024929E-01 -0.44052545004E-01  0.71240460525E-01  0.51100000000E-03 0.  1.
</event>
<event>
 8    1  0.1114686E+005  0.1043930E+01  0.7957747E-01            NaN
         13   -1    0    0    0    0  0.00000000000E+00  0.00000000000E+00  0.74505805969E-08  0.10566000000E+00  0.10566000000E+00 0. -1.
     999900   -1    0    0    0    0 -0.00000000000E+00 -0.00000000000E+00 -0.74505805969E-08  0.93827000000E+00  0.93827000000E+00 0.  1.
     999902    2    1    2    0    0  0.71550100342E-02  0.22497702407E-01 -0.47604257992E-02  0.10198467603E+01  0.10195623630E+01 0.  0.
     999903    2    3    3    0    0  0.10447062750E+00  0.40679236689E-01 -0.66964652077E-01  0.13211354395E+00  0.20020278712E-01 0.  0.
         14    1    1    2    0    0 -0.71550100342E-02 -0.22497702407E-01  0.47604257992E-02  0.24083239732E-01  0.00000000000E+00 0.  1.
     999901    1    3    3    0    0 -0.97315617462E-01 -0.18181534282E-01  0.62204226278E-01  0.88773321632E+00  0.88000000000E+00 0. -1.
        -11    1    4    4    0    0  0.34877018810E-01  0.20666855182E-01 -0.16119937266E-01  0.43630709857E-01  0.51100000000E-03 0.  1.
         11    1    4    4    0    0  0.69593608686E-01  0.20012381507E-01 -0.50844714811E-01  0.88482834091E-01  0.51100000000E-03 0. -1.
</event>
<event>
 8    1  0.1114686E+005  0.1043930E+01  0.7957747E-01            NaN
         13   -1    0    0    0    0  0.00000000000E+00  0.00000000000E+00  0.74505805969E-08  0.10566000000E+00  0.10566000000E+00 0.  1.
     999900   -1    0    0    0    0 -0.00000000000E+00 -0.00000000000E+00 -0.74505805969E-08  0.93827000000E+00  0.93827000000E+00 0. -1.
     999902    2    1    2    0    0  0.28738187770E-02 -0.24486712269E-01  0.27848223628E-02  0.10191184473E+01  0.10188163703E+01 0.  0.
     999903    2    3    3    0    0 -0.73807563901E-01 -0.47527582196E-01 -0.94096943592E-01  0.13018819541E+00  0.19705427495E-01 0.  0.
         14    1    1    2    0    0 -0.28738187770E-02  0.24486712269E-01 -0.27848223628E-02  0.24811552706E-01  0.00000000000E+00 0.  1.
     999901    1    3    3    0    0  0.76681382678E-01  0.23040869927E-01  0.96881765955E-01  0.88893025188E+00  0.88000000000E+00 0. -1.
        -11    1    4    4    0    0 -0.56844414292E-01 -0.40149124334E-01 -0.62342093772E-01  0.93434669143E-01  0.51100000000E-03 0.  1.
         11    1    4    4    0    0 -0.16963149609E-01 -0.73784578619E-02 -0.31754849820E-01  0.36753526268E-01  0.51100000000E-03 0. -1.
</event>
<event>
 8    1  0.1114686E+005  0.1043930E+01  0.7957747E-01            NaN
         13   -1    0    0    0    0  0.00000000000E+00  0.00000000000E+00  0.74505805969E-08  0.10566000000E+00  0.10566000000E+00 0. -1.
     999900   -1    0    0    0    0 -0.00000000000E+00 -0.00000000000E+00 -0.74505805969E-08  0.93827000000E+00  0.93827000000E+00 0.  1.
     999902    2    1    2    0    0 -0.37013573913E-02  0.17001215168E-01 -0.17335783872E-01  0.10193684291E+01  0.10190724819E+01 0.  0.
     999903    2    3    3    0    0 -0.21086929189E-01  0.56914589124E-01  0.11181524913E+00  0.12887680932E+00  0.20558526354E-01 0.  0.
         14    1    1    2    0    0  0.37013573913E-02 -0.17001215168E-01  0.17335783872E-01  0.24561570923E-01  0.00000000000E+00 0. -1.
     999901    1    3    3    0    0  0.17385571798E-01 -0.39913373956E-01 -0.12915103300E+00  0.89049161975E+00  0.88000000000E+00 0.  1.
        -11    1    4    4    0    0 -0.29803204531E-03  0.30252165625E-01  0.51582828004E-01  0.59802438195E-01  0.51100000000E-03 0.  1.
         11    1    4    4    0    0 -0.20788897144E-01  0.26662423499E-01  0.60232421124E-01  0.69074371128E-01  0.51100000000E-03 0. -1.
</event>
<event>
 8    1  0.1114686E+005  0.1043930E+01  0.7957747E-01            NaN
         13   -1    0    0    0    0  0.00000000000E+00  0.00000000000E+00  0.74505805969E-08  0.10566000000E+00  0.10566000000E+00 0.  1.
     999900   -1    0    0    0    0 -0.00000000000E+00 -0.00000000000E+00 -0.74505805969E-08  0.93827000000E+00  0.93827000000E+00 0.  1.
     999902    2    1    2    0    0 -0.22647029385E-01  0.15035798605E-02 -0.61651986937E-02  0.10204106810E+01  0.10201395980E+01 0.  0.
     999903    2    3    3    0    0  0.15222267068E-01 -0.11342326832E+00 -0.59454165024E-01  0.13053317369E+00  0.20188028203E-01 0.  0.
         14    1    1    2    0    0  0.22647029385E-01 -0.15035798605E-02  0.61651986937E-02  0.23519319022E-01  0.00000000000E+00 0.  1.
     999901    1    3    3    0    0 -0.37869296453E-01  0.11492684818E+00  0.53288966331E-01  0.88987750729E+00  0.88000000000E+00 0. -1.
        -11    1    4    4    0    0  0.42463006945E-02 -0.24405743208E-01 -0.40458998489E-02  0.25105812031E-01  0.51100000000E-03 0.  1.
         11    1    4    4    0    0  0.10975966374E-01 -0.89017525114E-01 -0.55408265175E-01  0.10542736166E+00  0.51100000000E-03 0. -1.
</event>
<event>
 8    1  0.1114686E+005  0.1043930E+01  0.7957747E-01            NaN
         13   -1    0    0    0    0  0.00000000000E+00  0.00000000000E+00  0.74505805969E-08  0.10566000000E+00  0.10566000000E+00 0. -1.
     999900   -1    0    0    0    0 -0.00000000000E+00 -0.00000000000E+00 -0.74505805969E-08  0.93827000000E+00  0.93827000000E+00 0.  1.
     999902    2    1    2    0    0  0.36301795434E-02 -0.70303009428E-02 -0.22170511884E-01  0.10203899292E+01  0.10201183621E+01 0.  0.
     999903    2    3    3    0    0  0.58521493001E-01  0.89241140004E-01  0.69192203481E-01  0.12874628270E+00  0.19982444131E-01 0.  0.
         14    1    1    2    0    0 -0.36301795434E-02  0.70303009428E-02  0.22170511884E-01  0.23540070775E-01  0.00000000000E+00 0. -1.
     999901    1    3    3    0    0 -0.54891313457E-01 -0.96271440947E-01 -0.91362715366E-01  0.89164364653E+00  0.88000000000E+00 0.  1.
        -11    1    4    4    0    0  0.28710323488E-01  0.60950382078E-01  0.40341809963E-01  0.78529959267E-01  0.51100000000E-03 0. -1.
         11    1    4    4    0    0  0.29811169513E-01  0.28290757926E-01  0.28850393518E-01  0.50216323431E-01  0.51100000000E-03 0.  1.
</event>
<event>
 8    1  0.1114686E+005  0.1043930E+01  0.7957747E-01            NaN
         13   -1    0    0    0    0  0.00000000000E+00  0.00000000000E+00  0.74505805969E-08  0.10566000000E+00  0.10566000000E+00 0.  1.
     999900   -1    0    0    0    0 -0.00000000000E+00 -0.00000000000E+00 -0.74505805969E-08  0.93827000000E+00  0.93827000000E+00 0.  1.
     999902    2    1    2    0    0  0.19905838628E-01 -0.13675949055E-01  0.11584412006E-03  0.10197786561E+01  0.10194926287E+01 0.  0.
     999903    2    3    3    0    0 -0.61538918899E-01 -0.61987379397E-01  0.93894577939E-01  0.12974399733E+00  0.19693636874E-01 0.  0.
         14    1    1    2    0    0 -0.19905838628E-01  0.13675949055E-01 -0.11584412006E-03  0.24151343935E-01  0.00000000000E+00 0.  1.
     999901    1    3    3    0    0  0.81444757526E-01  0.48311430343E-01 -0.93778733819E-01  0.89003465873E+00  0.88000000000E+00 0.  1.
        -11    1    4    4    0    0 -0.13788033190E-01 -0.10945698421E-01  0.90041018585E-02  0.19780119930E-01  0.51100000000E-03 0.  1.
         11    1    4    4    0    0 -0.47750885709E-01 -0.51041680976E-01  0.84890476081E-01  0.10996387740E+00  0.51100000000E-03 0. -1.
</event>
<event>
 8    1  0.1114686E+005  0.1043930E+01  0.7957747E-01            NaN
         13   -1    0    0    0    0  0.00000000000E+00  0.00000000000E+00  0.74505805969E-08  0.10566000000E+00  0.10566000000E+00 0. -1.
     999900   -1    0    0    0    0 -0.00000000000E+00 -0.00000000000E+00 -0.74505805969E-08  0.93827000000E+00  0.93827000000E+00 0.  1.
     999902    2    1    2    0    0  0.61114254741E-02 -0.11622573327E-01  0.19829982453E-01  0.10201463515E+01  0.10198690683E+01 0.  0.
     999903    2    3    3    0    0 -0.83791187045E-01 -0.81046010482E-01 -0.53630046911E-01  0.12981019628E+00  0.19623615521E-01 0.  0.
         14    1    1    2    0    0 -0.61114254741E-02  0.11622573327E-01 -0.19829982453E-01  0.23783648504E-01  0.00000000000E+00 0.  1.
     999901    1    3    3    0    0  0.89902612520E-01  0.69423437155E-01  0.73460029363E-01  0.89033615521E+00  0.88000000000E+00 0. -1.
        -11    1    4    4    0    0 -0.42200267915E-01 -0.52257631797E-01 -0.36211528052E-01  0.76310278325E-01  0.51100000000E-03 0.  1.
         11    1    4    4    0    0 -0.41590919130E-01 -0.28788378685E-01 -0.17418518859E-01  0.53499917959E-01  0.51100000000E-03 0. -1.
</event>
<event>
 8    1  0.1114686E+005  0.1043930E+01  0.7957747E-01            NaN
         13   -1    0    0    0    0  0.00000000000E+00  0.00000000000E+00  0.74505805969E-08  0.10566000000E+00  0.10566000000E+00 0. -1.
     999900   -1    0    0    0    0 -0.00000000000E+00 -0.00000000000E+00 -0.74505805969E-08  0.93827000000E+00  0.93827000000E+00 0.  1.
     999902    2    1    2    0    0 -0.55068799259E-02  0.13233773924E-01  0.22451157289E-01  0.10172933155E+01  0.10169445298E+01 0.  0.
     999903    2    3    3    0    0  0.44246725194E-01 -0.25819864849E-01 -0.11172184590E+00  0.12487917243E+00  0.22104269806E-01 0.  0.
         14    1    1    2    0    0  0.55068799259E-02 -0.13233773924E-01 -0.22451157289E-01  0.26636684524E-01  0.00000000000E+00 0.  1.
     999901    1    3    3    0    0 -0.49753605120E-01  0.39053638773E-01  0.13417300319E+00  0.89241414305E+00  0.88000000000E+00 0. -1.
        -11    1    4    4    0    0  0.15012047252E-01 -0.17695435827E-01 -0.66361129243E-01  0.70303275935E-01  0.51100000000E-03 0. -1.
         11    1    4    4    0    0  0.29234677943E-01 -0.81244290218E-02 -0.45360716660E-01  0.54575896495E-01  0.51100000000E-03 0.  1.
</event>
<event>
 8    1  0.1114686E+005  0.1043930E+01  0.7957747E-01            NaN
         13   -1    0    0    0    0  0.00000000000E+00  0.00000000000E+00  0.74505805969E-08  0.10566000000E+00  0.10566000000E+00 0.  1.
     999900   -1    0    0    0    0 -0.00000000000E+00 -0.00000000000E+00 -0.74505805969E-08  0.93827000000E+00  0.93827000000E+00 0. -1.
     999902    2    1    2    0    0  0.69381565049E-02  0.66552238997E-02 -0.21865315882E-01  0.10200443964E+01  0.10197647025E+01 0.  0.
     999903    2    3    3    0    0 -0.12086559131E+00 -0.40293373916E-01 -0.13647011557E-01  0.12953582860E+00  0.19006388986E-01 0.  0.
         14    1    1    2    0    0 -0.69381565049E-02 -0.66552238997E-02  0.21865315882E-01  0.23885603602E-01  0.00000000000E+00 0.  1.
     999901    1    3    3    0    0  0.12780374782E+00  0.46948597815E-01 -0.82183043245E-02  0.89050856780E+00  0.88000000000E+00 0.  1.
        -11    1    4    4    0    0 -0.91154577520E-01 -0.21740749615E-01 -0.11840376343E-01  0.94457783320E-01  0.51100000000E-03 0. -1.
         11    1    4    4    0    0 -0.29711013792E-01 -0.18552624301E-01 -0.18066352139E-02  0.35078045282E-01  0.51100000000E-03 0.  1.
</event>
<event>
 8    1  0.1114686E+005  0.1043930E+01  0.7957747E-01            NaN
         13   -1    0    0    0    0  0.00000000000E+00  0.00000000000E+00  0.74505805969E-08  0.10566000000E+00  0.10566000000E+00 0.  1.
     999900   -1    0    0    0    0 -0.00000000000E+00 -0.00000000000E+00 -0.74505805969E-08  0.93827000000E+00  0.93827000000E+00 0.  1.
     999902    2    1    2    0    0 -0.15055232299E-01  0.10704069994E-01 -0.39545705951E-02  0.10250388443E+01  0.10248647504E+01 0.  0.
     999903    2    3    3    0    0  0.31265129078E-03  0.12499457743E+00  0.49403407260E-01  0.13591255086E+00  0.20193630054E-01 0.  0.
         14    1    1    2    0    0  0.15055232299E-01 -0.10704069994E-01  0.39545705951E-02  0.18891155671E-01  0.00000000000E+00 0.  1.
     999901    1    3    3    0    0 -0.15367883590E-01 -0.11429050744E+00 -0.53357977855E-01  0.88912629347E+00  0.88000000000E+00 0.  1.
        -11    1    4    4    0    0 -0.64365127192E-02  0.17580657265E-01  0.10492617200E-01  0.21467751223E-01  0.51100000000E-03 0. -1.
         11    1    4    4    0    0  0.67491640100E-02  0.10741392016E+00  0.38910790061E-01  0.11444479964E+00  0.51100000000E-03 0.  1.
</event>
<event>
 8    1  0.1114686E+005  0.1043930E+01  0.7957747E-01            NaN
         13   -1    0    0    0    0  0.00000000000E+00  0.00000000000E+00  0.74505805969E-08  0.10566000000E+00  0.10566000000E+00 0.  1.
     999900   -1    0    0    0    0 -0.00000000000E+00 -0.00000000000E+00 -0.74505805969E-08  0.93827000000E+00  0.93827000000E+00 0.  1.
     999902    2    1    2    0    0  0.19280301333E-01  0.10137211387E-01  0.57478842727E-02  0.10214015458E+01  0.10211530672E+01 0.  0.
     999903    2    3    3    0    0 -0.80612395139E-01 -0.48086417205E-01 -0.86204041649E-01  0.12908786868E+00  0.20539699927E-01 0.  0.
         14    1    1    2    0    0 -0.19280301333E-01 -0.10137211387E-01 -0.57478842727E-02  0.22528454181E-01  0.00000000000E+00 0. -1.
     999901    1    3    3    0    0  0.99892696472E-01  0.58223628592E-01  0.91951925922E-01  0.89231367714E+00  0.88000000000E+00 0. -1.
        -11    1    4    4    0    0 -0.46444119602E-01 -0.38811778044E-01 -0.57826559006E-01  0.83711303944E-01  0.51100000000E-03 0. -1.
         11    1    4    4    0    0 -0.34168275537E-01 -0.92746391608E-02 -0.28377482644E-01  0.45376564732E-01  0.51100000000E-03 0.  1.
</event>
<event>
 8    1  0.1114686E+005  0.1043930E+01  0.7957747E-01            NaN
         13   -1    0    0    0    0  0.00000000000E+00  0.00000000000E+00  0.74505805969E-08  0.10566000000E+00  0.10566000000E+00 0. -1.
     999900   -1    0    0    0    0 -0.00000000000E+00 -0.00000000000E+00 -0.74505805969E-08  0.93827000000E+00  0.93827000000E+00 0.  1.
     999902    2    1    2    0    0  0.14355482899E-02 -0.22108086697E-01 -0.72257085547E-02  0.10206267994E+01  0.10203607325E+01 0.  0.
     999903    2    3    3    0    0  0.62097161975E-01 -0.48310553527E-01  0.10316662906E+00  0.13127148855E+00  0.19972061683E-01 0.  0.
         14    1    1    2    0    0 -0.14355482899E-02  0.22108086697E-01  0.72257085547E-02  0.23303200647E-01  0.00000000000E+00 0.  1.
     999901    1    3    3    0    0 -0.60661613685E-01  0.26202466830E-01 -0.11039233762E+00  0.88935531080E+00  0.88000000000E+00 0.  1.
        -11    1    4    4    0    0  0.32296397106E-01 -0.29064914857E-01  0.41268578727E-01  0.59926482066E-01  0.51100000000E-03 0.  1.
         11    1    4    4    0    0  0.29800764870E-01 -0.19245638671E-01  0.61898050333E-01  0.71345006488E-01  0.51100000000E-03 0. -1.
</event>
<event>
 8    1  0.1114686E+005  0.1043930E+01  0.7957747E-01            NaN
         13   -1    0    0    0    0  0.00000000000E+00  0.00000000000E+00  0.74505805969E-08  0.10566000000E+00  0.10566000000E+00 0.  1.
     999900   -1    0    0    0    0 -0.00000000000E+00 -0.00000000000E+00 -0.74505805969E-08  0.93827000000E+00  0.93827000000E+00 0.  1.
     999902    2    1    2    0    0  0.55753529115E-02  0.22577895506E-01 -0.57444981756E-02  0.10199749340E+01  0.10196935917E+01 0.  0.
     999903    2    3    3    0    0 -0.11367587023E+00  0.34898924392E-01  0.49377678770E-01  0.13013724302E+00  0.18905249636E-01 0.  0.
         14    1    1    2    0    0 -0.55753529115E-02 -0.22577895506E-01  0.57444981756E-02  0.23955065954E-01  0.00000000000E+00 0.  1.
     999901    1    3    3    0    0  0.11925122314E+00 -0.12321028885E-01 -0.55122176946E-01  0.88983769102E+00  0.88000000000E+00 0.  1.
        -11    1    4    4    0    0 -0.99176368947E-01  0.36617597236E-01  0.44852594438E-01  0.11484257457E+00  0.51100000000E-03 0.  1.
         11    1    4    4    0    0 -0.14499501286E-01 -0.17186728439E-02  0.45250843326E-02  0.15294668453E-01  0.51100000000E-03 0. -1.
</event>
<event>
 8    1  0.1114686E+005  0.1043930E+01  0.7957747E-01            NaN
         13   -1    0    0    0    0  0.00000000000E+00  0.00000000000E+00  0.74505805969E-08  0.10566000000E+00  0.10566000000E+00 0.  1.
     999900   -1    0    0    0    0 -0.00000000000E+00 -0.00000000000E+00 -0.74505805969E-08  0.93827000000E+00  0.93827000000E+00 0. -1.
     999902    2    1    2    0    0  0.10351207494E-01  0.22215616518E-01  0.51607544466E-02  0.10188837528E+01  0.10185758623E+01 0.  0.
     999903    2    3    3    0    0 -0.18061929959E-01 -0.58231700653E-01  0.11108210144E+00  0.12843532138E+00  0.20957915976E-01 0.  0.
         14    1    1    2    0    0 -0.10351207494E-01 -0.22215616518E-01 -0.51607544466E-02  0.25046247230E-01  0.00000000000E+00 0. -1.
     999901    1    3    3    0    0  0.28413137454E-01  0.80447317170E-01 -0.10592134699E+00  0.89044843139E+00  0.88000000000E+00 0.  1.
        -11    1    4    4    0    0 -0.98361711390E-02 -0.42452814819E-01  0.58687006768E-01  0.73098684209E-01  0.51100000000E-03 0. -1.
         11    1    4    4    0    0 -0.82257588202E-02 -0.15778885834E-01  0.52395094673E-01  0.55336637169E-01  0.51100000000E-03 0.  1.
</event>
<event>
 8    1  0.1114686E+005  0.1043930E+01  0.7957747E-01            NaN
         13   -1    0    0    0    0  0.00000000000E+00  0.00000000000E+00  0.74505805969E-08  0.10566000000E+00  0.10566000000E+00 0. -1.
     999900   -1    0    0    0    0 -0.00000000000E+00 -0.00000000000E+00 -0.74505805969E-08  0.93827000000E+00  0.93827000000E+00 0.  1.
     999902    2    1    2    0    0  0.28910220630E-02  0.22338804792E-01 -0.66850329708E-02  0.10204338328E+01  0.10201632895E+01 0.  0.
     999903    2    3    3    0    0  0.10474577496E-01  0.12321006727E+00 -0.46722704393E-01  0.13373459570E+00  0.20285303350E-01 0.  0.
         14    1    1    2    0    0 -0.28910220630E-02 -0.22338804792E-01  0.66850329708E-02  0.23496167217E-01  0.00000000000E+00 0. -1.
     999901    1    3    3    0    0 -0.75835554330E-02 -0.10087126248E+00  0.40037671423E-01  0.88669923708E+00  0.88000000000E+00 0.  1.
        -11    1    4    4    0    0  0.10784967250E-01  0.67938553709E-01 -0.16521947720E-01  0.70747427347E-01  0.51100000000E-03 0. -1.
         11    1    4    4    0    0 -0.31038975394E-03  0.55271513558E-01 -0.30200756673E-01  0.62987168355E-01  0.51100000000E-03 0.  1.
</event>
<event>
 8    1  0.1114686E+005  0.1043930E+01  0.7957747E-01            NaN
         13   -1    0    0    0    0  0.00000000000E+00  0.00000000000E+00  0.74505805969E-08  0.10566000000E+00  0.10566000000E+00 0. -1.
     999900   -1    0    0    0    0 -0.00000000000E+00 -0.00000000000E+00 -0.74505805969E-08  0.93827000000E+00  0.93827000000E+00 0.  1.
     999902    2    1    2    0    0  0.55677261374E-02  0.59955415575E-02 -0.23864751597E-01  0.10187015942E+01  0.10183891523E+01 0.  0.
     999903    2    3    3    0    0 -0.30845236505E-01  0.11983808278E+00 -0.38055892861E-01  0.13050825003E+00  0.16479006192E-01 0.  0.
         14    1    1    2    0    0 -0.55677261374E-02 -0.59955415575E-02  0.23864751597E-01  0.25228405849E-01  0.00000000000E+00 0. -1.
     999901    1    3    3    0    0  0.36412962643E-01 -0.11384254123E+00  0.14191141264E-01  0.88819334412E+00  0.88000000000E+00 0. -1.
        -11    1    4    4    0    0  0.15133282894E-02  0.15713176299E-01 -0.51687745510E-02  0.16618406160E-01  0.51100000000E-03 0.  1.
         11    1    4    4    0    0 -0.32358564795E-01  0.10412490649E+00 -0.32887118310E-01  0.11388984387E+00  0.51100000000E-03 0. -1.
</event>
<event>
 7    1  0.1114686E+005  0.1043930E+01  0.7957747E-01            NaN
         13   -1    0    0    0    0  0.00000000000E+00  0.00000000000E+00  0.74505805969E-08  0.10566000000E+00  0.10566000000E+00 0. -1.
     999900   -1    0    0    0    0 -0.00000000000E+00 -0.00000000000E+00 -0.74505805969E-08  0.93827000000E+00  0.93827000000E+00 0. -1.
     999903    2    1    2    0    0  0.30344922150E-01  0.36318282742E-01 -0.79845138338E-01  0.95046303679E-01  0.20462692032E-01 0.  0.
         14    1    1    2    0    0  0.38860923942E-01 -0.44672190174E-01  0.25465835383E-01  0.64453741213E-01  0.00000000000E+00 0. -1.
     999901    1    1    2    0    0 -0.69205846092E-01  0.83539074326E-02  0.54379302955E-01  0.88442995511E+00  0.88000000000E+00 0.  1.
        -11    1    3    3    0    0  0.96401734393E-02  0.13058163009E-01 -0.11378173037E-01  0.19828578057E-01  0.51100000000E-03 0.  1.
         11    1    3    3    0    0  0.20704748711E-01  0.23260119733E-01 -0.68466965301E-01  0.75217725622E-01  0.51100000000E-03 0. -1.
</event>
<event>
 8    1  0.1114686E+005  0.1043930E+01  0.7957747E-01            NaN
         13   -1    0    0    0    0  0.00000000000E+00  0.00000000000E+00  0.74505805969E-08  0.10566000000E+00  0.10566000000E+00 0. -1.
     999900   -1    0    0    0    0 -0.00000000000E+00 -0.00000000000E+00 -0.74505805969E-08  0.93827000000E+00  0.93827000000E+00 0. -1.
     999902    2    1    2    0    0  0.23695707078E-01  0.36206522872E-02  0.11376773769E-02  0.10199322925E+01  0.10196499356E+01 0.  0.
     999903    2    3    3    0    0  0.62157140604E-01  0.96978610644E-01  0.61545174070E-01  0.13210119597E+00  0.19863445685E-01 0.  0.
         14    1    1    2    0    0 -0.23695707078E-01 -0.36206522872E-02 -0.11376773769E-02  0.23997707530E-01  0.00000000000E+00 0.  1.
     999901    1    3    3    0    0 -0.38461433526E-01 -0.93357958357E-01 -0.60407496693E-01  0.88783109650E+00  0.88000000000E+00 0. -1.
        -11    1    4    4    0    0  0.38825944537E-01  0.76445059920E-01  0.47069960723E-01  0.97811775768E-01  0.51100000000E-03 0. -1.
         11    1    4    4    0    0  0.23331196068E-01  0.20533550725E-01  0.14475213346E-01  0.34289420201E-01  0.51100000000E-03 0.  1.
</event>
<event>
 8    1  0.1114686E+005  0.1043930E+01  0.7957747E-01            NaN
         13   -1    0    0    0    0  0.00000000000E+00  0.00000000000E+00  0.74505805969E-08  0.10566000000E+00  0.10566000000E+00 0.  1.
     999900   -1    0    0    0    0 -0.00000000000E+00 -0.00000000000E+00 -0.74505805969E-08  0.93827000000E+00  0.93827000000E+00 0.  1.
     999902    2    1    2    0    0 -0.35369765873E-02  0.13727567221E-01 -0.19498059055E-01  0.10198233492E+01  0.10195383921E+01 0.  0.
     999903    2    3    3    0    0  0.12982375226E-02  0.11381873816E+00 -0.65469628217E-01  0.13294398483E+00  0.20771141208E-01 0.  0.
         14    1    1    2    0    0  0.35369765873E-02 -0.13727567221E-01  0.19498059055E-01  0.24106650785E-01  0.00000000000E+00 0.  1.
     999901    1    3    3    0    0 -0.48352141099E-02 -0.10009117094E+00  0.45971569163E-01  0.88687936438E+00  0.88000000000E+00 0. -1.
        -11    1    4    4    0    0  0.41285534887E-03  0.58115510144E-01 -0.21492309770E-01  0.61965825009E-01  0.51100000000E-03 0. -1.
         11    1    4    4    0    0  0.88538217375E-03  0.55703228017E-01 -0.43977318447E-01  0.70978159823E-01  0.51100000000E-03 0.  1.
</event>
<event>
 8    1  0.1114686E+005  0.1043930E+01  0.7957747E-01            NaN
         13   -1    0    0    0    0  0.00000000000E+00  0.00000000000E+00  0.74505805969E-08  0.10566000000E+00  0.10566000000E+00 0.  1.
     999900   -1    0    0    0    0 -0.00000000000E+00 -0.00000000000E+00 -0.74505805969E-08  0.93827000000E+00  0.93827000000E+00 0.  1.
     999902    2    1    2    0    0  0.42393092220E-02 -0.21313835958E-01  0.14969786802E-01  0.10175416339E+01  0.10171994057E+01 0.  0.
     999903    2    3    3    0    0  0.63035436346E-01  0.54808409346E-01 -0.92003729316E-01  0.12586068543E+00  0.19969926372E-01 0.  0.
         14    1    1    2    0    0 -0.42393092220E-02  0.21313835958E-01 -0.14969786802E-01  0.26388366051E-01  0.00000000000E+00 0. -1.
     999901    1    3    3    0    0 -0.58796127124E-01 -0.76122245304E-01  0.10697351612E+00  0.89168094852E+00  0.88000000000E+00 0. -1.
        -11    1    4    4    0    0  0.38370369694E-01  0.21104407522E-01 -0.52529029558E-01  0.68390360100E-01  0.51100000000E-03 0. -1.
         11    1    4    4    0    0  0.24665066652E-01  0.33704001825E-01 -0.39474699758E-01  0.57470325333E-01  0.51100000000E-03 0.  1.
</event>
<event>
 8    1  0.1114686E+005  0.1043930E+01  0.7957747E-01            NaN
         13   -1    0    0    0    0  0.00000000000E+00  0.00000000000E+00  0.74505805969E-08  0.10566000000E+00  0.10566000000E+00 0. -1.
     999900   -1    0    0    0    0 -0.00000000000E+00 -0.00000000000E+00 -0.74505805969E-08  0.93827000000E+00  0.93827000000E+00 0. -1.
     999902    2    1    2    0    0  0.24811218043E-02 -0.22739364158E-01 -0.55597140049E-02  0.10203897139E+01  0.10201181418E+01 0.  0.
     999903    2    3    3    0    0 -0.94410296991E-01  0.32213268406E-01  0.79730411329E-01  0.12927684548E+00  0.20113812363E-01 0.  0.
         14    1    1    2    0    0 -0.24811218043E-02  0.22739364158E-01  0.55597140049E-02  0.23540286054E-01  0.00000000000E+00 0. -1.
     999901    1    3    3    0    0  0.96891418795E-01 -0.54952632564E-01 -0.85290125334E-01  0.89111286846E+00  0.88000000000E+00 0. -1.
        -11    1    4    4    0    0 -0.83510079129E-01  0.26353201868E-01  0.60628157436E-01  0.10651037114E+00  0.51100000000E-03 0.  1.
         11    1    4    4    0    0 -0.10900217862E-01  0.58600665384E-02  0.19102253893E-01  0.22766474345E-01  0.51100000000E-03 0. -1.
</event>
<event>
 8    1  0.1114686E+005  0.1043930E+01  0.7957747E-01            NaN
         13   -1    0    0    0    0  0.00000000000E+00  0.00000000000E+00  0.74505805969E-08  0.10566000000E+00  0.10566000000E+00 0.  1.
     999900   -1    0    0    0    0 -0.00000000000E+00 -0.00000000000E+00 -0.74505805969E-08  0.93827000000E+00  0.93827000000E+00 0.  1.
     999902    2    1    2    0    0 -0.21463608090E-01 -0.47703110164E-02  0.93351594084E-02  0.10200430257E+01  0.10197632994E+01 0.  0.
     999903    2    3    3    0    0 -0.11963134112E+00  0.20221966402E-01 -0.48930641953E-01  0.13231760569E+00  0.19828145439E-01 0.  0.
         14    1    1    2    0    0  0.21463608090E-01  0.47703110164E-02 -0.93351594084E-02  0.23886974287E-01  0.00000000000E+00 0. -1.
     999901    1    3    3    0    0  0.98167733029E-01 -0.24992277418E-01  0.58265801362E-01  0.88772542002E+00  0.88000000000E+00 0. -1.
        -11    1    4    4    0    0 -0.67833718145E-01  0.90327558814E-02 -0.37751406855E-01  0.78156470216E-01  0.51100000000E-03 0. -1.
         11    1    4    4    0    0 -0.51797622974E-01  0.11189210520E-01 -0.11179235098E-01  0.54161135478E-01  0.51100000000E-03 0.  1.
</event>
<event>
 7    1  0.1114686E+005  0.1043930E+01  0.7957747E-01            NaN
         13   -1    0    0    0    0  0.00000000000E+00  0.00000000000E+00  0.74505805969E-08  0.10566000000E+00  0.10566000000E+00 0. -1.
     999900   -1    0    0    0    0 -0.00000000000E+00 -0.00000000000E+00 -0.74505805969E-08  0.93827000000E+00  0.93827000000E+00 0.  1.
     999902    2    1    2    0    0  0.50788375385E-02  0.18774260271E-01  0.13438735853E-01  0.10202896307E+01  0.10200157173E+01 0.  0.
         14    1    1    2    0    0 -0.50788375385E-02 -0.18774260271E-01 -0.13438735853E-01  0.23640369303E-01  0.00000000000E+00 0.  1.
     999901    1    3    3    0    0  0.80036398953E-01  0.11852923184E+00  0.40822636920E-01  0.89248052732E+00  0.88000000000E+00 0. -1.
        -11    1    3    3    0    0 -0.46234838451E-01 -0.61753066181E-01 -0.15038117043E-01  0.78597121795E-01  0.51100000000E-03 0. -1.
         11    1    3    3    0    0 -0.28722722964E-01 -0.38001905384E-01 -0.12345784024E-01  0.49211981584E-01  0.51100000000E-03 0.  1.
</event>
<event>
 8    1  0.1114686E+005  0.1043930E+01  0.7957747E-01            NaN
         13   -1    0    0    0    0  0.00000000000E+00  0.00000000000E+00  0.74505805969E-08  0.10566000000E+00  0.10566000000E+00 0. -1.
     999900   -1    0    0    0    0 -0.00000000000E+00 -0.00000000000E+00 -0.74505805969E-08  0.93827000000E+00  0.93827000000E+00 0.  1.
     999902    2    1    2    0    0 -0.14789085957E-01 -0.79688135048E-02 -0.16811769138E-01  0.10201633294E+01  0.10198864466E+01 0.  0.
     999903    2    3    3    0    0 -0.60346882973E-01  0.54179675671E-01  0.98545512000E-01  0.12929563441E+00  0.20711339947E-01 0.  0.
         14    1    1    2    0    0  0.14789085957E-01  0.79688135048E-02  0.16811769138E-01  0.23766670648E-01  0.00000000000E+00 0. -1.
     999901    1    3    3    0    0  0.45557797017E-01 -0.62148489176E-01 -0.11535728114E+00  0.89086769494E+00  0.88000000000E+00 0.  1.
        -11    1    4    4    0    0 -0.25335945482E-01  0.34402404579E-01  0.42048324874E-01  0.59947963435E-01  0.51100000000E-03 0.  1.
         11    1    4    4    0    0 -0.35010937492E-01  0.19777271092E-01  0.56497187126E-01  0.69347670978E-01  0.51100000000E-03 0. -1.
</event>
<event>
 8    1  0.1114686E+005  0.1043930E+01  0.7957747E-01            NaN
         13   -1    0    0    0    0  0.00000000000E+00  0.00000000000E+00  0.74505805969E-08  0.10566000000E+00  0.10566000000E+00 0. -1.
     999900   -1    0    0    0    0 -0.00000000000E+00 -0.00000000000E+00 -0.74505805969E-08  0.93827000000E+00  0.93827000000E+00 0.  1.
     999902    2    1    2    0    0  0.84330719922E-02  0.19371036709E-01  0.11049575155E-01  0.10200878760E+01  0.10198092115E+01 0.  0.
     999903    2    3    3    0    0 -0.10034394511E+00  0.27229200338E-01 -0.73977887747E-01  0.12928831400E+00  0.20794316304E-01 0.  0.
         14    1    1    2    0    0 -0.84330719922E-02 -0.19371036709E-01 -0.11049575155E-01  0.23842124014E-01  0.00000000000E+00 0. -1.
     999901    1    3    3    0    0  0.10877701710E+00 -0.78581636291E-02  0.85027462903E-01  0.89079956199E+00  0.88000000000E+00 0. -1.
        -11    1    4    4    0    0 -0.65045063198E-01  0.16005993825E-01 -0.35247805493E-01  0.75694920555E-01  0.51100000000E-03 0.  1.
         11    1    4    4    0    0 -0.35298881911E-01  0.11223206513E-01 -0.38730082254E-01  0.53593393446E-01  0.51100000000E-03 0. -1.
</event>
<event>
 8    1  0.1114686E+005  0.1043930E+01  0.7957747E-01            NaN
         13   -1    0    0    0    0  0.00000000000E+00  0.00000000000E+00  0.74505805969E-08  0.10566000000E+00  0.10566000000E+00 0.  1.
     999900   -1    0    0    0    0 -0.00000000000E+00 -0.00000000000E+00 -0.74505805969E-08  0.93827000000E+00  0.93827000000E+00 0.  1.
     999902    2    1    2    0    0  0.44360971465E-02 -0.26164095529E-02 -0.23011536939E-01  0.10203491733E+01  0.10200766540E+01 0.  0.
     999903    2    3    3    0    0 -0.51310440477E-01  0.40410224670E-01  0.10755119882E+00  0.12793357744E+00  0.23108273630E-01 0.  0.
         14    1    1    2    0    0 -0.44360971465E-02  0.26164095529E-02  0.23011536939E-01  0.23580826727E-01  0.00000000000E+00 0.  1.
     999901    1    3    3    0    0  0.55746537623E-01 -0.43026634223E-01 -0.13056273576E+00  0.89241559583E+00  0.88000000000E+00 0.  1.
        -11    1    4    4    0    0 -0.32100967442E-01  0.14261479038E-01  0.69876593959E-01  0.78210366317E-01  0.51100000000E-03 0.  1.
         11    1    4    4    0    0 -0.19209473034E-01  0.26148745631E-01  0.37674604862E-01  0.49723211127E-01  0.51100000000E-03 0. -1.
</event>
<event>
 8    1  0.1114686E+005  0.1043930E+01  0.7957747E-01            NaN
         13   -1    0    0    0    0  0.00000000000E+00  0.00000000000E+00  0.74505805969E-08  0.10566000000E+00  0.10566000000E+00 0. -1.
     999900   -1    0    0    0    0 -0.00000000000E+00 -0.00000000000E+00 -0.74505805969E-08  0.93827000000E+00  0.93827000000E+00 0. -1.
     999902    2    1    2    0    0  0.16724498620E-01 -0.12019397534E-01 -0.69536632723E-02  0.10221922861E+01  0.10219611253E+01 0.  0.
     999903    2    3    3    0    0 -0.48269139350E-01 -0.44729898770E-01 -0.11369474130E+00  0.13276111533E+00  0.19192339285E-01 0.  0.
         14    1    1    2    0    0 -0.16724498620E-01  0.12019397534E-01  0.69536632723E-02  0.21737713865E-01  0.00000000000E+00 0. -1.
     999901    1    3    3    0    0  0.64993637970E-01  0.32710501236E-01  0.10674107802E+00  0.88943117081E+00  0.88000000000E+00 0.  1.
        -11    1    4    4    0    0 -0.28361956585E-01 -0.35617298391E-01 -0.87328307161E-01  0.98485973004E-01  0.51100000000E-03 0. -1.
         11    1    4    4    0    0 -0.19907182765E-01 -0.91126003790E-02 -0.26366434134E-01  0.34275142323E-01  0.51100000000E-03 0.  1.
</event>
<event>
 8    1  0.1114686E+005  0.1043930E+01  0.7957747E-01            NaN
         13   -1    0    0    0    0  0.00000000000E+00  0.00000000000E+00  0.74505805969E-08  0.10566000000E+00  0.10566000000E+00 0. -1.
     999900   -1    0    0    0    0 -0.00000000000E+00 -0.00000000000E+00 -0.74505805969E-08  0.93827000000E+00  0.93827000000E+00 0.  1.
     999902    2    1    2    0    0 -0.11972938559E-01  0.98862595428E-03  0.19963789738E-01  0.10206301816E+01  0.10203641928E+01 0.  0.
     999903    2    3    3    0    0 -0.28227637085E-01 -0.42470452954E-01  0.12179730560E+00  0.13354339227E+00  0.19967851633E-01 0.  0.
         14    1    1    2    0    0  0.11972938559E-01 -0.98862595428E-03 -0.19963789738E-01  0.23299818448E-01  0.00000000000E+00 0.  1.
     999901    1    3    3    0    0  0.16254698526E-01  0.43459078909E-01 -0.10183351586E+00  0.88708678928E+00  0.88000000000E+00 0.  1.
        -11    1    4    4    0    0 -0.16662262193E-01 -0.19897173040E-01  0.38224102581E-01  0.46204670928E-01  0.51100000000E-03 0.  1.
         11    1    4    4    0    0 -0.11565374892E-01 -0.22573279914E-01  0.83573203016E-01  0.87338721343E-01  0.51100000000E-03 0. -1.
</event>
<event>
 8    1  0.1114686E+005  0.1043930E+01  0.7957747E-01            NaN
         13   -1    0    0    0    0  0.00000000000E+00  0.00000000000E+00  0.74505805969E-08  0.10566000000E+00  0.10566000000E+00 0. -1.
     999900   -1    0    0    0    0 -0.00000000000E+00 -0.00000000000E+00 -0.74505805969E-08  0.93827000000E+00  0.93827000000E+00 0. -1.
     999902    2    1    2    0    0  0.11507540036E-01 -0.93670284896E-02 -0.18802160692E-01  0.10199782580E+01  0.10196969946E+01 0.  0.
     999903    2    3    3    0    0  0.21592860489E-01  0.12022190231E+00  0.35567356799E-01  0.12877062272E+00  0.19931858571E-01 0.  0.
         14    1    1    2    0    0 -0.11507540036E-01  0.93670284896E-02  0.18802160692E-01  0.23951742047E-01  0.00000000000E+00 0. -1.
     999901    1    3    3    0    0 -0.10085320453E-01 -0.12958893080E+00 -0.54369517491E-01  0.89120763524E+00  0.88000000000E+00 0. -1.
        -11    1    4    4    0    0  0.19097666229E-02  0.29610341604E-01  0.63597757247E-03  0.29683078124E-01  0.51100000000E-03 0.  1.
         11    1    4    4    0    0  0.19683093866E-01  0.90611560705E-01  0.34931379226E-01  0.99087544591E-01  0.51100000000E-03 0. -1.
</event>
<event>
 8    1  0.1114686E+005  0.1043930E+01  0.7957747E-01            NaN
         13   -1    0    0    0    0  0.00000000000E+00  0.00000000000E+00  0.74505805969E-08  0.10566000000E+00  0.10566000000E+00 0. -1.
     999900   -1    0    0    0    0 -0.00000000000E+00 -0.00000000000E+00 -0.74505805969E-08  0.93827000000E+00  0.93827000000E+00 0.  1.
     999902    2    1    2    0    0 -0.14010294416E-01  0.18346354691E-01 -0.58095983471E-02  0.10201260400E+01  0.10198482774E+01 0.  0.
     999903    2    3    3    0    0  0.70053145476E-01 -0.16067629760E-01 -0.10637522804E+00  0.12975284286E+00  0.18828148455E-01 0.  0.
         14    1    1    2    0    0  0.14010294416E-01 -0.18346354691E-01  0.58095983471E-02  0.23803960028E-01  0.00000000000E+00 0. -1.
     999901    1    3    3    0    0 -0.84063439892E-01  0.34413984451E-01  0.10056562969E+00  0.89037319711E+00  0.88000000000E+00 0. -1.
        -11    1    4    4    0    0  0.12522672674E-01 -0.37753928992E-02 -0.34317332729E-01  0.36728890115E-01  0.51100000000E-03 0. -1.
         11    1    4    4    0    0  0.57530472802E-01 -0.12292236861E-01 -0.72057895309E-01  0.93023952750E-01  0.51100000000E-03 0.  1.
</event>
<event>
 8    1  0.1114686E+005  0.1043930E+01  0.7957747E-01            NaN
         13   -1    0    0    0    0  0.00000000000E+00  0.00000000000E+00  0.74505805969E-08  0.10566000000E+00  0.10566000000E+00 0.  1.
     999900   -1    0    0    0    0 -0.00000000000E+00 -0.00000000000E+00 -0.74505805969E-08  0.93827000000E+00  0.93827000000E+00 0. -1.
     999902    2    1    2    0    0  0.49744580644E-02 -0.13406716159E-01 -0.20819724480E-01  0.10186724032E+01  0.10183592287E+01 0.  0.
     999903    2    3    3    0    0 -0.10668736279E+00  0.16440901752E-01  0.64240735991E-01  0.12704774868E+00  0.19020032973E-01 0.  0.
         14    1    1    2    0    0 -0.49744580644E-02  0.13406716159E-01  0.20819724480E-01  0.25257596850E-01  0.00000000000E+00 0.  1.
     999901    1    3    3    0    0  0.11166182085E+00 -0.29847617911E-01 -0.85060460471E-01  0.89162465447E+00  0.88000000000E+00 0. -1.
        -11    1    4    4    0    0 -0.88364678982E-01  0.20677566229E-01  0.54541171894E-01  0.10588143742E+00  0.51100000000E-03 0.  1.
         11    1    4    4    0    0 -0.18322683804E-01 -0.42366644771E-02  0.96995640973E-02  0.21166311260E-01  0.51100000000E-03 0. -1.
</event>
<event>
 8    1  0.1114686E+005  0.1043930E+01  0.7957747E-01            NaN
         13   -1    0    0    0    0  0.00000000000E+00  0.00000000000E+00  0.74505805969E-08  0.10566000000E+00  0.10566000000E+00 0. -1.
     999900   -1    0    0    0    0 -0.00000000000E+00 -0.00000000000E+00 -0.74505805969E-08  0.93827000000E+00  0.93827000000E+00 0.  1.
     999902    2    1    2    0    0 -0.22235578563E-02 -0.22741325039E-01  0.88406777207E-02  0.10194295988E+01  0.10191351418E+01 0.  0.
     999903    2    3    3    0    0 -0.26612517588E-01 -0.82798644431E-01 -0.95584952660E-01  0.13088786361E+00  0.20767957403E-01 0.  0.
         14    1    1    2    0    0  0.22235578563E-02  0.22741325039E-01 -0.88406777207E-02  0.24500401153E-01  0.00000000000E+00 0.  1.
     999901    1    3    3    0    0  0.24388959732E-01  0.60057319392E-01  0.10442563038E+00  0.88854173523E+00  0.88000000000E+00 0. -1.
        -11    1    4    4    0    0  0.48580918278E-03 -0.24664436796E-01 -0.20050991746E-01  0.31794242309E-01  0.51100000000E-03 0.  1.
         11    1    4    4    0    0 -0.27098326771E-01 -0.58134207636E-01 -0.75533960914E-01  0.99093621306E-01  0.51100000000E-03 0. -1.
</event>
<event>
 8    1  0.1114686E+005  0.1043930E+01  0.7957747E-01            NaN
         13   -1    0    0    0    0  0.00000000000E+00  0.00000000000E+00  0.74505805969E-08  0.10566000000E+00  0.10566000000E+00 0. -1.
     999900   -1    0    0    0    0 -0.00000000000E+00 -0.00000000000E+00 -0.74505805969E-08  0.93827000000E+00  0.93827000000E+00 0. -1.
     999902    2    1    2    0    0  0.10694298228E-02 -0.10543246064E-01  0.21552593765E-01  0.10199129641E+01  0.10196301468E+01 0.  0.
     999903    2    3    3    0    0 -0.97005440024E-01 -0.85102344343E-01  0.17003781900E-01  0.13131945129E+00  0.17412790744E-01 0.  0.
         14    1    1    2    0    0 -0.10694298228E-02  0.10543246064E-01 -0.21552593765E-01  0.24017035948E-01  0.00000000000E+00 0.  1.
     999901    1    3    3    0    0  0.98074869847E-01  0.74559098279E-01  0.45488118653E-02  0.88859351276E+00  0.88000000000E+00 0. -1.
        -11    1    4    4    0    0 -0.51247059153E-01 -0.39413119041E-01  0.80993453632E-03  0.64657344048E-01  0.51100000000E-03 0.  1.
         11    1    4    4    0    0 -0.45758380871E-01 -0.45689225302E-01  0.16193847363E-01  0.66662107243E-01  0.51100000000E-03 0. -1.
</event>
<event>
 8    1  0.1114686E+005  0.1043930E+01  0.7957747E-01            NaN
         13   -1    0    0    0    0  0.00000000000E+00  0.00000000000E+00  0.74505805969E-08  0.10566000000E+00  0.10566000000E+00 0. -1.
     999900   -1    0    0    0    0 -0.00000000000E+00 -0.00000000000E+00 -0.74505805969E-08  0.93827000000E+00  0.93827000000E+00 0.  1.
     999902    2    1    2    0    0 -0.48830248415E-02 -0.13281955437E-01  0.18874511383E-01  0.10203397170E+01  0.10200669765E+01 0.  0.
     999903    2    3    3    0    0  0.74891068869E-01 -0.36952096114E-01 -0.96258370740E-01  0.12894768084E+00  0.19690120715E-01 0.  0.
         14    1    1    2    0    0  0.48830248415E-02  0.13281955437E-01 -0.18874511383E-01  0.23590282995E-01  0.00000000000E+00 0.  1.
     999901    1    3    3    0    0 -0.79774093711E-01  0.23670140678E-01  0.11513288212E+00  0.89139203616E+00  0.88000000000E+00 0. -1.
        -11    1    4    4    0    0  0.67837959462E-02 -0.91576860512E-03 -0.17343209465E-01  0.18652253352E-01  0.51100000000E-03 0.  1.
         11    1    4    4    0    0  0.68107272923E-01 -0.36036327509E-01 -0.78915161275E-01  0.11029542749E+00  0.51100000000E-03 0. -1.
</event>
<event>
 8    1  0.1114686E+005  0.1043930E+01  0.7957747E-01            NaN
         13   -1    0    0    0    0  0.00000000000E+00  0.00000000000E+00  0.74505805969E-08  0.10566000000E+00  0.10566000000E+00 0. -1.
     999900   -1    0    0    0    0 -0.00000000000E+00 -0.00000000000E+00 -0.74505805969E-08  0.93827000000E+00  0.93827000000E+00 0.  1.
     999902    2    1    2    0    0 -0.16970571462E-01 -0.10426122851E-01  0.10495116289E-01  0.10214166307E+01  0.10211684883E+01 0.  0.
     999903    2    3    3    0    0  0.11277690186E+00  0.31624886045E-01 -0.49371833321E-01  0.12889954631E+00  0.21418499115E-01 0.  0.
         14    1    1    2    0    0  0.16970571462E-01  0.10426122851E-01 -0.10495116289E-01  0.22513369348E-01  0.00000000000E+00 0.  1.
     999901    1    3    3    0    0 -0.12974747332E+00 -0.42051008896E-01  0.59866949610E-01  0.89251708434E+00  0.88000000000E+00 0. -1.
        -11    1    4    4    0    0  0.71750063753E-01  0.25770166443E-01 -0.22443823519E-01  0.79474269183E-01  0.51100000000E-03 0. -1.
         11    1    4    4    0    0  0.41026838104E-01  0.58547196020E-02 -0.26928009802E-01  0.49425277130E-01  0.51100000000E-03 0.  1.
</event>
<event>
 8    1  0.1114686E+005  0.1043930E+01  0.7957747E-01            NaN
         13   -1    0    0    0    0  0.00000000000E+00  0.00000000000E+00  0.74505805969E-08  0.10566000000E+00  0.10566000000E+00 0.  1.
     999900   -1    0    0    0    0 -0.00000000000E+00 -0.00000000000E+00 -0.74505805969E-08  0.93827000000E+00  0.93827000000E+00 0.  1.
     999902    2    1    2    0    0  0.12965332296E-01  0.11546455761E-02 -0.20106779147E-01  0.10199776386E+01  0.10196963605E+01 0.  0.
     999903    2    3    3    0    0 -0.30291499753E-01  0.10348706246E+00  0.67386573282E-01  0.12868747050E+00  0.19808274858E-01 0.  0.
         14    1    1    2    0    0 -0.12965332296E-01 -0.11546455761E-02  0.20106779147E-01  0.23952361379E-01  0.00000000000E+00 0.  1.
     999901    1    3    3    0    0  0.43256832049E-01 -0.10233241688E+00 -0.87493352429E-01  0.89129016812E+00  0.88000000000E+00 0. -1.
        -11    1    4    4    0    0 -0.24393713180E-01  0.99115738202E-01  0.64705013335E-01  0.12085521368E+00  0.51100000000E-03 0.  1.
         11    1    4    4    0    0 -0.58977865730E-02  0.43713242542E-02  0.26815599464E-02  0.78322568230E-02  0.51100000000E-03 0. -1.
</event>
<event>
 8    1  0.1114686E+005  0.1043930E+01  0.7957747E-01            NaN
         13   -1    0    0    0    0  0.00000000000E+00  0.00000000000E+00  0.74505805969E-08  0.10566000000E+00  0.10566000000E+00 0. -1.
     999900   -1    0    0    0    0 -0.00000000000E+00 -0.00000000000E+00 -0.74505805969E-08  0.93827000000E+00  0.93827000000E+00 0. -1.
     999902    2    1    2    0    0  0.29479465472E-02  0.57696026642E-02  0.22318873904E-01  0.10206897152E+01  0.10204250996E+01 0.  0.
     999903    2    3    3    0    0  0.11289155311E+00  0.15334473055E-01  0.65340408587E-01  0.13275394288E+00  0.19354367193E-01 0.  0.
         14    1    1    2    0    0 -0.29479465472E-02 -0.57696026642E-02 -0.22318873904E-01  0.23240284768E-01  0.00000000000E+00 0.  1.
     999901    1    3    3    0    0 -0.10994360656E+00 -0.95648703910E-02 -0.43021534683E-01  0.88793577235E+00  0.88000000000E+00 0.  1.
        -11    1    4    4    0    0  0.56050499315E-01  0.10780163639E-02  0.40193668090E-01  0.68982698325E-01  0.51100000000E-03 0.  1.
         11    1    4    4    0    0  0.56841053795E-01  0.14256456691E-01  0.25146740497E-01  0.63771244558E-01  0.51100000000E-03 0. -1.
</event>
<event>
 8    1  0.1114686E+005  0.1043930E+01  0.7957747E-01            NaN
         13   -1    0    0    0    0  0.00000000000E+00  0.00000000000E+00  0.74505805969E-08  0.10566000000E+00  0.10566000000E+00 0. -1.
     999900   -1    0    0    0    0 -0.00000000000E+00 -0.00000000000E+00 -0.74505805969E-08  0.93827000000E+00  0.93827000000E+00 0. -1.
     999902    2    1    2    0    0  0.94529990518E-02 -0.25830089156E-01 -0.80283075392E-02  0.10152767904E+01  0.10148723835E+01 0.  0.
     999903    2    3    3    0    0 -0.30163756673E-01  0.10040123206E+00 -0.61238827389E-01  0.12379757406E+00  0.24194746272E-01 0.  0.
         14    1    1    2    0    0 -0.94529990518E-02  0.25830089156E-01  0.80283075392E-02  0.28653209573E-01  0.00000000000E+00 0.  1.
     999901    1    3    3    0    0  0.39616755725E-01 -0.12623132122E+00  0.53210519850E-01  0.89147921637E+00  0.88000000000E+00 0. -1.
        -11    1    4    4    0    0 -0.15574091162E-02  0.34175631383E-01 -0.11202851388E-01  0.36002281925E-01  0.51100000000E-03 0.  1.
         11    1    4    4    0    0 -0.28606347557E-01  0.66225600679E-01 -0.50035976002E-01  0.87795292136E-01  0.51100000000E-03 0. -1.
</event>
<event>
 8    1  0.1114686E+005  0.1043930E+01  0.7957747E-01            NaN
         13   -1    0    0    0    0  0.00000000000E+00  0.00000000000E+00  0.74505805969E-08  0.10566000000E+00  0.10566000000E+00 0. -1.
     999900   -1    0    0    0    0 -0.00000000000E+00 -0.00000000000E+00 -0.74505805969E-08  0.93827000000E+00  0.93827000000E+00 0. -1.
     999902    2    1    2    0    0  0.34349796234E-02  0.19734588716E-01  0.11503375087E-01  0.10208306339E+01  0.10205692541E+01 0.  0.
     999903    2    3    3    0    0 -0.55639526974E-01  0.19538243413E-01 -0.11396994585E+00  0.12996959525E+00  0.20626371811E-01 0.  0.
         14    1    1    2    0    0 -0.34349796234E-02 -0.19734588716E-01 -0.11503375087E-01  0.23099366121E-01  0.00000000000E+00 0.  1.
     999901    1    3    3    0    0  0.59074506598E-01  0.19634530292E-03  0.12547332094E+00  0.89086103863E+00  0.88000000000E+00 0.  1.
        -11    1    4    4    0    0 -0.74868682925E-02  0.47818906717E-02 -0.36483143613E-01  0.37552637245E-01  0.51100000000E-03 0. -1.
         11    1    4    4    0    0 -0.48152658682E-01  0.14756352741E-01 -0.77486802240E-01  0.92416958004E-01  0.51100000000E-03 0.  1.
</event>
<event>
 8    1  0.1405574E+005  0.1043930E+01  0.7957747E-01            NaN
         13   -1    0    0    0    0  0.00000000000E+00  0.00000000000E+00  0.74505805969E-08  0.10566000000E+00  0.10566000000E+00 0.  1.
     999900   -1    0    0    0    0 -0.00000000000E+00 -0.00000000000E+00 -0.74505805969E-08  0.93827000000E+00  0.93827000000E+00 0.  1.
     999902    2    1    2    0    0  0.14646521234E-01  0.19433363655E-01 -0.11859584378E-01  0.10168592418E+01  0.10164988400E+01 0.  0.
     999903    2    3    3    0    0 -0.38724801201E-01 -0.10527223682E+00  0.49609908312E-01  0.12434678622E+00  0.20472571142E-01 0.  0.
         14    1    1    2    0    0 -0.14646521234E-01 -0.19433363655E-01  0.11859584378E-01  0.27070758188E-01  0.00000000000E+00 0.  1.
     999901    1    3    3    0    0  0.53371322435E-01  0.12470560047E+00 -0.61469492690E-01  0.89251245559E+00  0.88000000000E+00 0.  1.
        -11    1    4    4    0    0 -0.78383194332E-02 -0.39683178293E-01  0.26051374170E-01  0.48115788553E-01  0.51100000000E-03 0.  1.
         11    1    4    4    0    0 -0.30886481768E-01 -0.65589058524E-01  0.23558534143E-01  0.76230997672E-01  0.51100000000E-03 0. -1.
</event>
<event>
 8    1  0.1114686E+005  0.1043930E+01  0.7957747E-01            NaN
         13   -1    0    0    0    0  0.00000000000E+00  0.00000000000E+00  0.74505805969E-08  0.10566000000E+00  0.10566000000E+00 0. -1.
     999900   -1    0    0    0    0 -0.00000000000E+00 -0.00000000000E+00 -0.74505805969E-08  0.93827000000E+00  0.93827000000E+00 0. -1.
     999902    2    1    2    0    0 -0.86358942650E-02 -0.29735183243E-02 -0.23138162522E-01  0.10190544086E+01  0.10187507510E+01 0.  0.
     999903    2    3    3    0    0 -0.99741277682E-01  0.48604842968E-01 -0.67938520515E-01  0.13171704871E+00  0.20566601980E-01 0.  0.
         14    1    1    2    0    0  0.86358942650E-02  0.29735183243E-02  0.23138162522E-01  0.24875591368E-01  0.00000000000E+00 0. -1.
     999901    1    3    3    0    0  0.91105383417E-01 -0.51578361293E-01  0.44800357992E-01  0.88733735992E+00  0.88000000000E+00 0.  1.
        -11    1    4    4    0    0 -0.57431559965E-01  0.27671689106E-01 -0.50720395053E-01  0.81467331203E-01  0.51100000000E-03 0. -1.
         11    1    4    4    0    0 -0.42309717718E-01  0.20933153863E-01 -0.17218125462E-01  0.50249717506E-01  0.51100000000E-03 0.  1.
</event>
<event>
 8    1  0.1114686E+005  0.1043930E+01  0.7957747E-01            NaN
         13   -1    0    0    0    0  0.00000000000E+00  0.00000000000E+00  0.74505805969E-08  0.10566000000E+00  0.10566000000E+00 0. -1.
     999900   -1    0    0    0    0 -0.00000000000E+00 -0.00000000000E+00 -0.74505805969E-08  0.93827000000E+00  0.93827000000E+00 0.  1.
     999902    2    1    2    0    0 -0.18179461899E-01  0.13662022838E-01  0.91242146066E-02  0.10194270411E+01  0.10191325219E+01 0.  0.
     999903    2    3    3    0    0 -0.36482051517E-01  0.83626137699E-01  0.94080377195E-01  0.13238278531E+00  0.18703301432E-01 0.  0.
         14    1    1    2    0    0  0.18179461899E-01 -0.13662022838E-01 -0.91242146066E-02  0.24502958906E-01  0.00000000000E+00 0.  1.
     999901    1    3    3    0    0  0.18302589618E-01 -0.69964114861E-01 -0.84956162589E-01  0.88704425578E+00  0.88000000000E+00 0.  1.
        -11    1    4    4    0    0 -0.29379723297E-01  0.59202582661E-01  0.56226759743E-01  0.86774555989E-01  0.51100000000E-03 0.  1.
         11    1    4    4    0    0 -0.71023282191E-02  0.24423555038E-01  0.37853617452E-01  0.45608229323E-01  0.51100000000E-03 0. -1.
</event>
<event>
 8    1  0.1114686E+005  0.1043930E+01  0.7957747E-01            NaN
         13   -1    0    0    0    0  0.00000000000E+00  0.00000000000E+00  0.74505805969E-08  0.10566000000E+00  0.10566000000E+00 0.  1.
     999900   -1    0    0    0    0 -0.00000000000E+00 -0.00000000000E+00 -0.74505805969E-08  0.93827000000E+00  0.93827000000E+00 0. -1.
     999902    2    1    2    0    0  0.18700542073E-01  0.38156128359E-03 -0.14094027524E-01  0.10205099771E+01  0.10202412047E+01 0.  0.
     999903    2    3    3    0    0  0.98205193619E-02 -0.12611146070E+00  0.26683412733E-01  0.13048630375E+00  0.17723651720E-01 0.  0.
         14    1    1    2    0    0 -0.18700542073E-01 -0.38156128359E-03  0.14094027524E-01  0.23420022944E-01  0.00000000000E+00 0.  1.
     999901    1    3    3    0    0  0.88800227111E-02  0.12649302198E+00 -0.40777440257E-01  0.89002367331E+00  0.88000000000E+00 0. -1.
        -11    1    4    4    0    0  0.22239326288E-03 -0.65758679386E-01  0.62948119887E-02  0.66061631468E-01  0.51100000000E-03 0.  1.
         11    1    4    4    0    0  0.95981260990E-02 -0.60352781315E-01  0.20388600745E-01  0.64424672280E-01  0.51100000000E-03 0. -1.
</event>
<event>
 8    1  0.1114686E+005  0.1043930E+01  0.7957747E-01            NaN
         13   -1    0    0    0    0  0.00000000000E+00  0.00000000000E+00  0.74505805969E-08  0.10566000000E+00  0.10566000000E+00 0.  1.
     999900   -1    0    0    0    0 -0.00000000000E+00 -0.00000000000E+00 -0.74505805969E-08  0.93827000000E+00  0.93827000000E+00 0. -1.
     999902    2    1    2    0    0 -0.22471410941E-01  0.60976833493E-02 -0.34960674580E-04  0.10206459438E+01  0.10203803189E+01 0.  0.
     999903    2    3    3    0    0 -0.71057616973E-01  0.95159241605E-01  0.56530526134E-01  0.13301300451E+00  0.19806382584E-01 0.  0.
         14    1    1    2    0    0  0.22471410941E-01 -0.60976833493E-02  0.34960674580E-04  0.23284056222E-01  0.00000000000E+00 0. -1.
     999901    1    3    3    0    0  0.48586206032E-01 -0.89061558255E-01 -0.56565486809E-01  0.88763293927E+00  0.88000000000E+00 0. -1.
        -11    1    4    4    0    0 -0.59026618932E-01  0.69255479730E-01  0.49517725306E-01  0.10359888733E+00  0.51100000000E-03 0. -1.
         11    1    4    4    0    0 -0.12030998041E-01  0.25903761874E-01  0.70128008286E-02  0.29414117181E-01  0.51100000000E-03 0.  1.
</event>
<event>
 8    1  0.1114686E+005  0.1043930E+01  0.7957747E-01            NaN
         13   -1    0    0    0    0  0.00000000000E+00  0.00000000000E+00  0.74505805969E-08  0.10566000000E+00  0.10566000000E+00 0.  1.
     999900   -1    0    0    0    0 -0.00000000000E+00 -0.00000000000E+00 -0.74505805969E-08  0.93827000000E+00  0.93827000000E+00 0. -1.
     999902    2    1    2    0    0 -0.11813010398E-01  0.75156913852E-02  0.19882132565E-01  0.10196126805E+01  0.10193226605E+01 0.  0.
     999903    2    3    3    0    0  0.67314366630E-01 -0.10873136844E-01  0.11046603245E+00  0.13124072366E+00  0.19285594684E-01 0.  0.
         14    1    1    2    0    0  0.11813010398E-01 -0.75156913852E-02 -0.19882132565E-01  0.24317319486E-01  0.00000000000E+00 0. -1.
     999901    1    3    3    0    0 -0.79127377028E-01  0.18388828229E-01 -0.90583899888E-01  0.88837195685E+00  0.88000000000E+00 0. -1.
        -11    1    4    4    0    0  0.39196574350E-01  0.24578745002E-02  0.54110808921E-01  0.66862944528E-01  0.51100000000E-03 0. -1.
         11    1    4    4    0    0  0.28117792280E-01 -0.13331011344E-01  0.56355223532E-01  0.64377779136E-01  0.51100000000E-03 0.  1.
</event>
<event>
 8    1  0.1114686E+005  0.1043930E+01  0.7957747E-01            NaN
         13   -1    0    0    0    0  0.00000000000E+00  0.00000000000E+00  0.74505805969E-08  0.10566000000E+00  0.10566000000E+00 0. -1.
     999900   -1    0    0    0    0 -0.00000000000E+00 -0.00000000000E+00 -0.74505805969E-08  0.93827000000E+00  0.93827000000E+00 0.  1.
     999902    2    1    2    0    0  0.98750382128E-02  0.21220314237E-02  0.21720308897E-01  0.10199760605E+01  0.10196947449E+01 0.  0.
     999903    2    3    3    0    0  0.38520930913E-01 -0.38380249062E-01  0.11987758916E+00  0.13313003469E+00  0.19901359673E-01 0.  0.
         14    1    1    2    0    0 -0.98750382128E-02 -0.21220314237E-02 -0.21720308897E-01  0.23953939460E-01  0.00000000000E+00 0.  1.
     999901    1    3    3    0    0 -0.28645892700E-01  0.40502280486E-01 -0.98157280267E-01  0.88684602585E+00  0.88000000000E+00 0.  1.
        -11    1    4    4    0    0  0.20090347328E-01 -0.32017676332E-01  0.69631441266E-01  0.79231006477E-01  0.51100000000E-03 0.  1.
         11    1    4    4    0    0  0.18430583585E-01 -0.63625727307E-02  0.50246147898E-01  0.53899028215E-01  0.51100000000E-03 0. -1.
</event>
<event>
 8    1  0.1114686E+005  0.1043930E+01  0.7957747E-01            NaN
         13   -1    0    0    0    0  0.00000000000E+00  0.00000000000E+00  0.74505805969E-08  0.10566000000E+00  0.10566000000E+00 0.  1.
     999900   -1    0    0    0    0 -0.00000000000E+00 -0.00000000000E+00 -0.74505805969E-08  0.93827000000E+00  0.93827000000E+00 0. -1.
     999902    2    1    2    0    0 -0.23528047025E-02  0.12198508487E-01 -0.20210175377E-01  0.10202067943E+01  0.10199309352E+01 0.  0.
     999903    2    3    3    0    0 -0.11675369044E+00 -0.11239053000E-01 -0.56536261040E-01  0.13174944224E+00  0.20095426756E-01 0.  0.
         14    1    1    2    0    0  0.23528047025E-02 -0.12198508487E-01  0.20210175377E-01  0.23723205687E-01  0.00000000000E+00 0.  1.
     999901    1    3    3    0    0  0.11440088573E+00  0.23437561487E-01  0.36326085663E-01  0.88845735207E+00  0.88000000000E+00 0.  1.
        -11    1    4    4    0    0 -0.10456899153E+00 -0.14599293940E-01 -0.45534391242E-01  0.11498458714E+00  0.51100000000E-03 0. -1.
         11    1    4    4    0    0 -0.12184698911E-01  0.33602409406E-02 -0.11001869798E-01  0.16764855108E-01  0.51100000000E-03 0.  1.
</event>
<event>
 8    1  0.1114686E+005  0.1043930E+01  0.7957747E-01            NaN
         13   -1    0    0    0    0  0.00000000000E+00  0.00000000000E+00  0.74505805969E-08  0.10566000000E+00  0.10566000000E+00 0.  1.
     999900   -1    0    0    0    0 -0.00000000000E+00 -0.00000000000E+00 -0.74505805969E-08  0.93827000000E+00  0.93827000000E+00 0.  1.
     999902    2    1    2    0    0 -0.19982403408E-01  0.27639359274E-02 -0.12593011218E-01  0.10201493415E+01  0.10198721289E+01 0.  0.
     999903    2    3    3    0    0 -0.95158989545E-01 -0.16224335330E-01 -0.89844442090E-01  0.13336872763E+00  0.19918117029E-01 0.  0.
         14    1    1    2    0    0  0.19982403408E-01 -0.27639359274E-02  0.12593011218E-01  0.23780658512E-01  0.00000000000E+00 0. -1.
     999901    1    3    3    0    0  0.75176586137E-01  0.18988271258E-01  0.77251430873E-01  0.88678061386E+00  0.88000000000E+00 0. -1.
        -11    1    4    4    0    0 -0.47639519900E-01  0.19516101035E-02 -0.42869112752E-01  0.64119845504E-01  0.51100000000E-03 0. -1.
         11    1    4    4    0    0 -0.47519469645E-01 -0.18175945434E-01 -0.46975329339E-01  0.69248882123E-01  0.51100000000E-03 0.  1.
</event>
<event>
 8    1  0.1114686E+005  0.1043930E+01  0.7957747E-01            NaN
         13   -1    0    0    0    0  0.00000000000E+00  0.00000000000E+00  0.74505805969E-08  0.10566000000E+00  0.10566000000E+00 0.  1.
     999900   -1    0    0    0    0 -0.00000000000E+00 -0.00000000000E+00 -0.74505805969E-08  0.93827000000E+00  0.93827000000E+00 0. -1.
     999902    2    1    2    0    0 -0.17030504419E-01 -0.34205320597E-02 -0.15760281769E-01  0.10204752648E+01  0.10202056859E+01 0.  0.
     999903    2    3    3    0    0  0.10503007575E+00  0.62625076445E-01  0.32933114417E-01  0.12826909221E+00  0.20375303156E-01 0.  0.
         14    1    1    2    0    0  0.17030504419E-01  0.34205320597E-02  0.15760281769E-01  0.23454735168E-01  0.00000000000E+00 0.  1.
     999901    1    3    3    0    0 -0.12206058017E+00 -0.66045608504E-01 -0.48693396186E-01  0.89220617262E+00  0.88000000000E+00 0. -1.
        -11    1    4    4    0    0  0.53504668848E-01  0.23349352317E-01  0.83575325970E-02  0.58975005844E-01  0.51100000000E-03 0. -1.
         11    1    4    4    0    0  0.51525406905E-01  0.39275724128E-01  0.24575581820E-01  0.69294086366E-01  0.51100000000E-03 0.  1.
</event>
<event>
 8    1  0.1114686E+005  0.1043930E+01  0.7957747E-01            NaN
         13   -1    0    0    0    0  0.00000000000E+00  0.00000000000E+00  0.74505805969E-08  0.10566000000E+00  0.10566000000E+00 0.  1.
     999900   -1    0    0    0    0 -0.00000000000E+00 -0.00000000000E+00 -0.74505805969E-08  0.93827000000E+00  0.93827000000E+00 0.  1.
     999902    2    1    2    0    0 -0.16904706473E-01  0.43323587227E-02 -0.17210218126E-01  0.10194202052E+01  0.10191255196E+01 0.  0.
     999903    2    3    3    0    0  0.12469024010E+00  0.19836176035E-01  0.41184652248E-02  0.12771150278E+00  0.18765295882E-01 0.  0.
         14    1    1    2    0    0  0.16904706473E-01 -0.43323587227E-02  0.17210218126E-01  0.24509794797E-01  0.00000000000E+00 0.  1.
     999901    1    3    3    0    0 -0.14159494658E+00 -0.15503817312E-01 -0.21328683351E-01  0.89170870242E+00  0.88000000000E+00 0. -1.
        -11    1    4    4    0    0  0.27937517780E-01 -0.44651906343E-03 -0.51662724604E-02  0.28419285197E-01  0.51100000000E-03 0.  1.
         11    1    4    4    0    0  0.96752722322E-01  0.20282695098E-01  0.92847376852E-02  0.99292217580E-01  0.51100000000E-03 0. -1.
</event>
<event>
 8    1  0.1114686E+005  0.1043930E+01  0.7957747E-01            NaN
         13   -1    0    0    0    0  0.00000000000E+00  0.00000000000E+00  0.74505805969E-08  0.10566000000E+00  0.10566000000E+00 0.  1.
     999900   -1    0    0    0    0 -0.00000000000E+00 -0.00000000000E+00 -0.74505805969E-08  0.93827000000E+00  0.93827000000E+00 0. -1.
     999902    2    1    2    0    0 -0.12601249143E-01  0.22203741129E-01 -0.88091637855E-03  0.10183844796E+01  0.10180640327E+01 0.  0.
     999903    2    3    3    0    0  0.26399712245E-01  0.11092228270E+00  0.61208770826E-01  0.13088958727E+00  0.19618175834E-01 0.  0.
         14    1    1    2    0    0  0.12601249143E-01 -0.22203741129E-01  0.88091637855E-03  0.25545520424E-01  0.00000000000E+00 0.  1.
     999901    1    3    3    0    0 -0.39000961388E-01 -0.88718541576E-01 -0.62089687205E-01  0.88749489230E+00  0.88000000000E+00 0. -1.
        -11    1    4    4    0    0  0.15144936151E-01  0.67273301320E-01  0.47631381538E-01  0.83809759513E-01  0.51100000000E-03 0.  1.
         11    1    4    4    0    0  0.11254776094E-01  0.43648981385E-01  0.13577389288E-01  0.47079827758E-01  0.51100000000E-03 0. -1.
</event>
<event>
 8    1  0.1114686E+005  0.1043930E+01  0.7957747E-01            NaN
         13   -1    0    0    0    0  0.00000000000E+00  0.00000000000E+00  0.74505805969E-08  0.10566000000E+00  0.10566000000E+00 0. -1.
     999900   -1    0    0    0    0 -0.00000000000E+00 -0.00000000000E+00 -0.74505805969E-08  0.93827000000E+00  0.93827000000E+00 0. -1.
     999902    2    1    2    0    0  0.15328834036E-01  0.15818683718E-01  0.85138997309E-02  0.10203145306E+01  0.10200412006E+01 0.  0.
     999903    2    3    3    0    0  0.50628563764E-01  0.21142581835E-01  0.11892842041E+00  0.13269649269E+00  0.21310320376E-01 0.  0.
         14    1    1    2    0    0 -0.15328834036E-01 -0.15818683718E-01 -0.85138997309E-02  0.23615469423E-01  0.00000000000E+00 0.  1.
     999901    1    3    3    0    0 -0.35299729729E-01 -0.53238981175E-02 -0.11041452068E+00  0.88761803789E+00  0.88000000000E+00 0. -1.
        -11    1    4    4    0    0  0.18651261484E-01 -0.28176601815E-02  0.36255792054E-01  0.40872390954E-01  0.51100000000E-03 0. -1.
         11    1    4    4    0    0  0.31977302280E-01  0.23960242017E-01  0.82672628357E-01  0.91824101733E-01  0.51100000000E-03 0.  1.
</event>
<event>
 8    1  0.1114686E+005  0.1043930E+01  0.7957747E-01            NaN
         13   -1    0    0    0    0  0.00000000000E+00  0.00000000000E+00  0.74505805969E-08  0.10566000000E+00  0.10566000000E+00 0. -1.
     999900   -1    0    0    0    0 -0.00000000000E+00 -0.00000000000E+00 -0.74505805969E-08  0.93827000000E+00  0.93827000000E+00 0.  1.
     999902    2    1    2    0    0 -0.12052168856E-02 -0.22499943660E-01  0.97806454036E-02  0.10193665915E+01  0.10190705995E+01 0.  0.
     999903    2    3    3    0    0 -0.10664438626E+00  0.72609061081E-02  0.72060019808E-01  0.13038861253E+00  0.19565222838E-01 0.  0.
         14    1    1    2    0    0  0.12052168856E-02  0.22499943660E-01 -0.97806454036E-02  0.24563408496E-01  0.00000000000E+00 0.  1.
     999901    1    3    3    0    0  0.10543916938E+00 -0.29760849768E-01 -0.62279374405E-01  0.88897797897E+00  0.88000000000E+00 0.  1.
        -11    1    4    4    0    0 -0.82694754628E-01 -0.26538932993E-02  0.55234234284E-01  0.99481391981E-01  0.51100000000E-03 0.  1.
         11    1    4    4    0    0 -0.23949631635E-01  0.99147994073E-02  0.16825785524E-01  0.30907220552E-01  0.51100000000E-03 0. -1.
</event>
<event>
 8    1  0.1114686E+005  0.1043930E+01  0.7957747E-01            NaN
         13   -1    0    0    0    0  0.00000000000E+00  0.00000000000E+00  0.74505805969E-08  0.10566000000E+00  0.10566000000E+00 0. -1.
     999900   -1    0    0    0    0 -0.00000000000E+00 -0.00000000000E+00 -0.74505805969E-08  0.93827000000E+00  0.93827000000E+00 0. -1.
     999902    2    1    2    0    0 -0.72988076686E-02  0.46620796414E-02 -0.22852044674E-01  0.10194918428E+01  0.10191988982E+01 0.  0.
     999903    2    3    3    0    0 -0.92031080525E-02  0.98390468526E-01  0.79459440983E-01  0.12861795875E+00  0.21526612768E-01 0.  0.
         14    1    1    2    0    0  0.72988076686E-02 -0.46620796414E-02  0.22852044674E-01  0.24438157167E-01  0.00000000000E+00 0. -1.
     999901    1    3    3    0    0  0.19043003839E-02 -0.93728388885E-01 -0.10231148566E+00  0.89087388408E+00  0.88000000000E+00 0.  1.
        -11    1    4    4    0    0 -0.12959150997E-01  0.36456623109E-01  0.25080921247E-01  0.46112240183E-01  0.51100000000E-03 0.  1.
         11    1    4    4    0    0  0.37560429443E-02  0.61933845417E-01  0.54378519736E-01  0.82505718568E-01  0.51100000000E-03 0. -1.
</event>
<event>
 8    1  0.1114686E+005  0.1043930E+01  0.7957747E-01            NaN
         13   -1    0    0    0    0  0.00000000000E+00  0.00000000000E+00  0.74505805969E-08  0.10566000000E+00  0.10566000000E+00 0.  1.
     999900   -1    0    0    0    0 -0.00000000000E+00 -0.00000000000E+00 -0.74505805969E-08  0.93827000000E+00  0.93827000000E+00 0. -1.
     999902    2    1    2    0    0 -0.69790153338E-02  0.58607845489E-02 -0.22117126177E-01  0.10200088228E+01  0.10197282853E+01 0.  0.
     999903    2    3    3    0    0  0.76447548474E-01 -0.13673773283E-01 -0.10481200783E+00  0.13198853360E+00  0.20105130507E-01 0.  0.
         14    1    1    2    0    0  0.69790153338E-02 -0.58607845489E-02  0.22117126177E-01  0.23921177247E-01  0.00000000000E+00 0.  1.
     999901    1    3    3    0    0 -0.83426563808E-01  0.19534557832E-01  0.82694881653E-01  0.88802028915E+00  0.88000000000E+00 0.  1.
        -11    1    4    4    0    0  0.41572367379E-01 -0.11770161429E-01 -0.42820551586E-01  0.60833043559E-01  0.51100000000E-03 0.  1.
         11    1    4    4    0    0  0.34875181095E-01 -0.19036118539E-02 -0.61991456244E-01  0.71155490040E-01  0.51100000000E-03 0. -1.
</event>
<event>
 8    1  0.1114686E+005  0.1043930E+01  0.7957747E-01            NaN
         13   -1    0    0    0    0  0.00000000000E+00  0.00000000000E+00  0.74505805969E-08  0.10566000000E+00  0.10566000000E+00 0. -1.
     999900   -1    0    0    0    0 -0.00000000000E+00 -0.00000000000E+00 -0.74505805969E-08  0.93827000000E+00  0.93827000000E+00 0. -1.
     999902    2    1    2    0    0  0.18226736908E-01  0.13908580099E-02  0.14785831154E-01  0.10204189552E+01  0.10201480652E+01 0.  0.
     999903    2    3    3    0    0 -0.42156503153E-01 -0.12117461845E+00 -0.15816833952E-02  0.12972466016E+00  0.19118755587E-01 0.  0.
         14    1    1    2    0    0 -0.18226736908E-01 -0.13908580099E-02 -0.14785831154E-01  0.23511044793E-01  0.00000000000E+00 0.  1.
     999901    1    3    3    0    0  0.60383240061E-01  0.12256547646E+00  0.16367514549E-01  0.89069429505E+00  0.88000000000E+00 0.  1.
        -11    1    4    4    0    0 -0.12303799543E-01 -0.36550680571E-01  0.82790025395E-02  0.39447924374E-01  0.51100000000E-03 0. -1.
         11    1    4    4    0    0 -0.29852703610E-01 -0.84623937883E-01 -0.98606859346E-02  0.90276735783E-01  0.51100000000E-03 0.  1.
</event>
<event>
 8    1  0.1114686E+005  0.1043930E+01  0.7957747E-01            NaN
         13   -1    0    0    0    0  0.00000000000E+00  0.00000000000E+00  0.74505805969E-08  0.10566000000E+00  0.10566000000E+00 0. -1.
     999900   -1    0    0    0    0 -0.00000000000E+00 -0.00000000000E+00 -0.74505805969E-08  0.93827000000E+00  0.93827000000E+00 0. -1.
     999902    2    1    2    0    0  0.18937399584E-02  0.51099953555E-02 -0.22752408745E-01  0.10205340515E+01  0.10202658378E+01 0.  0.
     999903    2    3    3    0    0 -0.63072252462E-01 -0.81550472663E-01 -0.80134201041E-01  0.13203909540E+00  0.19602140582E-01 0.  0.
         14    1    1    2    0    0 -0.18937399584E-02 -0.51099953555E-02  0.22752408745E-01  0.23395948522E-01  0.00000000000E+00 0. -1.
     999901    1    3    3    0    0  0.64965992421E-01  0.86660468019E-01  0.57381792296E-01  0.88849495608E+00  0.88000000000E+00 0.  1.
        -11    1    4    4    0    0 -0.48654584114E-01 -0.48219553086E-01 -0.55344366889E-01  0.88066190576E-01  0.51100000000E-03 0.  1.
         11    1    4    4    0    0 -0.14417668349E-01 -0.33330919577E-01 -0.24789834151E-01  0.43972904825E-01  0.51100000000E-03 0. -1.
</event>
<event>
 8    1  0.1114686E+005  0.1043930E+01  0.7957747E-01            NaN
         13   -1    0    0    0    0  0.00000000000E+00  0.00000000000E+00  0.74505805969E-08  0.10566000000E+00  0.10566000000E+00 0.  1.
     999900   -1    0    0    0    0 -0.00000000000E+00 -0.00000000000E+00 -0.74505805969E-08  0.93827000000E+00  0.93827000000E+00 0.  1.
     999902    2    1    2    0    0 -0.15437295169E-01  0.97465758974E-02 -0.13933221940E-01  0.10209639273E+01  0.10207055894E+01 0.  0.
     999903    2    3    3    0    0 -0.36119004381E-01 -0.97634750494E-01  0.74912225763E-01  0.12975576081E+00  0.19687277950E-01 0.  0.
         14    1    1    2    0    0  0.15437295169E-01 -0.97465758974E-02  0.13933221940E-01  0.22966072749E-01  0.00000000000E+00 0.  1.
     999901    1    3    3    0    0  0.20681709212E-01  0.10738132639E+00 -0.88845447703E-01  0.89120816644E+00  0.88000000000E+00 0.  1.
        -11    1    4    4    0    0 -0.17896973580E-01 -0.23513703017E-01  0.22931259062E-01  0.37407213957E-01  0.51100000000E-03 0.  1.
         11    1    4    4    0    0 -0.18222030801E-01 -0.74121047477E-01  0.51980966701E-01  0.92348546853E-01  0.51100000000E-03 0. -1.
</event>
<event>
 7    1  0.1114686E+005  0.1043930E+01  0.7957747E-01            NaN
         13   -1    0    0    0    0  0.00000000000E+00  0.00000000000E+00  0.74505805969E-08  0.10566000000E+00  0.10566000000E+00 0.  1.
     999900   -1    0    0    0    0 -0.00000000000E+00 -0.00000000000E+00 -0.74505805969E-08  0.93827000000E+00  0.93827000000E+00 0.  1.
     999902    2    1    2    0    0  0.90786078777E-02 -0.13270352860E-01  0.17204385368E-01  0.10203818735E+01  0.10201101183E+01 0.  0.
         14    1    1    2    0    0 -0.90786078777E-02  0.13270352860E-01 -0.17204385368E-01  0.23548126505E-01  0.00000000000E+00 0. -1.
     999901    1    3    3    0    0  0.10470088224E+00  0.31896086826E-01 -0.37238537704E-01  0.88756202250E+00  0.88000000000E+00 0.  1.
        -11    1    3    3    0    0 -0.77124744020E-02  0.10118190595E-01 -0.43834078862E-02  0.13466084361E-01  0.51100000000E-03 0.  1.
         11    1    3    3    0    0 -0.87909799960E-01 -0.55284630281E-01  0.58826330958E-01  0.11935376663E+00  0.51100000000E-03 0. -1.
</event>
<event>
 8    1  0.1114686E+005  0.1043930E+01  0.7957747E-01            NaN
         13   -1    0    0    0    0  0.00000000000E+00  0.00000000000E+00  0.74505805969E-08  0.10566000000E+00  0.10566000000E+00 0.  1.
     999900   -1    0    0    0    0 -0.00000000000E+00 -0.00000000000E+00 -0.74505805969E-08  0.93827000000E+00  0.93827000000E+00 0.  1.
     999902    2    1    2    0    0  0.13904278635E-01 -0.40084151046E-02 -0.20042865985E-01  0.10192093036E+01  0.10189094619E+01 0.  0.
     999903    2    3    3    0    0 -0.63194453582E-01 -0.19519795548E-01  0.10647147233E+00  0.12669000671E+00  0.18428836089E-01 0.  0.
         14    1    1    2    0    0 -0.13904278635E-01  0.40084151046E-02  0.20042865985E-01  0.24720696449E-01  0.00000000000E+00 0.  1.
     999901    1    3    3    0    0  0.77098732217E-01  0.15511380443E-01 -0.12651433831E+00  0.89251929684E+00  0.88000000000E+00 0.  1.
        -11    1    4    4    0    0 -0.35452098075E-01 -0.58099313808E-02  0.71296502425E-01  0.79837703747E-01  0.51100000000E-03 0.  1.
         11    1    4    4    0    0 -0.27742355507E-01 -0.13709864167E-01  0.35174969901E-01  0.46852302965E-01  0.51100000000E-03 0. -1.
</event>
<event>
 8    1  0.1114686E+005  0.1043930E+01  0.7957747E-01            NaN
         13   -1    0    0    0    0  0.00000000000E+00  0.00000000000E+00  0.74505805969E-08  0.10566000000E+00  0.10566000000E+00 0. -1.
     999900   -1    0    0    0    0 -0.00000000000E+00 -0.00000000000E+00 -0.74505805969E-08  0.93827000000E+00  0.93827000000E+00 0. -1.
     999902    2    1    2    0    0  0.19438702038E-01  0.97762889118E-02  0.55164659958E-02  0.10214829432E+01  0.10212362767E+01 0.  0.
     999903    2    3    3    0    0  0.54605510174E-01 -0.11361161967E+00 -0.30968159882E-01  0.13143102994E+00  0.20633149001E-01 0.  0.
         14    1    1    2    0    0 -0.19438702038E-01 -0.97762889118E-02 -0.55164659958E-02  0.22447056798E-01  0.00000000000E+00 0.  1.
     999901    1    3    3    0    0 -0.35166808136E-01  0.12338790859E+00  0.36484625878E-01  0.89005191326E+00  0.88000000000E+00 0. -1.
        -11    1    4    4    0    0  0.47755886652E-01 -0.78547569018E-01 -0.24285958909E-01  0.95081092914E-01  0.51100000000E-03 0.  1.
         11    1    4    4    0    0  0.68496235221E-02 -0.35064050656E-01 -0.66822009732E-02  0.36349937024E-01  0.51100000000E-03 0. -1.
</event>
<event>
 8    1  0.1114686E+005  0.1043930E+01  0.7957747E-01            NaN
         13   -1    0    0    0    0  0.00000000000E+00  0.00000000000E+00  0.74505805969E-08  0.10566000000E+00  0.10566000000E+00 0.  1.
     999900   -1    0    0    0    0 -0.00000000000E+00 -0.00000000000E+00 -0.74505805969E-08  0.93827000000E+00  0.93827000000E+00 0. -1.
     999902    2    1    2    0    0 -0.92290039038E-03 -0.22117300476E-01  0.11633862877E-01  0.10189225313E+01  0.10186156053E+01 0.  0.
     999903    2    3    3    0    0 -0.58445885115E-01  0.47749703459E-01 -0.10041328410E+00  0.12721357925E+00  0.20112470141E-01 0.  0.
         14    1    1    2    0    0  0.92290039038E-03  0.22117300476E-01 -0.11633862877E-01  0.25007468703E-01  0.00000000000E+00 0. -1.
     999901    1    3    3    0    0  0.57522984725E-01 -0.69867003936E-01  0.11204714698E+00  0.89170895204E+00  0.88000000000E+00 0.  1.
        -11    1    4    4    0    0 -0.33735026756E-01  0.17825351424E-01 -0.60598381683E-01  0.71611592408E-01  0.51100000000E-03 0. -1.
         11    1    4    4    0    0 -0.24710858359E-01  0.29924352036E-01 -0.39814902417E-01  0.55601986845E-01  0.51100000000E-03 0.  1.
</event>
<event>
 8    1  0.1114686E+005  0.1043930E+01  0.7957747E-01            NaN
         13   -1    0    0    0    0  0.00000000000E+00  0.00000000000E+00  0.74505805969E-08  0.10566000000E+00  0.10566000000E+00 0.  1.
     999900   -1    0    0    0    0 -0.00000000000E+00 -0.00000000000E+00 -0.74505805969E-08  0.93827000000E+00  0.93827000000E+00 0.  1.
     999902    2    1    2    0    0  0.11220088512E-01 -0.14835529748E-01 -0.14949689368E-01  0.10200662924E+01  0.10197871172E+01 0.  0.
     999903    2    3    3    0    0 -0.11677147064E+00  0.49007307659E-01 -0.73591397078E-02  0.12848603040E+00  0.20425731596E-01 0.  0.
         14    1    1    2    0    0 -0.11220088512E-01  0.14835529748E-01  0.14949689368E-01  0.23863707619E-01  0.00000000000E+00 0.  1.
     999901    1    3    3    0    0  0.12799155916E+00 -0.63842837406E-01 -0.75905496603E-02  0.89158026198E+00  0.88000000000E+00 0. -1.
        -11    1    4    4    0    0 -0.54368894027E-01  0.32432517906E-01 -0.86950063061E-02  0.63903905288E-01  0.51100000000E-03 0. -1.
         11    1    4    4    0    0 -0.62402576618E-01  0.16574789753E-01  0.13358665983E-02  0.64582125116E-01  0.51100000000E-03 0.  1.
</event>
<event>
 8    1  0.1114686E+005  0.1043930E+01  0.7957747E-01            NaN
         13   -1    0    0    0    0  0.00000000000E+00  0.00000000000E+00  0.74505805969E-08  0.10566000000E+00  0.10566000000E+00 0. -1.
     999900   -1    0    0    0    0 -0.00000000000E+00 -0.00000000000E+00 -0.74505805969E-08  0.93827000000E+00  0.93827000000E+00 0.  1.
     999902    2    1    2    0    0 -0.85416904043E-02 -0.14675035320E-01  0.18439138704E-01  0.10188637084E+01  0.10185553188E+01 0.  0.
     999903    2    3    3    0    0  0.11054705393E+00 -0.39860632517E-01  0.51632304750E-01  0.12986526659E+00  0.19737563560E-01 0.  0.
         14    1    1    2    0    0  0.85416904043E-02  0.14675035320E-01 -0.18439138704E-01  0.25066291563E-01  0.00000000000E+00 0.  1.
     999901    1    3    3    0    0 -0.11908874433E+00  0.25185597197E-01 -0.33193166047E-01  0.88899844185E+00  0.88000000000E+00 0.  1.
        -11    1    4    4    0    0  0.46908503210E-01 -0.68576848441E-02  0.18524737158E-01  0.50900515937E-01  0.51100000000E-03 0. -1.
         11    1    4    4    0    0  0.63638550721E-01 -0.33002947673E-01  0.33107567592E-01  0.78964750654E-01  0.51100000000E-03 0.  1.
</event>
<event>
 8    1  0.1114686E+005  0.1043930E+01  0.7957747E-01            NaN
         13   -1    0    0    0    0  0.00000000000E+00  0.00000000000E+00  0.74505805969E-08  0.10566000000E+00  0.10566000000E+00 0. -1.
     999900   -1    0    0    0    0 -0.00000000000E+00 -0.00000000000E+00 -0.74505805969E-08  0.93827000000E+00  0.93827000000E+00 0.  1.
     999902    2    1    2    0    0  0.22794478287E-01  0.86892276138E-02 -0.18380455180E-02  0.10194663672E+01  0.10191728041E+01 0.  0.
     999903    2    3    3    0    0  0.92736342441E-01 -0.63525561026E-01 -0.65160228357E-01  0.13148182970E+00  0.20151676560E-01 0.  0.
         14    1    1    2    0    0 -0.22794478287E-01 -0.86892276138E-02  0.18380455180E-02  0.24463632768E-01  0.00000000000E+00 0.  1.
     999901    1    3    3    0    0 -0.69941864155E-01  0.72214788640E-01  0.63322182839E-01  0.88798453753E+00  0.88000000000E+00 0. -1.
        -11    1    4    4    0    0  0.24024890403E-01 -0.27791386502E-01 -0.20140862405E-01  0.41898352975E-01  0.51100000000E-03 0. -1.
         11    1    4    4    0    0  0.68711452039E-01 -0.35734174524E-01 -0.45019365952E-01  0.89583476723E-01  0.51100000000E-03 0.  1.
</event>
<event>
 8    1  0.1114686E+005  0.1043930E+01  0.7957747E-01            NaN
         13   -1    0    0    0    0  0.00000000000E+00  0.00000000000E+00  0.74505805969E-08  0.10566000000E+00  0.10566000000E+00 0.  1.
     999900   -1    0    0    0    0 -0.00000000000E+00 -0.00000000000E+00 -0.74505805969E-08  0.93827000000E+00  0.93827000000E+00 0. -1.
     999902    2    1    2    0    0  0.82442309546E-02 -0.19452725621E-01 -0.10951630308E-01  0.10201326454E+01  0.10198550388E+01 0.  0.
     999903    2    3    3    0    0 -0.34796140575E-01  0.37722064407E-01 -0.11837299011E+00  0.13071666922E+00  0.20998982911E-01 0.  0.
         14    1    1    2    0    0 -0.82442309546E-02  0.19452725621E-01  0.10951630308E-01  0.23797354570E-01  0.00000000000E+00 0.  1.
     999901    1    3    3    0    0  0.43040371530E-01 -0.57174790029E-01  0.10742135980E+00  0.88941597621E+00  0.88000000000E+00 0.  1.
        -11    1    4    4    0    0 -0.17225742780E-01  0.32661450794E-01 -0.84585424465E-01  0.92295458909E-01  0.51100000000E-03 0.  1.
         11    1    4    4    0    0 -0.17570397796E-01  0.50606136132E-02 -0.33787565641E-01  0.38421210311E-01  0.51100000000E-03 0. -1.
</event>
<event>
 8    1  0.1114686E+005  0.1043930E+01  0.7957747E-01            NaN
         13   -1    0    0    0    0  0.00000000000E+00  0.00000000000E+00  0.74505805969E-08  0.10566000000E+00  0.10566000000E+00 0. -1.
     999900   -1    0    0    0    0 -0.00000000000E+00 -0.00000000000E+00 -0.74505805969E-08  0.93827000000E+00  0.93827000000E+00 0. -1.
     999902    2    1    2    0    0 -0.19707218685E-01  0.42031822014E-02 -0.11609495469E-01  0.10206744288E+01  0.10204094609E+01 0.  0.
     999903    2    3    3    0    0  0.10525069116E+00  0.61784762314E-01  0.35378353140E-01  0.12874507308E+00  0.20702684067E-01 0.  0.
         14    1    1    2    0    0  0.19707218685E-01 -0.42031822014E-02  0.11609495469E-01  0.23255571245E-01  0.00000000000E+00 0. -1.
     999901    1    3    3    0    0 -0.12495790984E+00 -0.57581580112E-01 -0.46987848609E-01  0.89192935568E+00  0.88000000000E+00 0.  1.
        -11    1    4    4    0    0  0.40160713111E-02  0.17817832247E-02  0.59950746819E-02  0.74502095056E-02  0.51100000000E-03 0. -1.
         11    1    4    4    0    0  0.10123461985E+00  0.60002979089E-01  0.29383278458E-01  0.12129486357E+00  0.51100000000E-03 0.  1.
</event>
<event>
 7    1  0.1870504E+005  0.1043930E+01  0.7957747E-01            NaN
         13   -1    0    0    0    0  0.00000000000E+00  0.00000000000E+00  0.74505805969E-08  0.10566000000E+00  0.10566000000E+00 0.  1.
     999900   -1    0    0    0    0 -0.00000000000E+00 -0.00000000000E+00 -0.74505805969E-08  0.93827000000E+00  0.93827000000E+00 0.  1.
     999902    2    1    2    0    0 -0.21798572015E-01  0.59863110681E-02 -0.63054996802E-02  0.10204614468E+01  0.10201915465E+01 0.  0.
         14    1    1    2    0    0  0.21798572015E-01 -0.59863110681E-02  0.63054996802E-02  0.23468553179E-01  0.00000000000E+00 0. -1.
     999901    1    3    3    0    0 -0.13332070650E+00  0.36669775330E-02 -0.56771327352E-01  0.89185808351E+00  0.88000000000E+00 0.  1.
        -11    1    3    3    0    0  0.24876919425E-01 -0.16187770142E-01  0.12319057154E-01  0.32139155440E-01  0.51100000000E-03 0. -1.
         11    1    3    3    0    0  0.86645215059E-01  0.18507103677E-01  0.38146770518E-01  0.96464207875E-01  0.51100000000E-03 0.  1.
</event>
<event>
 8    1  0.1114686E+005  0.1043930E+01  0.7957747E-01            NaN
         13   -1    0    0    0    0  0.00000000000E+00  0.00000000000E+00  0.74505805969E-08  0.10566000000E+00  0.10566000000E+00 0.  1.
     999900   -1    0    0    0    0 -0.00000000000E+00 -0.00000000000E+00 -0.74505805969E-08  0.93827000000E+00  0.93827000000E+00 0. -1.
     999902    2    1    2    0    0 -0.10075661811E-01  0.42264545144E-02  0.20907283584E-01  0.10203398244E+01  0.10200670864E+01 0.  0.
     999903    2    3    3    0    0  0.10111934398E+00  0.78454306129E-01 -0.75142912269E-02  0.12978837209E+00  0.20207846991E-01 0.  0.
         14    1    1    2    0    0  0.10075661811E-01 -0.42264545144E-02 -0.20907283584E-01  0.23590175615E-01  0.00000000000E+00 0. -1.
     999901    1    3    3    0    0 -0.11119500579E+00 -0.74227851614E-01  0.28421574811E-01  0.89055145229E+00  0.88000000000E+00 0.  1.
        -11    1    4    4    0    0  0.41850976567E-01  0.44990501073E-01 -0.16372496901E-02  0.61470245924E-01  0.51100000000E-03 0. -1.
         11    1    4    4    0    0  0.59268367414E-01  0.33463805056E-01 -0.58770415368E-02  0.68318126167E-01  0.51100000000E-03 0.  1.
</event>
<event>
 8    1  0.1114686E+005  0.1043930E+01  0.7957747E-01            NaN
         13   -1    0    0    0    0  0.00000000000E+00  0.00000000000E+00  0.74505805969E-08  0.10566000000E+00  0.10566000000E+00 0. -1.
     999900   -1    0    0    0    0 -0.00000000000E+00 -0.00000000000E+00 -0.74505805969E-08  0.93827000000E+00  0.93827000000E+00 0. -1.
     999902    2    1    2    0    0 -0.66423027676E-02 -0.13246278316E-01  0.19495644028E-01  0.10194419578E+01  0.10191478014E+01 0.  0.
     999903    2    3    3    0    0  0.12043891624E+00  0.26253330568E-01 -0.29406942150E-01  0.12809392348E+00  0.18668558511E-01 0.  0.
         14    1    1    2    0    0  0.66423027676E-02  0.13246278316E-01 -0.19495644028E-01  0.24488042211E-01  0.00000000000E+00 0.  1.
     999901    1    3    3    0    0 -0.12708121900E+00 -0.39499608884E-01  0.48902586178E-01  0.89134803431E+00  0.88000000000E+00 0.  1.
        -11    1    4    4    0    0  0.75784605654E-01  0.11300349748E-01 -0.10474997137E-01  0.77336867305E-01  0.51100000000E-03 0.  1.
         11    1    4    4    0    0  0.44654310582E-01  0.14952980820E-01 -0.18931945013E-01  0.50757056178E-01  0.51100000000E-03 0. -1.
</event>
<event>
 8    1  0.1114686E+005  0.1043930E+01  0.7957747E-01            NaN
         13   -1    0    0    0    0  0.00000000000E+00  0.00000000000E+00  0.74505805969E-08  0.10566000000E+00  0.10566000000E+00 0.  1.
     999900   -1    0    0    0    0 -0.00000000000E+00 -0.00000000000E+00 -0.74505805969E-08  0.93827000000E+00  0.93827000000E+00 0. -1.
     999902    2    1    2    0    0  0.16715895549E-02  0.16682176282E-01 -0.16822440213E-01  0.10201795534E+01  0.10199030530E+01 0.  0.
     999903    2    3    3    0    0 -0.81085354687E-01 -0.95105828028E-01  0.21934242672E-01  0.12841313212E+00  0.19719742113E-01 0.  0.
         14    1    1    2    0    0 -0.16715895549E-02 -0.16682176282E-01  0.16822440213E-01  0.23750446561E-01  0.00000000000E+00 0. -1.
     999901    1    3    3    0    0  0.82756944242E-01  0.11178800431E+00 -0.38756682885E-01  0.89176642132E+00  0.88000000000E+00 0. -1.
        -11    1    4    4    0    0 -0.64530153850E-01 -0.63858570053E-01  0.11327283366E-01  0.91491126316E-01  0.51100000000E-03 0. -1.
         11    1    4    4    0    0 -0.16555200838E-01 -0.31247257974E-01  0.10606959305E-01  0.36922005802E-01  0.51100000000E-03 0.  1.
</event>
<event>
 8    1  0.1114686E+005  0.1043930E+01  0.7957747E-01            NaN
         13   -1    0    0    0    0  0.00000000000E+00  0.00000000000E+00  0.74505805969E-08  0.10566000000E+00  0.10566000000E+00 0.  1.
     999900   -1    0    0    0    0 -0.00000000000E+00 -0.00000000000E+00 -0.74505805969E-08  0.93827000000E+00  0.93827000000E+00 0.  1.
     999902    2    1    2    0    0 -0.11084756124E-01  0.75478558215E-02 -0.17010972557E-01  0.10222686258E+01  0.10220391030E+01 0.  0.
     999903    2    3    3    0    0 -0.77483389151E-01  0.83461685876E-01 -0.69489482858E-01  0.13495488076E+00  0.20359346958E-01 0.  0.
         14    1    1    2    0    0  0.11084756124E-01 -0.75478558215E-02  0.17010972557E-01  0.21661374222E-01  0.00000000000E+00 0.  1.
     999901    1    3    3    0    0  0.66398633027E-01 -0.75913830054E-01  0.52478510300E-01  0.88731374502E+00  0.88000000000E+00 0. -1.
        -11    1    4    4    0    0 -0.21122230879E-01  0.14475662477E-01 -0.23225576325E-01  0.34574296205E-01  0.51100000000E-03 0. -1.
         11    1    4    4    0    0 -0.56361158272E-01  0.68986023399E-01 -0.46263906533E-01  0.10038058455E+00  0.51100000000E-03 0.  1.
</event>
<event>
 8    1  0.1114686E+005  0.1043930E+01  0.7957747E-01            NaN
         13   -1    0    0    0    0  0.00000000000E+00  0.00000000000E+00  0.74505805969E-08  0.10566000000E+00  0.10566000000E+00 0. -1.
     999900   -1    0    0    0    0 -0.00000000000E+00 -0.00000000000E+00 -0.74505805969E-08  0.93827000000E+00  0.93827000000E+00 0.  1.
     999902    2    1    2    0    0 -0.14154531364E-01 -0.12547943540E-01 -0.15099588633E-01  0.10197267105E+01  0.10194394366E+01 0.  0.
     999903    2    3    3    0    0 -0.73436092038E-01  0.69370057889E-01  0.77706585157E-01  0.12908769930E+00  0.20500150946E-01 0.  0.
         14    1    1    2    0    0  0.14154531364E-01  0.12547943540E-01  0.15099588633E-01  0.24203289490E-01  0.00000000000E+00 0. -1.
     999901    1    3    3    0    0  0.59281560674E-01 -0.81918001430E-01 -0.92806173790E-01  0.89063901121E+00  0.88000000000E+00 0.  1.
        -11    1    4    4    0    0 -0.27781179226E-01  0.36304375943E-01  0.43744565819E-01  0.63274400760E-01  0.51100000000E-03 0.  1.
         11    1    4    4    0    0 -0.45654912812E-01  0.33065681946E-01  0.33962019337E-01  0.65813298541E-01  0.51100000000E-03 0. -1.
</event>
<event>
 8    1  0.1114686E+005  0.1043930E+01  0.7957747E-01            NaN
         13   -1    0    0    0    0  0.00000000000E+00  0.00000000000E+00  0.74505805969E-08  0.10566000000E+00  0.10566000000E+00 0.  1.
     999900   -1    0    0    0    0 -0.00000000000E+00 -0.00000000000E+00 -0.74505805969E-08  0.93827000000E+00  0.93827000000E+00 0. -1.
     999902    2    1    2    0    0  0.13802262498E-01  0.11066607848E-01 -0.16132631797E-01  0.10199876929E+01  0.10197066537E+01 0.  0.
     999903    2    3    3    0    0  0.10555144459E+00 -0.22911115380E-01 -0.74304709086E-01  0.13265664497E+00  0.20262502292E-01 0.  0.
         14    1    1    2    0    0 -0.13802262498E-01 -0.11066607848E-01  0.16132631797E-01  0.23942307074E-01  0.00000000000E+00 0. -1.
     999901    1    3    3    0    0 -0.91749182093E-01  0.33977723228E-01  0.58172077289E-01  0.88733104796E+00  0.88000000000E+00 0.  1.
        -11    1    4    4    0    0  0.70650780396E-01 -0.24923671596E-01 -0.51547300495E-01  0.90940131327E-01  0.51100000000E-03 0.  1.
         11    1    4    4    0    0  0.34900664195E-01  0.20125562162E-02 -0.22757408591E-01  0.41716513643E-01  0.51100000000E-03 0. -1.
</event>
<event>
 8    1  0.1114686E+005  0.1043930E+01  0.7957747E-01            NaN
         13   -1    0    0    0    0  0.00000000000E+00  0.00000000000E+00  0.74505805969E-08  0.10566000000E+00  0.10566000000E+00 0.  1.
     999900   -1    0    0    0    0 -0.00000000000E+00 -0.00000000000E+00 -0.74505805969E-08  0.93827000000E+00  0.93827000000E+00 0. -1.
     999902    2    1    2    0    0  0.95767412287E-02 -0.18147403389E-01 -0.27679102187E-01  0.10094745952E+01  0.10088864076E+01 0.  0.
     999903    2    3    3    0    0 -0.17128350383E-01 -0.11308791455E+00 -0.43202428080E-01  0.12382916037E+00  0.19620253861E-01 0.  0.
         14    1    1    2    0    0 -0.95767412287E-02  0.18147403389E-01  0.27679102187E-01  0.34455404804E-01  0.00000000000E+00 0.  1.
     999901    1    3    3    0    0  0.26705091611E-01  0.94940511164E-01  0.15523325893E-01  0.88564543482E+00  0.88000000000E+00 0.  1.
        -11    1    4    4    0    0 -0.12446930362E-01 -0.28216092618E-01 -0.83064255491E-02  0.31942632710E-01  0.51100000000E-03 0.  1.
         11    1    4    4    0    0 -0.46814200202E-02 -0.84871821936E-01 -0.34896002531E-01  0.91886527662E-01  0.51100000000E-03 0. -1.
</event>
<event>
 8    1  0.1114686E+005  0.1043930E+01  0.7957747E-01            NaN
         13   -1    0    0    0    0  0.00000000000E+00  0.00000000000E+00  0.74505805969E-08  0.10566000000E+00  0.10566000000E+00 0. -1.
     999900   -1    0    0    0    0 -0.00000000000E+00 -0.00000000000E+00 -0.74505805969E-08  0.93827000000E+00  0.93827000000E+00 0. -1.
     999902    2    1    2    0    0 -0.15046112787E-01  0.17176525006E-01  0.57911030273E-02  0.10203725087E+01  0.10201005348E+01 0.  0.
     999903    2    3    3    0    0 -0.65525228099E-01  0.45841679124E-03 -0.11176494421E+00  0.13096424449E+00  0.19143273464E-01 0.  0.
         14    1    1    2    0    0  0.15046112787E-01 -0.17176525006E-01 -0.57911030273E-02  0.23557491283E-01  0.00000000000E+00 0.  1.
     999901    1    3    3    0    0  0.50479115311E-01  0.16718108215E-01  0.11755604724E+00  0.88940826422E+00  0.88000000000E+00 0.  1.
        -11    1    4    4    0    0 -0.46213392023E-01  0.25169042745E-02 -0.93355654249E-01  0.10419957635E+00  0.51100000000E-03 0. -1.
         11    1    4    4    0    0 -0.19311836075E-01 -0.20584874833E-02 -0.18409289959E-01  0.26764668149E-01  0.51100000000E-03 0.  1.
</event>
<event>
 8    1  0.1114686E+005  0.1043930E+01  0.7957747E-01            NaN
         13   -1    0    0    0    0  0.00000000000E+00  0.00000000000E+00  0.74505805969E-08  0.10566000000E+00  0.10566000000E+00 0. -1.
     999900   -1    0    0    0    0 -0.00000000000E+00 -0.00000000000E+00 -0.74505805969E-08  0.93827000000E+00  0.93827000000E+00 0.  1.
     999902    2    1    2    0    0  0.74852193734E-02 -0.17371969352E-01 -0.14492149966E-01  0.10201006853E+01  0.10198223237E+01 0.  0.
     999903    2    3    3    0    0  0.29037542323E-01  0.63523613683E-01  0.10539797477E+00  0.12803440975E+00  0.20140720791E-01 0.  0.
         14    1    1    2    0    0 -0.74852193734E-02  0.17371969352E-01  0.14492149966E-01  0.23829314696E-01  0.00000000000E+00 0.  1.
     999901    1    3    3    0    0 -0.21552322949E-01 -0.80895583035E-01 -0.11989012474E+00  0.89206627556E+00  0.88000000000E+00 0.  1.
        -11    1    4    4    0    0  0.80392326022E-03  0.17364830408E-01  0.16559953485E-01  0.24014096030E-01  0.51100000000E-03 0. -1.
         11    1    4    4    0    0  0.28233619063E-01  0.46158783274E-01  0.88838021286E-01  0.10402031372E+00  0.51100000000E-03 0.  1.
</event>
<event>
 8    1  0.1114686E+005  0.1043930E+01  0.7957747E-01            NaN
         13   -1    0    0    0    0  0.00000000000E+00  0.00000000000E+00  0.74505805969E-08  0.10566000000E+00  0.10566000000E+00 0. -1.
     999900   -1    0    0    0    0 -0.00000000000E+00 -0.00000000000E+00 -0.74505805969E-08  0.93827000000E+00  0.93827000000E+00 0. -1.
     999902    2    1    2    0    0 -0.81505014190E-02 -0.17108005579E-01 -0.14235872322E-01  0.10202282155E+01  0.10199528602E+01 0.  0.
     999903    2    3    3    0    0  0.68203883177E-01  0.40399861492E-01  0.98114818836E-01  0.12795033017E+00  0.21467436422E-01 0.  0.
         14    1    1    2    0    0  0.81505014190E-02  0.17108005579E-01  0.14235872322E-01  0.23701784512E-01  0.00000000000E+00 0. -1.
     999901    1    3    3    0    0 -0.76354384597E-01 -0.57507867072E-01 -0.11235069116E+00  0.89227788532E+00  0.88000000000E+00 0. -1.
        -11    1    4    4    0    0  0.17995726214E-01  0.67441461405E-03  0.19182462309E-01  0.26315945324E-01  0.51100000000E-03 0. -1.
         11    1    4    4    0    0  0.50208156963E-01  0.39725446878E-01  0.78932356527E-01  0.10163438485E+00  0.51100000000E-03 0.  1.
</event>
<event>
 8    1  0.1114686E+005  0.1043930E+01  0.7957747E-01            NaN
         13   -1    0    0    0    0  0.00000000000E+00  0.00000000000E+00  0.74505805969E-08  0.10566000000E+00  0.10566000000E+00 0. -1.
     999900   -1    0    0    0    0 -0.00000000000E+00 -0.00000000000E+00 -0.74505805969E-08  0.93827000000E+00  0.93827000000E+00 0. -1.
     999902    2    1    2    0    0  0.22654490073E-01  0.77056284945E-02 -0.63051560343E-02  0.10191841393E+01  0.10188836794E+01 0.  0.
     999903    2    3    3    0    0  0.10928758209E+00  0.11224211052E-01 -0.71231467262E-01  0.13254266778E+00  0.20588305958E-01 0.  0.
         14    1    1    2    0    0 -0.22654490073E-01 -0.77056284945E-02  0.63051560343E-02  0.24745860737E-01  0.00000000000E+00 0. -1.
     999901    1    3    3    0    0 -0.86633092017E-01 -0.35185825572E-02  0.64926311228E-01  0.88664147148E+00  0.88000000000E+00 0.  1.
        -11    1    4    4    0    0  0.18959387532E-01 -0.54749704785E-03 -0.21802418354E-01  0.28902676272E-01  0.51100000000E-03 0. -1.
         11    1    4    4    0    0  0.90328194559E-01  0.11771708100E-01 -0.49429048908E-01  0.10363999151E+00  0.51100000000E-03 0.  1.
</event>
<event>
 8    1  0.1114686E+005  0.1043930E+01  0.7957747E-01            NaN
         13   -1    0    0    0    0  0.00000000000E+00  0.00000000000E+00  0.74505805969E-08  0.10566000000E+00  0.10566000000E+00 0. -1.
     999900   -1    0    0    0    0 -0.00000000000E+00 -0.00000000000E+00 -0.74505805969E-08  0.93827000000E+00  0.93827000000E+00 0. -1.
     999902    2    1    2    0    0 -0.21455134626E-01  0.18590175886E-01  0.10095712159E-01  0.10137996026E+01  0.10133517620E+01 0.  0.
     999903    2    3    3    0    0  0.65696125062E-01  0.31957080176E-01  0.99491357788E-01  0.12488700983E+00  0.18999977050E-01 0.  0.
         14    1    1    2    0    0  0.21455134626E-01 -0.18590175886E-01 -0.10095712159E-01  0.30130397363E-01  0.00000000000E+00 0. -1.
     999901    1    3    3    0    0 -0.87151259688E-01 -0.13366904291E-01 -0.89395645629E-01  0.88891259281E+00  0.88000000000E+00 0. -1.
        -11    1    4    4    0    0  0.33882439055E-01  0.22306312054E-01  0.67456993068E-01  0.78716569212E-01  0.51100000000E-03 0.  1.
         11    1    4    4    0    0  0.31813686007E-01  0.96507681228E-02  0.32034364720E-01  0.46170440617E-01  0.51100000000E-03 0. -1.
</event>
<event>
 8    1  0.1114686E+005  0.1043930E+01  0.7957747E-01            NaN
         13   -1    0    0    0    0  0.00000000000E+00  0.00000000000E+00  0.74505805969E-08  0.10566000000E+00  0.10566000000E+00 0. -1.
     999900   -1    0    0    0    0 -0.00000000000E+00 -0.00000000000E+00 -0.74505805969E-08  0.93827000000E+00  0.93827000000E+00 0.  1.
     999902    2    1    2    0    0  0.13108678233E-01 -0.19136664978E-01  0.83345477183E-02  0.10192821993E+01  0.10189841450E+01 0.  0.
     999903    2    3    3    0    0  0.78965285321E-01  0.51758234204E-01  0.87284525217E-01  0.13046485119E+00  0.22092033877E-01 0.  0.
         14    1    1    2    0    0 -0.13108678233E-01  0.19136664978E-01 -0.83345477183E-02  0.24647800656E-01  0.00000000000E+00 0. -1.
     999901    1    3    3    0    0 -0.65856607088E-01 -0.70894899182E-01 -0.78949977498E-01  0.88881734815E+00  0.88000000000E+00 0. -1.
        -11    1    4    4    0    0  0.66666280449E-01  0.33885627198E-01  0.72836838815E-01  0.10439394086E+00  0.51100000000E-03 0.  1.
         11    1    4    4    0    0  0.12299004872E-01  0.17872607006E-01  0.14447686401E-01  0.26070910329E-01  0.51100000000E-03 0. -1.
</event>
<event>
 8    1  0.1114686E+005  0.1043930E+01  0.7957747E-01            NaN
         13   -1    0    0    0    0  0.00000000000E+00  0.00000000000E+00  0.74505805969E-08  0.10566000000E+00  0.10566000000E+00 0. -1.
     999900   -1    0    0    0    0 -0.00000000000E+00 -0.00000000000E+00 -0.74505805969E-08  0.93827000000E+00  0.93827000000E+00 0.  1.
     999902    2    1    2    0    0 -0.14036885916E-02 -0.21855738596E-01  0.10270633279E-01  0.10197405486E+01  0.10194536070E+01 0.  0.
     999903    2    3    3    0    0 -0.36770822807E-01 -0.91305636277E-01  0.87143918218E-01  0.13295781060E+00  0.19872198964E-01 0.  0.
         14    1    1    2    0    0  0.14036885916E-02  0.21855738596E-01 -0.10270633279E-01  0.24189451403E-01  0.00000000000E+00 0.  1.
     999901    1    3    3    0    0  0.35367134215E-01  0.69449897681E-01 -0.76873284939E-01  0.88678273800E+00  0.88000000000E+00 0.  1.
        -11    1    4    4    0    0 -0.29427309101E-02 -0.26821448830E-01  0.30315686403E-01  0.40587581175E-01  0.51100000000E-03 0. -1.
         11    1    4    4    0    0 -0.33828091897E-01 -0.64484187447E-01  0.56828231815E-01  0.92370229426E-01  0.51100000000E-03 0.  1.
</event>
<event>
 8    1  0.1114686E+005  0.1043930E+01  0.7957747E-01            NaN
         13   -1    0    0    0    0  0.00000000000E+00  0.00000000000E+00  0.74505805969E-08  0.10566000000E+00  0.10566000000E+00 0. -1.
     999900   -1    0    0    0    0 -0.00000000000E+00 -0.00000000000E+00 -0.74505805969E-08  0.93827000000E+00  0.93827000000E+00 0.  1.
     999902    2    1    2    0    0  0.26506030369E-03  0.21980757793E-01 -0.10886347725E-01  0.10193996813E+01  0.10191044959E+01 0.  0.
     999903    2    3    3    0    0 -0.11252212612E+00  0.61966515494E-01 -0.18645017332E-01  0.13126680428E+00  0.19551453286E-01 0.  0.
         14    1    1    2    0    0 -0.26506030369E-03 -0.21980757793E-01  0.10886347725E-01  0.24530318728E-01  0.00000000000E+00 0.  1.
     999901    1    3    3    0    0  0.11278718642E+00 -0.39985757701E-01  0.77586696073E-02  0.88813287699E+00  0.88000000000E+00 0. -1.
        -11    1    4    4    0    0 -0.27528820207E-01  0.25196080067E-01 -0.59307502484E-02  0.37790386506E-01  0.51100000000E-03 0. -1.
         11    1    4    4    0    0 -0.84993305912E-01  0.36770435427E-01 -0.12714267084E-01  0.93476417774E-01  0.51100000000E-03 0.  1.
</event>
<event>
 8    1  0.1114686E+005  0.1043930E+01  0.7957747E-01            NaN
         13   -1    0    0    0    0  0.00000000000E+00  0.00000000000E+00  0.74505805969E-08  0.10566000000E+00  0.10566000000E+00 0.  1.
     999900   -1    0    0    0    0 -0.00000000000E+00 -0.00000000000E+00 -0.74505805969E-08  0.93827000000E+00  0.93827000000E+00 0. -1.
     999902    2    1    2    0    0  0.11318034068E-02 -0.23608622177E-01 -0.32680430110E-02  0.10200694022E+01  0.10197903006E+01 0.  0.
     999903    2    3    3    0    0  0.16675820360E-01 -0.94866432700E-01  0.88563113363E-01  0.13229000774E+00  0.19480710002E-01 0.  0.
         14    1    1    2    0    0 -0.11318034068E-02  0.23608622177E-01  0.32680430110E-02  0.23860597753E-01  0.00000000000E+00 0. -1.
     999901    1    3    3    0    0 -0.15544016954E-01  0.71257810523E-01 -0.91831156374E-01  0.88777939450E+00  0.88000000000E+00 0. -1.
        -11    1    4    4    0    0 -0.11743955227E-02 -0.33722489331E-01  0.22747519566E-01  0.40697619819E-01  0.51100000000E-03 0.  1.
         11    1    4    4    0    0  0.17850215883E-01 -0.61143943369E-01  0.65815593798E-01  0.91592387925E-01  0.51100000000E-03 0. -1.
</event>
<event>
 8    1  0.1114686E+005  0.1043930E+01  0.7957747E-01            NaN
         13   -1    0    0    0    0  0.00000000000E+00  0.00000000000E+00  0.74505805969E-08  0.10566000000E+00  0.10566000000E+00 0. -1.
     999900   -1    0    0    0    0 -0.00000000000E+00 -0.00000000000E+00 -0.74505805969E-08  0.93827000000E+00  0.93827000000E+00 0.  1.
     999902    2    1    2    0    0 -0.16981968114E-01  0.11307721333E-01  0.10883946291E-01  0.10208061576E+01  0.10205442172E+01 0.  0.
     999903    2    3    3    0    0  0.56183658165E-01  0.11674715424E+00  0.10266593115E-01  0.13149683903E+00  0.19987853156E-01 0.  0.
         14    1    1    2    0    0  0.16981968114E-01 -0.11307721333E-01 -0.10883946291E-01  0.23123842450E-01  0.00000000000E+00 0.  1.
     999901    1    3    3    0    0 -0.73165626279E-01 -0.10543943290E+00  0.61735317579E-03  0.88930931852E+00  0.88000000000E+00 0.  1.
        -11    1    4    4    0    0  0.58277209004E-02  0.28681746098E-01  0.64701570456E-02  0.29978808237E-01  0.51100000000E-03 0.  1.
         11    1    4    4    0    0  0.50355937265E-01  0.88065408139E-01  0.37964360692E-02  0.10151803079E+00  0.51100000000E-03 0. -1.
</event>
<event>
 8    1  0.1114686E+005  0.1043930E+01  0.7957747E-01            NaN
         13   -1    0    0    0    0  0.00000000000E+00  0.00000000000E+00  0.74505805969E-08  0.10566000000E+00  0.10566000000E+00 0.  1.
     999900   -1    0    0    0    0 -0.00000000000E+00 -0.00000000000E+00 -0.74505805969E-08  0.93827000000E+00  0.93827000000E+00 0.  1.
     999902    2    1    2    0    0  0.19046955342E-01  0.52135775826E-02  0.10929999059E-01  0.10213593824E+01  0.10211099624E+01 0.  0.
     999903    2    3    3    0    0 -0.21510413485E-01  0.65888536360E-01 -0.10850975799E+00  0.13029697923E+00  0.19973435009E-01 0.  0.
         14    1    1    2    0    0 -0.19046955342E-01 -0.52135775826E-02 -0.10929999059E-01  0.22570617591E-01  0.00000000000E+00 0.  1.
     999901    1    3    3    0    0  0.40557368827E-01 -0.60674958777E-01  0.11943975705E+00  0.89106240318E+00  0.88000000000E+00 0. -1.
        -11    1    4    4    0    0 -0.11557808813E-01  0.17387048516E-01 -0.46263556533E-01  0.50758941919E-01  0.51100000000E-03 0.  1.
         11    1    4    4    0    0 -0.99526046717E-02  0.48501487844E-01 -0.62246201459E-01  0.79538037315E-01  0.51100000000E-03 0. -1.
</event>
<event>
 8    1  0.1114686E+005  0.1043930E+01  0.7957747E-01            NaN
         13   -1    0    0    0    0  0.00000000000E+00  0.00000000000E+00  0.74505805969E-08  0.10566000000E+00  0.10566000000E+00 0.  1.
     999900   -1    0    0    0    0 -0.00000000000E+00 -0.00000000000E+00 -0.74505805969E-08  0.93827000000E+00  0.93827000000E+00 0.  1.
     999902    2    1    2    0    0  0.11649333003E-01  0.18359504684E-01  0.49191553291E-02  0.10216370311E+01  0.10213937766E+01 0.  0.
     999903    2    3    3    0    0 -0.10456611241E+00  0.70494083905E-01  0.33702298749E-01  0.13200086199E+00  0.19618738379E-01 0.  0.
         14    1    1    2    0    0 -0.11649333003E-01 -0.18359504684E-01 -0.49191553291E-02  0.22292968865E-01  0.00000000000E+00 0. -1.
     999901    1    3    3    0    0  0.11621544541E+00 -0.52134579221E-01 -0.28783143420E-01  0.88963616914E+00  0.88000000000E+00 0.  1.
        -11    1    4    4    0    0 -0.88965077009E-01  0.58049963080E-01  0.20845031207E-01  0.10825599100E+00  0.51100000000E-03 0.  1.
         11    1    4    4    0    0 -0.15601035400E-01  0.12444120825E-01  0.12857267542E-01  0.23744870990E-01  0.51100000000E-03 0. -1.
</event>
<event>
 8    1  0.1114686E+005  0.1043930E+01  0.7957747E-01            NaN
         13   -1    0    0    0    0  0.00000000000E+00  0.00000000000E+00  0.74505805969E-08  0.10566000000E+00  0.10566000000E+00 0.  1.
     999900   -1    0    0    0    0 -0.00000000000E+00 -0.00000000000E+00 -0.74505805969E-08  0.93827000000E+00  0.93827000000E+00 0.  1.
     999902    2    1    2    0    0 -0.97142253114E-02  0.20505892989E-01 -0.12001864256E-01  0.10182609025E+01  0.10179373080E+01 0.  0.
     999903    2    3    3    0    0  0.39561527242E-01  0.23435245769E-01 -0.12124583964E+00  0.13013313745E+00  0.10943246800E-01 0.  0.
         14    1    1    2    0    0  0.97142253114E-02 -0.20505892989E-01  0.12001864256E-01  0.25669097497E-01  0.00000000000E+00 0. -1.
     999901    1    3    3    0    0 -0.49275752554E-01 -0.29293527803E-02  0.10924397539E+00  0.88812776505E+00  0.88000000000E+00 0. -1.
        -11    1    4    4    0    0  0.30639139524E-01  0.14166742440E-01 -0.77545179100E-01  0.84575229144E-01  0.51100000000E-03 0.  1.
         11    1    4    4    0    0  0.89223877185E-02  0.92685033288E-02 -0.43700660542E-01  0.45557908308E-01  0.51100000000E-03 0. -1.
</event>
<event>
 8    1  0.1114686E+005  0.1043930E+01  0.7957747E-01            NaN
         13   -1    0    0    0    0  0.00000000000E+00  0.00000000000E+00  0.74505805969E-08  0.10566000000E+00  0.10566000000E+00 0. -1.
     999900   -1    0    0    0    0 -0.00000000000E+00 -0.00000000000E+00 -0.74505805969E-08  0.93827000000E+00  0.93827000000E+00 0. -1.
     999902    2    1    2    0    0 -0.28478380689E-01  0.45530013442E-02 -0.62063008385E-02  0.10144297261E+01  0.10140006919E+01 0.  0.
     999903    2    3    3    0    0  0.10873370118E+00 -0.22726457965E-01  0.45746221016E-01  0.12186578510E+00  0.20470544152E-01 0.  0.
         14    1    1    2    0    0  0.28478380689E-01 -0.45530013442E-02  0.62063008385E-02  0.29500273863E-01  0.00000000000E+00 0.  1.
     999901    1    3    3    0    0 -0.13721208187E+00  0.27279459309E-01 -0.51952521855E-01  0.89256394104E+00  0.88000000000E+00 0. -1.
        -11    1    4    4    0    0  0.71387096183E-01 -0.84733043930E-02  0.21185789870E-01  0.74946735767E-01  0.51100000000E-03 0. -1.
         11    1    4    4    0    0  0.37346604993E-01 -0.14253153572E-01  0.24560431146E-01  0.46919049334E-01  0.51100000000E-03 0.  1.
</event>
<event>
 8    1  0.1114686E+005  0.1043930E+01  0.7957747E-01            NaN
         13   -1    0    0    0    0  0.00000000000E+00  0.00000000000E+00  0.74505805969E-08  0.10566000000E+00  0.10566000000E+00 0. -1.
     999900   -1    0    0    0    0 -0.00000000000E+00 -0.00000000000E+00 -0.74505805969E-08  0.93827000000E+00  0.93827000000E+00 0.  1.
     999902    2    1    2    0    0  0.46864205045E-02 -0.17101545910E-01 -0.14800066097E-01  0.10208330875E+01  0.10205717639E+01 0.  0.
     999903    2    3    3    0    0  0.47539504585E-01 -0.59894438329E-01 -0.10791734414E+00  0.13385031095E+00  0.20552477646E-01 0.  0.
         14    1    1    2    0    0 -0.46864205045E-02  0.17101545910E-01  0.14800066097E-01  0.23096912480E-01  0.00000000000E+00 0. -1.
     999901    1    3    3    0    0 -0.42853084080E-01  0.42792892419E-01  0.93117278042E-01  0.88698277657E+00  0.88000000000E+00 0. -1.
        -11    1    4    4    0    0  0.28538498904E-01 -0.47703024989E-01 -0.66481395496E-01  0.86660611474E-01  0.51100000000E-03 0.  1.
         11    1    4    4    0    0  0.19001005680E-01 -0.12191413340E-01 -0.41435948642E-01  0.47189699479E-01  0.51100000000E-03 0. -1.
</event>
<event>
 8    1  0.1114686E+005  0.1043930E+01  0.7957747E-01            NaN
         13   -1    0    0    0    0  0.00000000000E+00  0.00000000000E+00  0.74505805969E-08  0.10566000000E+00  0.10566000000E+00 0.  1.
     999900   -1    0    0    0    0 -0.00000000000E+00 -0.00000000000E+00 -0.74505805969E-08  0.93827000000E+00  0.93827000000E+00 0.  1.
     999902    2    1    2    0    0 -0.20877874980E-02 -0.19492583922E-02  0.20574331625E-01  0.10231583466E+01  0.10229474769E+01 0.  0.
     999903    2    3    3    0    0 -0.11549106531E-01  0.12933384175E+00 -0.15201154572E-01  0.13265025880E+00  0.22458663749E-01 0.  0.
         14    1    1    2    0    0  0.20877874980E-02  0.19492583922E-02 -0.20574331625E-01  0.20771653442E-01  0.00000000000E+00 0. -1.
     999901    1    3    3    0    0  0.94613190330E-02 -0.13128310014E+00  0.35775486197E-01  0.89050808775E+00  0.88000000000E+00 0. -1.
        -11    1    4    4    0    0  0.55654906996E-02  0.28682052930E-01 -0.80106100757E-02  0.30299601347E-01  0.51100000000E-03 0.  1.
         11    1    4    4    0    0 -0.17114597231E-01  0.10065178882E+00 -0.71905444961E-02  0.10235065746E+00  0.51100000000E-03 0. -1.
</event>
<event>
 8    1  0.1114686E+005  0.1043930E+01  0.7957747E-01            NaN
         13   -1    0    0    0    0  0.00000000000E+00  0.00000000000E+00  0.74505805969E-08  0.10566000000E+00  0.10566000000E+00 0. -1.
     999900   -1    0    0    0    0 -0.00000000000E+00 -0.00000000000E+00 -0.74505805969E-08  0.93827000000E+00  0.93827000000E+00 0. -1.
     999902    2    1    2    0    0 -0.17793240341E-01 -0.14051349861E-03 -0.13822772687E-01  0.10213980629E+01  0.10211495065E+01 0.  0.
     999903    2    3    3    0    0  0.88026255398E-01 -0.72116157341E-01  0.57319493028E-01  0.12929970453E+00  0.21989259243E-01 0.  0.
         14    1    1    2    0    0  0.17793240341E-01  0.14051349861E-03  0.13822772687E-01  0.22531937126E-01  0.00000000000E+00 0. -1.
     999901    1    3    3    0    0 -0.10581949574E+00  0.71975643843E-01 -0.71142265715E-01  0.89209835834E+00  0.88000000000E+00 0.  1.
        -11    1    4    4    0    0  0.61633046516E-01 -0.36758933653E-01  0.34617824515E-01  0.79677515783E-01  0.51100000000E-03 0.  1.
         11    1    4    4    0    0  0.26393208882E-01 -0.35357223688E-01  0.22701668514E-01  0.49622188750E-01  0.51100000000E-03 0. -1.
</event>
<event>
 8    1  0.1114686E+005  0.1043930E+01  0.7957747E-01            NaN
         13   -1    0    0    0    0  0.00000000000E+00  0.00000000000E+00  0.74505805969E-08  0.10566000000E+00  0.10566000000E+00 0. -1.
     999900   -1    0    0    0    0 -0.00000000000E+00 -0.00000000000E+00 -0.74505805969E-08  0.93827000000E+00  0.93827000000E+00 0.  1.
     999902    2    1    2    0    0  0.55448121940E-02 -0.18133809712E-01 -0.13527952665E-01  0.10206365352E+01  0.10203706932E+01 0.  0.
     999903    2    3    3    0    0 -0.70398621998E-01  0.85955428720E-01  0.60828638612E-01  0.12815074969E+00  0.19447099135E-01 0.  0.
         14    1    1    2    0    0 -0.55448121940E-02  0.18133809712E-01  0.13527952665E-01  0.23293464754E-01  0.00000000000E+00 0. -1.
     999901    1    3    3    0    0  0.75943434192E-01 -0.10408923843E+00 -0.74356591277E-01  0.89248578556E+00  0.88000000000E+00 0.  1.
        -11    1    4    4    0    0 -0.42629815334E-01  0.45263364054E-01  0.43664238791E-01  0.75979603520E-01  0.51100000000E-03 0. -1.
         11    1    4    4    0    0 -0.27768806664E-01  0.40692064667E-01  0.17164399821E-01  0.52171146169E-01  0.51100000000E-03 0.  1.
</event>
<event>
 8    1  0.1114686E+005  0.1043930E+01  0.7957747E-01            NaN
         13   -1    0    0    0    0  0.00000000000E+00  0.00000000000E+00  0.74505805969E-08  0.10566000000E+00  0.10566000000E+00 0. -1.
     999900   -1    0    0    0    0 -0.00000000000E+00 -0.00000000000E+00 -0.74505805969E-08  0.93827000000E+00  0.93827000000E+00 0.  1.
     999902    2    1    2    0    0 -0.18327916055E-01 -0.19307862727E-01  0.12491131533E-01  0.10145236327E+01  0.10140973656E+01 0.  0.
     999903    2    3    3    0    0  0.65281345842E-01 -0.40942280774E-01  0.97737291399E-01  0.12619629187E+00  0.20856689135E-01 0.  0.
         14    1    1    2    0    0  0.18327916055E-01  0.19307862727E-01 -0.12491131533E-01  0.29406367286E-01  0.00000000000E+00 0. -1.
     999901    1    3    3    0    0 -0.83609261898E-01  0.21634418047E-01 -0.85246159866E-01  0.88832734084E+00  0.88000000000E+00 0.  1.
        -11    1    4    4    0    0  0.40069399679E-01 -0.28387304821E-01  0.76550114187E-01  0.90948210365E-01  0.51100000000E-03 0. -1.
         11    1    4    4    0    0  0.25211946163E-01 -0.12554975953E-01  0.21187177212E-01  0.35248081504E-01  0.51100000000E-03 0.  1.
</event>
<event>
 8    1  0.1114686E+005  0.1043930E+01  0.7957747E-01            NaN
         13   -1    0    0    0    0  0.00000000000E+00  0.00000000000E+00  0.74505805969E-08  0.10566000000E+00  0.10566000000E+00 0. -1.
     999900   -1    0    0    0    0 -0.00000000000E+00 -0.00000000000E+00 -0.74505805969E-08  0.93827000000E+00  0.93827000000E+00 0. -1.
     999902    2    1    2    0    0 -0.17630632693E-01  0.14352126616E-01 -0.84714457935E-03  0.10211804857E+01  0.10209270512E+01 0.  0.
     999903    2    3    3    0    0  0.89370473609E-01 -0.76534491955E-01 -0.48478681674E-01  0.12878013970E+00  0.19736559812E-01 0.  0.
         14    1    1    2    0    0  0.17630632693E-01 -0.14352126616E-01  0.84714457935E-03  0.22749514313E-01  0.00000000000E+00 0. -1.
     999901    1    3    3    0    0 -0.10700110630E+00  0.90886618571E-01  0.47631537094E-01  0.89240034598E+00  0.88000000000E+00 0. -1.
        -11    1    4    4    0    0  0.83912799560E-01 -0.74552382405E-01 -0.49806148276E-01  0.12280199176E+00  0.51100000000E-03 0. -1.
         11    1    4    4    0    0  0.54576740488E-02 -0.19821095508E-02  0.13274666025E-02  0.59781479469E-02  0.51100000000E-03 0.  1.
</event>
<event>
 8    1  0.1114686E+005  0.1043930E+01  0.7957747E-01            NaN
         13   -1    0    0    0    0  0.00000000000E+00  0.00000000000E+00  0.74505805969E-08  0.10566000000E+00  0.10566000000E+00 0.  1.
     999900   -1    0    0    0    0 -0.00000000000E+00 -0.00000000000E+00 -0.74505805969E-08  0.93827000000E+00  0.93827000000E+00 0. -1.
     999902    2    1    2    0    0  0.97900285098E-02  0.51495105149E-02  0.21114411036E-01  0.10200934635E+01  0.10198149312E+01 0.  0.
     999903    2    3    3    0    0  0.10148802412E+00  0.81394294571E-01  0.77940334543E-02  0.13194976912E+00  0.20619029673E-01 0.  0.
         14    1    1    2    0    0 -0.97900285098E-02 -0.51495105149E-02 -0.21114411036E-01  0.23836536455E-01  0.00000000000E+00 0. -1.
     999901    1    3    3    0    0 -0.91697995607E-01 -0.76244784056E-01  0.13320377582E-01  0.88814369443E+00  0.88000000000E+00 0.  1.
        -11    1    4    4    0    0  0.77641893264E-01  0.50251606064E-01  0.60384661455E-02  0.92683394931E-01  0.51100000000E-03 0.  1.
         11    1    4    4    0    0  0.23846130853E-01  0.31142688507E-01  0.17555673088E-02  0.39266374186E-01  0.51100000000E-03 0. -1.
</event>
<event>
 8    1  0.1114686E+005  0.1043930E+01  0.7957747E-01            NaN
         13   -1    0    0    0    0  0.00000000000E+00  0.00000000000E+00  0.74505805969E-08  0.10566000000E+00  0.10566000000E+00 0. -1.
     999900   -1    0    0    0    0 -0.00000000000E+00 -0.00000000000E+00 -0.74505805969E-08  0.93827000000E+00  0.93827000000E+00 0.  1.
     999902    2    1    2    0    0 -0.11530800426E-01 -0.37040515688E-02 -0.85336833671E-02  0.10291143627E+01  0.10290077106E+01 0.  0.
     999903    2    3    3    0    0  0.12254594262E-01 -0.72021453444E-01  0.11497870561E+00  0.13754926546E+00  0.19037669182E-01 0.  0.
         14    1    1    2    0    0  0.11530800426E-01  0.37040515688E-02  0.85336833671E-02  0.14815637290E-01  0.00000000000E+00 0. -1.
     999901    1    3    3    0    0 -0.23785394688E-01  0.68317401875E-01 -0.12351238898E+00  0.89156509725E+00  0.88000000000E+00 0.  1.
        -11    1    4    4    0    0  0.12489033285E-01 -0.66632047448E-01  0.94093927483E-01  0.11597298828E+00  0.51100000000E-03 0. -1.
         11    1    4    4    0    0 -0.23443902362E-03 -0.53894059965E-02  0.20884778131E-01  0.21576277186E-01  0.51100000000E-03 0.  1.
</event>
<event>
 8    1  0.1114686E+005  0.1043930E+01  0.7957747E-01            NaN
         13   -1    0    0    0    0  0.00000000000E+00  0.00000000000E+00  0.74505805969E-08  0.10566000000E+00  0.10566000000E+00 0. -1.
     999900   -1    0    0    0    0 -0.00000000000E+00 -0.00000000000E+00 -0.74505805969E-08  0.93827000000E+00  0.93827000000E+00 0.  1.
     999902    2    1    2    0    0 -0.23428925173E-02  0.21978002061E-01 -0.82029176588E-02  0.10203543859E+01  0.10200819885E+01 0.  0.
     999903    2    3    3    0    0 -0.46011968306E-01  0.19598796619E-01  0.11855651149E+00  0.13019675851E+00  0.19857881425E-01 0.  0.
         14    1    1    2    0    0  0.23428925173E-02 -0.21978002061E-01  0.82029176588E-02  0.23575614054E-01  0.00000000000E+00 0.  1.
     999901    1    3    3    0    0  0.43669075789E-01  0.23792054414E-02 -0.12675942915E+00  0.89015762743E+00  0.88000000000E+00 0.  1.
        -11    1    4    4    0    0 -0.42226354668E-01  0.22045628202E-01  0.95777089689E-01  0.10697002749E+00  0.51100000000E-03 0.  1.
         11    1    4    4    0    0 -0.37856136385E-02 -0.24468315826E-02  0.22779421800E-01  0.23226731021E-01  0.51100000000E-03 0. -1.
</event>
<event>
 8    1  0.1114686E+005  0.1043930E+01  0.7957747E-01            NaN
         13   -1    0    0    0    0  0.00000000000E+00  0.00000000000E+00  0.74505805969E-08  0.10566000000E+00  0.10566000000E+00 0. -1.
     999900   -1    0    0    0    0 -0.00000000000E+00 -0.00000000000E+00 -0.74505805969E-08  0.93827000000E+00  0.93827000000E+00 0. -1.
     999902    2    1    2    0    0  0.99800073788E-02 -0.15788403516E-01 -0.11489579503E-01  0.10220009173E+01  0.10217656239E+01 0.  0.
     999903    2    3    3    0    0 -0.68990690505E-01 -0.93382399299E-01  0.59943774956E-01  0.13219199202E+00  0.20036933952E-01 0.  0.
         14    1    1    2    0    0 -0.99800073788E-02  0.15788403516E-01  0.11489579503E-01  0.21929082744E-01  0.00000000000E+00 0. -1.
     999901    1    3    3    0    0  0.78970697884E-01  0.77593995783E-01 -0.71433354459E-01  0.88980892524E+00  0.88000000000E+00 0.  1.
        -11    1    4    4    0    0 -0.14178045021E-01 -0.78845131223E-02  0.72768080368E-02  0.17787511462E-01  0.51100000000E-03 0.  1.
         11    1    4    4    0    0 -0.54812645484E-01 -0.85497886177E-01  0.52666966919E-01  0.11440448056E+00  0.51100000000E-03 0. -1.
</event>
<event>
 8    1  0.1114686E+005  0.1043930E+01  0.7957747E-01            NaN
         13   -1    0    0    0    0  0.00000000000E+00  0.00000000000E+00  0.74505805969E-08  0.10566000000E+00  0.10566000000E+00 0. -1.
     999900   -1    0    0    0    0 -0.00000000000E+00 -0.00000000000E+00 -0.74505805969E-08  0.93827000000E+00  0.93827000000E+00 0.  1.
     999902    2    1    2    0    0  0.20384832558E-01 -0.11031031045E-01 -0.15866396283E-02  0.10206976418E+01  0.10204332087E+01 0.  0.
     999903    2    3    3    0    0 -0.56056466664E-03 -0.12354185961E+00 -0.43016615608E-01  0.13232056015E+00  0.19884569671E-01 0.  0.
         14    1    1    2    0    0 -0.20384832558E-01  0.11031031045E-01  0.15866396283E-02  0.23232358245E-01  0.00000000000E+00 0. -1.
     999901    1    3    3    0    0  0.20945397225E-01  0.11251082857E+00  0.41429975980E-01  0.88837708160E+00  0.88000000000E+00 0. -1.
        -11    1    4    4    0    0  0.12309474799E-02 -0.11436589087E+00 -0.33996383362E-01  0.11931926679E+00  0.51100000000E-03 0. -1.
         11    1    4    4    0    0 -0.17915121466E-02 -0.91759687468E-02 -0.90202322462E-02  0.13001293358E-01  0.51100000000E-03 0.  1.
</event>
<event>
 8    1  0.1114686E+005  0.1043930E+01  0.7957747E-01            NaN
         13   -1    0    0    0    0  0.00000000000E+00  0.00000000000E+00  0.74505805969E-08  0.10566000000E+00  0.10566000000E+00 0.  1.
     999900   -1    0    0    0    0 -0.00000000000E+00 -0.00000000000E+00 -0.74505805969E-08  0.93827000000E+00  0.93827000000E+00 0.  1.
     999902    2    1    2    0    0 -0.19711754461E-01 -0.10200682186E-01 -0.71821686432E-02  0.10206021041E+01  0.10203354665E+01 0.  0.
     999903    2    3    3    0    0  0.16540262730E-01  0.41681394111E-01  0.11961934954E+00  0.12926345711E+00  0.19731539577E-01 0.  0.
         14    1    1    2    0    0  0.19711754461E-01  0.10200682186E-01  0.71821686432E-02  0.23327895906E-01  0.00000000000E+00 0.  1.
     999901    1    3    3    0    0 -0.36252017191E-01 -0.51882076297E-01 -0.12680151818E+00  0.89133864698E+00  0.88000000000E+00 0.  1.
        -11    1    4    4    0    0  0.18429264539E-01  0.20244383987E-01  0.70722539819E-01  0.75838061908E-01  0.51100000000E-03 0. -1.
         11    1    4    4    0    0 -0.18890018087E-02  0.21437010124E-01  0.48896809720E-01  0.53425395204E-01  0.51100000000E-03 0.  1.
</event>
<event>
 8    1  0.1242140E+005  0.1043930E+01  0.7957747E-01            NaN
         13   -1    0    0    0    0  0.00000000000E+00  0.00000000000E+00  0.74505805969E-08  0.10566000000E+00  0.10566000000E+00 0. -1.
     999900   -1    0    0    0    0 -0.00000000000E+00 -0.00000000000E+00 -0.74505805969E-08  0.93827000000E+00  0.93827000000E+00 0.  1.
     999902    2    1    2    0    0  0.10865228685E-01  0.29940018989E-02 -0.20399162622E-01  0.10206245698E+01  0.10203584514E+01 0.  0.
     999903    2    3    3    0    0  0.11649722180E+00 -0.16462608918E-01  0.52825632578E-01  0.13107493750E+00  0.23398111104E-01 0.  0.
         14    1    1    2    0    0 -0.10865228685E-01 -0.29940018989E-02  0.20399162622E-01  0.23305430214E-01  0.00000000000E+00 0. -1.
     999901    1    3    3    0    0 -0.10563199311E+00  0.19456610817E-01 -0.73224795200E-01  0.88954963229E+00  0.88000000000E+00 0.  1.
        -11    1    4    4    0    0  0.74148551639E-01 -0.17712549112E-01  0.43198306548E-01  0.87624750590E-01  0.51100000000E-03 0.  1.
         11    1    4    4    0    0  0.42348670160E-01  0.12499401939E-02  0.96273260299E-02  0.43450186907E-01  0.51100000000E-03 0. -1.
</event>
<event>
 8    1  0.1114686E+005  0.1043930E+01  0.7957747E-01            NaN
         13   -1    0    0    0    0  0.00000000000E+00  0.00000000000E+00  0.74505805969E-08  0.10566000000E+00  0.10566000000E+00 0.  1.
     999900   -1    0    0    0    0 -0.00000000000E+00 -0.00000000000E+00 -0.74505805969E-08  0.93827000000E+00  0.93827000000E+00 0. -1.
     999902    2    1    2    0    0 -0.17802132653E-01  0.86340500397E-02 -0.10509804582E-01  0.10215264570E+01  0.10212807565E+01 0.  0.
     999903    2    3    3    0    0 -0.10768922847E-01  0.12726155692E+00 -0.32436624513E-01  0.13326819676E+00  0.19919941989E-01 0.  0.
         14    1    1    2    0    0  0.17802132653E-01 -0.86340500397E-02  0.10509804582E-01  0.22403543011E-01  0.00000000000E+00 0.  1.
     999901    1    3    3    0    0 -0.70332098059E-02 -0.11862750688E+00  0.21926819931E-01  0.88825826023E+00  0.88000000000E+00 0. -1.
        -11    1    4    4    0    0  0.36787977210E-02  0.50226863522E-01 -0.69048896698E-02  0.50835125595E-01  0.51100000000E-03 0. -1.
         11    1    4    4    0    0 -0.14447720568E-01  0.77034693400E-01 -0.25531734843E-01  0.82433071167E-01  0.51100000000E-03 0.  1.
</event>
<event>
 8    1  0.1114686E+005  0.1043930E+01  0.7957747E-01            NaN
         13   -1    0    0    0    0  0.00000000000E+00  0.00000000000E+00  0.74505805969E-08  0.10566000000E+00  0.10566000000E+00 0.  1.
     999900   -1    0    0    0    0 -0.00000000000E+00 -0.00000000000E+00 -0.74505805969E-08  0.93827000000E+00  0.93827000000E+00 0. -1.
     999902    2    1    2    0    0  0.14080231468E-01  0.16012133485E-01  0.92131613849E-02  0.10207023510E+01  0.10204380263E+01 0.  0.
     999903    2    3    3    0    0  0.87286203827E-02 -0.12494332575E+00  0.25830718265E-01  0.12931398195E+00  0.19179584408E-01 0.  0.
         14    1    1    2    0    0 -0.14080231468E-01 -0.16012133485E-01 -0.92131613849E-02  0.23227649034E-01  0.00000000000E+00 0. -1.
     999901    1    3    3    0    0  0.53516110853E-02  0.14095545923E+00 -0.16617556880E-01  0.89138836902E+00  0.88000000000E+00 0. -1.
        -11    1    4    4    0    0  0.23456932129E-03 -0.26929037091E-01  0.13600062419E-01  0.30173678599E-01  0.51100000000E-03 0. -1.
         11    1    4    4    0    0  0.84940510614E-02 -0.98014288656E-01  0.12230655846E-01  0.99140303347E-01  0.51100000000E-03 0.  1.
</event>
<event>
 8    1  0.1114686E+005  0.1043930E+01  0.7957747E-01            NaN
         13   -1    0    0    0    0  0.00000000000E+00  0.00000000000E+00  0.74505805969E-08  0.10566000000E+00  0.10566000000E+00 0.  1.
     999900   -1    0    0    0    0 -0.00000000000E+00 -0.00000000000E+00 -0.74505805969E-08  0.93827000000E+00  0.93827000000E+00 0.  1.
     999902    2    1    2    0    0 -0.20924086829E-02  0.81856576589E-04 -0.24146158038E-01  0.10196932134E+01  0.10194051342E+01 0.  0.
     999903    2    3    3    0    0  0.10732054230E-01  0.87521380382E-01  0.90242488696E-01  0.12790013224E+00  0.20965878235E-01 0.  0.
         14    1    1    2    0    0  0.20924086829E-02 -0.81856576589E-04  0.24146158038E-01  0.24236786557E-01  0.00000000000E+00 0.  1.
     999901    1    3    3    0    0 -0.12824462913E-01 -0.87439523805E-01 -0.11438864673E+00  0.89179308120E+00  0.88000000000E+00 0.  1.
        -11    1    4    4    0    0  0.73633788660E-02  0.67279716599E-01  0.55419928658E-01  0.87478049975E-01  0.51100000000E-03 0. -1.
         11    1    4    4    0    0  0.33686753636E-02  0.20241663782E-01  0.34822560037E-01  0.40422082269E-01  0.51100000000E-03 0.  1.
</event>
<event>
 8    1  0.1114686E+005  0.1043930E+01  0.7957747E-01            NaN
         13   -1    0    0    0    0  0.00000000000E+00  0.00000000000E+00  0.74505805969E-08  0.10566000000E+00  0.10566000000E+00 0.  1.
     999900   -1    0    0    0    0 -0.00000000000E+00 -0.00000000000E+00 -0.74505805969E-08  0.93827000000E+00  0.93827000000E+00 0.  1.
     999902    2    1    2    0    0  0.14226730226E-01 -0.15612584851E-01 -0.94507128402E-02  0.10207898048E+01  0.10205274896E+01 0.  0.
     999903    2    3    3    0    0 -0.16330973597E-01  0.16038077971E-01 -0.12814440970E+00  0.13173202754E+00  0.20209322076E-01 0.  0.
         14    1    1    2    0    0 -0.14226730226E-01  0.15612584851E-01  0.94507128402E-02  0.23140195156E-01  0.00000000000E+00 0.  1.
     999901    1    3    3    0    0  0.30557703823E-01 -0.31650662822E-01  0.11869369686E+00  0.88905777731E+00  0.88000000000E+00 0. -1.
        -11    1    4    4    0    0 -0.16945240266E-02  0.15013113544E-01 -0.79337057309E-01  0.80764440031E-01  0.51100000000E-03 0.  1.
         11    1    4    4    0    0 -0.14636449571E-01  0.10249644263E-02 -0.48807352386E-01  0.50967587505E-01  0.51100000000E-03 0. -1.
</event>
<event>
 8    1  0.1114686E+005  0.1043930E+01  0.7957747E-01            NaN
         13   -1    0    0    0    0  0.00000000000E+00  0.00000000000E+00  0.74505805969E-08  0.10566000000E+00  0.10566000000E+00 0. -1.
     999900   -1    0    0    0    0 -0.00000000000E+00 -0.00000000000E+00 -0.74505805969E-08  0.93827000000E+00  0.93827000000E+00 0.  1.
     999902    2    1    2    0    0 -0.17913495363E-01  0.13667365552E-01 -0.56015872215E-02  0.10207121625E+01  0.10204480637E+01 0.  0.
     999903    2    3    3    0    0 -0.10843107674E+00 -0.41655309465E-01 -0.60503405993E-01  0.13264220999E+00  0.20995964486E-01 0.  0.
         14    1    1    2    0    0  0.17913495363E-01 -0.13667365552E-01  0.56015872215E-02  0.23217837467E-01  0.00000000000E+00 0. -1.
     999901    1    3    3    0    0  0.90517581375E-01  0.55322675017E-01  0.54901818771E-01  0.88806995255E+00  0.88000000000E+00 0. -1.
        -11    1    4    4    0    0 -0.65579554442E-01 -0.17056713453E-01 -0.42830000597E-01  0.80164078656E-01  0.51100000000E-03 0. -1.
         11    1    4    4    0    0 -0.42851522295E-01 -0.24598596012E-01 -0.17673405395E-01  0.52478131332E-01  0.51100000000E-03 0.  1.
</event>
<event>
 8    1  0.1114686E+005  0.1043930E+01  0.7957747E-01            NaN
         13   -1    0    0    0    0  0.00000000000E+00  0.00000000000E+00  0.74505805969E-08  0.10566000000E+00  0.10566000000E+00 0.  1.
     999900   -1    0    0    0    0 -0.00000000000E+00 -0.00000000000E+00 -0.74505805969E-08  0.93827000000E+00  0.93827000000E+00 0. -1.
     999902    2    1    2    0    0 -0.16010171308E-01  0.14223497382E-01 -0.11908651730E-01  0.10194259299E+01  0.10191313837E+01 0.  0.
     999903    2    3    3    0    0 -0.12149355754E+00 -0.18549490073E-01 -0.43951093159E-01  0.13194210951E+00  0.19293873850E-01 0.  0.
         14    1    1    2    0    0  0.16010171308E-01 -0.14223497382E-01  0.11908651730E-01  0.24504070052E-01  0.00000000000E+00 0.  1.
     999901    1    3    3    0    0  0.10548338623E+00  0.32772987456E-01  0.32042441429E-01  0.88748382043E+00  0.88000000000E+00 0.  1.
        -11    1    4    4    0    0 -0.90355551687E-01 -0.21056526677E-01 -0.37322895062E-01  0.10000381319E+00  0.51100000000E-03 0. -1.
         11    1    4    4    0    0 -0.31138005851E-01  0.25070366043E-02 -0.66281980976E-02  0.31938296322E-01  0.51100000000E-03 0.  1.
</event>
<event>
 8    1  0.1114686E+005  0.1043930E+01  0.7957747E-01            NaN
         13   -1    0    0    0    0  0.00000000000E+00  0.00000000000E+00  0.74505805969E-08  0.10566000000E+00  0.10566000000E+00 0.  1.
     999900   -1    0    0    0    0 -0.00000000000E+00 -0.00000000000E+00 -0.74505805969E-08  0.93827000000E+00  0.93827000000E+00 0.  1.
     999902    2    1    2    0    0 -0.14268594123E-01  0.72572198292E-02 -0.17137415712E-01  0.10204789652E+01  0.10202094723E+01 0.  0.
     999903    2    3    3    0    0  0.13074526138E-01  0.10843780646E+00 -0.72400161131E-01  0.13253801646E+00  0.19870615801E-01 0.  0.
         14    1    1    2    0    0  0.14268594123E-01 -0.72572198292E-02  0.17137415712E-01  0.23451034842E-01  0.00000000000E+00 0.  1.
     999901    1    3    3    0    0 -0.27343120261E-01 -0.10118058663E+00  0.55262745419E-01  0.88794094869E+00  0.88000000000E+00 0. -1.
        -11    1    4    4    0    0  0.14406778298E-01  0.71724881933E-01 -0.39101656811E-01  0.82953086957E-01  0.51100000000E-03 0. -1.
         11    1    4    4    0    0 -0.13322521602E-02  0.36712924528E-01 -0.33298504320E-01  0.49584929507E-01  0.51100000000E-03 0.  1.
</event>
<event>
 8    1  0.1114686E+005  0.1043930E+01  0.7957747E-01            NaN
         13   -1    0    0    0    0  0.00000000000E+00  0.00000000000E+00  0.74505805969E-08  0.10566000000E+00  0.10566000000E+00 0. -1.
     999900   -1    0    0    0    0 -0.00000000000E+00 -0.00000000000E+00 -0.74505805969E-08  0.93827000000E+00  0.93827000000E+00 0. -1.
     999902    2    1    2    0    0  0.21577568649E-01  0.86635237429E-02 -0.39390375681E-02  0.10203468677E+01  0.10200742945E+01 0.  0.
     999903    2    3    3    0    0 -0.11917744237E+00  0.15007894093E-01  0.40140490413E-01  0.12804914330E+00  0.18889798197E-01 0.  0.
         14    1    1    2    0    0 -0.21577568649E-01 -0.86635237429E-02  0.39390375681E-02  0.23583132307E-01  0.00000000000E+00 0.  1.
     999901    1    3    3    0    0  0.14075501102E+00 -0.63443703505E-02 -0.44079527981E-01  0.89229772439E+00  0.88000000000E+00 0. -1.
        -11    1    4    4    0    0 -0.20879844742E-01  0.56729501034E-02  0.50148602541E-03  0.21648623249E-01  0.51100000000E-03 0. -1.
         11    1    4    4    0    0 -0.98297597626E-01  0.93349439900E-02  0.39639004388E-01  0.10640052006E+00  0.51100000000E-03 0.  1.
</event>
<event>
 8    1  0.1114686E+005  0.1043930E+01  0.7957747E-01            NaN
         13   -1    0    0    0    0  0.00000000000E+00  0.00000000000E+00  0.74505805969E-08  0.10566000000E+00  0.10566000000E+00 0. -1.
     999900   -1    0    0    0    0 -0.00000000000E+00 -0.00000000000E+00 -0.74505805969E-08  0.93827000000E+00  0.93827000000E+00 0. -1.
     999902    2    1    2    0    0 -0.22384245648E-02 -0.23123851175E-01 -0.23761020978E-02  0.10205768653E+01  0.10203096438E+01 0.  0.
     999903    2    3    3    0    0 -0.10606015055E+00 -0.63405565830E-04 -0.74282322519E-01  0.13126182584E+00  0.21518455533E-01 0.  0.
         14    1    1    2    0    0  0.22384245648E-02  0.23123851175E-01  0.23761020978E-02  0.23353134669E-01  0.00000000000E+00 0. -1.
     999901    1    3    3    0    0  0.10382172598E+00 -0.23060445609E-01  0.71906220422E-01  0.88931503950E+00  0.88000000000E+00 0.  1.
        -11    1    4    4    0    0 -0.38908875490E-01  0.30807831941E-02 -0.39646583452E-01  0.55637258356E-01  0.51100000000E-03 0. -1.
         11    1    4    4    0    0 -0.67151275056E-01 -0.31441887600E-02 -0.34635739068E-01  0.75624567479E-01  0.51100000000E-03 0.  1.
</event>
<event>
 8    1  0.1114686E+005  0.1043930E+01  0.7957747E-01            NaN
         13   -1    0    0    0    0  0.00000000000E+00  0.00000000000E+00  0.74505805969E-08  0.10566000000E+00  0.10566000000E+00 0. -1.
     999900   -1    0    0    0    0 -0.00000000000E+00 -0.00000000000E+00 -0.74505805969E-08  0.93827000000E+00  0.93827000000E+00 0. -1.
     999902    2    1    2    0    0  0.54446103472E-02 -0.23679754999E-01  0.93231342164E-03  0.10196144949E+01  0.10193245187E+01 0.  0.
     999903    2    3    3    0    0 -0.59469392600E-01 -0.11161373848E+00 -0.32801272325E-01  0.13221144781E+00  0.20241249775E-01 0.  0.
         14    1    1    2    0    0 -0.54446103472E-02  0.23679754999E-01 -0.93231342164E-03  0.24315505073E-01  0.00000000000E+00 0.  1.
     999901    1    3    3    0    0  0.64914002947E-01  0.87933983477E-01  0.33733585746E-01  0.88740304712E+00  0.88000000000E+00 0. -1.
        -11    1    4    4    0    0 -0.31482171286E-01 -0.40076518846E-01 -0.87184693677E-02  0.51706163084E-01  0.51100000000E-03 0. -1.
         11    1    4    4    0    0 -0.27987221315E-01 -0.71537219629E-01 -0.24082802957E-01  0.80505284724E-01  0.51100000000E-03 0.  1.
</event>
<event>
 8    1  0.1114686E+005  0.1043930E+01  0.7957747E-01            NaN
         13   -1    0    0    0    0  0.00000000000E+00  0.00000000000E+00  0.74505805969E-08  0.10566000000E+00  0.10566000000E+00 0.  1.
     999900   -1    0    0    0    0 -0.00000000000E+00 -0.00000000000E+00 -0.74505805969E-08  0.93827000000E+00  0.93827000000E+00 0.  1.
     999902    2    1    2    0    0 -0.19639965605E-01  0.11012138421E-01 -0.66572480183E-02  0.10204499150E+01  0.10201797462E+01 0.  0.
     999903    2    3    3    0    0  0.81453154705E-01 -0.10379325844E-01  0.97156167681E-01  0.12834306095E+00  0.17037416463E-01 0.  0.
         14    1    1    2    0    0  0.19639965605E-01 -0.11012138421E-01  0.66572480183E-02  0.23480085024E-01  0.00000000000E+00 0. -1.
     999901    1    3    3    0    0 -0.10109312031E+00  0.21391464265E-01 -0.10381341570E+00  0.89210685402E+00  0.88000000000E+00 0.  1.
        -11    1    4    4    0    0  0.35152744269E-01 -0.47428936612E-02  0.55133101440E-01  0.65560128625E-01  0.51100000000E-03 0. -1.
         11    1    4    4    0    0  0.46300410436E-01 -0.56364321826E-02  0.42023066241E-01  0.62782932327E-01  0.51100000000E-03 0.  1.
</event>
<event>
 8    1  0.1114686E+005  0.1043930E+01  0.7957747E-01            NaN
         13   -1    0    0    0    0  0.00000000000E+00  0.00000000000E+00  0.74505805969E-08  0.10566000000E+00  0.10566000000E+00 0. -1.
     999900   -1    0    0    0    0 -0.00000000000E+00 -0.00000000000E+00 -0.74505805969E-08  0.93827000000E+00  0.93827000000E+00 0. -1.
     999902    2    1    2    0    0 -0.20141973883E-01 -0.14448810991E-02 -0.12123615575E-01  0.10203764685E+01  0.10201045871E+01 0.  0.
     999903    2    3    3    0    0 -0.51216447053E-02 -0.12614674972E+00  0.26787449787E-01  0.13060670199E+00  0.20032708987E-01 0.  0.
         14    1    1    2    0    0  0.20141973883E-01  0.14448810991E-02  0.12123615575E-01  0.23553531538E-01  0.00000000000E+00 0. -1.
     999901    1    3    3    0    0 -0.15020329178E-01  0.12470186862E+00 -0.38911065362E-01  0.88976976647E+00  0.88000000000E+00 0. -1.
        -11    1    4    4    0    0 -0.81338863504E-02 -0.36189930110E-01  0.15580213648E-02  0.37128960397E-01  0.51100000000E-03 0. -1.
         11    1    4    4    0    0  0.30122416451E-02 -0.89956819606E-01  0.25229428422E-01  0.93477741591E-01  0.51100000000E-03 0.  1.
</event>
<event>
 8    1  0.1114686E+005  0.1043930E+01  0.7957747E-01            NaN
         13   -1    0    0    0    0  0.00000000000E+00  0.00000000000E+00  0.74505805969E-08  0.10566000000E+00  0.10566000000E+00 0.  1.
     999900   -1    0    0    0    0 -0.00000000000E+00 -0.00000000000E+00 -0.74505805969E-08  0.93827000000E+00  0.93827000000E+00 0.  1.
     999902    2    1    2    0    0  0.22523621047E-01 -0.81328464758E-03 -0.71800222240E-02  0.10202756631E+01  0.10200014220E+01 0.  0.
     999903    2    3    3    0    0  0.11341257274E-01  0.40858915398E-01 -0.12319870781E+00  0.13161264879E+00  0.18598188928E-01 0.  0.
         14    1    1    2    0    0 -0.22523621047E-01  0.81328464758E-03  0.71800222240E-02  0.23654336941E-01  0.00000000000E+00 0.  1.
     999901    1    3    3    0    0  0.11182363773E-01 -0.41672200046E-01  0.11601868559E+00  0.88866301426E+00  0.88000000000E+00 0. -1.
        -11    1    4    4    0    0  0.14599023622E-01  0.19403194188E-01 -0.57442999285E-01  0.62366455112E-01  0.51100000000E-03 0.  1.
         11    1    4    4    0    0 -0.32577663481E-02  0.21455721210E-01 -0.65755708529E-01  0.69246193682E-01  0.51100000000E-03 0. -1.
</event>
<event>
 7    1  0.1114686E+005  0.1043930E+01  0.7957747E-01            NaN
         13   -1    0    0    0    0  0.00000000000E+00  0.00000000000E+00  0.74505805969E-08  0.10566000000E+00  0.10566000000E+00 0.  1.
     999900   -1    0    0    0    0 -0.00000000000E+00 -0.00000000000E+00 -0.74505805969E-08  0.93827000000E+00  0.93827000000E+00 0.  1.
     999903    2    1    2    0    0  0.12944668636E-01  0.60670615064E-01 -0.49083034465E-01  0.81646967368E-01  0.20213733691E-01 0.  0.
         14    1    1    2    0    0 -0.21532665166E-01 -0.24872051480E-01 -0.66275100154E-01  0.73990969141E-01  0.00000000000E+00 0. -1.
     999901    1    1    2    0    0  0.85879965303E-02 -0.35798563584E-01  0.11535813462E+00  0.88829206349E+00  0.88000000000E+00 0. -1.
        -11    1    3    3    0    0  0.22079148656E-02  0.46240568275E-01 -0.41307118150E-01  0.62045178485E-01  0.51100000000E-03 0.  1.
         11    1    3    3    0    0  0.10736753770E-01  0.14430046789E-01 -0.77759163157E-02  0.19601788882E-01  0.51100000000E-03 0. -1.
</event>
<event>
 8    1  0.1114686E+005  0.1043930E+01  0.7957747E-01            NaN
         13   -1    0    0    0    0  0.00000000000E+00  0.00000000000E+00  0.74505805969E-08  0.10566000000E+00  0.10566000000E+00 0.  1.
     999900   -1    0    0    0    0 -0.00000000000E+00 -0.00000000000E+00 -0.74505805969E-08  0.93827000000E+00  0.93827000000E+00 0.  1.
     999902    2    1    2    0    0  0.22151669573E-01  0.76201463294E-02 -0.64883157410E-02  0.10196223605E+01  0.10193325742E+01 0.  0.
     999903    2    3    3    0    0  0.85418119258E-01 -0.88304597455E-01  0.40276341925E-01  0.13092042326E+00  0.20591660391E-01 0.  0.
         14    1    1    2    0    0 -0.22151669573E-01 -0.76201463294E-02  0.64883157410E-02  0.24307639459E-01  0.00000000000E+00 0.  1.
     999901    1    3    3    0    0 -0.63266449685E-01  0.95924743784E-01 -0.46764657666E-01  0.88870193728E+00  0.88000000000E+00 0.  1.
        -11    1    4    4    0    0  0.67160234012E-01 -0.79828425756E-01  0.31690413825E-01  0.10903035376E+00  0.51100000000E-03 0.  1.
         11    1    4    4    0    0  0.18257885245E-01 -0.84761716988E-02  0.85859281001E-02  0.21890069498E-01  0.51100000000E-03 0. -1.
</event>
<event>
 8    1  0.1114686E+005  0.1043930E+01  0.7957747E-01            NaN
         13   -1    0    0    0    0  0.00000000000E+00  0.00000000000E+00  0.74505805969E-08  0.10566000000E+00  0.10566000000E+00 0.  1.
     999900   -1    0    0    0    0 -0.00000000000E+00 -0.00000000000E+00 -0.74505805969E-08  0.93827000000E+00  0.93827000000E+00 0.  1.
     999902    2    1    2    0    0 -0.15911384123E-01 -0.39526734142E-02  0.18113523359E-01  0.10194985551E+01  0.10192057733E+01 0.  0.
     999903    2    3    3    0    0  0.75667537039E-01  0.45369237822E-01 -0.86441310237E-01  0.12722557951E+00  0.30500886275E-01 0.  0.
         14    1    1    2    0    0  0.15911384123E-01  0.39526734142E-02 -0.18113523359E-01  0.24431444908E-01  0.00000000000E+00 0. -1.
     999901    1    3    3    0    0 -0.91578921161E-01 -0.49321911236E-01  0.10455483360E+00  0.89227297558E+00  0.88000000000E+00 0. -1.
        -11    1    4    4    0    0  0.31959598473E-01  0.23982358399E-02 -0.29402565296E-01  0.43496430160E-01  0.51100000000E-03 0.  1.
         11    1    4    4    0    0  0.43707938566E-01  0.42971001982E-01 -0.57038744941E-01  0.83729149348E-01  0.51100000000E-03 0. -1.
</event>
<event>
 8    1  0.1114686E+005  0.1043930E+01  0.7957747E-01            NaN
         13   -1    0    0    0    0  0.00000000000E+00  0.00000000000E+00  0.74505805969E-08  0.10566000000E+00  0.10566000000E+00 0.  1.
     999900   -1    0    0    0    0 -0.00000000000E+00 -0.00000000000E+00 -0.74505805969E-08  0.93827000000E+00  0.93827000000E+00 0.  1.
     999902    2    1    2    0    0  0.36307530745E-02 -0.16307001642E-02  0.19754880131E-01  0.10237781554E+01  0.10235798038E+01 0.  0.
     999903    2    3    3    0    0 -0.21327089673E-01  0.10907178899E+00  0.75691158553E-01  0.13472989899E+00  0.84554296435E-02 0.  0.
         14    1    1    2    0    0 -0.36307530745E-02  0.16307001642E-02 -0.19754880131E-01  0.20151844578E-01  0.00000000000E+00 0. -1.
     999901    1    3    3    0    0  0.24957842747E-01 -0.11070248916E+00 -0.55936278422E-01  0.88904825643E+00  0.88000000000E+00 0.  1.
        -11    1    4    4    0    0 -0.12419305629E-01  0.57702434636E-01  0.35297807494E-01  0.68775042349E-01  0.51100000000E-03 0.  1.
         11    1    4    4    0    0 -0.89077840433E-02  0.51369354358E-01  0.40393351059E-01  0.65954856641E-01  0.51100000000E-03 0. -1.
</event>
<event>
 8    1  0.1114686E+005  0.1043930E+01  0.7957747E-01            NaN
         13   -1    0    0    0    0  0.00000000000E+00  0.00000000000E+00  0.74505805969E-08  0.10566000000E+00  0.10566000000E+00 0. -1.
     999900   -1    0    0    0    0 -0.00000000000E+00 -0.00000000000E+00 -0.74505805969E-08  0.93827000000E+00  0.93827000000E+00 0.  1.
     999902    2    1    2    0    0 -0.33670194491E-02 -0.21460951240E-01 -0.93297954093E-02  0.10202877850E+01  0.10200138283E+01 0.  0.
     999903    2    3    3    0    0  0.71479210650E-01 -0.81660493816E-01  0.71446817380E-01  0.13138351328E+00  0.19474754009E-01 0.  0.
         14    1    1    2    0    0  0.33670194491E-02  0.21460951240E-01  0.93297954093E-02  0.23642215008E-01  0.00000000000E+00 0. -1.
     999901    1    3    3    0    0 -0.74846230100E-01  0.60199542576E-01 -0.80776612789E-01  0.88890427171E+00  0.88000000000E+00 0.  1.
        -11    1    4    4    0    0  0.48318137346E-01 -0.57569726969E-01  0.38482304145E-01  0.84439710522E-01  0.51100000000E-03 0. -1.
         11    1    4    4    0    0  0.23161073305E-01 -0.24090766848E-01  0.32964513236E-01  0.46943802762E-01  0.51100000000E-03 0.  1.
</event>
<event>
 8    1  0.1114686E+005  0.1043930E+01  0.7957747E-01            NaN
         13   -1    0    0    0    0  0.00000000000E+00  0.00000000000E+00  0.74505805969E-08  0.10566000000E+00  0.10566000000E+00 0.  1.
     999900   -1    0    0    0    0 -0.00000000000E+00 -0.00000000000E+00 -0.74505805969E-08  0.93827000000E+00  0.93827000000E+00 0.  1.
     999902    2    1    2    0    0 -0.20387728251E-02 -0.38250787044E-02  0.24329135169E-01  0.10192177634E+01  0.10189181294E+01 0.  0.
     999903    2    3    3    0    0 -0.23452956833E-01  0.12461668663E+00 -0.12086583837E-01  0.12889088016E+00  0.19682827743E-01 0.  0.
         14    1    1    2    0    0  0.20387728251E-02  0.38250787044E-02 -0.24329135169E-01  0.24712236641E-01  0.00000000000E+00 0. -1.
     999901    1    3    3    0    0  0.21414184008E-01 -0.12844176534E+00  0.36415719007E-01  0.89032688320E+00  0.88000000000E+00 0. -1.
        -11    1    4    4    0    0 -0.21688855405E-01  0.67652555440E-01 -0.10956947312E-01  0.71885954968E-01  0.51100000000E-03 0. -1.
         11    1    4    4    0    0 -0.17641014283E-02  0.56964131191E-01 -0.11296365257E-02  0.57004925189E-01  0.51100000000E-03 0.  1.
</event>
<event>
 8    1  0.1114686E+005  0.1043930E+01  0.7957747E-01            NaN
         13   -1    0    0    0    0  0.00000000000E+00  0.00000000000E+00  0.74505805969E-08  0.10566000000E+00  0.10566000000E+00 0.  1.
     999900   -1    0    0    0    0 -0.00000000000E+00 -0.00000000000E+00 -0.74505805969E-08  0.93827000000E+00  0.93827000000E+00 0.  1.
     999902    2    1    2    0    0  0.19378841084E-01 -0.12506458697E-01  0.26026034517E-02  0.10207195598E+01  0.10204556312E+01 0.  0.
     999903    2    3    3    0    0 -0.41559427984E-01  0.77719097751E-01 -0.92023523486E-01  0.12897507419E+00  0.19969894262E-01 0.  0.
         14    1    1    2    0    0 -0.19378841084E-01  0.12506458697E-01 -0.26026034517E-02  0.23210440229E-01  0.00000000000E+00 0.  1.
     999901    1    3    3    0    0  0.60938269068E-01 -0.90225556448E-01  0.94626126938E-01  0.89174448559E+00  0.88000000000E+00 0. -1.
        -11    1    4    4    0    0 -0.90395920057E-02  0.15154914548E-01 -0.31226016130E-01  0.35870752194E-01  0.51100000000E-03 0. -1.
         11    1    4    4    0    0 -0.32519835978E-01  0.62564183202E-01 -0.60797507356E-01  0.93104321992E-01  0.51100000000E-03 0.  1.
</event>
<event>
 8    1  0.1114686E+005  0.1043930E+01  0.7957747E-01            NaN
         13   -1    0    0    0    0  0.00000000000E+00  0.00000000000E+00  0.74505805969E-08  0.10566000000E+00  0.10566000000E+00 0.  1.
     999900   -1    0    0    0    0 -0.00000000000E+00 -0.00000000000E+00 -0.74505805969E-08  0.93827000000E+00  0.93827000000E+00 0.  1.
     999902    2    1    2    0    0  0.36791733755E-02  0.23329266547E-01  0.10728269923E-02  0.10202880468E+01  0.10200140962E+01 0.  0.
     999903    2    3    3    0    0  0.51467935460E-01 -0.90698179265E-01 -0.72568330353E-01  0.12859917490E+00  0.19911733021E-01 0.  0.
         14    1    1    2    0    0 -0.36791733755E-02 -0.23329266547E-01 -0.10728269923E-02  0.23641953221E-01  0.00000000000E+00 0. -1.
     999901    1    3    3    0    0 -0.47788762085E-01  0.11402744581E+00  0.73641157345E-01  0.89168887188E+00  0.88000000000E+00 0. -1.
        -11    1    4    4    0    0  0.40606520289E-01 -0.59962242502E-01 -0.41013472408E-01  0.83226955104E-01  0.51100000000E-03 0.  1.
         11    1    4    4    0    0  0.10861415171E-01 -0.30735936763E-01 -0.31554857945E-01  0.45372219795E-01  0.51100000000E-03 0. -1.
</event>
<event>
 8    1  0.1114686E+005  0.1043930E+01  0.7957747E-01            NaN
         13   -1    0    0    0    0  0.00000000000E+00  0.00000000000E+00  0.74505805969E-08  0.10566000000E+00  0.10566000000E+00 0.  1.
     999900   -1    0    0    0    0 -0.00000000000E+00 -0.00000000000E+00 -0.74505805969E-08  0.93827000000E+00  0.93827000000E+00 0.  1.
     999902    2    1    2    0    0  0.20543131254E-02 -0.18684351274E-01 -0.12103947410E-01  0.10215731056E+01  0.10213284385E+01 0.  0.
     999903    2    3    3    0    0  0.33689442989E-01 -0.12823628682E+00 -0.51975930888E-02  0.13418925079E+00  0.20005404984E-01 0.  0.
         14    1    1    2    0    0 -0.20543131254E-02  0.18684351274E-01  0.12103947410E-01  0.22356894414E-01  0.00000000000E+00 0. -1.
     999901    1    3    3    0    0 -0.31635129863E-01  0.10955193554E+00 -0.69063543210E-02  0.88738385480E+00  0.88000000000E+00 0.  1.
        -11    1    4    4    0    0  0.11702777247E-01 -0.49800136022E-01 -0.11663557576E-01  0.52471975753E-01  0.51100000000E-03 0.  1.
         11    1    4    4    0    0  0.21986665742E-01 -0.78436150794E-01  0.64659644869E-02  0.81717275037E-01  0.51100000000E-03 0. -1.
</event>
<event>
 8    1  0.1114686E+005  0.1043930E+01  0.7957747E-01            NaN
         13   -1    0    0    0    0  0.00000000000E+00  0.00000000000E+00  0.74505805969E-08  0.10566000000E+00  0.10566000000E+00 0.  1.
     999900   -1    0    0    0    0 -0.00000000000E+00 -0.00000000000E+00 -0.74505805969E-08  0.93827000000E+00  0.93827000000E+00 0. -1.
     999902    2    1    2    0    0  0.41529195035E-02  0.15401538781E-02 -0.23337648116E-01  0.10201757449E+01  0.10198991548E+01 0.  0.
     999903    2    3    3    0    0  0.86108420437E-01  0.58919618122E-01 -0.79489286675E-01  0.13272878113E+00  0.20302738073E-01 0.  0.
         14    1    1    2    0    0 -0.41529195035E-02 -0.15401538781E-02  0.23337648116E-01  0.23754255071E-01  0.00000000000E+00 0.  1.
     999901    1    3    3    0    0 -0.81955500933E-01 -0.57379464244E-01  0.56151638559E-01  0.88744696380E+00  0.88000000000E+00 0.  1.
        -11    1    4    4    0    0  0.34357046147E-01  0.25020971457E-01 -0.44985261011E-01  0.61890148342E-01  0.51100000000E-03 0. -1.
         11    1    4    4    0    0  0.51751374290E-01  0.33898646666E-01 -0.34504025664E-01  0.70838632784E-01  0.51100000000E-03 0.  1.
</event>
<event>
 8    1  0.1114686E+005  0.1043930E+01  0.7957747E-01            NaN
         13   -1    0    0    0    0  0.00000000000E+00  0.00000000000E+00  0.74505805969E-08  0.10566000000E+00  0.10566000000E+00 0. -1.
     999900   -1    0    0    0    0 -0.00000000000E+00 -0.00000000000E+00 -0.74505805969E-08  0.93827000000E+00  0.93827000000E+00 0. -1.
     999902    2    1    2    0    0  0.97005586386E-02 -0.15979764015E-01 -0.16515906250E-01  0.10189854845E+01  0.10186801209E+01 0.  0.
     999903    2    3    3    0    0 -0.12367639429E+00  0.15245713750E-01  0.18808064650E-01  0.12768742829E+00  0.20543946869E-01 0.  0.
         14    1    1    2    0    0 -0.97005586386E-02  0.15979764015E-01  0.16515906250E-01  0.24944515532E-01  0.00000000000E+00 0. -1.
     999901    1    3    3    0    0  0.13337695293E+00 -0.31225477764E-01 -0.35323970899E-01  0.89129805618E+00  0.88000000000E+00 0. -1.
        -11    1    4    4    0    0 -0.96383105255E-01  0.18945195746E-01  0.19433860694E-01  0.10013270936E+00  0.51100000000E-03 0. -1.
         11    1    4    4    0    0 -0.27293289039E-01 -0.36994819960E-02 -0.62579604422E-03  0.27554718929E-01  0.51100000000E-03 0.  1.
</event>
<event>
 8    1  0.1114686E+005  0.1043930E+01  0.7957747E-01            NaN
         13   -1    0    0    0    0  0.00000000000E+00  0.00000000000E+00  0.74505805969E-08  0.10566000000E+00  0.10566000000E+00 0.  1.
     999900   -1    0    0    0    0 -0.00000000000E+00 -0.00000000000E+00 -0.74505805969E-08  0.93827000000E+00  0.93827000000E+00 0.  1.
     999902    2    1    2    0    0 -0.13456010297E-01 -0.20058054229E-01  0.20967045912E-02  0.10196857033E+01  0.10193974434E+01 0.  0.
     999903    2    3    3    0    0  0.10433743644E+00  0.66301229483E-01  0.23517183733E-01  0.12738975525E+00  0.19822667274E-01 0.  0.
         14    1    1    2    0    0  0.13456010297E-01  0.20058054229E-01 -0.20967045912E-02  0.24244296705E-01  0.00000000000E+00 0. -1.
     999901    1    3    3    0    0 -0.11779344673E+00 -0.86359283712E-01 -0.21420479142E-01  0.89229594805E+00  0.88000000000E+00 0. -1.
        -11    1    4    4    0    0  0.18538826797E-01  0.18466953163E-01 -0.82617434793E-03  0.26185113007E-01  0.51100000000E-03 0. -1.
         11    1    4    4    0    0  0.85798609640E-01  0.47834276320E-01  0.24343358081E-01  0.10120464224E+00  0.51100000000E-03 0.  1.
</event>
<event>
 8    1  0.1114686E+005  0.1043930E+01  0.7957747E-01            NaN
         13   -1    0    0    0    0  0.00000000000E+00  0.00000000000E+00  0.74505805969E-08  0.10566000000E+00  0.10566000000E+00 0. -1.
     999900   -1    0    0    0    0 -0.00000000000E+00 -0.00000000000E+00 -0.74505805969E-08  0.93827000000E+00  0.93827000000E+00 0. -1.
     999902    2    1    2    0    0 -0.49436728438E-03 -0.10830181688E-02 -0.27291901468E-01  0.10166121448E+01  0.10162450432E+01 0.  0.
     999903    2    3    3    0    0 -0.94277139069E-01  0.70573030928E-02  0.79550891673E-01  0.12516564861E+00  0.20002768499E-01 0.  0.
         14    1    1    2    0    0  0.49436728438E-03  0.10830181688E-02  0.27291901468E-01  0.27317855207E-01  0.00000000000E+00 0. -1.
     999901    1    3    3    0    0  0.93782771785E-01 -0.81403212616E-02 -0.10684279314E+00  0.89144649618E+00  0.88000000000E+00 0. -1.
        -11    1    4    4    0    0 -0.81776594597E-01  0.83991328295E-02  0.59452966053E-01  0.10145379810E+00  0.51100000000E-03 0.  1.
         11    1    4    4    0    0 -0.12500544472E-01 -0.13418297368E-02  0.20097925620E-01  0.23711850505E-01  0.51100000000E-03 0. -1.
</event>
<event>
 8    1  0.1114686E+005  0.1043930E+01  0.7957747E-01            NaN
         13   -1    0    0    0    0  0.00000000000E+00  0.00000000000E+00  0.74505805969E-08  0.10566000000E+00  0.10566000000E+00 0.  1.
     999900   -1    0    0    0    0 -0.00000000000E+00 -0.00000000000E+00 -0.74505805969E-08  0.93827000000E+00  0.93827000000E+00 0. -1.
     999902    2    1    2    0    0  0.16399168867E-01 -0.14755296224E-01 -0.93100648549E-02  0.10199857144E+01  0.10197046282E+01 0.  0.
     999903    2    3    3    0    0 -0.92061216119E-02  0.19037419170E-01 -0.12765090619E+00  0.13105257109E+00  0.20804964149E-01 0.  0.
         14    1    1    2    0    0 -0.16399168867E-01  0.14755296224E-01  0.93100648549E-02  0.23944285618E-01  0.00000000000E+00 0.  1.
     999901    1    3    3    0    0  0.25605290479E-01 -0.33792715394E-01  0.11834084134E+00  0.88893314329E+00  0.88000000000E+00 0.  1.
        -11    1    4    4    0    0  0.19700822404E-02  0.17321233522E-01 -0.60869201221E-01  0.63318458075E-01  0.51100000000E-03 0.  1.
         11    1    4    4    0    0 -0.11176203852E-01  0.17161856483E-02 -0.66781704973E-01  0.67734113014E-01  0.51100000000E-03 0. -1.
</event>
<event>
 8    1  0.1114686E+005  0.1043930E+01  0.7957747E-01            NaN
         13   -1    0    0    0    0  0.00000000000E+00  0.00000000000E+00  0.74505805969E-08  0.10566000000E+00  0.10566000000E+00 0. -1.
     999900   -1    0    0    0    0 -0.00000000000E+00 -0.00000000000E+00 -0.74505805969E-08  0.93827000000E+00  0.93827000000E+00 0.  1.
     999902    2    1    2    0    0  0.12713317234E-01  0.17739882774E-01  0.93708014968E-02  0.10201782886E+01  0.10199017583E+01 0.  0.
     999903    2    3    3    0    0 -0.69045794733E-01  0.10810416433E+00  0.23171060296E-01  0.13167353172E+00  0.18633003096E-01 0.  0.
         14    1    1    2    0    0 -0.12713317234E-01 -0.17739882774E-01 -0.93708014968E-02  0.23751711446E-01  0.00000000000E+00 0. -1.
     999901    1    3    3    0    0  0.81759111967E-01 -0.90364281558E-01 -0.13800258799E-01  0.88850475683E+00  0.88000000000E+00 0. -1.
        -11    1    4    4    0    0 -0.23285305718E-01  0.32582808451E-01 -0.11932563570E-02  0.40069063511E-01  0.51100000000E-03 0.  1.
         11    1    4    4    0    0 -0.45760489015E-01  0.75521355881E-01  0.24364316653E-01  0.91604468210E-01  0.51100000000E-03 0. -1.
</event>
<event>
 8    1  0.1114686E+005  0.1043930E+01  0.7957747E-01            NaN
         13   -1    0    0    0    0  0.00000000000E+00  0.00000000000E+00  0.74505805969E-08  0.10566000000E+00  0.10566000000E+00 0. -1.
     999900   -1    0    0    0    0 -0.00000000000E+00 -0.00000000000E+00 -0.74505805969E-08  0.93827000000E+00  0.93827000000E+00 0.  1.
     999902    2    1    2    0    0  0.11946526709E-01 -0.46241367024E-02  0.21010200776E-01  0.10193224671E+01  0.10190253977E+01 0.  0.
     999903    2    3    3    0    0  0.10496143862E+00 -0.71807006513E-01 -0.93289270856E-02  0.13135525229E+00  0.31528140471E-01 0.  0.
         14    1    1    2    0    0 -0.11946526709E-01  0.46241367024E-02 -0.21010200776E-01  0.24607532938E-01  0.00000000000E+00 0.  1.
     999901    1    3    3    0    0 -0.93014911911E-01  0.67182869811E-01  0.30339127862E-01  0.88796721477E+00  0.88000000000E+00 0. -1.
        -11    1    4    4    0    0  0.50823750555E-01 -0.39507481151E-01  0.10590102294E-01  0.65240371512E-01  0.51100000000E-03 0. -1.
         11    1    4    4    0    0  0.54137688065E-01 -0.32299525362E-01 -0.19919029380E-01  0.66114880776E-01  0.51100000000E-03 0.  1.
</event>
<event>
 8    1  0.1114686E+005  0.1043930E+01  0.7957747E-01            NaN
         13   -1    0    0    0    0  0.00000000000E+00  0.00000000000E+00  0.74505805969E-08  0.10566000000E+00  0.10566000000E+00 0. -1.
     999900   -1    0    0    0    0 -0.00000000000E+00 -0.00000000000E+00 -0.74505805969E-08  0.93827000000E+00  0.93827000000E+00 0.  1.
     999902    2    1    2    0    0 -0.52688506778E-02 -0.10037010397E-01  0.19782346167E-01  0.10211299214E+01  0.10208753463E+01 0.  0.
     999903    2    3    3    0    0  0.11815926048E-01 -0.54447502885E-01  0.12031499220E+00  0.13412879717E+00  0.20265492911E-01 0.  0.
         14    1    1    2    0    0  0.52688506778E-02  0.10037010397E-01 -0.19782346167E-01  0.22800078620E-01  0.00000000000E+00 0.  1.
     999901    1    3    3    0    0 -0.17084776726E-01  0.44410492488E-01 -0.10053264603E+00  0.88700112421E+00  0.88000000000E+00 0.  1.
        -11    1    4    4    0    0  0.73797136070E-02 -0.19329147479E-01  0.67058676370E-01  0.70179792766E-01  0.51100000000E-03 0.  1.
         11    1    4    4    0    0  0.44362124408E-02 -0.35118355406E-01  0.53256315828E-01  0.63949004401E-01  0.51100000000E-03 0. -1.
</event>
<event>
 8    1  0.1114686E+005  0.1043930E+01  0.7957747E-01            NaN
         13   -1    0    0    0    0  0.00000000000E+00  0.00000000000E+00  0.74505805969E-08  0.10566000000E+00  0.10566000000E+00 0. -1.
     999900   -1    0    0    0    0 -0.00000000000E+00 -0.00000000000E+00 -0.74505805969E-08  0.93827000000E+00  0.93827000000E+00 0. -1.
     999902    2    1    2    0    0  0.20946536362E-01  0.90083482415E-02 -0.65748546453E-02  0.10201995041E+01  0.10199234734E+01 0.  0.
     999903    2    3    3    0    0  0.11946923420E+00 -0.51584348515E-01 -0.15664412852E-01  0.13258426256E+00  0.19984241669E-01 0.  0.
         14    1    1    2    0    0 -0.20946536362E-01 -0.90083482415E-02  0.65748546453E-02  0.23730495933E-01  0.00000000000E+00 0. -1.
     999901    1    3    3    0    0 -0.98522697842E-01  0.60592696757E-01  0.90895582070E-02  0.88761524151E+00  0.88000000000E+00 0.  1.
        -11    1    4    4    0    0  0.67903783528E-01 -0.38698046218E-01 -0.14015422852E-01  0.79405011159E-01  0.51100000000E-03 0. -1.
         11    1    4    4    0    0  0.51565450676E-01 -0.12886302297E-01 -0.16489900006E-02  0.53179251399E-01  0.51100000000E-03 0.  1.
</event>
<event>
 8    1  0.1114686E+005  0.1043930E+01  0.7957747E-01            NaN
         13   -1    0    0    0    0  0.00000000000E+00  0.00000000000E+00  0.74505805969E-08  0.10566000000E+00  0.10566000000E+00 0. -1.
     999900   -1    0    0    0    0 -0.00000000000E+00 -0.00000000000E+00 -0.74505805969E-08  0.93827000000E+00  0.93827000000E+00 0. -1.
     999902    2    1    2    0    0  0.48514183407E-02 -0.86474114895E-02  0.21475957442E-01  0.10202755980E+01  0.10200013555E+01 0.  0.
     999903    2    3    3    0    0 -0.99190330000E-01 -0.73005573957E-01  0.41583487728E-01  0.13158500436E+00  0.20417921689E-01 0.  0.
         14    1    1    2    0    0 -0.48514183407E-02  0.86474114895E-02 -0.21475957442E-01  0.23654401988E-01  0.00000000000E+00 0.  1.
     999901    1    3    3    0    0  0.10404174834E+00  0.64358162467E-01 -0.20107530286E-01  0.88869059365E+00  0.88000000000E+00 0.  1.
        -11    1    4    4    0    0 -0.15669322925E-01 -0.54762316775E-02  0.57735168240E-03  0.16616595629E-01  0.51100000000E-03 0. -1.
         11    1    4    4    0    0 -0.83521007075E-01 -0.67529342279E-01  0.41006136045E-01  0.11496840873E+00  0.51100000000E-03 0.  1.
</event>
<event>
 8    1  0.1114686E+005  0.1043930E+01  0.7957747E-01            NaN
         13   -1    0    0    0    0  0.00000000000E+00  0.00000000000E+00  0.74505805969E-08  0.10566000000E+00  0.10566000000E+00 0.  1.
     999900   -1    0    0    0    0 -0.00000000000E+00 -0.00000000000E+00 -0.74505805969E-08  0.93827000000E+00  0.93827000000E+00 0. -1.
     999902    2    1    2    0    0 -0.36573412145E-02  0.19708872047E-01 -0.13751025790E-01  0.10196214317E+01  0.10193316229E+01 0.  0.
     999903    2    3    3    0    0  0.59286543629E-01 -0.12921594554E-01  0.11104958532E+00  0.12799265664E+00  0.19189786204E-01 0.  0.
         14    1    1    2    0    0  0.36573412145E-02 -0.19708872047E-01  0.13751025790E-01  0.24308568292E-01  0.00000000000E+00 0.  1.
     999901    1    3    3    0    0 -0.62943884844E-01  0.32630466601E-01 -0.12480061111E+00  0.89162877506E+00  0.88000000000E+00 0. -1.
        -11    1    4    4    0    0  0.18704720737E-01 -0.47751957896E-02  0.19130650097E-01  0.27182935214E-01  0.51100000000E-03 0. -1.
         11    1    4    4    0    0  0.40581822892E-01 -0.81463987643E-02  0.91918935219E-01  0.10080972143E+00  0.51100000000E-03 0.  1.
</event>
<event>
 8    1  0.1114686E+005  0.1043930E+01  0.7957747E-01            NaN
         13   -1    0    0    0    0  0.00000000000E+00  0.00000000000E+00  0.74505805969E-08  0.10566000000E+00  0.10566000000E+00 0.  1.
     999900   -1    0    0    0    0 -0.00000000000E+00 -0.00000000000E+00 -0.74505805969E-08  0.93827000000E+00  0.93827000000E+00 0. -1.
     999902    2    1    2    0    0  0.17100882553E-01  0.13579607636E-01  0.10333704035E-01  0.10197715363E+01  0.10194853383E+01 0.  0.
     999903    2    3    3    0    0 -0.99007359617E-01 -0.43707844058E-01  0.66588452401E-01  0.12852096958E+00  0.19255771565E-01 0.  0.
         14    1    1    2    0    0 -0.17100882553E-01 -0.13579607636E-01 -0.10333704035E-01  0.24158463666E-01  0.00000000000E+00 0. -1.
     999901    1    3    3    0    0  0.11610824217E+00  0.57287451694E-01 -0.56254748366E-01  0.89125056675E+00  0.88000000000E+00 0. -1.
        -11    1    4    4    0    0 -0.78248812151E-01 -0.25544197129E-01  0.48720452420E-01  0.95652110353E-01  0.51100000000E-03 0.  1.
         11    1    4    4    0    0 -0.20758547466E-01 -0.18163646930E-01  0.17867999982E-01  0.32868859229E-01  0.51100000000E-03 0. -1.
</event>
<event>
 8    1  0.1114686E+005  0.1043930E+01  0.7957747E-01            NaN
         13   -1    0    0    0    0  0.00000000000E+00  0.00000000000E+00  0.74505805969E-08  0.10566000000E+00  0.10566000000E+00 0. -1.
     999900   -1    0    0    0    0 -0.00000000000E+00 -0.00000000000E+00 -0.74505805969E-08  0.93827000000E+00  0.93827000000E+00 0.  1.
     999902    2    1    2    0    0  0.20175835615E-01  0.11296056110E-01 -0.57740716009E-02  0.10200971418E+01  0.10198186964E+01 0.  0.
     999903    2    3    3    0    0 -0.49459177754E-02  0.66853671515E-01  0.10987014122E+00  0.13043915411E+00  0.21190788037E-01 0.  0.
         14    1    1    2    0    0 -0.20175835615E-01 -0.11296056110E-01  0.57740716009E-02  0.23832858185E-01  0.00000000000E+00 0. -1.
     999901    1    3    3    0    0  0.25121753390E-01 -0.55557615404E-01 -0.11564421282E+00  0.88965798770E+00  0.88000000000E+00 0.  1.
        -11    1    4    4    0    0  0.69570174230E-02  0.19970297235E-01  0.24975653960E-01  0.32730066832E-01  0.51100000000E-03 0. -1.
         11    1    4    4    0    0 -0.11902935198E-01  0.46883374280E-01  0.84894487255E-01  0.97709087282E-01  0.51100000000E-03 0.  1.
</event>
<event>
 8    1  0.1114686E+005  0.1043930E+01  0.7957747E-01            NaN
         13   -1    0    0    0    0  0.00000000000E+00  0.00000000000E+00  0.74505805969E-08  0.10566000000E+00  0.10566000000E+00 0.  1.
     999900   -1    0    0    0    0 -0.00000000000E+00 -0.00000000000E+00 -0.74505805969E-08  0.93827000000E+00  0.93827000000E+00 0.  1.
     999902    2    1    2    0    0  0.22620689655E-01  0.95933795481E-03 -0.60981049697E-02  0.10204821256E+01  0.10202127062E+01 0.  0.
     999903    2    3    3    0    0  0.93478145251E-01 -0.32211589322E-01 -0.87125204061E-01  0.13330318073E+00  0.20079509053E-01 0.  0.
         14    1    1    2    0    0 -0.22620689655E-01 -0.95933795481E-03  0.60981049697E-02  0.23447874402E-01  0.00000000000E+00 0.  1.
     999901    1    3    3    0    0 -0.70857455596E-01  0.33170927276E-01  0.81027099091E-01  0.88717894487E+00  0.88000000000E+00 0. -1.
        -11    1    4    4    0    0  0.78402727643E-01 -0.33057919517E-01 -0.79193807507E-01  0.11623998457E+00  0.51100000000E-03 0.  1.
         11    1    4    4    0    0  0.15075417608E-01  0.84633019520E-03 -0.79313965543E-02  0.17063196159E-01  0.51100000000E-03 0. -1.
</event>
<event>
 8    1  0.1114686E+005  0.1043930E+01  0.7957747E-01            NaN
         13   -1    0    0    0    0  0.00000000000E+00  0.00000000000E+00  0.74505805969E-08  0.10566000000E+00  0.10566000000E+00 0. -1.
     999900   -1    0    0    0    0 -0.00000000000E+00 -0.00000000000E+00 -0.74505805969E-08  0.93827000000E+00  0.93827000000E+00 0. -1.
     999902    2    1    2    0    0  0.40520774817E-02  0.21671704513E-01 -0.72105979838E-02  0.10207335599E+01  0.10204699533E+01 0.  0.
     999903    2    3    3    0    0 -0.10816328699E+00  0.64891126669E-01 -0.33842899471E-01  0.13215633428E+00  0.20243514352E-01 0.  0.
         14    1    1    2    0    0 -0.40520774817E-02 -0.21671704513E-01  0.72105979838E-02  0.23196440065E-01  0.00000000000E+00 0.  1.
     999901    1    3    3    0    0  0.11221536447E+00 -0.43219422156E-01  0.26632301487E-01  0.88857722566E+00  0.88000000000E+00 0.  1.
        -11    1    4    4    0    0 -0.38662025550E-01  0.13740009496E-01 -0.15944540795E-01  0.44023057398E-01  0.51100000000E-03 0. -1.
         11    1    4    4    0    0 -0.69501261435E-01  0.51151117173E-01 -0.17898358676E-01  0.88133276879E-01  0.51100000000E-03 0.  1.
</event>
<event>
 8    1  0.1353241E+005  0.1043930E+01  0.7957747E-01            NaN
         13   -1    0    0    0    0  0.00000000000E+00  0.00000000000E+00  0.74505805969E-08  0.10566000000E+00  0.10566000000E+00 0.  1.
     999900   -1    0    0    0    0 -0.00000000000E+00 -0.00000000000E+00 -0.74505805969E-08  0.93827000000E+00  0.93827000000E+00 0. -1.
     999902    2    1    2    0    0 -0.33918675302E-02  0.22505081109E-01 -0.11446934834E-01  0.10184542123E+01  0.10181355346E+01 0.  0.
     999903    2    3    3    0    0 -0.61316201806E-01 -0.20196023110E-01 -0.10875501493E+00  0.13017076923E+00  0.30809413105E-01 0.  0.
         14    1    1    2    0    0  0.33918675302E-02 -0.22505081109E-01  0.11446934834E-01  0.25475787685E-01  0.00000000000E+00 0.  1.
     999901    1    3    3    0    0  0.57924334276E-01  0.42701104219E-01  0.97308080100E-01  0.88828344308E+00  0.88000000000E+00 0.  1.
        -11    1    4    4    0    0 -0.34393984422E-01 -0.26498065267E-01 -0.59127174341E-01  0.73357872746E-01  0.51100000000E-03 0. -1.
         11    1    4    4    0    0 -0.26922217384E-01  0.63020421567E-02 -0.49627840592E-01  0.56812896486E-01  0.51100000000E-03 0.  1.
</event>
<event>
 8    1  0.1114686E+005  0.1043930E+01  0.7957747E-01            NaN
         13   -1    0    0    0    0  0.00000000000E+00  0.00000000000E+00  0.74505805969E-08  0.10566000000E+00  0.10566000000E+00 0.  1.
     999900   -1    0    0    0    0 -0.00000000000E+00 -0.00000000000E+00 -0.74505805969E-08  0.93827000000E+00  0.93827000000E+00 0. -1.
     999902    2    1    2    0    0  0.23198468243E-01 -0.22918836527E-02  0.44204650716E-02  0.10202031761E+01  0.10199272319E+01 0.  0.
     999903    2    3    3    0    0  0.11221874857E+00 -0.40438525396E-01  0.55511216818E-01  0.13341681995E+00  0.22141155980E-01 0.  0.
         14    1    1    2    0    0 -0.23198468243E-01  0.22918836527E-02 -0.44204650716E-02  0.23726823870E-01  0.00000000000E+00 0. -1.
     999901    1    3    3    0    0 -0.89020280323E-01  0.38146641743E-01 -0.51090751747E-01  0.88678635618E+00  0.88000000000E+00 0. -1.
        -11    1    4    4    0    0  0.52217075507E-01 -0.29375050574E-01  0.22160125364E-01  0.63881521960E-01  0.51100000000E-03 0. -1.
         11    1    4    4    0    0  0.60001673059E-01 -0.11063474822E-01  0.33351091454E-01  0.69535297995E-01  0.51100000000E-03 0.  1.
</event>
<event>
 8    1  0.1114686E+005  0.1043930E+01  0.7957747E-01            NaN
         13   -1    0    0    0    0  0.00000000000E+00  0.00000000000E+00  0.74505805969E-08  0.10566000000E+00  0.10566000000E+00 0.  1.
     999900   -1    0    0    0    0 -0.00000000000E+00 -0.00000000000E+00 -0.74505805969E-08  0.93827000000E+00  0.93827000000E+00 0.  1.
     999902    2    1    2    0    0 -0.19303431884E-02  0.34497841322E-03  0.21882989812E-01  0.10219593269E+01  0.10217231304E+01 0.  0.
     999903    2    3    3    0    0  0.10447628483E+00  0.64693619807E-01 -0.41236802813E-01  0.13097827973E+00  0.18822255948E-01 0.  0.
         14    1    1    2    0    0  0.19303431884E-02 -0.34497841322E-03 -0.21882989812E-01  0.21970673136E-01  0.00000000000E+00 0. -1.
     999901    1    3    3    0    0 -0.10640662802E+00 -0.64348641394E-01  0.63119792625E-01  0.89098104714E+00  0.88000000000E+00 0. -1.
        -11    1    4    4    0    0  0.74377094734E-01  0.48018508362E-01 -0.20761152926E-01  0.90934129776E-01  0.51100000000E-03 0.  1.
         11    1    4    4    0    0  0.30099190094E-01  0.16675111445E-01 -0.20475649887E-01  0.40044149952E-01  0.51100000000E-03 0. -1.
</event>
<event>
 8    1  0.1114686E+005  0.1043930E+01  0.7957747E-01            NaN
         13   -1    0    0    0    0  0.00000000000E+00  0.00000000000E+00  0.74505805969E-08  0.10566000000E+00  0.10566000000E+00 0.  1.
     999900   -1    0    0    0    0 -0.00000000000E+00 -0.00000000000E+00 -0.74505805969E-08  0.93827000000E+00  0.93827000000E+00 0.  1.
     999902    2    1    2    0    0 -0.13015248435E-01  0.11709304846E-01 -0.15431954963E-01  0.10205922678E+01  0.10203254026E+01 0.  0.
     999903    2    3    3    0    0  0.49894281884E-01  0.55018389633E-01  0.10329167846E+00  0.12934113202E+00  0.23312979890E-01 0.  0.
         14    1    1    2    0    0  0.13015248435E-01 -0.11709304846E-01  0.15431954963E-01  0.23337732233E-01  0.00000000000E+00 0.  1.
     999901    1    3    3    0    0 -0.62909530319E-01 -0.43309084787E-01 -0.11872363342E+00  0.89125113574E+00  0.88000000000E+00 0.  1.
        -11    1    4    4    0    0  0.45324087134E-01  0.48369109346E-01  0.10122192620E+00  0.12099579777E+00  0.51100000000E-03 0. -1.
         11    1    4    4    0    0  0.45701947492E-02  0.66492802866E-02  0.20697522616E-02  0.83453342533E-02  0.51100000000E-03 0.  1.
</event>
<event>
 8    1  0.1114686E+005  0.1043930E+01  0.7957747E-01            NaN
         13   -1    0    0    0    0  0.00000000000E+00  0.00000000000E+00  0.74505805969E-08  0.10566000000E+00  0.10566000000E+00 0.  1.
     999900   -1    0    0    0    0 -0.00000000000E+00 -0.00000000000E+00 -0.74505805969E-08  0.93827000000E+00  0.93827000000E+00 0. -1.
     999902    2    1    2    0    0 -0.11418488508E-01  0.19834788171E-01  0.80743103439E-02  0.10196607769E+01  0.10193719168E+01 0.  0.
     999903    2    3    3    0    0  0.10532902426E+00 -0.64179799703E-01 -0.24769305336E-01  0.12737879469E+00  0.19964689030E-01 0.  0.
         14    1    1    2    0    0  0.11418488508E-01 -0.19834788171E-01 -0.80743103439E-02  0.24269223085E-01  0.00000000000E+00 0.  1.
     999901    1    3    3    0    0 -0.11674751277E+00  0.84014587874E-01  0.32843615680E-01  0.89228198223E+00  0.88000000000E+00 0. -1.
        -11    1    4    4    0    0  0.58479146051E-01 -0.24065242993E-01 -0.13902801441E-01  0.64749482253E-01  0.51100000000E-03 0. -1.
         11    1    4    4    0    0  0.46849878210E-01 -0.40114556710E-01 -0.10866503895E-01  0.62629312437E-01  0.51100000000E-03 0.  1.
</event>
<event>
 8    1  0.1114686E+005  0.1043930E+01  0.7957747E-01            NaN
         13   -1    0    0    0    0  0.00000000000E+00  0.00000000000E+00  0.74505805969E-08  0.10566000000E+00  0.10566000000E+00 0. -1.
     999900   -1    0    0    0    0 -0.00000000000E+00 -0.00000000000E+00 -0.74505805969E-08  0.93827000000E+00  0.93827000000E+00 0.  1.
     999902    2    1    2    0    0 -0.50558399002E-02  0.19502917632E-01  0.12492019146E-01  0.10202239701E+01  0.10199485150E+01 0.  0.
     999903    2    3    3    0    0  0.28827916836E-02  0.13076322673E+00 -0.12392259791E-01  0.13283391738E+00  0.19594630703E-01 0.  0.
         14    1    1    2    0    0  0.50558399002E-02 -0.19502917632E-01 -0.12492019146E-01  0.23706029942E-01  0.00000000000E+00 0.  1.
     999901    1    3    3    0    0 -0.79386315838E-02 -0.11126030909E+00  0.24884278937E-01  0.88739005268E+00  0.88000000000E+00 0. -1.
        -11    1    4    4    0    0 -0.13212612204E-02  0.39450841592E-01 -0.12550263303E-01  0.41423240621E-01  0.51100000000E-03 0. -1.
         11    1    4    4    0    0  0.42040529040E-02  0.91312385134E-01  0.15800351275E-03  0.91410676760E-01  0.51100000000E-03 0.  1.
</event>
<event>
 8    1  0.1114686E+005  0.1043930E+01  0.7957747E-01            NaN
         13   -1    0    0    0    0  0.00000000000E+00  0.00000000000E+00  0.74505805969E-08  0.10566000000E+00  0.10566000000E+00 0.  1.
     999900   -1    0    0    0    0 -0.00000000000E+00 -0.00000000000E+00 -0.74505805969E-08  0.93827000000E+00  0.93827000000E+00 0.  1.
     999902    2    1    2    0    0 -0.16523299790E-01  0.93087697278E-03  0.16206371966E-01  0.10207668297E+01  0.10205039873E+01 0.  0.
     999903    2    3    3    0    0 -0.62484640003E-01  0.74546310089E-01  0.89249169928E-01  0.13348619360E+00  0.19790577701E-01 0.  0.
         14    1    1    2    0    0  0.16523299790E-01 -0.93087697278E-03 -0.16206371966E-01  0.23163170339E-01  0.00000000000E+00 0. -1.
     999901    1    3    3    0    0  0.45961340214E-01 -0.73615433116E-01 -0.73042797962E-01  0.88728063606E+00  0.88000000000E+00 0. -1.
        -11    1    4    4    0    0 -0.71703949149E-02  0.66878644336E-02  0.18422981587E-01  0.20876050045E-01  0.51100000000E-03 0.  1.
         11    1    4    4    0    0 -0.55314245088E-01  0.67858445656E-01  0.70826188341E-01  0.11261014356E+00  0.51100000000E-03 0. -1.
</event>
<event>
 8    1  0.1114686E+005  0.1043930E+01  0.7957747E-01            NaN
         13   -1    0    0    0    0  0.00000000000E+00  0.00000000000E+00  0.74505805969E-08  0.10566000000E+00  0.10566000000E+00 0.  1.
     999900   -1    0    0    0    0 -0.00000000000E+00 -0.00000000000E+00 -0.74505805969E-08  0.93827000000E+00  0.93827000000E+00 0. -1.
     999902    2    1    2    0    0 -0.11029705065E-01  0.74204865898E-02  0.21225856326E-01  0.10188849408E+01  0.10185770798E+01 0.  0.
     999903    2    3    3    0    0 -0.82839022913E-01 -0.54536717099E-01 -0.78766262634E-01  0.12815844118E+00  0.19593485835E-01 0.  0.
         14    1    1    2    0    0  0.11029705065E-01 -0.74204865898E-02 -0.21225856326E-01  0.25045059229E-01  0.00000000000E+00 0. -1.
     999901    1    3    3    0    0  0.71809317848E-01  0.61957203689E-01  0.99992118960E-01  0.89072649959E+00  0.88000000000E+00 0.  1.
        -11    1    4    4    0    0 -0.49753927351E-01 -0.31883534377E-01 -0.34498016200E-01  0.68427971576E-01  0.51100000000E-03 0. -1.
         11    1    4    4    0    0 -0.33085095562E-01 -0.22653182722E-01 -0.44268246434E-01  0.59730469604E-01  0.51100000000E-03 0.  1.
</event>
<event>
 8    1  0.1114686E+005  0.1043930E+01  0.7957747E-01            NaN
         13   -1    0    0    0    0  0.00000000000E+00  0.00000000000E+00  0.74505805969E-08  0.10566000000E+00  0.10566000000E+00 0.  1.
     999900   -1    0    0    0    0 -0.00000000000E+00 -0.00000000000E+00 -0.74505805969E-08  0.93827000000E+00  0.93827000000E+00 0. -1.
     999902    2    1    2    0    0 -0.32960885053E-02  0.72568513039E-03  0.23295099369E-01  0.10203916808E+01  0.10201201545E+01 0.  0.
     999903    2    3    3    0    0  0.98383479000E-01 -0.16409195062E-01  0.84530871336E-01  0.13225759272E+00  0.19950739316E-01 0.  0.
         14    1    1    2    0    0  0.32960885053E-02 -0.72568513039E-03 -0.23295099369E-01  0.23538319247E-01  0.00000000000E+00 0. -1.
     999901    1    3    3    0    0 -0.10167956751E+00  0.17134880192E-01 -0.61235771967E-01  0.88813408804E+00  0.88000000000E+00 0.  1.
        -11    1    4    4    0    0  0.80950139569E-01 -0.13966672916E-01  0.58580353781E-01  0.10089555004E+00  0.51100000000E-03 0. -1.
         11    1    4    4    0    0  0.17433339432E-01 -0.24425221457E-02  0.25950517554E-01  0.31362042671E-01  0.51100000000E-03 0.  1.
</event>
<event>
 8    1  0.1386055E+005  0.1043930E+01  0.7957747E-01            NaN
         13   -1    0    0    0    0  0.00000000000E+00  0.00000000000E+00  0.74505805969E-08  0.10566000000E+00  0.10566000000E+00 0. -1.
     999900   -1    0    0    0    0 -0.00000000000E+00 -0.00000000000E+00 -0.74505805969E-08  0.93827000000E+00  0.93827000000E+00 0.  1.
     999902    2    1    2    0    0  0.20242175712E-01  0.10238417026E-01  0.47185255043E-02  0.10207602925E+01  0.10204973001E+01 0.  0.
     999903    2    3    3    0    0  0.11147570438E+00 -0.62278346856E-01  0.20847616145E-01  0.13293013685E+00  0.30502016796E-01 0.  0.
         14    1    1    2    0    0 -0.20242175712E-01 -0.10238417026E-01 -0.47185255043E-02  0.23169707458E-01  0.00000000000E+00 0.  1.
     999901    1    3    3    0    0 -0.91233528670E-01  0.72516763881E-01 -0.16129090641E-01  0.88783015570E+00  0.88000000000E+00 0. -1.
        -11    1    4    4    0    0  0.57832623372E-01 -0.24390725272E-01  0.23948426453E-01  0.67181158489E-01  0.51100000000E-03 0. -1.
         11    1    4    4    0    0  0.53643081010E-01 -0.37887621584E-01 -0.31008103075E-02  0.65748978358E-01  0.51100000000E-03 0.  1.
</event>
<event>
 8    1  0.1114686E+005  0.1043930E+01  0.7957747E-01            NaN
         13   -1    0    0    0    0  0.00000000000E+00  0.00000000000E+00  0.74505805969E-08  0.10566000000E+00  0.10566000000E+00 0.  1.
     999900   -1    0    0    0    0 -0.00000000000E+00 -0.00000000000E+00 -0.74505805969E-08  0.93827000000E+00  0.93827000000E+00 0.  1.
     999902    2    1    2    0    0 -0.23168581462E-02  0.33348615915E-02  0.24376003249E-01  0.10192180865E+01  0.10189184605E+01 0.  0.
     999903    2    3    3    0    0 -0.10901286967E+00 -0.48226978828E-01  0.50194380510E-01  0.13089987165E+00  0.20140837175E-01 0.  0.
         14    1    1    2    0    0  0.23168581462E-02 -0.33348615915E-02 -0.24376003249E-01  0.24711913481E-01  0.00000000000E+00 0. -1.
     999901    1    3    3    0    0  0.10669601153E+00  0.51561840420E-01 -0.25818377261E-01  0.88831821487E+00  0.88000000000E+00 0. -1.
        -11    1    4    4    0    0 -0.44121964000E-01 -0.10233248792E-01  0.13752141338E-01  0.47337612957E-01  0.51100000000E-03 0. -1.
         11    1    4    4    0    0 -0.64890905672E-01 -0.37993730037E-01  0.36442239172E-01  0.83562258693E-01  0.51100000000E-03 0.  1.
</event>
<event>
 8    1  0.1114686E+005  0.1043930E+01  0.7957747E-01            NaN
         13   -1    0    0    0    0  0.00000000000E+00  0.00000000000E+00  0.74505805969E-08  0.10566000000E+00  0.10566000000E+00 0. -1.
     999900   -1    0    0    0    0 -0.00000000000E+00 -0.00000000000E+00 -0.74505805969E-08  0.93827000000E+00  0.93827000000E+00 0. -1.
     999902    2    1    2    0    0 -0.10074019235E-02 -0.24834439171E-02 -0.23654099514E-01  0.10201245641E+01  0.10198467667E+01 0.  0.
     999903    2    3    3    0    0 -0.87091143060E-01  0.94722661613E-01  0.24417109603E-02  0.13021421542E+00  0.19812372990E-01 0.  0.
         14    1    1    2    0    0  0.10074019235E-02  0.24834439171E-02  0.23654099514E-01  0.23805435853E-01  0.00000000000E+00 0. -1.
     999901    1    3    3    0    0  0.86083741136E-01 -0.97206105530E-01 -0.26095810474E-01  0.88991034872E+00  0.88000000000E+00 0.  1.
        -11    1    4    4    0    0 -0.23856075890E-01  0.16487242145E-01  0.57282190128E-02  0.29563746793E-01  0.51100000000E-03 0.  1.
         11    1    4    4    0    0 -0.63235067170E-01  0.78235419468E-01 -0.32865080525E-02  0.10065046863E+00  0.51100000000E-03 0. -1.
</event>
<event>
 8    1  0.1114686E+005  0.1043930E+01  0.7957747E-01            NaN
         13   -1    0    0    0    0  0.00000000000E+00  0.00000000000E+00  0.74505805969E-08  0.10566000000E+00  0.10566000000E+00 0. -1.
     999900   -1    0    0    0    0 -0.00000000000E+00 -0.00000000000E+00 -0.74505805969E-08  0.93827000000E+00  0.93827000000E+00 0. -1.
     999902    2    1    2    0    0  0.71885854907E-02 -0.51821407468E-02  0.22175253321E-01  0.10200496272E+01  0.10197700573E+01 0.  0.
     999903    2    3    3    0    0 -0.48069063197E-01 -0.25282276293E-01 -0.11320783988E+00  0.12775707144E+00  0.23580202751E-01 0.  0.
         14    1    1    2    0    0 -0.71885854907E-02  0.51821407468E-02 -0.22175253321E-01  0.23880372776E-01  0.00000000000E+00 0.  1.
     999901    1    3    3    0    0  0.55257648687E-01  0.20100135546E-01  0.13538309320E+00  0.89229255579E+00  0.88000000000E+00 0.  1.
        -11    1    4    4    0    0 -0.47410244061E-01 -0.20887579254E-01 -0.87704520249E-01  0.10186445014E+00  0.51100000000E-03 0. -1.
         11    1    4    4    0    0 -0.65881913595E-03 -0.43946970387E-02 -0.25503319628E-01  0.25892621300E-01  0.51100000000E-03 0.  1.
</event>
<event>
 7    1  0.1114686E+005  0.1043930E+01  0.7957747E-01            NaN
         13   -1    0    0    0    0  0.00000000000E+00  0.00000000000E+00  0.74505805969E-08  0.10566000000E+00  0.10566000000E+00 0.  1.
     999900   -1    0    0    0    0 -0.00000000000E+00 -0.00000000000E+00 -0.74505805969E-08  0.93827000000E+00  0.93827000000E+00 0. -1.
     999903    2    1    2    0    0 -0.10969709683E+00  0.36052683315E-01  0.13021278078E-01  0.11761864033E+00  0.18202797664E-01 0.  0.
         14    1    1    2    0    0  0.96503206366E-02  0.59224188880E-02  0.36550095854E-01  0.38263732709E-01  0.00000000000E+00 0.  1.
     999901    1    1    2    0    0  0.10004677620E+00 -0.41975102203E-01 -0.49571373932E-01  0.88804762696E+00  0.88000000000E+00 0. -1.
        -11    1    3    3    0    0 -0.26284560822E-01  0.16893012430E-01  0.51565128225E-02  0.31671797424E-01  0.51100000000E-03 0.  1.
         11    1    3    3    0    0 -0.83412536013E-01  0.19159670885E-01  0.78647652551E-02  0.85946842909E-01  0.51100000000E-03 0. -1.
</event>
<event>
 8    1  0.1114686E+005  0.1043930E+01  0.7957747E-01            NaN
         13   -1    0    0    0    0  0.00000000000E+00  0.00000000000E+00  0.74505805969E-08  0.10566000000E+00  0.10566000000E+00 0.  1.
     999900   -1    0    0    0    0 -0.00000000000E+00 -0.00000000000E+00 -0.74505805969E-08  0.93827000000E+00  0.93827000000E+00 0. -1.
     999902    2    1    2    0    0 -0.20953079035E-01 -0.10580048630E-01 -0.35753458384E-02  0.10201865367E+01  0.10199102008E+01 0.  0.
     999903    2    3    3    0    0  0.62217820233E-01  0.98773671815E-01 -0.49231818954E-01  0.12835687351E+00  0.20601446122E-01 0.  0.
         14    1    1    2    0    0  0.20953079035E-01  0.10580048630E-01  0.35753458384E-02  0.23743463267E-01  0.00000000000E+00 0.  1.
     999901    1    3    3    0    0 -0.83170899268E-01 -0.10935372044E+00  0.45656473116E-01  0.89182966322E+00  0.88000000000E+00 0.  1.
        -11    1    4    4    0    0  0.53874311691E-01  0.68744713193E-01 -0.37499479504E-01  0.95051297394E-01  0.51100000000E-03 0. -1.
         11    1    4    4    0    0  0.83435085418E-02  0.30028958622E-01 -0.11732339450E-01  0.33305576120E-01  0.51100000000E-03 0.  1.
</event>
<event>
 8    1  0.1114686E+005  0.1043930E+01  0.7957747E-01            NaN
         13   -1    0    0    0    0  0.00000000000E+00  0.00000000000E+00  0.74505805969E-08  0.10566000000E+00  0.10566000000E+00 0.  1.
     999900   -1    0    0    0    0 -0.00000000000E+00 -0.00000000000E+00 -0.74505805969E-08  0.93827000000E+00  0.93827000000E+00 0.  1.
     999902    2    1    2    0    0 -0.20194153603E-02  0.20978957395E-01 -0.10497217992E-01  0.10203845912E+01  0.10201128994E+01 0.  0.
     999903    2    3    3    0    0  0.10389334048E-01  0.11858762428E-01 -0.12984224952E+00  0.13219520169E+00  0.19183145771E-01 0.  0.
         14    1    1    2    0    0  0.20194153603E-02 -0.20978957395E-01  0.10497217992E-01  0.23545408837E-01  0.00000000000E+00 0.  1.
     999901    1    3    3    0    0 -0.12408749408E-01  0.91201949665E-02  0.11934503153E+00  0.88818938947E+00  0.88000000000E+00 0. -1.
        -11    1    4    4    0    0  0.29328284477E-02 -0.52710116540E-02 -0.27221687538E-01  0.27886671367E-01  0.51100000000E-03 0.  1.
         11    1    4    4    0    0  0.74565056002E-02  0.17129774082E-01 -0.10262056198E+00  0.10430853032E+00  0.51100000000E-03 0. -1.
</event>
<event>
 8    1  0.1114686E+005  0.1043930E+01  0.7957747E-01            NaN
         13   -1    0    0    0    0  0.00000000000E+00  0.00000000000E+00  0.74505805969E-08  0.10566000000E+00  0.10566000000E+00 0.  1.
     999900   -1    0    0    0    0 -0.00000000000E+00 -0.00000000000E+00 -0.74505805969E-08  0.93827000000E+00  0.93827000000E+00 0. -1.
     999902    2    1    2    0    0  0.10618530872E-01 -0.10006044391E-01 -0.16991624002E-01  0.10215338082E+01  0.10212882707E+01 0.  0.
     999903    2    3    3    0    0 -0.13161532253E-01 -0.32873831938E-01 -0.12764783624E+00  0.13399044336E+00  0.20138372770E-01 0.  0.
         14    1    1    2    0    0 -0.10618530872E-01  0.10006044391E-01  0.16991624002E-01  0.22396191830E-01  0.00000000000E+00 0.  1.
     999901    1    3    3    0    0  0.23780063125E-01  0.22867787547E-01  0.11065621224E+00  0.88754336481E+00  0.88000000000E+00 0.  1.
        -11    1    4    4    0    0 -0.46988618121E-03 -0.26167168278E-01 -0.88530712311E-01  0.92319497572E-01  0.51100000000E-03 0. -1.
         11    1    4    4    0    0 -0.12691646072E-01 -0.67066636601E-02 -0.39117123930E-01  0.41670945789E-01  0.51100000000E-03 0.  1.
</event>
<event>
 8    1  0.1114686E+005  0.1043930E+01  0.7957747E-01            NaN
         13   -1    0    0    0    0  0.00000000000E+00  0.00000000000E+00  0.74505805969E-08  0.10566000000E+00  0.10566000000E+00 0. -1.
     999900   -1    0    0    0    0 -0.00000000000E+00 -0.00000000000E+00 -0.74505805969E-08  0.93827000000E+00  0.93827000000E+00 0. -1.
     999902    2    1    2    0    0 -0.70129782119E-02  0.22410645595E-01 -0.90269619994E-03  0.10204303455E+01  0.10201597210E+01 0.  0.
     999903    2    3    3    0    0  0.71674688587E-01  0.99836513185E-01  0.44723831954E-01  0.13236036296E+00  0.20358148009E-01 0.  0.
         14    1    1    2    0    0  0.70129782119E-02 -0.22410645595E-01  0.90269619994E-03  0.23499654462E-01  0.00000000000E+00 0. -1.
     999901    1    3    3    0    0 -0.78687666799E-01 -0.77425867589E-01 -0.45626528154E-01  0.88806998257E+00  0.88000000000E+00 0. -1.
        -11    1    4    4    0    0  0.66193310125E-01  0.85769092567E-01  0.44836093096E-01  0.11725369039E+00  0.51100000000E-03 0.  1.
         11    1    4    4    0    0  0.54813784620E-02  0.14067420617E-01 -0.11226114210E-03  0.15106672573E-01  0.51100000000E-03 0. -1.
</event>
<event>
 8    1  0.1114686E+005  0.1043930E+01  0.7957747E-01            NaN
         13   -1    0    0    0    0  0.00000000000E+00  0.00000000000E+00  0.74505805969E-08  0.10566000000E+00  0.10566000000E+00 0.  1.
     999900   -1    0    0    0    0 -0.00000000000E+00 -0.00000000000E+00 -0.74505805969E-08  0.93827000000E+00  0.93827000000E+00 0. -1.
     999902    2    1    2    0    0  0.22250586490E-02  0.22261761347E-01 -0.16836685494E-02  0.10214940546E+01  0.10212476350E+01 0.  0.
     999903    2    3    3    0    0  0.44357520188E-01 -0.47077435615E-01 -0.11203877492E+00  0.13089800814E+00  0.19943091735E-01 0.  0.
         14    1    1    2    0    0 -0.22250586490E-02 -0.22261761347E-01  0.16836685494E-02  0.22435945357E-01  0.00000000000E+00 0.  1.
     999901    1    3    3    0    0 -0.42132461539E-01  0.69339196963E-01  0.11035510637E+00  0.89059604651E+00  0.88000000000E+00 0.  1.
        -11    1    4    4    0    0  0.21007852066E-01 -0.28862170542E-01 -0.77965480270E-01  0.85750988166E-01  0.51100000000E-03 0.  1.
         11    1    4    4    0    0  0.23349668122E-01 -0.18215265074E-01 -0.34073294647E-01  0.45147019971E-01  0.51100000000E-03 0. -1.
</event>
<event>
 8    1  0.1114686E+005  0.1043930E+01  0.7957747E-01            NaN
         13   -1    0    0    0    0  0.00000000000E+00  0.00000000000E+00  0.74505805969E-08  0.10566000000E+00  0.10566000000E+00 0. -1.
     999900   -1    0    0    0    0 -0.00000000000E+00 -0.00000000000E+00 -0.74505805969E-08  0.93827000000E+00  0.93827000000E+00 0. -1.
     999902    2    1    2    0    0  0.19828407322E-01  0.95816576055E-02 -0.63448837769E-02  0.10210120714E+01  0.10207548278E+01 0.  0.
     999903    2    3    3    0    0  0.85110250298E-01 -0.97418256358E-01  0.16460464128E-01  0.13183785650E+00  0.19395931293E-01 0.  0.
         14    1    1    2    0    0 -0.19828407322E-01 -0.95816576055E-02  0.63448837769E-02  0.22917928561E-01  0.00000000000E+00 0. -1.
     999901    1    3    3    0    0 -0.65281842976E-01  0.10699991396E+00 -0.22805347905E-01  0.88917421493E+00  0.88000000000E+00 0. -1.
        -11    1    4    4    0    0  0.14336653338E-01 -0.28305556219E-01  0.12992505402E-02  0.31759932537E-01  0.51100000000E-03 0.  1.
         11    1    4    4    0    0  0.70773596960E-01 -0.69112700139E-01  0.15161213588E-01  0.10007792397E+00  0.51100000000E-03 0. -1.
</event>
<event>
 8    1  0.1114686E+005  0.1043930E+01  0.7957747E-01            NaN
         13   -1    0    0    0    0  0.00000000000E+00  0.00000000000E+00  0.74505805969E-08  0.10566000000E+00  0.10566000000E+00 0. -1.
     999900   -1    0    0    0    0 -0.00000000000E+00 -0.00000000000E+00 -0.74505805969E-08  0.93827000000E+00  0.93827000000E+00 0.  1.
     999902    2    1    2    0    0 -0.10305607762E-01  0.20629616946E-01  0.50609277692E-02  0.10203206875E+01  0.10200475017E+01 0.  0.
     999903    2    3    3    0    0 -0.17590035643E-01  0.11992180996E+00  0.52449745046E-01  0.13343980346E+00  0.19093337410E-01 0.  0.
         14    1    1    2    0    0  0.10305607762E-01 -0.20629616946E-01 -0.50609277692E-02  0.23609312496E-01  0.00000000000E+00 0.  1.
     999901    1    3    3    0    0  0.72844278812E-02 -0.99292193014E-01 -0.47388817277E-01  0.88688088405E+00  0.88000000000E+00 0.  1.
        -11    1    4    4    0    0 -0.12894186077E-01  0.30124702325E-01  0.14602998438E-01  0.35878495079E-01  0.51100000000E-03 0.  1.
         11    1    4    4    0    0 -0.46958495660E-02  0.89797107634E-01  0.37846746608E-01  0.97561308378E-01  0.51100000000E-03 0. -1.
</event>
<event>
 8    1  0.1114686E+005  0.1043930E+01  0.7957747E-01            NaN
         13   -1    0    0    0    0  0.00000000000E+00  0.00000000000E+00  0.74505805969E-08  0.10566000000E+00  0.10566000000E+00 0.  1.
     999900   -1    0    0    0    0 -0.00000000000E+00 -0.00000000000E+00 -0.74505805969E-08  0.93827000000E+00  0.93827000000E+00 0.  1.
     999902    2    1    2    0    0 -0.21585610615E-02  0.22357981605E-01 -0.58539668497E-02  0.10207177693E+01  0.10204537995E+01 0.  0.
     999903    2    3    3    0    0  0.74300944357E-01 -0.10137558804E+00  0.20691855028E-01  0.12838334044E+00  0.16015275723E-01 0.  0.
         14    1    1    2    0    0  0.21585610615E-02 -0.22357981605E-01  0.58539668497E-02  0.23212230724E-01  0.00000000000E+00 0. -1.
     999901    1    3    3    0    0 -0.76459505418E-01  0.12373356964E+00 -0.26545821878E-01  0.89233442883E+00  0.88000000000E+00 0.  1.
        -11    1    4    4    0    0  0.11781556064E-01 -0.22760863754E-01 -0.87371072831E-03  0.25649297721E-01  0.51100000000E-03 0. -1.
         11    1    4    4    0    0  0.62519388292E-01 -0.78614724282E-01  0.21565565756E-01  0.10273404272E+00  0.51100000000E-03 0.  1.
</event>
<event>
 8    1  0.1114686E+005  0.1043930E+01  0.7957747E-01            NaN
         13   -1    0    0    0    0  0.00000000000E+00  0.00000000000E+00  0.74505805969E-08  0.10566000000E+00  0.10566000000E+00 0.  1.
     999900   -1    0    0    0    0 -0.00000000000E+00 -0.00000000000E+00 -0.74505805969E-08  0.93827000000E+00  0.93827000000E+00 0. -1.
     999902    2    1    2    0    0  0.59044890432E-02 -0.21704806199E-01  0.90420137496E-02  0.10196870708E+01  0.10193988438E+01 0.  0.
     999903    2    3    3    0    0  0.63690136530E-01  0.44677724625E-01 -0.10037308711E+00  0.12855437264E+00  0.19973420841E-01 0.  0.
         14    1    1    2    0    0 -0.59044890432E-02  0.21704806199E-01 -0.90420137496E-02  0.24242929188E-01  0.00000000000E+00 0.  1.
     999901    1    3    3    0    0 -0.57785647486E-01 -0.66382530824E-01  0.10941510086E+00  0.89113269817E+00  0.88000000000E+00 0.  1.
        -11    1    4    4    0    0  0.30451711862E-01  0.33343780981E-01 -0.58472953336E-01  0.73881404144E-01  0.51100000000E-03 0. -1.
         11    1    4    4    0    0  0.33238424668E-01  0.11333943644E-01 -0.41900133774E-01  0.54672968496E-01  0.51100000000E-03 0.  1.
</event>
<event>
 8    1  0.1114686E+005  0.1043930E+01  0.7957747E-01            NaN
         13   -1    0    0    0    0  0.00000000000E+00  0.00000000000E+00  0.74505805969E-08  0.10566000000E+00  0.10566000000E+00 0. -1.
     999900   -1    0    0    0    0 -0.00000000000E+00 -0.00000000000E+00 -0.74505805969E-08  0.93827000000E+00  0.93827000000E+00 0.  1.
     999902    2    1    2    0    0 -0.23309154068E-01  0.56811929405E-02 -0.18841829240E-03  0.10199377488E+01  0.10196555219E+01 0.  0.
     999903    2    3    3    0    0 -0.19637588678E-01 -0.56691696072E-01  0.11406136448E+00  0.13035533522E+00  0.19568731725E-01 0.  0.
         14    1    1    2    0    0  0.23309154068E-01 -0.56811929405E-02  0.18841829240E-03  0.23992251208E-01  0.00000000000E+00 0.  1.
     999901    1    3    3    0    0 -0.36715653898E-02  0.62372889012E-01 -0.11424978277E+00  0.88958241357E+00  0.88000000000E+00 0.  1.
        -11    1    4    4    0    0 -0.20372234862E-01 -0.38125969036E-01  0.90913313759E-01  0.10066831283E+00  0.51100000000E-03 0. -1.
         11    1    4    4    0    0  0.73464618353E-03 -0.18565727036E-01  0.23148050717E-01  0.29687022390E-01  0.51100000000E-03 0.  1.
</event>
<event>
 8    1  0.1114686E+005  0.1043930E+01  0.7957747E-01            NaN
         13   -1    0    0    0    0  0.00000000000E+00  0.00000000000E+00  0.74505805969E-08  0.10566000000E+00  0.10566000000E+00 0.  1.
     999900   -1    0    0    0    0 -0.00000000000E+00 -0.00000000000E+00 -0.74505805969E-08  0.93827000000E+00  0.93827000000E+00 0. -1.
     999902    2    1    2    0    0 -0.86683271950E-02  0.25350057420E-01 -0.61352493350E-02  0.10164453390E+01  0.10160736787E+01 0.  0.
     999903    2    3    3    0    0 -0.90287207270E-01  0.91480509175E-01 -0.82555328367E-02  0.13019516332E+00  0.19030590489E-01 0.  0.
         14    1    1    2    0    0  0.86683271950E-02 -0.25350057420E-01  0.61352493350E-02  0.27484661030E-01  0.00000000000E+00 0.  1.
     999901    1    3    3    0    0  0.81618880075E-01 -0.66130451755E-01  0.21202835017E-02  0.88625017565E+00  0.88000000000E+00 0.  1.
        -11    1    4    4    0    0 -0.44310612931E-02  0.32745127803E-02  0.34919739137E-02  0.65430681600E-02  0.51100000000E-03 0. -1.
         11    1    4    4    0    0 -0.85856145977E-01  0.88205996394E-01 -0.11747506750E-01  0.12365209516E+00  0.51100000000E-03 0.  1.
</event>
<event>
 8    1  0.1114686E+005  0.1043930E+01  0.7957747E-01            NaN
         13   -1    0    0    0    0  0.00000000000E+00  0.00000000000E+00  0.74505805969E-08  0.10566000000E+00  0.10566000000E+00 0.  1.
     999900   -1    0    0    0    0 -0.00000000000E+00 -0.00000000000E+00 -0.74505805969E-08  0.93827000000E+00  0.93827000000E+00 0. -1.
     999902    2    1    2    0    0  0.37980547424E-02 -0.14007562826E-01 -0.18910201892E-01  0.10200923665E+01  0.10198138082E+01 0.  0.
     999903    2    3    3    0    0  0.31752563160E-01  0.35809269802E-01 -0.12161651612E+00  0.13227945920E+00  0.20414437597E-01 0.  0.
         14    1    1    2    0    0 -0.37980547424E-02  0.14007562826E-01  0.18910201892E-01  0.23837633518E-01  0.00000000000E+00 0.  1.
     999901    1    3    3    0    0 -0.27954508417E-01 -0.49816832628E-01  0.10270631423E+00  0.88781290728E+00  0.88000000000E+00 0.  1.
        -11    1    4    4    0    0  0.10614222303E-01  0.75931913356E-02 -0.14528529750E-01  0.19536058135E-01  0.51100000000E-03 0.  1.
         11    1    4    4    0    0  0.21138340857E-01  0.28216078467E-01 -0.10708798637E+00  0.11274340107E+00  0.51100000000E-03 0. -1.
</event>
<event>
 8    1  0.1114686E+005  0.1043930E+01  0.7957747E-01            NaN
         13   -1    0    0    0    0  0.00000000000E+00  0.00000000000E+00  0.74505805969E-08  0.10566000000E+00  0.10566000000E+00 0.  1.
     999900   -1    0    0    0    0 -0.00000000000E+00 -0.00000000000E+00 -0.74505805969E-08  0.93827000000E+00  0.93827000000E+00 0. -1.
     999902    2    1    2    0    0 -0.11860211577E-01  0.15634045651E-01 -0.13468571436E-01  0.10201289408E+01  0.10198512467E+01 0.  0.
     999903    2    3    3    0    0 -0.71756146251E-01  0.89750982116E-01  0.61180847485E-01  0.13184217461E+00  0.20858561579E-01 0.  0.
         14    1    1    2    0    0  0.11860211577E-01 -0.15634045651E-01  0.13468571436E-01  0.23801059191E-01  0.00000000000E+00 0. -1.
     999901    1    3    3    0    0  0.59895934674E-01 -0.74116936465E-01 -0.74649418921E-01  0.88828676620E+00  0.88000000000E+00 0. -1.
        -11    1    4    4    0    0 -0.76250373517E-02  0.19393842100E-01  0.16956138220E-01  0.26870691289E-01  0.51100000000E-03 0. -1.
         11    1    4    4    0    0 -0.64131108899E-01  0.70357140016E-01  0.44224709265E-01  0.10497148332E+00  0.51100000000E-03 0.  1.
</event>
<event>
 8    1  0.1114686E+005  0.1043930E+01  0.7957747E-01            NaN
         13   -1    0    0    0    0  0.00000000000E+00  0.00000000000E+00  0.74505805969E-08  0.10566000000E+00  0.10566000000E+00 0.  1.
     999900   -1    0    0    0    0 -0.00000000000E+00 -0.00000000000E+00 -0.74505805969E-08  0.93827000000E+00  0.93827000000E+00 0.  1.
     999902    2    1    2    0    0  0.70498214636E-02 -0.45404844882E-02 -0.24977990863E-01  0.10175820208E+01  0.10172408530E+01 0.  0.
     999903    2    3    3    0    0  0.10261226894E-01  0.68536277726E-01  0.10256113988E+00  0.12538430940E+00  0.19998087097E-01 0.  0.
         14    1    1    2    0    0 -0.70498214636E-02  0.45404844882E-02  0.24977990863E-01  0.26347979232E-01  0.00000000000E+00 0.  1.
     999901    1    3    3    0    0 -0.32114054300E-02 -0.73076762214E-01 -0.12753913075E+00  0.89219771137E+00  0.88000000000E+00 0.  1.
        -11    1    4    4    0    0  0.91140830791E-02  0.44558177106E-01  0.49965266532E-01  0.67566904902E-01  0.51100000000E-03 0. -1.
         11    1    4    4    0    0  0.11471438145E-02  0.23978100620E-01  0.52595873351E-01  0.57817404497E-01  0.51100000000E-03 0.  1.
</event>
<event>
 8    1  0.1114686E+005  0.1043930E+01  0.7957747E-01            NaN
         13   -1    0    0    0    0  0.00000000000E+00  0.00000000000E+00  0.74505805969E-08  0.10566000000E+00  0.10566000000E+00 0. -1.
     999900   -1    0    0    0    0 -0.00000000000E+00 -0.00000000000E+00 -0.74505805969E-08  0.93827000000E+00  0.93827000000E+00 0. -1.
     999902    2    1    2    0    0  0.12098151760E-01  0.91862315951E-02 -0.17552356279E-01  0.10207171299E+01  0.10204531454E+01 0.  0.
     999903    2    3    3    0    0  0.93371471953E-01  0.81444421766E-01 -0.44108709935E-01  0.13362534292E+00  0.23637435714E-01 0.  0.
         14    1    1    2    0    0 -0.12098151760E-01 -0.91862315951E-02  0.17552356279E-01  0.23212870092E-01  0.00000000000E+00 0. -1.
     999901    1    3    3    0    0 -0.81273320193E-01 -0.72258190171E-01  0.26556353655E-01  0.88709178699E+00  0.88000000000E+00 0.  1.
        -11    1    4    4    0    0  0.46013097962E-01  0.34539530307E-01 -0.32132742832E-01  0.65901127614E-01  0.51100000000E-03 0.  1.
         11    1    4    4    0    0  0.47358373991E-01  0.46904891459E-01 -0.11975967102E-01  0.67724215306E-01  0.51100000000E-03 0. -1.
</event>
<event>
 8    1  0.1114686E+005  0.1043930E+01  0.7957747E-01            NaN
         13   -1    0    0    0    0  0.00000000000E+00  0.00000000000E+00  0.74505805969E-08  0.10566000000E+00  0.10566000000E+00 0.  1.
     999900   -1    0    0    0    0 -0.00000000000E+00 -0.00000000000E+00 -0.74505805969E-08  0.93827000000E+00  0.93827000000E+00 0.  1.
     999902    2    1    2    0    0 -0.18384596239E-01 -0.13686141312E-01  0.48078788155E-02  0.10205116409E+01  0.10202429072E+01 0.  0.
     999903    2    3    3    0    0 -0.73747814669E-01  0.12378857189E-01 -0.10625305738E+00  0.13142278055E+00  0.19754968233E-01 0.  0.
         14    1    1    2    0    0  0.18384596239E-01  0.13686141312E-01 -0.48078788155E-02  0.23418359071E-01  0.00000000000E+00 0. -1.
     999901    1    3    3    0    0  0.55363218430E-01 -0.26064998501E-01  0.11106093620E+00  0.88908886038E+00  0.88000000000E+00 0. -1.
        -11    1    4    4    0    0 -0.28137945601E-01 -0.43211070803E-02 -0.44944460078E-01  0.53204149854E-01  0.51100000000E-03 0.  1.
         11    1    4    4    0    0 -0.45609869069E-01  0.16699964269E-01 -0.61308597306E-01  0.78218630694E-01  0.51100000000E-03 0. -1.
</event>
<event>
 8    1  0.1114686E+005  0.1043930E+01  0.7957747E-01            NaN
         13   -1    0    0    0    0  0.00000000000E+00  0.00000000000E+00  0.74505805969E-08  0.10566000000E+00  0.10566000000E+00 0.  1.
     999900   -1    0    0    0    0 -0.00000000000E+00 -0.00000000000E+00 -0.74505805969E-08  0.93827000000E+00  0.93827000000E+00 0.  1.
     999902    2    1    2    0    0 -0.12844806509E-01  0.19892593112E-01  0.37137244451E-02  0.10199613525E+01  0.10196796872E+01 0.  0.
     999903    2    3    3    0    0 -0.48670470913E-01  0.11162402068E+00 -0.49265315171E-01  0.13288474266E+00  0.20063569509E-01 0.  0.
         14    1    1    2    0    0  0.12844806509E-01 -0.19892593112E-01 -0.37137244451E-02  0.23968647526E-01  0.00000000000E+00 0.  1.
     999901    1    3    3    0    0  0.35825664404E-01 -0.91731427572E-01  0.52979039616E-01  0.88707660981E+00  0.88000000000E+00 0. -1.
        -11    1    4    4    0    0 -0.19614150682E-01  0.52147026082E-01 -0.32863082378E-01  0.64685937734E-01  0.51100000000E-03 0. -1.
         11    1    4    4    0    0 -0.29056320231E-01  0.59476994602E-01 -0.16402232792E-01  0.68198804929E-01  0.51100000000E-03 0.  1.
</event>
<event>
 8    1  0.1114686E+005  0.1043930E+01  0.7957747E-01            NaN
         13   -1    0    0    0    0  0.00000000000E+00  0.00000000000E+00  0.74505805969E-08  0.10566000000E+00  0.10566000000E+00 0.  1.
     999900   -1    0    0    0    0 -0.00000000000E+00 -0.00000000000E+00 -0.74505805969E-08  0.93827000000E+00  0.93827000000E+00 0. -1.
     999902    2    1    2    0    0 -0.35439289133E-02  0.20156734361E-01 -0.12187284849E-01  0.10201101913E+01  0.10198320544E+01 0.  0.
     999903    2    3    3    0    0  0.62643890593E-01 -0.41445191371E-01 -0.10490300354E+00  0.13063178846E+00  0.20446591128E-01 0.  0.
         14    1    1    2    0    0  0.35439289133E-02 -0.20156734361E-01  0.12187284849E-01  0.23819808652E-01  0.00000000000E+00 0. -1.
     999901    1    3    3    0    0 -0.66187819507E-01  0.61601925731E-01  0.92715718692E-01  0.88947840288E+00  0.88000000000E+00 0.  1.
        -11    1    4    4    0    0  0.15260440493E-01 -0.46104408255E-02 -0.11720946752E-01  0.19793406034E-01  0.51100000000E-03 0.  1.
         11    1    4    4    0    0  0.47383450100E-01 -0.36834750545E-01 -0.93182056790E-01  0.11083838243E+00  0.51100000000E-03 0. -1.
</event>
<event>
 8    1  0.1114686E+005  0.1043930E+01  0.7957747E-01            NaN
         13   -1    0    0    0    0  0.00000000000E+00  0.00000000000E+00  0.74505805969E-08  0.10566000000E+00  0.10566000000E+00 0. -1.
     999900   -1    0    0    0    0 -0.00000000000E+00 -0.00000000000E+00 -0.74505805969E-08  0.93827000000E+00  0.93827000000E+00 0.  1.
     999902    2    1    2    0    0 -0.21961660836E-01  0.26318327833E-02  0.77782256418E-02  0.10204834249E+01  0.10202140357E+01 0.  0.
     999903    2    3    3    0    0  0.46132707633E-01 -0.11425301309E+00 -0.33213129977E-01  0.12920389441E+00  0.20212783429E-01 0.  0.
         14    1    1    2    0    0  0.21961660836E-01 -0.26318327833E-02 -0.77782256418E-02  0.23446575115E-01  0.00000000000E+00 0.  1.
     999901    1    3    3    0    0 -0.68094368470E-01  0.11688484587E+00  0.40991355619E-01  0.89127953048E+00  0.88000000000E+00 0. -1.
        -11    1    4    4    0    0  0.13545101224E-01 -0.48505531335E-01 -0.51021360608E-02  0.50621628289E-01  0.51100000000E-03 0.  1.
         11    1    4    4    0    0  0.32587606409E-01 -0.65747481753E-01 -0.28110993916E-01  0.78582266119E-01  0.51100000000E-03 0. -1.
</event>
<event>
 8    1  0.1114686E+005  0.1043930E+01  0.7957747E-01            NaN
         13   -1    0    0    0    0  0.00000000000E+00  0.00000000000E+00  0.74505805969E-08  0.10566000000E+00  0.10566000000E+00 0. -1.
     999900   -1    0    0    0    0 -0.00000000000E+00 -0.00000000000E+00 -0.74505805969E-08  0.93827000000E+00  0.93827000000E+00 0. -1.
     999902    2    1    2    0    0  0.13281545820E-01  0.15333162471E-01  0.11891684567E-01  0.10204158023E+01  0.10201448388E+01 0.  0.
     999903    2    3    3    0    0  0.11104921170E+00 -0.45651434290E-01 -0.48129571723E-01  0.13087648967E+00  0.19905250620E-01 0.  0.
         14    1    1    2    0    0 -0.13281545820E-01 -0.15333162471E-01 -0.11891684567E-01  0.23514197681E-01  0.00000000000E+00 0.  1.
     999901    1    3    3    0    0 -0.97767665884E-01  0.60984596761E-01  0.60021256290E-01  0.88953931265E+00  0.88000000000E+00 0.  1.
        -11    1    4    4    0    0  0.61836950295E-01 -0.34456308614E-01 -0.33565471121E-01  0.78345054711E-01  0.51100000000E-03 0.  1.
         11    1    4    4    0    0  0.49212261410E-01 -0.11195125677E-01 -0.14564100602E-01  0.52531434963E-01  0.51100000000E-03 0. -1.
</event>
<event>
 8    1  0.1114686E+005  0.1043930E+01  0.7957747E-01            NaN
         13   -1    0    0    0    0  0.00000000000E+00  0.00000000000E+00  0.74505805969E-08  0.10566000000E+00  0.10566000000E+00 0. -1.
     999900   -1    0    0    0    0 -0.00000000000E+00 -0.00000000000E+00 -0.74505805969E-08  0.93827000000E+00  0.93827000000E+00 0. -1.
     999902    2    1    2    0    0 -0.50923718256E-02 -0.19428488646E-01  0.14037920230E-01  0.10194256815E+01  0.10191311292E+01 0.  0.
     999903    2    3    3    0    0  0.11784772505E+00  0.29580392120E-01  0.39162236018E-01  0.12917438602E+00  0.19729555918E-01 0.  0.
         14    1    1    2    0    0  0.50923718256E-02  0.19428488646E-01 -0.14037920230E-01  0.24504318523E-01  0.00000000000E+00 0.  1.
     999901    1    3    3    0    0 -0.12294009688E+00 -0.49008880766E-01 -0.25124315787E-01  0.89025129545E+00  0.88000000000E+00 0. -1.
        -11    1    4    4    0    0  0.37794352319E-01  0.95322328794E-02  0.30758288425E-02  0.39102408813E-01  0.51100000000E-03 0.  1.
         11    1    4    4    0    0  0.80053372732E-01  0.20048159240E-01  0.36086407175E-01  0.90071977210E-01  0.51100000000E-03 0. -1.
</event>
<event>
 8    1  0.1114686E+005  0.1043930E+01  0.7957747E-01            NaN
         13   -1    0    0    0    0  0.00000000000E+00  0.00000000000E+00  0.74505805969E-08  0.10566000000E+00  0.10566000000E+00 0.  1.
     999900   -1    0    0    0    0 -0.00000000000E+00 -0.00000000000E+00 -0.74505805969E-08  0.93827000000E+00  0.93827000000E+00 0. -1.
     999902    2    1    2    0    0 -0.15868702782E-01 -0.17413721206E-01 -0.19905616474E-02  0.10202864861E+01  0.10200124989E+01 0.  0.
     999903    2    3    3    0    0 -0.62754580788E-01  0.12508717859E-01 -0.11418578318E+00  0.13142125128E+00  0.11770589516E-01 0.  0.
         14    1    1    2    0    0  0.15868702782E-01  0.17413721206E-01  0.19905616474E-02  0.23643513907E-01  0.00000000000E+00 0.  1.
     999901    1    3    3    0    0  0.46885878005E-01 -0.29922439065E-01  0.11219522153E+00  0.88886523481E+00  0.88000000000E+00 0.  1.
        -11    1    4    4    0    0 -0.17342804758E-01  0.87730930645E-02 -0.36600548280E-01  0.41443953651E-01  0.51100000000E-03 0. -1.
         11    1    4    4    0    0 -0.45411776030E-01  0.37356247947E-02 -0.77585234896E-01  0.89977297634E-01  0.51100000000E-03 0.  1.
</event>
<event>
 8    1  0.1114686E+005  0.1043930E+01  0.7957747E-01            NaN
         13   -1    0    0    0    0  0.00000000000E+00  0.00000000000E+00  0.74505805969E-08  0.10566000000E+00  0.10566000000E+00 0.  1.
     999900   -1    0    0    0    0 -0.00000000000E+00 -0.00000000000E+00 -0.74505805969E-08  0.93827000000E+00  0.93827000000E+00 0.  1.
     999902    2    1    2    0    0  0.30524413328E-02 -0.22495261837E-01 -0.52136034384E-03  0.10212225999E+01  0.10209701134E+01 0.  0.
     999903    2    3    3    0    0  0.33292802388E-01 -0.41986467873E-01  0.11711553887E+00  0.13266600259E+00  0.31826790958E-01 0.  0.
         14    1    1    2    0    0 -0.30524413328E-02  0.22495261837E-01  0.52136034384E-03  0.22707400111E-01  0.00000000000E+00 0.  1.
     999901    1    3    3    0    0 -0.30240361056E-01  0.19491206036E-01 -0.11763689921E+00  0.88855659730E+00  0.88000000000E+00 0.  1.
        -11    1    4    4    0    0  0.29715141194E-01 -0.43529796498E-01  0.82976556190E-01  0.98301591022E-01  0.51100000000E-03 0. -1.
         11    1    4    4    0    0  0.35776611942E-02  0.15433286253E-02  0.34138982680E-01  0.34364411566E-01  0.51100000000E-03 0.  1.
</event>
<event>
 8    1  0.1114686E+005  0.1043930E+01  0.7957747E-01            NaN
         13   -1    0    0    0    0  0.00000000000E+00  0.00000000000E+00  0.74505805969E-08  0.10566000000E+00  0.10566000000E+00 0.  1.
     999900   -1    0    0    0    0 -0.00000000000E+00 -0.00000000000E+00 -0.74505805969E-08  0.93827000000E+00  0.93827000000E+00 0. -1.
     999902    2    1    2    0    0  0.27421855034E-02 -0.13090173724E-02  0.23356128167E-01  0.10203770420E+01  0.10201051740E+01 0.  0.
     999903    2    3    3    0    0 -0.12675403795E+00  0.23500861389E-01  0.29845779997E-02  0.13032097521E+00  0.18861925954E-01 0.  0.
         14    1    1    2    0    0 -0.27421855034E-02  0.13090173724E-02 -0.23356128167E-01  0.23552958005E-01  0.00000000000E+00 0. -1.
     999901    1    3    3    0    0  0.12949622345E+00 -0.24809878762E-01  0.20371550167E-01  0.89005606679E+00  0.88000000000E+00 0.  1.
        -11    1    4    4    0    0 -0.43554146990E-01  0.23156680471E-03 -0.34066852685E-02  0.43690776701E-01  0.51100000000E-03 0. -1.
         11    1    4    4    0    0 -0.83199890958E-01  0.23269294584E-01  0.63912632682E-02  0.86630198505E-01  0.51100000000E-03 0.  1.
</event>
<event>
 8    1  0.1114686E+005  0.1043930E+01  0.7957747E-01            NaN
         13   -1    0    0    0    0  0.00000000000E+00  0.00000000000E+00  0.74505805969E-08  0.10566000000E+00  0.10566000000E+00 0.  1.
     999900   -1    0    0    0    0 -0.00000000000E+00 -0.00000000000E+00 -0.74505805969E-08  0.93827000000E+00  0.93827000000E+00 0. -1.
     999902    2    1    2    0    0 -0.14918184174E-02  0.63178877355E-02  0.16169103766E-01  0.10265064199E+01  0.10263585382E+01 0.  0.
     999903    2    3    3    0    0 -0.22699029279E-01  0.76434064396E-01 -0.10702650398E+00  0.13491055751E+00  0.19717348813E-01 0.  0.
         14    1    1    2    0    0  0.14918184174E-02 -0.63178877355E-02 -0.16169103766E-01  0.17423580121E-01  0.00000000000E+00 0. -1.
     999901    1    3    3    0    0  0.21207210862E-01 -0.70116176660E-01  0.12319560774E+00  0.89159586237E+00  0.88000000000E+00 0.  1.
        -11    1    4    4    0    0 -0.81877634591E-02  0.58985191759E-02 -0.12297462166E-01  0.15916051509E-01  0.51100000000E-03 0.  1.
         11    1    4    4    0    0 -0.14511265820E-01  0.70535545220E-01 -0.94729041813E-01  0.11899450600E+00  0.51100000000E-03 0. -1.
</event>
<event>
 8    1  0.1114686E+005  0.1043930E+01  0.7957747E-01            NaN
         13   -1    0    0    0    0  0.00000000000E+00  0.00000000000E+00  0.74505805969E-08  0.10566000000E+00  0.10566000000E+00 0. -1.
     999900   -1    0    0    0    0 -0.00000000000E+00 -0.00000000000E+00 -0.74505805969E-08  0.93827000000E+00  0.93827000000E+00 0.  1.
     999902    2    1    2    0    0  0.23743803688E-01  0.36703863811E-02 -0.93844651753E-03  0.10198858608E+01  0.10196023972E+01 0.  0.
     999903    2    3    3    0    0 -0.90252464067E-01  0.82478929642E-01 -0.34049244768E-01  0.12842511541E+00  0.19631049196E-01 0.  0.
         14    1    1    2    0    0 -0.23743803688E-01 -0.36703863811E-02  0.93844651753E-03  0.24044139237E-01  0.00000000000E+00 0.  1.
     999901    1    3    3    0    0  0.11399626776E+00 -0.78808543261E-01  0.33110798251E-01  0.89146074536E+00  0.88000000000E+00 0. -1.
        -11    1    4    4    0    0 -0.52094721717E-01  0.47994511165E-01 -0.96226074507E-02  0.71485584756E-01  0.51100000000E-03 0.  1.
         11    1    4    4    0    0 -0.38157742350E-01  0.34484418477E-01 -0.24426637318E-01  0.56939530650E-01  0.51100000000E-03 0. -1.
</event>
<event>
 8    1  0.1114686E+005  0.1043930E+01  0.7957747E-01            NaN
         13   -1    0    0    0    0  0.00000000000E+00  0.00000000000E+00  0.74505805969E-08  0.10566000000E+00  0.10566000000E+00 0.  1.
     999900   -1    0    0    0    0 -0.00000000000E+00 -0.00000000000E+00 -0.74505805969E-08  0.93827000000E+00  0.93827000000E+00 0. -1.
     999902    2    1    2    0    0 -0.18761053615E-01 -0.73668053024E-02  0.16231845922E-01  0.10180510554E+01  0.10177220797E+01 0.  0.
     999903    2    3    3    0    0  0.44874739928E-01 -0.17554080821E-01 -0.11482381351E+00  0.12601468802E+00  0.19321113070E-01 0.  0.
         14    1    1    2    0    0  0.18761053615E-01  0.73668053024E-02 -0.16231845922E-01  0.25878944630E-01  0.00000000000E+00 0. -1.
     999901    1    3    3    0    0 -0.63635793543E-01  0.10187275519E-01  0.13105565944E+00  0.89203636735E+00  0.88000000000E+00 0.  1.
        -11    1    4    4    0    0  0.28184029342E-01 -0.30701218552E-02 -0.49425728931E-01  0.56981830083E-01  0.51100000000E-03 0. -1.
         11    1    4    4    0    0  0.16690710586E-01 -0.14483958966E-01 -0.65398084582E-01  0.69032857939E-01  0.51100000000E-03 0.  1.
</event>
<event>
 8    1  0.1114686E+005  0.1043930E+01  0.7957747E-01            NaN
         13   -1    0    0    0    0  0.00000000000E+00  0.00000000000E+00  0.74505805969E-08  0.10566000000E+00  0.10566000000E+00 0. -1.
     999900   -1    0    0    0    0 -0.00000000000E+00 -0.00000000000E+00 -0.74505805969E-08  0.93827000000E+00  0.93827000000E+00 0. -1.
     999902    2    1    2    0    0  0.92078347840E-02  0.19145592388E-01 -0.95051991785E-03  0.10226640315E+01  0.10224428981E+01 0.  0.
     999903    2    3    3    0    0  0.63807283470E-02 -0.12676909118E+00  0.23045215481E-01  0.13032167412E+00  0.18480817473E-01 0.  0.
         14    1    1    2    0    0 -0.92078347840E-02 -0.19145592388E-01  0.95051991785E-03  0.21265968528E-01  0.00000000000E+00 0. -1.
     999901    1    3    3    0    0  0.28271064370E-02  0.14591468357E+00 -0.23995735399E-01  0.89234235736E+00  0.88000000000E+00 0.  1.
        -11    1    4    4    0    0  0.58775523093E-02 -0.11544944082E+00  0.26234301928E-01  0.11853952390E+00  0.51100000000E-03 0.  1.
         11    1    4    4    0    0  0.50317603772E-03 -0.11319650364E-01 -0.31890864471E-02  0.11782150222E-01  0.51100000000E-03 0. -1.
</event>
<event>
 7    1  0.1114686E+005  0.1043930E+01  0.7957747E-01            NaN
         13   -1    0    0    0    0  0.00000000000E+00  0.00000000000E+00  0.74505805969E-08  0.10566000000E+00  0.10566000000E+00 0. -1.
     999900   -1    0    0    0    0 -0.00000000000E+00 -0.00000000000E+00 -0.74505805969E-08  0.93827000000E+00  0.93827000000E+00 0.  1.
     999902    2    1    2    0    0 -0.16185712294E-01  0.32606724283E-02 -0.23505405035E-01  0.10152052140E+01  0.10147987550E+01 0.  0.
         14    1    1    2    0    0  0.16185712294E-01 -0.32606724283E-02  0.23505405035E-01  0.28724786039E-01  0.00000000000E+00 0. -1.
     999901    1    3    3    0    0  0.67974351498E-01 -0.45921098191E-02  0.50028383666E-01  0.88405002070E+00  0.88000000000E+00 0. -1.
        -11    1    3    3    0    0 -0.51565605588E-01 -0.25651870210E-01 -0.22200051842E-01  0.61726279231E-01  0.51100000000E-03 0. -1.
         11    1    3    3    0    0 -0.32594458205E-01  0.33504652457E-01 -0.51333736859E-01  0.69428914026E-01  0.51100000000E-03 0.  1.
</event>
<event>
 8    1  0.1114686E+005  0.1043930E+01  0.7957747E-01            NaN
         13   -1    0    0    0    0  0.00000000000E+00  0.00000000000E+00  0.74505805969E-08  0.10566000000E+00  0.10566000000E+00 0.  1.
     999900   -1    0    0    0    0 -0.00000000000E+00 -0.00000000000E+00 -0.74505805969E-08  0.93827000000E+00  0.93827000000E+00 0. -1.
     999902    2    1    2    0    0  0.16582034374E-01  0.10550602039E-01  0.12783729914E-01  0.10204842580E+01  0.10202148882E+01 0.  0.
     999903    2    3    3    0    0  0.63786268911E-01  0.67273165960E-01 -0.90885938402E-01  0.13133124016E+00  0.19831134149E-01 0.  0.
         14    1    1    2    0    0 -0.16582034374E-01 -0.10550602039E-01 -0.12783729914E-01  0.23445741999E-01  0.00000000000E+00 0. -1.
     999901    1    3    3    0    0 -0.47204234537E-01 -0.56722563921E-01  0.10366966832E+00  0.88915301785E+00  0.88000000000E+00 0.  1.
        -11    1    4    4    0    0  0.13439800828E-01  0.19433474415E-01 -0.34768994873E-01  0.42040840853E-01  0.51100000000E-03 0.  1.
         11    1    4    4    0    0  0.50346468083E-01  0.47839691545E-01 -0.56116943529E-01  0.89290399302E-01  0.51100000000E-03 0. -1.
</event>
<event>
 8    1  0.1114686E+005  0.1043930E+01  0.7957747E-01            NaN
         13   -1    0    0    0    0  0.00000000000E+00  0.00000000000E+00  0.74505805969E-08  0.10566000000E+00  0.10566000000E+00 0. -1.
     999900   -1    0    0    0    0 -0.00000000000E+00 -0.00000000000E+00 -0.74505805969E-08  0.93827000000E+00  0.93827000000E+00 0. -1.
     999902    2    1    2    0    0  0.16298461484E-01  0.77461963670E-02  0.17008244150E-01  0.10191323434E+01  0.10188306089E+01 0.  0.
     999903    2    3    3    0    0  0.24235469050E-01 -0.11063374183E-01  0.12774442436E+00  0.13195744650E+00  0.19605446279E-01 0.  0.
         14    1    1    2    0    0 -0.16298461484E-01 -0.77461963670E-02 -0.17008244150E-01  0.24797656623E-01  0.00000000000E+00 0.  1.
     999901    1    3    3    0    0 -0.79370075655E-02  0.18809570550E-01 -0.11073618021E+00  0.88717489687E+00  0.88000000000E+00 0. -1.
        -11    1    4    4    0    0  0.95218683695E-02  0.21090366993E-02  0.18284803869E-01  0.20729428033E-01  0.51100000000E-03 0.  1.
         11    1    4    4    0    0  0.14713600680E-01 -0.13172410883E-01  0.10945962049E+00  0.11122801847E+00  0.51100000000E-03 0. -1.
</event>
<event>
 8    1  0.1114686E+005  0.1043930E+01  0.7957747E-01            NaN
         13   -1    0    0    0    0  0.00000000000E+00  0.00000000000E+00  0.74505805969E-08  0.10566000000E+00  0.10566000000E+00 0.  1.
     999900   -1    0    0    0    0 -0.00000000000E+00 -0.00000000000E+00 -0.74505805969E-08  0.93827000000E+00  0.93827000000E+00 0.  1.
     999902    2    1    2    0    0 -0.66152774695E-02  0.66900201822E-02  0.19288657241E-01  0.10224690922E+01  0.10222438427E+01 0.  0.
     999903    2    3    3    0    0  0.56595235164E-02  0.85137586476E-01 -0.97801976199E-01  0.13116953096E+00  0.18967879881E-01 0.  0.
         14    1    1    2    0    0  0.66152774695E-02 -0.66900201822E-02 -0.19288657241E-01  0.21460907814E-01  0.00000000000E+00 0. -1.
     999901    1    3    3    0    0 -0.12274800986E-01 -0.78447566294E-01  0.11709063344E+00  0.89129956122E+00  0.88000000000E+00 0. -1.
        -11    1    4    4    0    0  0.23513136968E-02  0.29701028031E-01 -0.48410033299E-01  0.56846039328E-01  0.51100000000E-03 0. -1.
         11    1    4    4    0    0  0.33082098195E-02  0.55436558445E-01 -0.49391942900E-01  0.74323491635E-01  0.51100000000E-03 0.  1.
</event>
<event>
 8    1  0.1114686E+005  0.1043930E+01  0.7957747E-01            NaN
         13   -1    0    0    0    0  0.00000000000E+00  0.00000000000E+00  0.74505805969E-08  0.10566000000E+00  0.10566000000E+00 0. -1.
     999900   -1    0    0    0    0 -0.00000000000E+00 -0.00000000000E+00 -0.74505805969E-08  0.93827000000E+00  0.93827000000E+00 0.  1.
     999902    2    1    2    0    0  0.34444717403E-02  0.15544018725E-01 -0.17470434741E-01  0.10202932279E+01  0.10200193988E+01 0.  0.
     999903    2    3    3    0    0  0.11065972608E-01 -0.12635337344E+00  0.42335607218E-02  0.12862960268E+00  0.20976675649E-01 0.  0.
         14    1    1    2    0    0 -0.34444717403E-02 -0.15544018725E-01  0.17470434741E-01  0.23636772066E-01  0.00000000000E+00 0. -1.
     999901    1    3    3    0    0 -0.76215008679E-02  0.14189739216E+00 -0.21703995463E-01  0.89166362525E+00  0.88000000000E+00 0. -1.
        -11    1    4    4    0    0  0.18909824855E-02 -0.86384933318E-01 -0.51433667243E-02  0.86560082379E-01  0.51100000000E-03 0.  1.
         11    1    4    4    0    0  0.91749901228E-02 -0.39968440118E-01  0.93769274460E-02  0.42069520303E-01  0.51100000000E-03 0. -1.
</event>
<event>
 8    1  0.1114686E+005  0.1043930E+01  0.7957747E-01            NaN
         13   -1    0    0    0    0  0.00000000000E+00  0.00000000000E+00  0.74505805969E-08  0.10566000000E+00  0.10566000000E+00 0.  1.
     999900   -1    0    0    0    0 -0.00000000000E+00 -0.00000000000E+00 -0.74505805969E-08  0.93827000000E+00  0.93827000000E+00 0.  1.
     999902    2    1    2    0    0 -0.21127485507E-01  0.10002448419E-01  0.50405875578E-02  0.10200170926E+01  0.10197367513E+01 0.  0.
     999903    2    3    3    0    0  0.72975811277E-01 -0.95366738424E-01  0.39949333166E-01  0.12806601964E+00  0.19613065472E-01 0.  0.
         14    1    1    2    0    0  0.21127485507E-01 -0.10002448419E-01 -0.50405875578E-02  0.23912907417E-01  0.00000000000E+00 0.  1.
     999901    1    3    3    0    0 -0.94103296784E-01  0.10536918684E+00 -0.34908745608E-01  0.89195107294E+00  0.88000000000E+00 0.  1.
        -11    1    4    4    0    0  0.27566904378E-01 -0.21826639346E-01  0.94719369912E-02  0.36418609439E-01  0.51100000000E-03 0. -1.
         11    1    4    4    0    0  0.45408906899E-01 -0.73540099078E-01  0.30477396175E-01  0.91647410202E-01  0.51100000000E-03 0.  1.
</event>
<event>
 8    1  0.1114686E+005  0.1043930E+01  0.7957747E-01            NaN
         13   -1    0    0    0    0  0.00000000000E+00  0.00000000000E+00  0.74505805969E-08  0.10566000000E+00  0.10566000000E+00 0.  1.
     999900   -1    0    0    0    0 -0.00000000000E+00 -0.00000000000E+00 -0.74505805969E-08  0.93827000000E+00  0.93827000000E+00 0.  1.
     999902    2    1    2    0    0 -0.84127973756E-02  0.18322617027E-02 -0.23168904267E-01  0.10192129923E+01  0.10189132413E+01 0.  0.
     999903    2    3    3    0    0  0.42697215029E-01 -0.11088688896E+00  0.42090976404E-01  0.12815929457E+00  0.23112770793E-01 0.  0.
         14    1    1    2    0    0  0.84127973756E-02 -0.18322617027E-02  0.23168904267E-01  0.24717007658E-01  0.00000000000E+00 0.  1.
     999901    1    3    3    0    0 -0.51110012404E-01  0.11271915067E+00 -0.65259880671E-01  0.89105369778E+00  0.88000000000E+00 0.  1.
        -11    1    4    4    0    0  0.16978445008E-01 -0.74930303090E-01  0.27423499462E-01  0.81578963954E-01  0.51100000000E-03 0. -1.
         11    1    4    4    0    0  0.25718770021E-01 -0.35956585874E-01  0.14667476942E-01  0.46580330612E-01  0.51100000000E-03 0.  1.
</event>
<event>
 8    1  0.1114686E+005  0.1043930E+01  0.7957747E-01            NaN
         13   -1    0    0    0    0  0.00000000000E+00  0.00000000000E+00  0.74505805969E-08  0.10566000000E+00  0.10566000000E+00 0. -1.
     999900   -1    0    0    0    0 -0.00000000000E+00 -0.00000000000E+00 -0.74505805969E-08  0.93827000000E+00  0.93827000000E+00 0.  1.
     999902    2    1    2    0    0 -0.22478395511E-01  0.55903460163E-02 -0.50632340292E-02  0.10202199479E+01  0.10199443982E+01 0.  0.
     999903    2    3    3    0    0 -0.35336252931E-01  0.20598436097E-01  0.12257149706E+00  0.13079249616E+00  0.20247439874E-01 0.  0.
         14    1    1    2    0    0  0.22478395511E-01 -0.55903460163E-02  0.50632340292E-02  0.23710052133E-01  0.00000000000E+00 0.  1.
     999901    1    3    3    0    0  0.12857857420E-01 -0.15008090081E-01 -0.12763473108E+00  0.88942745170E+00  0.88000000000E+00 0.  1.
        -11    1    4    4    0    0 -0.36167736712E-02  0.11942077299E-01  0.27736910633E-01  0.30418606057E-01  0.51100000000E-03 0. -1.
         11    1    4    4    0    0 -0.31719479260E-01  0.86563587982E-02  0.94834586422E-01  0.10037389011E+00  0.51100000000E-03 0.  1.
</event>
<event>
 8    1  0.1114686E+005  0.1043930E+01  0.7957747E-01            NaN
         13   -1    0    0    0    0  0.00000000000E+00  0.00000000000E+00  0.74505805969E-08  0.10566000000E+00  0.10566000000E+00 0. -1.
     999900   -1    0    0    0    0 -0.00000000000E+00 -0.00000000000E+00 -0.74505805969E-08  0.93827000000E+00  0.93827000000E+00 0.  1.
     999902    2    1    2    0    0 -0.29012010047E-02  0.22679650218E-01 -0.16659780613E-01  0.10156398641E+01  0.10152457839E+01 0.  0.
     999903    2    3    3    0    0 -0.67017356398E-01  0.42400850158E-01  0.95710864198E-01  0.12596184988E+00  0.20412249910E-01 0.  0.
         14    1    1    2    0    0  0.29012010047E-02 -0.22679650218E-01  0.16659780613E-01  0.28290135937E-01  0.00000000000E+00 0.  1.
     999901    1    3    3    0    0  0.64116155393E-01 -0.19721199941E-01 -0.11237064481E+00  0.88967801419E+00  0.88000000000E+00 0.  1.
        -11    1    4    4    0    0 -0.41351327071E-01  0.25362809957E-01  0.42603901320E-01  0.64564370268E-01  0.51100000000E-03 0.  1.
         11    1    4    4    0    0 -0.25666029327E-01  0.17038040201E-01  0.53106962877E-01  0.61397479609E-01  0.51100000000E-03 0. -1.
</event>
<event>
 8    1  0.1114686E+005  0.1043930E+01  0.7957747E-01            NaN
         13   -1    0    0    0    0  0.00000000000E+00  0.00000000000E+00  0.74505805969E-08  0.10566000000E+00  0.10566000000E+00 0. -1.
     999900   -1    0    0    0    0 -0.00000000000E+00 -0.00000000000E+00 -0.74505805969E-08  0.93827000000E+00  0.93827000000E+00 0. -1.
     999902    2    1    2    0    0  0.15552542323E-01  0.16693656540E-01  0.57811283559E-02  0.10203931951E+01  0.10201217042E+01 0.  0.
     999903    2    3    3    0    0  0.11908780237E+00 -0.35283562427E-01 -0.39567248264E-01  0.13164257953E+00  0.18367557214E-01 0.  0.
         14    1    1    2    0    0 -0.15552542323E-01 -0.16693656540E-01 -0.57811283559E-02  0.23536804933E-01  0.00000000000E+00 0. -1.
     999901    1    3    3    0    0 -0.10353526005E+00  0.51977218967E-01  0.45348376620E-01  0.88875061554E+00  0.88000000000E+00 0.  1.
        -11    1    4    4    0    0  0.90482001775E-02 -0.35260078774E-02 -0.86410742980E-02  0.13008917865E-01  0.51100000000E-03 0.  1.
         11    1    4    4    0    0  0.11003960219E+00 -0.31757554549E-01 -0.30926173966E-01  0.11863366166E+00  0.51100000000E-03 0. -1.
</event>
<event>
 8    1  0.1114686E+005  0.1043930E+01  0.7957747E-01            NaN
         13   -1    0    0    0    0  0.00000000000E+00  0.00000000000E+00  0.74505805969E-08  0.10566000000E+00  0.10566000000E+00 0. -1.
     999900   -1    0    0    0    0 -0.00000000000E+00 -0.00000000000E+00 -0.74505805969E-08  0.93827000000E+00  0.93827000000E+00 0.  1.
     999902    2    1    2    0    0  0.73926029212E-02  0.16494044596E-01  0.14781072768E-01  0.10205808202E+01  0.10203136902E+01 0.  0.
     999903    2    3    3    0    0  0.85732778104E-01 -0.83618981631E-01  0.48621844357E-01  0.13080275861E+00  0.20075721175E-01 0.  0.
         14    1    1    2    0    0 -0.73926029212E-02 -0.16494044596E-01 -0.14781072768E-01  0.23349179799E-01  0.00000000000E+00 0.  1.
     999901    1    3    3    0    0 -0.78340175183E-01  0.10011302623E+00 -0.33840771589E-01  0.88977806159E+00  0.88000000000E+00 0.  1.
        -11    1    4    4    0    0  0.38522737047E-01 -0.48795433961E-01  0.18557947048E-01  0.64881847728E-01  0.51100000000E-03 0. -1.
         11    1    4    4    0    0  0.47210041058E-01 -0.34823547670E-01  0.30063897309E-01  0.65920910881E-01  0.51100000000E-03 0.  1.
</event>
<event>
 8    1  0.1114686E+005  0.1043930E+01  0.7957747E-01            NaN
         13   -1    0    0    0    0  0.00000000000E+00  0.00000000000E+00  0.74505805969E-08  0.10566000000E+00  0.10566000000E+00 0.  1.
     999900   -1    0    0    0    0 -0.00000000000E+00 -0.00000000000E+00 -0.74505805969E-08  0.93827000000E+00  0.93827000000E+00 0. -1.
     999902    2    1    2    0    0 -0.19814665454E-01  0.12610676149E-01 -0.25464327405E-02  0.10203051309E+01  0.10200315807E+01 0.  0.
     999903    2    3    3    0    0  0.84222854084E-01 -0.46126263702E-01 -0.82833823710E-01  0.12861017257E+00  0.21401233257E-01 0.  0.
         14    1    1    2    0    0  0.19814665454E-01 -0.12610676149E-01  0.25464327405E-02  0.23624869093E-01  0.00000000000E+00 0. -1.
     999901    1    3    3    0    0 -0.10403751954E+00  0.58736939850E-01  0.80287390969E-01  0.89169495834E+00  0.88000000000E+00 0.  1.
        -11    1    4    4    0    0  0.25984489621E-01 -0.79192690436E-02 -0.13530998207E-01  0.30352224902E-01  0.51100000000E-03 0.  1.
         11    1    4    4    0    0  0.58238364463E-01 -0.38206994658E-01 -0.69302825503E-01  0.98257947668E-01  0.51100000000E-03 0. -1.
</event>
<event>
 8    1  0.1114686E+005  0.1043930E+01  0.7957747E-01            NaN
         13   -1    0    0    0    0  0.00000000000E+00  0.00000000000E+00  0.74505805969E-08  0.10566000000E+00  0.10566000000E+00 0.  1.
     999900   -1    0    0    0    0 -0.00000000000E+00 -0.00000000000E+00 -0.74505805969E-08  0.93827000000E+00  0.93827000000E+00 0. -1.
     999902    2    1    2    0    0 -0.10029751989E-01  0.14518859237E-01 -0.15689139823E-01  0.10203176662E+01  0.10200444097E+01 0.  0.
     999903    2    3    3    0    0  0.92259287551E-01 -0.82420716306E-01 -0.20860779606E-01  0.12908981949E+00  0.30398334728E-01 0.  0.
         14    1    1    2    0    0  0.10029751989E-01 -0.14518859237E-01  0.15689139823E-01  0.23612333788E-01  0.00000000000E+00 0.  1.
     999901    1    3    3    0    0 -0.10228903954E+00  0.96939575543E-01  0.51716397833E-02  0.89122784672E+00  0.88000000000E+00 0.  1.
        -11    1    4    4    0    0  0.77986789141E-01 -0.52567468892E-01 -0.18952492055E-01  0.95941316138E-01  0.51100000000E-03 0.  1.
         11    1    4    4    0    0  0.14272498409E-01 -0.29853247415E-01 -0.19082875516E-02  0.33148503351E-01  0.51100000000E-03 0. -1.
</event>
<event>
 8    1  0.1114686E+005  0.1043930E+01  0.7957747E-01            NaN
         13   -1    0    0    0    0  0.00000000000E+00  0.00000000000E+00  0.74505805969E-08  0.10566000000E+00  0.10566000000E+00 0. -1.
     999900   -1    0    0    0    0 -0.00000000000E+00 -0.00000000000E+00 -0.74505805969E-08  0.93827000000E+00  0.93827000000E+00 0. -1.
     999902    2    1    2    0    0 -0.13236558153E-02  0.25564715381E-01  0.59913964758E-02  0.10176392494E+01  0.10172995814E+01 0.  0.
     999903    2    3    3    0    0  0.64220819376E-01 -0.10595786668E+00  0.44070604171E-02  0.12545273414E+00  0.19172458632E-01 0.  0.
         14    1    1    2    0    0  0.13236558153E-02 -0.25564715381E-01 -0.59913964758E-02  0.26290750635E-01  0.00000000000E+00 0.  1.
     999901    1    3    3    0    0 -0.65544475192E-01  0.13152258206E+00  0.15843360586E-02  0.89218651522E+00  0.88000000000E+00 0. -1.
        -11    1    4    4    0    0  0.31299556168E-01 -0.55726107859E-01 -0.70660551736E-02  0.64305921734E-01  0.51100000000E-03 0. -1.
         11    1    4    4    0    0  0.32921263209E-01 -0.50231758821E-01  0.11473115591E-01  0.61146812410E-01  0.51100000000E-03 0.  1.
</event>
<event>
 8    1  0.1114686E+005  0.1043930E+01  0.7957747E-01            NaN
         13   -1    0    0    0    0  0.00000000000E+00  0.00000000000E+00  0.74505805969E-08  0.10566000000E+00  0.10566000000E+00 0.  1.
     999900   -1    0    0    0    0 -0.00000000000E+00 -0.00000000000E+00 -0.74505805969E-08  0.93827000000E+00  0.93827000000E+00 0.  1.
     999902    2    1    2    0    0 -0.20934622098E-01 -0.11049827268E-01  0.57886706572E-02  0.10195606382E+01  0.10192693605E+01 0.  0.
     999903    2    3    3    0    0 -0.82498942606E-01 -0.75178862255E-01 -0.67399436917E-01  0.13205897751E+00  0.20951195289E-01 0.  0.
         14    1    1    2    0    0  0.20934622098E-01  0.11049827268E-01 -0.57886706572E-02  0.24369361769E-01  0.00000000000E+00 0. -1.
     999901    1    3    3    0    0  0.61564320508E-01  0.64129034987E-01  0.73188107574E-01  0.88750166072E+00  0.88000000000E+00 0.  1.
        -11    1    4    4    0    0 -0.80524255386E-01 -0.71014437931E-01 -0.59113549651E-01  0.12256377513E+00  0.51100000000E-03 0.  1.
         11    1    4    4    0    0 -0.19746872201E-02 -0.41644243235E-02 -0.82858872655E-02  0.94952023854E-02  0.51100000000E-03 0. -1.
</event>
<event>
 8    1  0.1114686E+005  0.1043930E+01  0.7957747E-01            NaN
         13   -1    0    0    0    0  0.00000000000E+00  0.00000000000E+00  0.74505805969E-08  0.10566000000E+00  0.10566000000E+00 0.  1.
     999900   -1    0    0    0    0 -0.00000000000E+00 -0.00000000000E+00 -0.74505805969E-08  0.93827000000E+00  0.93827000000E+00 0. -1.
     999902    2    1    2    0    0  0.63290005160E-02  0.26689185008E-02 -0.20521323831E-01  0.10222896649E+01  0.10220605925E+01 0.  0.
     999903    2    3    3    0    0 -0.96765138860E-01 -0.90881284190E-02 -0.89288030458E-01  0.13352901672E+00  0.20286935376E-01 0.  0.
         14    1    1    2    0    0 -0.63290005160E-02 -0.26689185008E-02  0.20521323831E-01  0.21640335147E-01  0.00000000000E+00 0.  1.
     999901    1    3    3    0    0  0.10309413938E+00  0.11757046920E-01  0.68766706626E-01  0.88876064813E+00  0.88000000000E+00 0.  1.
        -11    1    4    4    0    0 -0.80617158773E-01 -0.63088450036E-02 -0.83249372371E-01  0.11605880809E+00  0.51100000000E-03 0. -1.
         11    1    4    4    0    0 -0.16147980087E-01 -0.27792834153E-02 -0.60386580872E-02  0.17470208633E-01  0.51100000000E-03 0.  1.
</event>
<event>
 8    1  0.1114686E+005  0.1043930E+01  0.7957747E-01            NaN
         13   -1    0    0    0    0  0.00000000000E+00  0.00000000000E+00  0.74505805969E-08  0.10566000000E+00  0.10566000000E+00 0. -1.
     999900   -1    0    0    0    0 -0.00000000000E+00 -0.00000000000E+00 -0.74505805969E-08  0.93827000000E+00  0.93827000000E+00 0. -1.
     999902    2    1    2    0    0  0.21457336418E-01 -0.83656083036E-02  0.28783540952E-02  0.10207203983E+01  0.10204564890E+01 0.  0.
     999903    2    3    3    0    0 -0.77277898268E-03 -0.12283184265E+00 -0.44368868373E-01  0.13177214511E+00  0.17522642218E-01 0.  0.
         14    1    1    2    0    0 -0.21457336418E-01  0.83656083036E-02 -0.28783540952E-02  0.23209601693E-01  0.00000000000E+00 0.  1.
     999901    1    3    3    0    0  0.22230115401E-01  0.11446623434E+00  0.47247222468E-01  0.88894825320E+00  0.88000000000E+00 0.  1.
        -11    1    4    4    0    0  0.56026777191E-02 -0.73326447835E-01 -0.19934621474E-01  0.76195854245E-01  0.51100000000E-03 0. -1.
         11    1    4    4    0    0 -0.63754567018E-02 -0.49505394811E-01 -0.24434246899E-01  0.55576290863E-01  0.51100000000E-03 0.  1.
</event>
<event>
 8    1  0.1114686E+005  0.1043930E+01  0.7957747E-01            NaN
         13   -1    0    0    0    0  0.00000000000E+00  0.00000000000E+00  0.74505805969E-08  0.10566000000E+00  0.10566000000E+00 0. -1.
     999900   -1    0    0    0    0 -0.00000000000E+00 -0.00000000000E+00 -0.74505805969E-08  0.93827000000E+00  0.93827000000E+00 0. -1.
     999902    2    1    2    0    0 -0.91740398092E-02  0.18355789963E-01  0.11945489598E-01  0.10201856796E+01  0.10199093234E+01 0.  0.
     999903    2    3    3    0    0 -0.11821742866E+00 -0.27325035289E-01 -0.43941769325E-01  0.13052249376E+00  0.19576115404E-01 0.  0.
         14    1    1    2    0    0  0.91740398092E-02 -0.18355789963E-01 -0.11945489598E-01  0.23744320444E-01  0.00000000000E+00 0.  1.
     999901    1    3    3    0    0  0.10904338885E+00  0.45680825252E-01  0.55887258924E-01  0.88966318579E+00  0.88000000000E+00 0.  1.
        -11    1    4    4    0    0 -0.10423278382E+00 -0.17591212849E-01 -0.35576551866E-01  0.11153419277E+00  0.51100000000E-03 0. -1.
         11    1    4    4    0    0 -0.13984644835E-01 -0.97338224394E-02 -0.83652174591E-02  0.18988300992E-01  0.51100000000E-03 0.  1.
</event>
<event>
 8    1  0.1114686E+005  0.1043930E+01  0.7957747E-01            NaN
         13   -1    0    0    0    0  0.00000000000E+00  0.00000000000E+00  0.74505805969E-08  0.10566000000E+00  0.10566000000E+00 0. -1.
     999900   -1    0    0    0    0 -0.00000000000E+00 -0.00000000000E+00 -0.74505805969E-08  0.93827000000E+00  0.93827000000E+00 0.  1.
     999902    2    1    2    0    0  0.12346900475E-01  0.18277150574E-01  0.88350413966E-02  0.10201695677E+01  0.10198928320E+01 0.  0.
     999903    2    3    3    0    0 -0.18170851776E-01  0.55782803880E-01 -0.11458732211E+00  0.13024199370E+00  0.19769205137E-01 0.  0.
         14    1    1    2    0    0 -0.12346900475E-01 -0.18277150574E-01 -0.88350413966E-02  0.23760432255E-01  0.00000000000E+00 0.  1.
     999901    1    3    3    0    0  0.30517752251E-01 -0.37505653306E-01  0.12342236351E+00  0.88992757405E+00  0.88000000000E+00 0. -1.
        -11    1    4    4    0    0 -0.46051237346E-02  0.12639787904E-01 -0.47210983727E-01  0.49092866166E-01  0.51100000000E-03 0. -1.
         11    1    4    4    0    0 -0.13565728041E-01  0.43143015975E-01 -0.67376338383E-01  0.81149127534E-01  0.51100000000E-03 0.  1.
</event>
<event>
 8    1  0.1114686E+005  0.1043930E+01  0.7957747E-01            NaN
         13   -1    0    0    0    0  0.00000000000E+00  0.00000000000E+00  0.74505805969E-08  0.10566000000E+00  0.10566000000E+00 0.  1.
     999900   -1    0    0    0    0 -0.00000000000E+00 -0.00000000000E+00 -0.74505805969E-08  0.93827000000E+00  0.93827000000E+00 0. -1.
     999902    2    1    2    0    0 -0.10968904533E-01 -0.18195153366E-01 -0.11103529806E-01  0.10199577484E+01  0.10196759974E+01 0.  0.
     999903    2    3    3    0    0  0.34110258875E-01  0.11497509096E-01  0.12162452150E+00  0.12836898626E+00  0.19757781387E-01 0.  0.
         14    1    1    2    0    0  0.10968904533E-01  0.18195153366E-01  0.11103529806E-01  0.23972251600E-01  0.00000000000E+00 0. -1.
     999901    1    3    3    0    0 -0.45079163407E-01 -0.29692662462E-01 -0.13272805131E+00  0.89158876214E+00  0.88000000000E+00 0. -1.
        -11    1    4    4    0    0  0.19984837906E-01  0.16341460566E-01  0.69342491355E-01  0.73993778845E-01  0.51100000000E-03 0. -1.
         11    1    4    4    0    0  0.14125420969E-01 -0.48439514697E-02  0.52282030149E-01  0.54375207410E-01  0.51100000000E-03 0.  1.
</event>
<event>
 8    1  0.1114686E+005  0.1043930E+01  0.7957747E-01            NaN
         13   -1    0    0    0    0  0.00000000000E+00  0.00000000000E+00  0.74505805969E-08  0.10566000000E+00  0.10566000000E+00 0.  1.
     999900   -1    0    0    0    0 -0.00000000000E+00 -0.00000000000E+00 -0.74505805969E-08  0.93827000000E+00  0.93827000000E+00 0. -1.
     999902    2    1    2    0    0  0.11410944594E-01 -0.15038163547E-01  0.13784662801E-01  0.10205553781E+01  0.10202876589E+01 0.  0.
     999903    2    3    3    0    0 -0.92728265411E-01 -0.32432679837E-01  0.85017855689E-01  0.13138626483E+00  0.19593490590E-01 0.  0.
         14    1    1    2    0    0 -0.11410944594E-01  0.15038163547E-01 -0.13784662801E-01  0.23374621878E-01  0.00000000000E+00 0. -1.
     999901    1    3    3    0    0  0.10413921000E+00  0.17394516289E-01 -0.71233192888E-01  0.88916911329E+00  0.88000000000E+00 0. -1.
        -11    1    4    4    0    0 -0.65427094149E-01 -0.13343375526E-01  0.54242671421E-01  0.86030685474E-01  0.51100000000E-03 0. -1.
         11    1    4    4    0    0 -0.27301171262E-01 -0.19089304311E-01  0.30775184268E-01  0.45355579360E-01  0.51100000000E-03 0.  1.
</event>
<event>
 8    1  0.1114686E+005  0.1043930E+01  0.7957747E-01            NaN
         13   -1    0    0    0    0  0.00000000000E+00  0.00000000000E+00  0.74505805969E-08  0.10566000000E+00  0.10566000000E+00 0. -1.
     999900   -1    0    0    0    0 -0.00000000000E+00 -0.00000000000E+00 -0.74505805969E-08  0.93827000000E+00  0.93827000000E+00 0. -1.
     999902    2    1    2    0    0 -0.91186733301E-02  0.68255198864E-02  0.19408837777E-01  0.10214257580E+01  0.10211778191E+01 0.  0.
     999903    2    3    3    0    0 -0.52230917004E-01  0.68151299770E-01  0.10145675082E+00  0.13443569216E+00  0.20169647710E-01 0.  0.
         14    1    1    2    0    0  0.91186733301E-02 -0.68255198864E-02 -0.19408837777E-01  0.22504242019E-01  0.00000000000E+00 0.  1.
     999901    1    3    3    0    0  0.43112243674E-01 -0.61325779884E-01 -0.82047913039E-01  0.88699006582E+00  0.88000000000E+00 0. -1.
        -11    1    4    4    0    0 -0.36122592545E-01  0.42815571980E-01  0.79421007592E-01  0.97190392859E-01  0.51100000000E-03 0. -1.
         11    1    4    4    0    0 -0.16108324459E-01  0.25335727790E-01  0.22035743223E-01  0.37245299300E-01  0.51100000000E-03 0.  1.
</event>
<event>
 8    1  0.1114686E+005  0.1043930E+01  0.7957747E-01            NaN
         13   -1    0    0    0    0  0.00000000000E+00  0.00000000000E+00  0.74505805969E-08  0.10566000000E+00  0.10566000000E+00 0. -1.
     999900   -1    0    0    0    0 -0.00000000000E+00 -0.00000000000E+00 -0.74505805969E-08  0.93827000000E+00  0.93827000000E+00 0. -1.
     999902    2    1    2    0    0 -0.18007982651E-02 -0.22878099463E-01  0.21454719860E-02  0.10208810660E+01  0.10206208393E+01 0.  0.
     999903    2    3    3    0    0 -0.32131200491E-01  0.12238469557E+00  0.74954323499E-02  0.12844068422E+00  0.20746086438E-01 0.  0.
         14    1    1    2    0    0  0.18007982651E-02  0.22878099463E-01 -0.21454719860E-02  0.23048934021E-01  0.00000000000E+00 0. -1.
     999901    1    3    3    0    0  0.30330402226E-01 -0.14526279503E+00 -0.53499603639E-02  0.89244038176E+00  0.88000000000E+00 0.  1.
        -11    1    4    4    0    0 -0.29632796797E-01  0.73226319124E-01  0.48312620354E-02  0.79144163855E-01  0.51100000000E-03 0.  1.
         11    1    4    4    0    0 -0.24984036945E-02  0.49158376444E-01  0.26641703145E-02  0.49296520365E-01  0.51100000000E-03 0. -1.
</event>
<event>
 8    1  0.1114686E+005  0.1043930E+01  0.7957747E-01            NaN
         13   -1    0    0    0    0  0.00000000000E+00  0.00000000000E+00  0.74505805969E-08  0.10566000000E+00  0.10566000000E+00 0. -1.
     999900   -1    0    0    0    0 -0.00000000000E+00 -0.00000000000E+00 -0.74505805969E-08  0.93827000000E+00  0.93827000000E+00 0. -1.
     999902    2    1    2    0    0 -0.20995720205E-01 -0.78214954050E-02  0.64355407419E-02  0.10206187958E+01  0.10203525440E+01 0.  0.
     999903    2    3    3    0    0 -0.25302348300E-01 -0.35854045278E-01 -0.11973038825E+00  0.13116828421E+00  0.30725095934E-01 0.  0.
         14    1    1    2    0    0  0.20995720205E-01  0.78214954050E-02 -0.64355407419E-02  0.23311204214E-01  0.00000000000E+00 0. -1.
     999901    1    3    3    0    0  0.43066280950E-02  0.28032549873E-01  0.12616592899E+00  0.88945051157E+00  0.88000000000E+00 0.  1.
        -11    1    4    4    0    0 -0.27197136747E-01 -0.40213979977E-01 -0.10499321396E+00  0.11567490883E+00  0.51100000000E-03 0.  1.
         11    1    4    4    0    0  0.18947884470E-02  0.43599346988E-02 -0.14737174290E-01  0.15493375388E-01  0.51100000000E-03 0. -1.
</event>
<event>
 8    1  0.1114686E+005  0.1043930E+01  0.7957747E-01            NaN
         13   -1    0    0    0    0  0.00000000000E+00  0.00000000000E+00  0.74505805969E-08  0.10566000000E+00  0.10566000000E+00 0.  1.
     999900   -1    0    0    0    0 -0.00000000000E+00 -0.00000000000E+00 -0.74505805969E-08  0.93827000000E+00  0.93827000000E+00 0.  1.
     999902    2    1    2    0    0  0.99755579742E-03  0.22830643316E-01  0.90582325676E-02  0.10193477916E+01  0.10190513409E+01 0.  0.
     999903    2    3    3    0    0  0.10188708727E+00 -0.23837228680E-01  0.74404068283E-01  0.12995099261E+00  0.20052508074E-01 0.  0.
         14    1    1    2    0    0 -0.99755579742E-03 -0.22830643316E-01 -0.90582325676E-02  0.24582208384E-01  0.00000000000E+00 0. -1.
     999901    1    3    3    0    0 -0.10088953147E+00  0.46667871996E-01 -0.65345835715E-01  0.88939679901E+00  0.88000000000E+00 0.  1.
        -11    1    4    4    0    0  0.32855492890E-01 -0.15214667148E-01  0.18271773228E-01  0.40559688453E-01  0.51100000000E-03 0. -1.
         11    1    4    4    0    0  0.69031594378E-01 -0.86225615317E-02  0.56132295055E-01  0.89391304157E-01  0.51100000000E-03 0.  1.
</event>
<event>
 8    1  0.1114686E+005  0.1043930E+01  0.7957747E-01            NaN
         13   -1    0    0    0    0  0.00000000000E+00  0.00000000000E+00  0.74505805969E-08  0.10566000000E+00  0.10566000000E+00 0.  1.
     999900   -1    0    0    0    0 -0.00000000000E+00 -0.00000000000E+00 -0.74505805969E-08  0.93827000000E+00  0.93827000000E+00 0. -1.
     999902    2    1    2    0    0 -0.12376142537E-01  0.21745474352E-01  0.24844014826E-02  0.10187862769E+01  0.10184759552E+01 0.  0.
     999903    2    3    3    0    0 -0.62861790160E-01  0.65309198655E-01  0.93544152299E-01  0.13157802804E+00  0.18584212161E-01 0.  0.
         14    1    1    2    0    0  0.12376142537E-01 -0.21745474352E-01 -0.24844014826E-02  0.25143723066E-01  0.00000000000E+00 0.  1.
     999901    1    3    3    0    0  0.50485647624E-01 -0.43563724303E-01 -0.91059750817E-01  0.88720824890E+00  0.88000000000E+00 0. -1.
        -11    1    4    4    0    0 -0.30455804145E-01  0.31495963990E-01  0.58460921726E-01  0.73058142899E-01  0.51100000000E-03 0. -1.
         11    1    4    4    0    0 -0.32405986015E-01  0.33813234665E-01  0.35083230573E-01  0.58519885138E-01  0.51100000000E-03 0.  1.
</event>
<event>
 8    1  0.1114686E+005  0.1043930E+01  0.7957747E-01            NaN
         13   -1    0    0    0    0  0.00000000000E+00  0.00000000000E+00  0.74505805969E-08  0.10566000000E+00  0.10566000000E+00 0.  1.
     999900   -1    0    0    0    0 -0.00000000000E+00 -0.00000000000E+00 -0.74505805969E-08  0.93827000000E+00  0.93827000000E+00 0. -1.
     999902    2    1    2    0    0 -0.20877051652E-01 -0.54560920927E-02  0.12501995799E-01  0.10189916736E+01  0.10186864634E+01 0.  0.
     999903    2    3    3    0    0  0.39990793435E-03  0.27327201364E-02 -0.12577174519E+00  0.12790279298E+00  0.23086032098E-01 0.  0.
         14    1    1    2    0    0  0.20877051652E-01  0.54560920927E-02 -0.12501995799E-01  0.24938326439E-01  0.00000000000E+00 0.  1.
     999901    1    3    3    0    0 -0.21276959587E-01 -0.81888122291E-02  0.13827374099E+00  0.89108888058E+00  0.88000000000E+00 0.  1.
        -11    1    4    4    0    0 -0.37015764342E-02 -0.74081572953E-02 -0.21305039595E-01  0.22863689461E-01  0.51100000000E-03 0. -1.
         11    1    4    4    0    0  0.41014843686E-02  0.10140877432E-01 -0.10446670559E+00  0.10503910352E+00  0.51100000000E-03 0.  1.
</event>
<event>
 8    1  0.1114686E+005  0.1043930E+01  0.7957747E-01            NaN
         13   -1    0    0    0    0  0.00000000000E+00  0.00000000000E+00  0.74505805969E-08  0.10566000000E+00  0.10566000000E+00 0. -1.
     999900   -1    0    0    0    0 -0.00000000000E+00 -0.00000000000E+00 -0.74505805969E-08  0.93827000000E+00  0.93827000000E+00 0. -1.
     999902    2    1    2    0    0 -0.52082351935E-02  0.84153173482E-02  0.21433114529E-01  0.10203223386E+01  0.10200491914E+01 0.  0.
     999903    2    3    3    0    0  0.57208583831E-01  0.91641500980E-02  0.11811573679E+00  0.13282926846E+00  0.18316210557E-01 0.  0.
         14    1    1    2    0    0  0.52082351935E-02 -0.84153173482E-02 -0.21433114529E-01  0.23607661432E-01  0.00000000000E+00 0.  1.
     999901    1    3    3    0    0 -0.62416819025E-01 -0.74883274975E-03 -0.96682622265E-01  0.88749307011E+00  0.88000000000E+00 0. -1.
        -11    1    4    4    0    0  0.44214185161E-03  0.28056170168E-02  0.11702088775E-01  0.12052675179E-01  0.51100000000E-03 0.  1.
         11    1    4    4    0    0  0.56766441980E-01  0.63585330812E-02  0.10641364802E+00  0.12077659328E+00  0.51100000000E-03 0. -1.
</event>
<event>
 8    1  0.1114686E+005  0.1043930E+01  0.7957747E-01            NaN
         13   -1    0    0    0    0  0.00000000000E+00  0.00000000000E+00  0.74505805969E-08  0.10566000000E+00  0.10566000000E+00 0. -1.
     999900   -1    0    0    0    0 -0.00000000000E+00 -0.00000000000E+00 -0.74505805969E-08  0.93827000000E+00  0.93827000000E+00 0. -1.
     999902    2    1    2    0    0  0.36280413898E-02  0.22180985777E-01  0.22542905197E-02  0.10213414932E+01  0.10210916732E+01 0.  0.
     999903    2    3    3    0    0 -0.11587644872E-01  0.32966526125E-01 -0.12547049316E+00  0.13192513098E+00  0.20984045689E-01 0.  0.
         14    1    1    2    0    0 -0.36280413898E-02 -0.22180985777E-01 -0.22542905197E-02  0.22588506815E-01  0.00000000000E+00 0.  1.
     999901    1    3    3    0    0  0.15215686261E-01 -0.10785540347E-01  0.12772478368E+00  0.88941636220E+00  0.88000000000E+00 0.  1.
        -11    1    4    4    0    0  0.36113378311E-03  0.20503990260E-01 -0.42703948822E-01  0.47375440897E-01  0.51100000000E-03 0. -1.
         11    1    4    4    0    0 -0.11948778655E-01  0.12462535864E-01 -0.82766544334E-01  0.84549690085E-01  0.51100000000E-03 0.  1.
</event>
<event>
 8    1  0.1114686E+005  0.1043930E+01  0.7957747E-01            NaN
         13   -1    0    0    0    0  0.00000000000E+00  0.00000000000E+00  0.74505805969E-08  0.10566000000E+00  0.10566000000E+00 0. -1.
     999900   -1    0    0    0    0 -0.00000000000E+00 -0.00000000000E+00 -0.74505805969E-08  0.93827000000E+00  0.93827000000E+00 0.  1.
     999902    2    1    2    0    0 -0.17799298349E-01 -0.85570469101E-02 -0.82576288975E-02  0.10225237741E+01  0.10222996831E+01 0.  0.
     999903    2    3    3    0    0  0.81513435251E-01 -0.71493986287E-01 -0.72282560117E-01  0.13239835077E+00  0.23424871124E-01 0.  0.
         14    1    1    2    0    0  0.17799298349E-01  0.85570469101E-02  0.82576288975E-02  0.21406225929E-01  0.00000000000E+00 0. -1.
     999901    1    3    3    0    0 -0.99312733599E-01  0.62936939377E-01  0.64024931220E-01  0.89012542330E+00  0.88000000000E+00 0. -1.
        -11    1    4    4    0    0  0.30474280476E-01 -0.40700739217E-01 -0.39347699834E-01  0.64294125288E-01  0.51100000000E-03 0. -1.
         11    1    4    4    0    0  0.51039154775E-01 -0.30793247070E-01 -0.32934860284E-01  0.68104225479E-01  0.51100000000E-03 0.  1.
</event>
<event>
 8    1  0.1114686E+005  0.1043930E+01  0.7957747E-01            NaN
         13   -1    0    0    0    0  0.00000000000E+00  0.00000000000E+00  0.74505805969E-08  0.10566000000E+00  0.10566000000E+00 0.  1.
     999900   -1    0    0    0    0 -0.00000000000E+00 -0.00000000000E+00 -0.74505805969E-08  0.93827000000E+00  0.93827000000E+00 0.  1.
     999902    2    1    2    0    0 -0.23960745655E-01  0.78319655829E-02  0.50383014316E-02  0.10182231624E+01  0.10178986035E+01 0.  0.
     999903    2    3    3    0    0  0.45625192535E-01 -0.11562279785E+00 -0.12949043893E-01  0.12670377059E+00  0.20877695467E-01 0.  0.
         14    1    1    2    0    0  0.23960745655E-01 -0.78319655829E-02 -0.50383014316E-02  0.25706837583E-01  0.00000000000E+00 0. -1.
     999901    1    3    3    0    0 -0.69585938190E-01  0.12345476343E+00  0.17987345325E-01  0.89151939182E+00  0.88000000000E+00 0. -1.
        -11    1    4    4    0    0  0.34136615092E-01 -0.10365415675E+00 -0.14233212724E-01  0.11005606829E+00  0.51100000000E-03 0.  1.
         11    1    4    4    0    0  0.11488577443E-01 -0.11968641101E-01  0.12841688305E-02  0.16647702305E-01  0.51100000000E-03 0. -1.
</event>
<event>
 8    1  0.1114686E+005  0.1043930E+01  0.7957747E-01            NaN
         13   -1    0    0    0    0  0.00000000000E+00  0.00000000000E+00  0.74505805969E-08  0.10566000000E+00  0.10566000000E+00 0. -1.
     999900   -1    0    0    0    0 -0.00000000000E+00 -0.00000000000E+00 -0.74505805969E-08  0.93827000000E+00  0.93827000000E+00 0.  1.
     999902    2    1    2    0    0  0.12604777452E-01  0.12790252332E-01 -0.15102980913E-01  0.10204657506E+01  0.10201959503E+01 0.  0.
     999903    2    3    3    0    0 -0.56390619265E-02  0.83280696769E-01 -0.10173271265E+00  0.13321919472E+00  0.20744530460E-01 0.  0.
         14    1    1    2    0    0 -0.12604777452E-01 -0.12790252332E-01  0.15102980913E-01  0.23464249440E-01  0.00000000000E+00 0. -1.
     999901    1    3    3    0    0  0.18243839378E-01 -0.70490444437E-01  0.86629731739E-01  0.88724655584E+00  0.88000000000E+00 0. -1.
        -11    1    4    4    0    0  0.60206245344E-02  0.53529044781E-01 -0.67991905579E-01  0.86745414290E-01  0.51100000000E-03 0. -1.
         11    1    4    4    0    0 -0.11659686461E-01  0.29751651988E-01 -0.33740807072E-01  0.46473780428E-01  0.51100000000E-03 0.  1.
</event>
<event>
 8    1  0.1114686E+005  0.1043930E+01  0.7957747E-01            NaN
         13   -1    0    0    0    0  0.00000000000E+00  0.00000000000E+00  0.74505805969E-08  0.10566000000E+00  0.10566000000E+00 0. -1.
     999900   -1    0    0    0    0 -0.00000000000E+00 -0.00000000000E+00 -0.74505805969E-08  0.93827000000E+00  0.93827000000E+00 0. -1.
     999902    2    1    2    0    0 -0.97505000173E-02 -0.18844487817E-01 -0.10363837435E-01  0.10203165272E+01  0.10200432440E+01 0.  0.
     999903    2    3    3    0    0 -0.95879022784E-01 -0.90334365328E-01 -0.32919336078E-02  0.13319819414E+00  0.19438043236E-01 0.  0.
         14    1    1    2    0    0  0.97505000173E-02  0.18844487817E-01  0.10363837435E-01  0.23613472808E-01  0.00000000000E+00 0. -1.
     999901    1    3    3    0    0  0.86128522767E-01  0.71489877511E-01 -0.70719038270E-02  0.88711833306E+00  0.88000000000E+00 0. -1.
        -11    1    4    4    0    0 -0.10836704309E-01 -0.81595122906E-02 -0.61543772633E-02  0.14904673146E-01  0.51100000000E-03 0.  1.
         11    1    4    4    0    0 -0.85042318476E-01 -0.82174853038E-01  0.28624436555E-02  0.11829352099E+00  0.51100000000E-03 0. -1.
</event>
<event>
 8    1  0.1114686E+005  0.1043930E+01  0.7957747E-01            NaN
         13   -1    0    0    0    0  0.00000000000E+00  0.00000000000E+00  0.74505805969E-08  0.10566000000E+00  0.10566000000E+00 0.  1.
     999900   -1    0    0    0    0 -0.00000000000E+00 -0.00000000000E+00 -0.74505805969E-08  0.93827000000E+00  0.93827000000E+00 0. -1.
     999902    2    1    2    0    0 -0.58832279541E-02 -0.19479418173E-01 -0.12141475214E-01  0.10202345252E+01  0.10199593183E+01 0.  0.
     999903    2    3    3    0    0  0.14903292161E-01 -0.11318737032E+00 -0.65793852369E-01  0.13339077503E+00  0.20755214722E-01 0.  0.
         14    1    1    2    0    0  0.58832279541E-02  0.19479418173E-01  0.12141475214E-01  0.23695474756E-01  0.00000000000E+00 0.  1.
     999901    1    3    3    0    0 -0.20786520115E-01  0.93707952144E-01  0.53652377155E-01  0.88684375021E+00  0.88000000000E+00 0.  1.
        -11    1    4    4    0    0  0.12788110899E-01 -0.32067364695E-01 -0.24523796676E-01  0.42350081266E-01  0.51100000000E-03 0. -1.
         11    1    4    4    0    0  0.21151812623E-02 -0.81120005621E-01 -0.41270055693E-01  0.91040693767E-01  0.51100000000E-03 0.  1.
</event>
<event>
 8    1  0.1114686E+005  0.1043930E+01  0.7957747E-01            NaN
         13   -1    0    0    0    0  0.00000000000E+00  0.00000000000E+00  0.74505805969E-08  0.10566000000E+00  0.10566000000E+00 0. -1.
     999900   -1    0    0    0    0 -0.00000000000E+00 -0.00000000000E+00 -0.74505805969E-08  0.93827000000E+00  0.93827000000E+00 0. -1.
     999902    2    1    2    0    0  0.86922902425E-04  0.20243197487E-01  0.10085155154E-01  0.10213135247E+01  0.10210630788E+01 0.  0.
     999903    2    3    3    0    0 -0.11257025240E+00 -0.59712981296E-01 -0.16995732805E-01  0.13012442908E+00  0.20144732583E-01 0.  0.
         14    1    1    2    0    0 -0.86922902425E-04 -0.20243197487E-01 -0.10085155154E-01  0.22616475291E-01  0.00000000000E+00 0.  1.
     999901    1    3    3    0    0  0.11265717530E+00  0.79956178783E-01  0.27080887959E-01  0.89118909563E+00  0.88000000000E+00 0. -1.
        -11    1    4    4    0    0 -0.29308857966E-01 -0.12502024032E-01  0.40424922101E-02  0.32123396838E-01  0.51100000000E-03 0.  1.
         11    1    4    4    0    0 -0.83261394429E-01 -0.47210957264E-01 -0.21038225015E-01  0.98001032244E-01  0.51100000000E-03 0. -1.
</event>
<event>
 8    1  0.1114686E+005  0.1043930E+01  0.7957747E-01            NaN
         13   -1    0    0    0    0  0.00000000000E+00  0.00000000000E+00  0.74505805969E-08  0.10566000000E+00  0.10566000000E+00 0.  1.
     999900   -1    0    0    0    0 -0.00000000000E+00 -0.00000000000E+00 -0.74505805969E-08  0.93827000000E+00  0.93827000000E+00 0.  1.
     999902    2    1    2    0    0  0.14316474380E-01  0.16317745349E-01 -0.14546515062E-01  0.10177989581E+01  0.10174634577E+01 0.  0.
     999903    2    3    3    0    0  0.32549106888E-01  0.10959028341E+00 -0.61472951214E-01  0.13143882491E+00  0.20682514025E-01 0.  0.
         14    1    1    2    0    0 -0.14316474380E-01 -0.16317745349E-01  0.14546515062E-01  0.26131041931E-01  0.00000000000E+00 0.  1.
     999901    1    3    3    0    0 -0.18232632508E-01 -0.93272538058E-01  0.46926436152E-01  0.88636013316E+00  0.88000000000E+00 0. -1.
        -11    1    4    4    0    0  0.14941639852E-01  0.80805705976E-01 -0.47468533437E-01  0.94901725524E-01  0.51100000000E-03 0. -1.
         11    1    4    4    0    0  0.17607467036E-01  0.28784577431E-01 -0.14004417777E-01  0.36537099387E-01  0.51100000000E-03 0.  1.
</event>
<event>
 8    1  0.1114686E+005  0.1043930E+01  0.7957747E-01            NaN
         13   -1    0    0    0    0  0.00000000000E+00  0.00000000000E+00  0.74505805969E-08  0.10566000000E+00  0.10566000000E+00 0. -1.
     999900   -1    0    0    0    0 -0.00000000000E+00 -0.00000000000E+00 -0.74505805969E-08  0.93827000000E+00  0.93827000000E+00 0.  1.
     999902    2    1    2    0    0  0.22070125923E-01  0.90588553944E-02  0.19389384961E-02  0.10199944030E+01  0.10197135232E+01 0.  0.
     999903    2    3    3    0    0 -0.96805969075E-01  0.67693912280E-01 -0.47214476384E-01  0.12871125272E+00  0.19583625481E-01 0.  0.
         14    1    1    2    0    0 -0.22070125923E-01 -0.90588553944E-02 -0.19389384961E-02  0.23935596960E-01  0.00000000000E+00 0.  1.
     999901    1    3    3    0    0  0.11887609500E+00 -0.58635056886E-01  0.49153414881E-01  0.89128315032E+00  0.88000000000E+00 0. -1.
        -11    1    4    4    0    0 -0.45410191102E-01  0.30928506800E-01 -0.11541668196E-01  0.56143826148E-01  0.51100000000E-03 0. -1.
         11    1    4    4    0    0 -0.51395777973E-01  0.36765405480E-01 -0.35672808188E-01  0.72567426567E-01  0.51100000000E-03 0.  1.
</event>
<event>
 8    1  0.1114686E+005  0.1043930E+01  0.7957747E-01            NaN
         13   -1    0    0    0    0  0.00000000000E+00  0.00000000000E+00  0.74505805969E-08  0.10566000000E+00  0.10566000000E+00 0. -1.
     999900   -1    0    0    0    0 -0.00000000000E+00 -0.00000000000E+00 -0.74505805969E-08  0.93827000000E+00  0.93827000000E+00 0.  1.
     999902    2    1    2    0    0  0.13982989743E-01  0.12183095115E-01 -0.17913014663E-01  0.10181457431E+01  0.10178192012E+01 0.  0.
     999903    2    3    3    0    0  0.11077631980E+00  0.15004392922E-02 -0.67652846734E-01  0.13137795008E+00  0.20238916704E-01 0.  0.
         14    1    1    2    0    0 -0.13982989743E-01 -0.12183095115E-01  0.17913014663E-01  0.25784256884E-01  0.00000000000E+00 0.  1.
     999901    1    3    3    0    0 -0.96793330053E-01  0.10682655823E-01  0.49739832071E-01  0.88676779304E+00  0.88000000000E+00 0. -1.
        -11    1    4    4    0    0  0.60391689524E-01  0.18185309489E-02 -0.48476214936E-01  0.77463977137E-01  0.51100000000E-03 0. -1.
         11    1    4    4    0    0  0.50384630272E-01 -0.31809165661E-03 -0.19176631798E-01  0.53913972939E-01  0.51100000000E-03 0.  1.
</event>
<event>
 8    1  0.1114686E+005  0.1043930E+01  0.7957747E-01            NaN
         13   -1    0    0    0    0  0.00000000000E+00  0.00000000000E+00  0.74505805969E-08  0.10566000000E+00  0.10566000000E+00 0. -1.
     999900   -1    0    0    0    0 -0.00000000000E+00 -0.00000000000E+00 -0.74505805969E-08  0.93827000000E+00  0.93827000000E+00 0.  1.
     999902    2    1    2    0    0 -0.35677881035E-02 -0.10396646582E-01  0.21261850465E-01  0.10199949701E+01  0.10197141037E+01 0.  0.
     999903    2    3    3    0    0  0.10385840635E+00 -0.44320862535E-02 -0.72657274495E-01  0.12848122074E+00  0.20545865445E-01 0.  0.
         14    1    1    2    0    0  0.35677881035E-02  0.10396646582E-01 -0.21261850465E-01  0.23935029920E-01  0.00000000000E+00 0.  1.
     999901    1    3    3    0    0 -0.10742619445E+00 -0.59645603282E-02  0.93919124960E-01  0.89151374934E+00  0.88000000000E+00 0. -1.
        -11    1    4    4    0    0  0.76769944480E-01 -0.68467365717E-02 -0.63228997017E-01  0.99692875181E-01  0.51100000000E-03 0. -1.
         11    1    4    4    0    0  0.27088461870E-01  0.24146503182E-02 -0.94282774788E-02  0.28788345556E-01  0.51100000000E-03 0.  1.
</event>
<event>
 8    1  0.1114686E+005  0.1043930E+01  0.7957747E-01            NaN
         13   -1    0    0    0    0  0.00000000000E+00  0.00000000000E+00  0.74505805969E-08  0.10566000000E+00  0.10566000000E+00 0.  1.
     999900   -1    0    0    0    0 -0.00000000000E+00 -0.00000000000E+00 -0.74505805969E-08  0.93827000000E+00  0.93827000000E+00 0.  1.
     999902    2    1    2    0    0 -0.82052915827E-02 -0.19877054563E-01 -0.10170948741E-01  0.10201419293E+01  0.10198645418E+01 0.  0.
     999903    2    3    3    0    0 -0.10207742841E+00  0.41269555776E-01  0.65937109030E-01  0.12978058555E+00  0.19295606088E-01 0.  0.
         14    1    1    2    0    0  0.82052915827E-02  0.19877054563E-01  0.10170948741E-01  0.23788070674E-01  0.00000000000E+00 0.  1.
     999901    1    3    3    0    0  0.93872136828E-01 -0.61146610339E-01 -0.76108057771E-01  0.89036134377E+00  0.88000000000E+00 0.  1.
        -11    1    4    4    0    0 -0.75877824066E-01  0.39328954327E-01  0.48950336331E-01  0.98491661482E-01  0.51100000000E-03 0.  1.
         11    1    4    4    0    0 -0.26199604345E-01  0.19406014483E-02  0.16986772699E-01  0.31288924071E-01  0.51100000000E-03 0. -1.
</event>
<event>
 8    1  0.1114686E+005  0.1043930E+01  0.7957747E-01            NaN
         13   -1    0    0    0    0  0.00000000000E+00  0.00000000000E+00  0.74505805969E-08  0.10566000000E+00  0.10566000000E+00 0.  1.
     999900   -1    0    0    0    0 -0.00000000000E+00 -0.00000000000E+00 -0.74505805969E-08  0.93827000000E+00  0.93827000000E+00 0. -1.
     999902    2    1    2    0    0  0.11596283739E-01  0.95896130477E-02  0.18028916647E-01  0.10204464672E+01  0.10201762182E+01 0.  0.
     999903    2    3    3    0    0  0.92217975860E-01 -0.93490908005E-02  0.93414234735E-01  0.13334924714E+00  0.21546273251E-01 0.  0.
         14    1    1    2    0    0 -0.11596283739E-01 -0.95896130477E-02 -0.18028916647E-01  0.23483532751E-01  0.00000000000E+00 0.  1.
     999901    1    3    3    0    0 -0.80621692120E-01  0.18938703848E-01 -0.75385318088E-01  0.88709722011E+00  0.88000000000E+00 0.  1.
        -11    1    4    4    0    0  0.38752183784E-01  0.54412299388E-02  0.45785998553E-01  0.60232528718E-01  0.51100000000E-03 0.  1.
         11    1    4    4    0    0  0.53465792076E-01 -0.14790320739E-01  0.47628236182E-01  0.73116718421E-01  0.51100000000E-03 0. -1.
</event>
<event>
 8    1  0.1114686E+005  0.1043930E+01  0.7957747E-01            NaN
         13   -1    0    0    0    0  0.00000000000E+00  0.00000000000E+00  0.74505805969E-08  0.10566000000E+00  0.10566000000E+00 0.  1.
     999900   -1    0    0    0    0 -0.00000000000E+00 -0.00000000000E+00 -0.74505805969E-08  0.93827000000E+00  0.93827000000E+00 0.  1.
     999902    2    1    2    0    0  0.20450643742E-01  0.11715090784E-01  0.70000465320E-02  0.10193439708E+01  0.10190474267E+01 0.  0.
     999903    2    3    3    0    0 -0.30696130939E-01 -0.11273016654E+00 -0.46916237381E-01  0.12748659412E+00  0.20033857508E-01 0.  0.
         14    1    1    2    0    0 -0.20450643742E-01 -0.11715090784E-01 -0.70000465320E-02  0.24586029224E-01  0.00000000000E+00 0.  1.
     999901    1    3    3    0    0  0.51146774681E-01  0.12444525732E+00  0.53916283913E-01  0.89185737666E+00  0.88000000000E+00 0. -1.
        -11    1    4    4    0    0 -0.11993389964E-01 -0.36486744572E-01 -0.25526652216E-01  0.46119356312E-01  0.51100000000E-03 0. -1.
         11    1    4    4    0    0 -0.18702740975E-01 -0.76243421969E-01 -0.21389585165E-01  0.81367237805E-01  0.51100000000E-03 0.  1.
</event>
<event>
 8    1  0.1114686E+005  0.1043930E+01  0.7957747E-01            NaN
         13   -1    0    0    0    0  0.00000000000E+00  0.00000000000E+00  0.74505805969E-08  0.10566000000E+00  0.10566000000E+00 0.  1.
     999900   -1    0    0    0    0 -0.00000000000E+00 -0.00000000000E+00 -0.74505805969E-08  0.93827000000E+00  0.93827000000E+00 0.  1.
     999902    2    1    2    0    0 -0.21231477566E-01  0.32079814995E-02  0.94460381038E-02  0.10204716450E+01  0.10202019818E+01 0.  0.
     999903    2    3    3    0    0  0.10224292193E+00  0.57148522524E-01  0.50100401210E-01  0.12928800142E+00  0.22040154192E-01 0.  0.
         14    1    1    2    0    0  0.21231477566E-01 -0.32079814995E-02 -0.94460381038E-02  0.23458355032E-01  0.00000000000E+00 0.  1.
     999901    1    3    3    0    0 -0.12347439950E+00 -0.53940541024E-01 -0.40654363107E-01  0.89118364355E+00  0.88000000000E+00 0.  1.
        -11    1    4    4    0    0  0.16028992125E-01  0.29384904038E-02  0.12955187458E-02  0.16355512961E-01  0.51100000000E-03 0. -1.
         11    1    4    4    0    0  0.86213929806E-01  0.54210032120E-01  0.48804882465E-01  0.11293248845E+00  0.51100000000E-03 0.  1.
</event>
<event>
 8    1  0.1114686E+005  0.1043930E+01  0.7957747E-01            NaN
         13   -1    0    0    0    0  0.00000000000E+00  0.00000000000E+00  0.74505805969E-08  0.10566000000E+00  0.10566000000E+00 0. -1.
     999900   -1    0    0    0    0 -0.00000000000E+00 -0.00000000000E+00 -0.74505805969E-08  0.93827000000E+00  0.93827000000E+00 0. -1.
     999902    2    1    2    0    0  0.23525068910E-01  0.24846068083E-02 -0.10219137405E-02  0.10202520261E+01  0.10199772303E+01 0.  0.
     999903    2    3    3    0    0  0.74246065514E-01  0.46179472956E-01  0.97224967428E-01  0.13225748197E+00  0.19857625210E-01 0.  0.
         14    1    1    2    0    0 -0.23525068910E-01 -0.24846068083E-02  0.10219137405E-02  0.23677973855E-01  0.00000000000E+00 0.  1.
     999901    1    3    3    0    0 -0.50720996604E-01 -0.43694866148E-01 -0.98246881169E-01  0.88799454417E+00  0.88000000000E+00 0. -1.
        -11    1    4    4    0    0  0.26477621688E-01  0.25581832702E-01  0.49235497301E-01  0.61480809446E-01  0.51100000000E-03 0. -1.
         11    1    4    4    0    0  0.47768443826E-01  0.20597640254E-01  0.47989470127E-01  0.70776672525E-01  0.51100000000E-03 0.  1.
</event>
<event>
 8    1  0.1114686E+005  0.1043930E+01  0.7957747E-01            NaN
         13   -1    0    0    0    0  0.00000000000E+00  0.00000000000E+00  0.74505805969E-08  0.10566000000E+00  0.10566000000E+00 0.  1.
     999900   -1    0    0    0    0 -0.00000000000E+00 -0.00000000000E+00 -0.74505805969E-08  0.93827000000E+00  0.93827000000E+00 0.  1.
     999902    2    1    2    0    0 -0.50174996933E-02  0.21269569378E-01  0.74019537307E-02  0.10208570981E+01  0.10205963237E+01 0.  0.
     999903    2    3    3    0    0  0.93021015914E-01  0.36237570038E-01  0.84138934498E-01  0.13196781598E+00  0.19237288591E-01 0.  0.
         14    1    1    2    0    0  0.50174996933E-02 -0.21269569378E-01 -0.74019537307E-02  0.23072901936E-01  0.00000000000E+00 0.  1.
     999901    1    3    3    0    0 -0.98038515607E-01 -0.14968000660E-01 -0.76736980767E-01  0.88888928208E+00  0.88000000000E+00 0.  1.
        -11    1    4    4    0    0  0.29401811534E-01  0.12047086563E-01  0.15701610712E-01  0.35445740450E-01  0.51100000000E-03 0.  1.
         11    1    4    4    0    0  0.63619204380E-01  0.24190483475E-01  0.68437323786E-01  0.96522075530E-01  0.51100000000E-03 0. -1.
</event>
<event>
 8    1  0.1114686E+005  0.1043930E+01  0.7957747E-01            NaN
         13   -1    0    0    0    0  0.00000000000E+00  0.00000000000E+00  0.74505805969E-08  0.10566000000E+00  0.10566000000E+00 0.  1.
     999900   -1    0    0    0    0 -0.00000000000E+00 -0.00000000000E+00 -0.74505805969E-08  0.93827000000E+00  0.93827000000E+00 0. -1.
     999902    2    1    2    0    0 -0.56011417901E-02 -0.12689204430E-01 -0.22859186757E-01  0.10171918041E+01  0.10168403195E+01 0.  0.
     999903    2    3    3    0    0 -0.52504798573E-01  0.43147791446E-01  0.10456086055E+00  0.12502949179E+00  0.89952475184E-02 0.  0.
         14    1    1    2    0    0  0.56011417901E-02  0.12689204430E-01  0.22859186757E-01  0.26738195856E-01  0.00000000000E+00 0.  1.
     999901    1    3    3    0    0  0.46903656783E-01 -0.55836995876E-01 -0.12742004731E+00  0.89216231235E+00  0.88000000000E+00 0. -1.
        -11    1    4    4    0    0 -0.12728590301E-01  0.14049778072E-01  0.24008468255E-01  0.30595439919E-01  0.51100000000E-03 0.  1.
         11    1    4    4    0    0 -0.39776208272E-01  0.29098013374E-01  0.80552392298E-01  0.94434051871E-01  0.51100000000E-03 0. -1.
</event>
<event>
 7    1  0.1114686E+005  0.1043930E+01  0.7957747E-01            NaN
         13   -1    0    0    0    0  0.00000000000E+00  0.00000000000E+00  0.74505805969E-08  0.10566000000E+00  0.10566000000E+00 0. -1.
     999900   -1    0    0    0    0 -0.00000000000E+00 -0.00000000000E+00 -0.74505805969E-08  0.93827000000E+00  0.93827000000E+00 0. -1.
     999902    2    1    2    0    0  0.10374720293E-01 -0.19649199416E-01 -0.92709948485E-02  0.10198535135E+01  0.10195692775E+01 0.  0.
         14    1    1    2    0    0 -0.10374720293E-01  0.19649199416E-01  0.92709948485E-02  0.24076486545E-01  0.00000000000E+00 0. -1.
     999901    1    3    3    0    0  0.22982115856E-01  0.96980642901E-01 -0.42874646118E-01  0.88666321567E+00  0.88000000000E+00 0.  1.
        -11    1    3    3    0    0 -0.17411597401E-01 -0.11997965326E+00  0.26737022404E-01  0.12415075678E+00  0.51100000000E-03 0.  1.
         11    1    3    3    0    0  0.48042018372E-02  0.33498109411E-02  0.68666288659E-02  0.90395410069E-02  0.51100000000E-03 0. -1.
</event>
<event>
 8    1  0.1114686E+005  0.1043930E+01  0.7957747E-01            NaN
         13   -1    0    0    0    0  0.00000000000E+00  0.00000000000E+00  0.74505805969E-08  0.10566000000E+00  0.10566000000E+00 0. -1.
     999900   -1    0    0    0    0 -0.00000000000E+00 -0.00000000000E+00 -0.74505805969E-08  0.93827000000E+00  0.93827000000E+00 0.  1.
     999902    2    1    2    0    0 -0.19187028836E-01  0.10059014650E-01  0.95767891175E-02  0.10202437014E+01  0.10199687101E+01 0.  0.
     999903    2    3    3    0    0 -0.11450213965E+00  0.66554363040E-01  0.68349480873E-02  0.13329149726E+00  0.13404607569E-01 0.  0.
         14    1    1    2    0    0  0.19187028836E-01 -0.10059014650E-01 -0.95767891175E-02  0.23686298594E-01  0.00000000000E+00 0. -1.
     999901    1    3    3    0    0  0.95315110811E-01 -0.56495348390E-01  0.27418410302E-02  0.88695220414E+00  0.88000000000E+00 0. -1.
        -11    1    4    4    0    0 -0.28096324221E-01  0.22859585950E-01  0.14922542207E-04  0.36224652493E-01  0.51100000000E-03 0. -1.
         11    1    4    4    0    0 -0.86405815426E-01  0.43694777090E-01  0.68200255451E-02  0.97066844771E-01  0.51100000000E-03 0.  1.
</event>
<event>
 8    1  0.1114686E+005  0.1043930E+01  0.7957747E-01            NaN
         13   -1    0    0    0    0  0.00000000000E+00  0.00000000000E+00  0.74505805969E-08  0.10566000000E+00  0.10566000000E+00 0.  1.
     999900   -1    0    0    0    0 -0.00000000000E+00 -0.00000000000E+00 -0.74505805969E-08  0.93827000000E+00  0.93827000000E+00 0.  1.
     999902    2    1    2    0    0  0.89550427693E-02 -0.13119967901E-01 -0.14206961236E-01  0.10226188739E+01  0.10223967905E+01 0.  0.
     999903    2    3    3    0    0  0.12414506669E+00  0.50286414136E-02  0.43184371904E-01  0.13307299044E+00  0.20155544877E-01 0.  0.
         14    1    1    2    0    0 -0.89550427693E-02  0.13119967901E-01  0.14206961236E-01  0.21311126115E-01  0.00000000000E+00 0.  1.
     999901    1    3    3    0    0 -0.11519002393E+00 -0.18148609314E-01 -0.57391333139E-01  0.88954588344E+00  0.88000000000E+00 0. -1.
        -11    1    4    4    0    0  0.66808080809E-01 -0.22641636325E-02  0.13905906088E-01  0.68279436461E-01  0.51100000000E-03 0.  1.
         11    1    4    4    0    0  0.57336985886E-01  0.72928050460E-02  0.29278465816E-01  0.64793553980E-01  0.51100000000E-03 0. -1.
</event>
<event>
 8    1  0.1114686E+005  0.1043930E+01  0.7957747E-01            NaN
         13   -1    0    0    0    0  0.00000000000E+00  0.00000000000E+00  0.74505805969E-08  0.10566000000E+00  0.10566000000E+00 0. -1.
     999900   -1    0    0    0    0 -0.00000000000E+00 -0.00000000000E+00 -0.74505805969E-08  0.93827000000E+00  0.93827000000E+00 0. -1.
     999902    2    1    2    0    0 -0.66562912914E-02 -0.22748042309E-01 -0.49020308389E-02  0.10197264972E+01  0.10194392181E+01 0.  0.
     999903    2    3    3    0    0  0.10835344380E+00 -0.68315533473E-01 -0.14319711169E-01  0.13102388768E+00  0.23552581997E-01 0.  0.
         14    1    1    2    0    0  0.66562912914E-02  0.22748042309E-01  0.49020308389E-02  0.24203502825E-01  0.00000000000E+00 0.  1.
     999901    1    3    3    0    0 -0.11500973509E+00  0.45567491164E-01  0.94176803299E-02  0.88870260949E+00  0.88000000000E+00 0. -1.
        -11    1    4    4    0    0  0.74549050382E-01 -0.58341569885E-01 -0.63041063890E-02  0.94875194692E-01  0.51100000000E-03 0. -1.
         11    1    4    4    0    0  0.33804393416E-01 -0.99739635881E-02 -0.80156047798E-02  0.36148692990E-01  0.51100000000E-03 0.  1.
</event>
<event>
 8    1  0.1114686E+005  0.1043930E+01  0.7957747E-01            NaN
         13   -1    0    0    0    0  0.00000000000E+00  0.00000000000E+00  0.74505805969E-08  0.10566000000E+00  0.10566000000E+00 0.  1.
     999900   -1    0    0    0    0 -0.00000000000E+00 -0.00000000000E+00 -0.74505805969E-08  0.93827000000E+00  0.93827000000E+00 0.  1.
     999902    2    1    2    0    0  0.12483787208E-01  0.87535003577E-02  0.17932942476E-01  0.10203915392E+01  0.10201200097E+01 0.  0.
     999903    2    3    3    0    0 -0.11585114062E+00  0.17892590312E-01  0.53222585142E-01  0.13033607151E+00  0.20327724815E-01 0.  0.
         14    1    1    2    0    0 -0.12483787208E-01 -0.87535003577E-02 -0.17932942476E-01  0.23538460812E-01  0.00000000000E+00 0. -1.
     999901    1    3    3    0    0  0.12833492783E+00 -0.91390899547E-02 -0.35289642666E-01  0.89005546768E+00  0.88000000000E+00 0.  1.
        -11    1    4    4    0    0 -0.81746009645E-01  0.41706610305E-02  0.41318780661E-01  0.91691369619E-01  0.51100000000E-03 0. -1.
         11    1    4    4    0    0 -0.34105130975E-01  0.13721929282E-01  0.11903804481E-01  0.38644701890E-01  0.51100000000E-03 0.  1.
</event>
<event>
 8    1  0.1114686E+005  0.1043930E+01  0.7957747E-01            NaN
         13   -1    0    0    0    0  0.00000000000E+00  0.00000000000E+00  0.74505805969E-08  0.10566000000E+00  0.10566000000E+00 0. -1.
     999900   -1    0    0    0    0 -0.00000000000E+00 -0.00000000000E+00 -0.74505805969E-08  0.93827000000E+00  0.93827000000E+00 0.  1.
     999902    2    1    2    0    0 -0.19013209490E-01 -0.10070769073E-01 -0.10590525533E-01  0.10199491377E+01  0.10196671819E+01 0.  0.
     999903    2    3    3    0    0  0.67416424492E-01  0.78173677410E-01  0.71970165975E-01  0.12749553570E+00  0.20477028651E-01 0.  0.
         14    1    1    2    0    0  0.19013209490E-01  0.10070769073E-01  0.10590525533E-01  0.23980862284E-01  0.00000000000E+00 0. -1.
     999901    1    3    3    0    0 -0.86429633982E-01 -0.88244446483E-01 -0.82560691508E-01  0.89245360201E+00  0.88000000000E+00 0.  1.
        -11    1    4    4    0    0  0.35749164240E-01  0.54442101913E-01  0.50886553949E-01  0.82653782117E-01  0.51100000000E-03 0. -1.
         11    1    4    4    0    0  0.31667260252E-01  0.23731575497E-01  0.21083612027E-01  0.44841753585E-01  0.51100000000E-03 0.  1.
</event>
<event>
 8    1  0.1114686E+005  0.1043930E+01  0.7957747E-01            NaN
         13   -1    0    0    0    0  0.00000000000E+00  0.00000000000E+00  0.74505805969E-08  0.10566000000E+00  0.10566000000E+00 0.  1.
     999900   -1    0    0    0    0 -0.00000000000E+00 -0.00000000000E+00 -0.74505805969E-08  0.93827000000E+00  0.93827000000E+00 0.  1.
     999902    2    1    2    0    0  0.73650000459E-02 -0.21321804809E-01 -0.34865012269E-02  0.10211041752E+01  0.10208490184E+01 0.  0.
     999903    2    3    3    0    0 -0.12775563666E-01 -0.25978847768E-01 -0.12641304990E+00  0.13231946185E+00  0.26269092865E-01 0.  0.
         14    1    1    2    0    0 -0.73650000459E-02  0.21321804809E-01  0.34865012269E-02  0.22825824778E-01  0.00000000000E+00 0.  1.
     999901    1    3    3    0    0  0.20140563712E-01  0.46570429597E-02  0.12292654868E+00  0.88878471337E+00  0.88000000000E+00 0. -1.
        -11    1    4    4    0    0  0.17137474959E-02 -0.68504064736E-02 -0.77622200410E-01  0.77944416842E-01  0.51100000000E-03 0.  1.
         11    1    4    4    0    0 -0.14489311162E-01 -0.19128441295E-01 -0.48790849493E-01  0.54375045007E-01  0.51100000000E-03 0. -1.
</event>
<event>
 8    1  0.1114686E+005  0.1043930E+01  0.7957747E-01            NaN
         13   -1    0    0    0    0  0.00000000000E+00  0.00000000000E+00  0.74505805969E-08  0.10566000000E+00  0.10566000000E+00 0.  1.
     999900   -1    0    0    0    0 -0.00000000000E+00 -0.00000000000E+00 -0.74505805969E-08  0.93827000000E+00  0.93827000000E+00 0.  1.
     999902    2    1    2    0    0 -0.95488681780E-02  0.34278900770E-02 -0.21333747366E-01  0.10203067045E+01  0.10200331912E+01 0.  0.
     999903    2    3    3    0    0  0.92774976179E-01 -0.82014503443E-01  0.33296231881E-01  0.12859206047E+00  0.96800815471E-02 0.  0.
         14    1    1    2    0    0  0.95488681780E-02 -0.34278900770E-02  0.21333747366E-01  0.23623295505E-01  0.00000000000E+00 0.  1.
     999901    1    3    3    0    0 -0.10232384436E+00  0.85442393520E-01 -0.54629979247E-01  0.89171464402E+00  0.88000000000E+00 0.  1.
        -11    1    4    4    0    0  0.18889920211E-01 -0.18819764670E-01  0.34714935319E-02  0.26894702381E-01  0.51100000000E-03 0.  1.
         11    1    4    4    0    0  0.73885055967E-01 -0.63194738773E-01  0.29824738349E-01  0.10169735809E+00  0.51100000000E-03 0. -1.
</event>
<event>
 8    1  0.1114686E+005  0.1043930E+01  0.7957747E-01            NaN
         13   -1    0    0    0    0  0.00000000000E+00  0.00000000000E+00  0.74505805969E-08  0.10566000000E+00  0.10566000000E+00 0. -1.
     999900   -1    0    0    0    0 -0.00000000000E+00 -0.00000000000E+00 -0.74505805969E-08  0.93827000000E+00  0.93827000000E+00 0. -1.
     999902    2    1    2    0    0 -0.50595050339E-02 -0.16938104385E-01  0.14939732640E-01  0.10207849447E+01  0.10205225180E+01 0.  0.
     999903    2    3    3    0    0  0.10297139617E+00 -0.51336765268E-01 -0.58476784566E-01  0.13047941939E+00  0.19151309417E-01 0.  0.
         14    1    1    2    0    0  0.50595050339E-02  0.16938104385E-01 -0.14939732640E-01  0.23145055254E-01  0.00000000000E+00 0.  1.
     999901    1    3    3    0    0 -0.10803090121E+00  0.34398660883E-01  0.73416517205E-01  0.89030552536E+00  0.88000000000E+00 0.  1.
        -11    1    4    4    0    0  0.30419995661E-01 -0.14775601943E-01 -0.27273409020E-01  0.43448757282E-01  0.51100000000E-03 0. -1.
         11    1    4    4    0    0  0.72551400513E-01 -0.36561163325E-01 -0.31203375546E-01  0.87030662106E-01  0.51100000000E-03 0.  1.
</event>
<event>
 8    1  0.1114686E+005  0.1043930E+01  0.7957747E-01            NaN
         13   -1    0    0    0    0  0.00000000000E+00  0.00000000000E+00  0.74505805969E-08  0.10566000000E+00  0.10566000000E+00 0. -1.
     999900   -1    0    0    0    0 -0.00000000000E+00 -0.00000000000E+00 -0.74505805969E-08  0.93827000000E+00  0.93827000000E+00 0.  1.
     999902    2    1    2    0    0 -0.11227632299E-01  0.19913242358E-01 -0.56933482270E-02  0.10203713251E+01  0.10200993236E+01 0.  0.
     999903    2    3    3    0    0  0.36765531735E-01  0.63657017485E-01 -0.10793965801E+00  0.13207454502E+00  0.19717897260E-01 0.  0.
         14    1    1    2    0    0  0.11227632299E-01 -0.19913242358E-01  0.56933482270E-02  0.23558674884E-01  0.00000000000E+00 0. -1.
     999901    1    3    3    0    0 -0.47993164034E-01 -0.43743775127E-01  0.10224630979E+00  0.88829678009E+00  0.88000000000E+00 0. -1.
        -11    1    4    4    0    0  0.21067378442E-01  0.27229197228E-01 -0.65389648822E-01  0.73900818062E-01  0.51100000000E-03 0.  1.
         11    1    4    4    0    0  0.15698153293E-01  0.36427820257E-01 -0.42550009192E-01  0.58173726962E-01  0.51100000000E-03 0. -1.
</event>
<event>
 8    1  0.1114686E+005  0.1043930E+01  0.7957747E-01            NaN
         13   -1    0    0    0    0  0.00000000000E+00  0.00000000000E+00  0.74505805969E-08  0.10566000000E+00  0.10566000000E+00 0. -1.
     999900   -1    0    0    0    0 -0.00000000000E+00 -0.00000000000E+00 -0.74505805969E-08  0.93827000000E+00  0.93827000000E+00 0. -1.
     999902    2    1    2    0    0  0.11843099980E-01  0.20906539290E-01  0.33116157377E-02  0.10196749139E+01  0.10193863943E+01 0.  0.
     999903    2    3    3    0    0 -0.11688938578E+00 -0.46679791699E-01 -0.74328338610E-02  0.12767972995E+00  0.20118025694E-01 0.  0.
         14    1    1    2    0    0 -0.11843099980E-01 -0.20906539290E-01 -0.33116157377E-02  0.24255086085E-01  0.00000000000E+00 0.  1.
     999901    1    3    3    0    0  0.12873248576E+00  0.67586330989E-01  0.10744449599E-01  0.89199518397E+00  0.88000000000E+00 0.  1.
        -11    1    4    4    0    0 -0.10576316905E+00 -0.37056048984E-01 -0.10776407259E-01  0.11258503794E+00  0.51100000000E-03 0. -1.
         11    1    4    4    0    0 -0.11126216736E-01 -0.96237427158E-02  0.33435733978E-02  0.15094692007E-01  0.51100000000E-03 0.  1.
</event>
<event>
 8    1  0.1114686E+005  0.1043930E+01  0.7957747E-01            NaN
         13   -1    0    0    0    0  0.00000000000E+00  0.00000000000E+00  0.74505805969E-08  0.10566000000E+00  0.10566000000E+00 0. -1.
     999900   -1    0    0    0    0 -0.00000000000E+00 -0.00000000000E+00 -0.74505805969E-08  0.93827000000E+00  0.93827000000E+00 0. -1.
     999902    2    1    2    0    0 -0.24147165244E-01  0.31815549519E-02  0.35682673000E-03  0.10195715270E+01  0.10192805127E+01 0.  0.
     999903    2    3    3    0    0 -0.84831935869E-01 -0.84367534356E-01 -0.51026427971E-01  0.13165952501E+00  0.20400881800E-01 0.  0.
         14    1    1    2    0    0  0.24147165244E-01 -0.31815549519E-02 -0.35682673000E-03  0.24358472992E-01  0.00000000000E+00 0. -1.
     999901    1    3    3    0    0  0.60684770625E-01  0.87549089308E-01  0.51383254701E-01  0.88791200200E+00  0.88000000000E+00 0. -1.
        -11    1    4    4    0    0 -0.85416818520E-02 -0.15365104727E-02 -0.47815701470E-02  0.99219820280E-02  0.51100000000E-03 0.  1.
         11    1    4    4    0    0 -0.76290254017E-01 -0.82831023884E-01 -0.46244857824E-01  0.12173754298E+00  0.51100000000E-03 0. -1.
</event>
<event>
 7    1  0.2227555E+005  0.1043930E+01  0.7957747E-01            NaN
         13   -1    0    0    0    0  0.00000000000E+00  0.00000000000E+00  0.74505805969E-08  0.10566000000E+00  0.10566000000E+00 0.  1.
     999900   -1    0    0    0    0 -0.00000000000E+00 -0.00000000000E+00 -0.74505805969E-08  0.93827000000E+00  0.93827000000E+00 0.  1.
     999903    2    1    2    0    0  0.60731338855E-02 -0.12427647785E-01 -0.10369162770E+00  0.10654142520E+00  0.20193866531E-01 0.  0.
         14    1    1    2    0    0  0.45515030104E-02 -0.40862786263E-01 -0.22271217271E-01  0.46759925145E-01  0.00000000000E+00 0. -1.
     999901    1    1    2    0    0 -0.10624636896E-01  0.53290434048E-01  0.12596284497E+00  0.89062864965E+00  0.88000000000E+00 0. -1.
        -11    1    3    3    0    0  0.12810434407E-01 -0.58057452795E-02 -0.46863611182E-01  0.48931309833E-01  0.51100000000E-03 0. -1.
         11    1    3    3    0    0 -0.67373005212E-02 -0.66219025051E-02 -0.56828016513E-01  0.57610115369E-01  0.51100000000E-03 0.  1.
</event>
<event>
 8    1  0.1114686E+005  0.1043930E+01  0.7957747E-01            NaN
         13   -1    0    0    0    0  0.00000000000E+00  0.00000000000E+00  0.74505805969E-08  0.10566000000E+00  0.10566000000E+00 0.  1.
     999900   -1    0    0    0    0 -0.00000000000E+00 -0.00000000000E+00 -0.74505805969E-08  0.93827000000E+00  0.93827000000E+00 0. -1.
     999902    2    1    2    0    0 -0.95422397893E-02  0.15645642043E-01 -0.15049182456E-01  0.10202167474E+01  0.10199411225E+01 0.  0.
     999903    2    3    3    0    0 -0.12390977835E+00 -0.34416548353E-01  0.14010943495E-01  0.13093015262E+00  0.20205602084E-01 0.  0.
         14    1    1    2    0    0  0.95422397893E-02 -0.15645642043E-01  0.15049182456E-01  0.23713252576E-01  0.00000000000E+00 0.  1.
     999901    1    3    3    0    0  0.11436753856E+00  0.50062190395E-01 -0.29060125951E-01  0.88928659481E+00  0.88000000000E+00 0. -1.
        -11    1    4    4    0    0 -0.59842785174E-01 -0.72836774396E-02  0.19725225038E-02  0.60318843328E-01  0.51100000000E-03 0.  1.
         11    1    4    4    0    0 -0.64066993176E-01 -0.27132870913E-01  0.12038420991E-01  0.70611309289E-01  0.51100000000E-03 0. -1.
</event>
<event>
 6    1  0.1114686E+005  0.1043930E+01  0.7957747E-01            NaN
         13   -1    0    0    0    0  0.00000000000E+00  0.00000000000E+00  0.74505805969E-08  0.10566000000E+00  0.10566000000E+00 0.  1.
     999900   -1    0    0    0    0 -0.00000000000E+00 -0.00000000000E+00 -0.74505805969E-08  0.93827000000E+00  0.93827000000E+00 0. -1.
         14    1    1    2    0    0 -0.12529613128E-01 -0.34619446946E-01 -0.28106262109E-01  0.46319102773E-01  0.00000000000E+00 0. -1.
     999901    1    1    2    0    0  0.98399787465E-01  0.44619312029E-02  0.70828482968E-01  0.88832375911E+00  0.88000000000E+00 0.  1.
        -11    1    1    2    0    0 -0.26645743801E-01  0.19130736113E-01 -0.35941387230E-01  0.48662358800E-01  0.51100000000E-03 0. -1.
         11    1    1    2    0    0 -0.59224430536E-01  0.11026779629E-01 -0.67808336288E-02  0.60624779315E-01  0.51100000000E-03 0.  1.
</event>
<event>
 8    1  0.1114686E+005  0.1043930E+01  0.7957747E-01            NaN
         13   -1    0    0    0    0  0.00000000000E+00  0.00000000000E+00  0.74505805969E-08  0.10566000000E+00  0.10566000000E+00 0.  1.
     999900   -1    0    0    0    0 -0.00000000000E+00 -0.00000000000E+00 -0.74505805969E-08  0.93827000000E+00  0.93827000000E+00 0. -1.
     999902    2    1    2    0    0  0.16748368260E-02 -0.14050734687E-01 -0.18435129017E-01  0.10206903312E+01  0.10204257298E+01 0.  0.
     999903    2    3    3    0    0 -0.47185597114E-01 -0.27409740518E-01  0.11543559353E+00  0.12912587734E+00  0.19244258787E-01 0.  0.
         14    1    1    2    0    0 -0.16748368260E-02  0.14050734687E-01  0.18435129017E-01  0.23239668791E-01  0.00000000000E+00 0.  1.
     999901    1    3    3    0    0  0.48860433940E-01  0.13359005831E-01 -0.13387072255E+00  0.89156445387E+00  0.88000000000E+00 0. -1.
        -11    1    4    4    0    0 -0.13026151530E-01 -0.85919916981E-02  0.16192081905E-01  0.22493278606E-01  0.51100000000E-03 0. -1.
         11    1    4    4    0    0 -0.34159445584E-01 -0.18817748820E-01  0.99243511623E-01  0.10663259874E+00  0.51100000000E-03 0.  1.
</event>
<event>
 8    1  0.1114686E+005  0.1043930E+01  0.7957747E-01            NaN
         13   -1    0    0    0    0  0.00000000000E+00  0.00000000000E+00  0.74505805969E-08  0.10566000000E+00  0.10566000000E+00 0. -1.
     999900   -1    0    0    0    0 -0.00000000000E+00 -0.00000000000E+00 -0.74505805969E-08  0.93827000000E+00  0.93827000000E+00 0.  1.
     999902    2    1    2    0    0  0.17259510977E-01 -0.23804959654E-01 -0.28867565030E-02  0.10143851157E+01  0.10139547637E+01 0.  0.
     999903    2    3    3    0    0  0.16491384181E-01 -0.11290148327E+00  0.56045256911E-01  0.12792487255E+00  0.14317524845E-01 0.  0.
         14    1    1    2    0    0 -0.17259510977E-01  0.23804959654E-01  0.28867565030E-02  0.29544884268E-01  0.00000000000E+00 0.  1.
     999901    1    3    3    0    0  0.76812679610E-03  0.89096523617E-01 -0.58932013414E-01  0.88646024318E+00  0.88000000000E+00 0.  1.
        -11    1    4    4    0    0  0.21928388287E-02 -0.49822772221E-01  0.29969779064E-01  0.58185616367E-01  0.51100000000E-03 0. -1.
         11    1    4    4    0    0  0.14298545352E-01 -0.63078711050E-01  0.26075477847E-01  0.69739256182E-01  0.51100000000E-03 0.  1.
</event>
<event>
 8    1  0.1114686E+005  0.1043930E+01  0.7957747E-01            NaN
         13   -1    0    0    0    0  0.00000000000E+00  0.00000000000E+00  0.74505805969E-08  0.10566000000E+00  0.10566000000E+00 0. -1.
     999900   -1    0    0    0    0 -0.00000000000E+00 -0.00000000000E+00 -0.74505805969E-08  0.93827000000E+00  0.93827000000E+00 0. -1.
     999902    2    1    2    0    0 -0.18181288926E-01 -0.13780863858E-01 -0.64742666941E-02  0.10202152872E+01  0.10199396279E+01 0.  0.
     999903    2    3    3    0    0 -0.47630597522E-01  0.67458784227E-01  0.98066888941E-01  0.12982436436E+00  0.20442345364E-01 0.  0.
         14    1    1    2    0    0  0.18181288926E-01  0.13780863858E-01  0.64742666941E-02  0.23714712836E-01  0.00000000000E+00 0. -1.
     999901    1    3    3    0    0  0.29449308596E-01 -0.81239648085E-01 -0.10454115563E+00  0.89039092281E+00  0.88000000000E+00 0. -1.
        -11    1    4    4    0    0 -0.40457878949E-01  0.40824756791E-01  0.65539471315E-01  0.87173299566E-01  0.51100000000E-03 0.  1.
         11    1    4    4    0    0 -0.71727185737E-02  0.26634027436E-01  0.32527417626E-01  0.42651064789E-01  0.51100000000E-03 0. -1.
</event>
<event>
 8    1  0.1114686E+005  0.1043930E+01  0.7957747E-01            NaN
         13   -1    0    0    0    0  0.00000000000E+00  0.00000000000E+00  0.74505805969E-08  0.10566000000E+00  0.10566000000E+00 0.  1.
     999900   -1    0    0    0    0 -0.00000000000E+00 -0.00000000000E+00 -0.74505805969E-08  0.93827000000E+00  0.93827000000E+00 0.  1.
     999902    2    1    2    0    0  0.15263587926E-01 -0.17747178709E-01  0.18863176772E-02  0.10204460126E+01  0.10201757530E+01 0.  0.
     999903    2    3    3    0    0  0.73363208529E-01  0.97559499536E-01 -0.39308168085E-01  0.13007070883E+00  0.21754100791E-01 0.  0.
         14    1    1    2    0    0 -0.15263587926E-01  0.17747178709E-01 -0.18863176772E-02  0.23483987372E-01  0.00000000000E+00 0.  1.
     999901    1    3    3    0    0 -0.58099620604E-01 -0.11530667824E+00  0.41194485762E-01  0.89037530380E+00  0.88000000000E+00 0.  1.
        -11    1    4    4    0    0  0.44734320407E-01  0.70508017019E-01 -0.18526464199E-01  0.85533799653E-01  0.51100000000E-03 0.  1.
         11    1    4    4    0    0  0.28628888122E-01  0.27051482516E-01 -0.20781703885E-01  0.44536909174E-01  0.51100000000E-03 0. -1.
</event>
<event>
 8    1  0.1114686E+005  0.1043930E+01  0.7957747E-01            NaN
         13   -1    0    0    0    0  0.00000000000E+00  0.00000000000E+00  0.74505805969E-08  0.10566000000E+00  0.10566000000E+00 0. -1.
     999900   -1    0    0    0    0 -0.00000000000E+00 -0.00000000000E+00 -0.74505805969E-08  0.93827000000E+00  0.93827000000E+00 0.  1.
     999902    2    1    2    0    0 -0.77630798586E-02 -0.21147247670E-01  0.56150258983E-02  0.10207136263E+01  0.10204495612E+01 0.  0.
     999903    2    3    3    0    0 -0.60248659054E-01  0.77979962870E-01 -0.81938017102E-01  0.12928417016E+00  0.17022998591E-01 0.  0.
         14    1    1    2    0    0  0.77630798586E-02  0.21147247670E-01 -0.56150258983E-02  0.23216373721E-01  0.00000000000E+00 0.  1.
     999901    1    3    3    0    0  0.52485579196E-01 -0.99127210540E-01  0.87553043001E-01  0.89142945612E+00  0.88000000000E+00 0.  1.
        -11    1    4    4    0    0 -0.10728765049E-01  0.24769981365E-01 -0.17751501317E-01  0.32311535035E-01  0.51100000000E-03 0.  1.
         11    1    4    4    0    0 -0.49519894005E-01  0.53209981505E-01 -0.64186515786E-01  0.96972635128E-01  0.51100000000E-03 0. -1.
</event>
<event>
 8    1  0.1114686E+005  0.1043930E+01  0.7957747E-01            NaN
         13   -1    0    0    0    0  0.00000000000E+00  0.00000000000E+00  0.74505805969E-08  0.10566000000E+00  0.10566000000E+00 0.  1.
     999900   -1    0    0    0    0 -0.00000000000E+00 -0.00000000000E+00 -0.74505805969E-08  0.93827000000E+00  0.93827000000E+00 0.  1.
     999902    2    1    2    0    0  0.13797323337E-01  0.19168995530E-01  0.31320553960E-02  0.10201050909E+01  0.10198268335E+01 0.  0.
     999903    2    3    3    0    0 -0.92216014804E-01 -0.74539452767E-01  0.43693022869E-01  0.12788017914E+00  0.19604503684E-01 0.  0.
         14    1    1    2    0    0 -0.13797323337E-01 -0.19168995530E-01 -0.31320553960E-02  0.23824909063E-01  0.00000000000E+00 0.  1.
     999901    1    3    3    0    0  0.10601333814E+00  0.93708448296E-01 -0.40560967473E-01  0.89222491180E+00  0.88000000000E+00 0.  1.
        -11    1    4    4    0    0 -0.47598760363E-01 -0.29492392074E-01  0.13240971549E-01  0.57541529585E-01  0.51100000000E-03 0. -1.
         11    1    4    4    0    0 -0.44617254441E-01 -0.45047060693E-01  0.30452051320E-01  0.70338649557E-01  0.51100000000E-03 0.  1.
</event>
<event>
 8    1  0.1114686E+005  0.1043930E+01  0.7957747E-01            NaN
         13   -1    0    0    0    0  0.00000000000E+00  0.00000000000E+00  0.74505805969E-08  0.10566000000E+00  0.10566000000E+00 0.  1.
     999900   -1    0    0    0    0 -0.00000000000E+00 -0.00000000000E+00 -0.74505805969E-08  0.93827000000E+00  0.93827000000E+00 0. -1.
     999902    2    1    2    0    0 -0.77044716706E-02 -0.19328482606E-01 -0.85433218299E-02  0.10214369462E+01  0.10211892565E+01 0.  0.
     999903    2    3    3    0    0  0.57332599383E-01 -0.43384712670E-01  0.10773432462E+00  0.13108363769E+00  0.20173624485E-01 0.  0.
         14    1    1    2    0    0  0.77044716706E-02  0.19328482606E-01  0.85433218299E-02  0.22493053850E-01  0.00000000000E+00 0.  1.
     999901    1    3    3    0    0 -0.65037071053E-01  0.24056230063E-01 -0.11627764645E+00  0.89035330846E+00  0.88000000000E+00 0. -1.
        -11    1    4    4    0    0  0.11290305637E-01 -0.19944384463E-01  0.30321270647E-01  0.38011709349E-01  0.51100000000E-03 0. -1.
         11    1    4    4    0    0  0.46042293745E-01 -0.23440328206E-01  0.77413053971E-01  0.93071928345E-01  0.51100000000E-03 0.  1.
</event>
<event>
 8    1  0.1114686E+005  0.1043930E+01  0.7957747E-01            NaN
         13   -1    0    0    0    0  0.00000000000E+00  0.00000000000E+00  0.74505805969E-08  0.10566000000E+00  0.10566000000E+00 0.  1.
     999900   -1    0    0    0    0 -0.00000000000E+00 -0.00000000000E+00 -0.74505805969E-08  0.93827000000E+00  0.93827000000E+00 0. -1.
     999902    2    1    2    0    0  0.17099435842E-01 -0.12296984859E-01  0.97374547439E-02  0.10207260226E+01  0.10204622426E+01 0.  0.
     999903    2    3    3    0    0  0.80744997997E-01 -0.51471692965E-01  0.91157400089E-01  0.13381304894E+00  0.20668105772E-01 0.  0.
         14    1    1    2    0    0 -0.17099435842E-01  0.12296984859E-01 -0.97374547439E-02  0.23203977410E-01  0.00000000000E+00 0. -1.
     999901    1    3    3    0    0 -0.63645562155E-01  0.39174708106E-01 -0.81419945345E-01  0.88691297365E+00  0.88000000000E+00 0.  1.
        -11    1    4    4    0    0  0.27253459517E-01 -0.25696901999E-01  0.25666190462E-01  0.45410310304E-01  0.51100000000E-03 0.  1.
         11    1    4    4    0    0  0.53491538480E-01 -0.25774790966E-01  0.65491209626E-01  0.88402738632E-01  0.51100000000E-03 0. -1.
</event>
<event>
 8    1  0.1114686E+005  0.1043930E+01  0.7957747E-01            NaN
         13   -1    0    0    0    0  0.00000000000E+00  0.00000000000E+00  0.74505805969E-08  0.10566000000E+00  0.10566000000E+00 0. -1.
     999900   -1    0    0    0    0 -0.00000000000E+00 -0.00000000000E+00 -0.74505805969E-08  0.93827000000E+00  0.93827000000E+00 0. -1.
     999902    2    1    2    0    0  0.41817156740E-02  0.65719893101E-02  0.22278111987E-01  0.10203293207E+01  0.10200563370E+01 0.  0.
     999903    2    3    3    0    0  0.38672453088E-01 -0.12235315056E+00 -0.24936059081E-02  0.12992214381E+00  0.20191416546E-01 0.  0.
         14    1    1    2    0    0 -0.41817156740E-02 -0.65719893101E-02 -0.22278111987E-01  0.23600679295E-01  0.00000000000E+00 0.  1.
     999901    1    3    3    0    0 -0.34490737414E-01  0.12892513987E+00  0.24771717895E-01  0.89040717689E+00  0.88000000000E+00 0.  1.
        -11    1    4    4    0    0  0.32610872554E-01 -0.70965111369E-01  0.27056650391E-03  0.78101538829E-01  0.51100000000E-03 0.  1.
         11    1    4    4    0    0  0.60615805345E-02 -0.51388039191E-01 -0.27641724120E-02  0.51820604981E-01  0.51100000000E-03 0. -1.
</event>
<event>
 8    1  0.1114686E+005  0.1043930E+01  0.7957747E-01            NaN
         13   -1    0    0    0    0  0.00000000000E+00  0.00000000000E+00  0.74505805969E-08  0.10566000000E+00  0.10566000000E+00 0.  1.
     999900   -1    0    0    0    0 -0.00000000000E+00 -0.00000000000E+00 -0.74505805969E-08  0.93827000000E+00  0.93827000000E+00 0.  1.
     999902    2    1    2    0    0  0.75620468517E-02  0.11948455073E-01 -0.24770069075E-01  0.10154079655E+01  0.10150073053E+01 0.  0.
     999903    2    3    3    0    0 -0.11099036924E+00  0.55780667054E-01 -0.11137649477E-01  0.12627255339E+00  0.19757672496E-01 0.  0.
         14    1    1    2    0    0 -0.75620468517E-02 -0.11948455073E-01  0.24770069075E-01  0.28522034521E-01  0.00000000000E+00 0.  1.
     999901    1    3    3    0    0  0.11855241609E+00 -0.43832211980E-01 -0.13632419598E-01  0.88913541209E+00  0.88000000000E+00 0.  1.
        -11    1    4    4    0    0 -0.31409027341E-01  0.68073049704E-02 -0.59179722930E-02  0.32682562882E-01  0.51100000000E-03 0.  1.
         11    1    4    4    0    0 -0.79581341900E-01  0.48973362083E-01 -0.52196771842E-02  0.93589990508E-01  0.51100000000E-03 0. -1.
</event>
<event>
 8    1  0.1114686E+005  0.1043930E+01  0.7957747E-01            NaN
         13   -1    0    0    0    0  0.00000000000E+00  0.00000000000E+00  0.74505805969E-08  0.10566000000E+00  0.10566000000E+00 0.  1.
     999900   -1    0    0    0    0 -0.00000000000E+00 -0.00000000000E+00 -0.74505805969E-08  0.93827000000E+00  0.93827000000E+00 0.  1.
     999902    2    1    2    0    0 -0.15068420865E-02 -0.20692792991E-01 -0.43669719647E-02  0.10227278138E+01  0.10225080188E+01 0.  0.
     999903    2    3    3    0    0  0.13038237197E+00 -0.12723755720E-01  0.73068378690E-02  0.13278705839E+00  0.20434189846E-01 0.  0.
         14    1    1    2    0    0  0.15068420865E-02  0.20692792991E-01  0.43669719647E-02  0.21202186184E-01  0.00000000000E+00 0.  1.
     999901    1    3    3    0    0 -0.13188921406E+00 -0.79690372713E-02 -0.11673809834E-01  0.88994075543E+00  0.88000000000E+00 0. -1.
        -11    1    4    4    0    0  0.47075291433E-01 -0.14084234395E-01 -0.88167634464E-04  0.49139776317E-01  0.51100000000E-03 0.  1.
         11    1    4    4    0    0  0.83307080538E-01  0.13604786755E-02  0.73950055034E-02  0.83647282068E-01  0.51100000000E-03 0. -1.
</event>
<event>
 8    1  0.1114686E+005  0.1043930E+01  0.7957747E-01            NaN
         13   -1    0    0    0    0  0.00000000000E+00  0.00000000000E+00  0.74505805969E-08  0.10566000000E+00  0.10566000000E+00 0. -1.
     999900   -1    0    0    0    0 -0.00000000000E+00 -0.00000000000E+00 -0.74505805969E-08  0.93827000000E+00  0.93827000000E+00 0. -1.
     999902    2    1    2    0    0  0.12176637101E-01 -0.31908627219E-01  0.13687310640E-01  0.10071363395E+01  0.10064640246E+01 0.  0.
     999903    2    3    3    0    0 -0.55495548746E-01  0.35333575550E-01  0.95867303315E-01  0.11817369135E+00  0.21124961312E-01 0.  0.
         14    1    1    2    0    0 -0.12176637101E-01  0.31908627219E-01 -0.13687310640E-01  0.36793660523E-01  0.00000000000E+00 0.  1.
     999901    1    3    3    0    0  0.67672185847E-01 -0.67242202769E-01 -0.82179992675E-01  0.88896264813E+00  0.88000000000E+00 0. -1.
        -11    1    4    4    0    0 -0.27750008527E-01  0.16891846808E-01  0.65393498727E-01  0.73020327708E-01  0.51100000000E-03 0.  1.
         11    1    4    4    0    0 -0.27745540218E-01  0.18441728743E-01  0.30473804588E-01  0.45153363641E-01  0.51100000000E-03 0. -1.
</event>
<event>
 8    1  0.1114686E+005  0.1043930E+01  0.7957747E-01            NaN
         13   -1    0    0    0    0  0.00000000000E+00  0.00000000000E+00  0.74505805969E-08  0.10566000000E+00  0.10566000000E+00 0. -1.
     999900   -1    0    0    0    0 -0.00000000000E+00 -0.00000000000E+00 -0.74505805969E-08  0.93827000000E+00  0.93827000000E+00 0. -1.
     999902    2    1    2    0    0 -0.15037774800E-02 -0.82075923704E-02 -0.21395350588E-01  0.10209650932E+01  0.10207067818E+01 0.  0.
     999903    2    3    3    0    0 -0.73410508759E-01 -0.10285676639E+00  0.30830359514E-01  0.13143905704E+00  0.18897022475E-01 0.  0.
         14    1    1    2    0    0  0.15037774800E-02  0.82075923704E-02  0.21395350588E-01  0.22964906837E-01  0.00000000000E+00 0. -1.
     999901    1    3    3    0    0  0.71906731279E-01  0.94649174023E-01 -0.52225710103E-01  0.88952603612E+00  0.88000000000E+00 0.  1.
        -11    1    4    4    0    0 -0.21899490022E-01 -0.46546494637E-01  0.11594300118E-01  0.52733791277E-01  0.51100000000E-03 0.  1.
         11    1    4    4    0    0 -0.51511018738E-01 -0.56310271756E-01  0.19236059397E-01  0.78705265762E-01  0.51100000000E-03 0. -1.
</event>
<event>
 8    1  0.1114686E+005  0.1043930E+01  0.7957747E-01            NaN
         13   -1    0    0    0    0  0.00000000000E+00  0.00000000000E+00  0.74505805969E-08  0.10566000000E+00  0.10566000000E+00 0.  1.
     999900   -1    0    0    0    0 -0.00000000000E+00 -0.00000000000E+00 -0.74505805969E-08  0.93827000000E+00  0.93827000000E+00 0. -1.
     999902    2    1    2    0    0  0.12844692257E-01  0.19766294017E-02 -0.19119961117E-01  0.10208114772E+01  0.10205496587E+01 0.  0.
     999903    2    3    3    0    0  0.67382483377E-01  0.10677748166E+00  0.30625155026E-01  0.13152402881E+00  0.20465590144E-01 0.  0.
         14    1    1    2    0    0 -0.12844692257E-01 -0.19766294017E-02  0.19119961117E-01  0.23118522792E-01  0.00000000000E+00 0.  1.
     999901    1    3    3    0    0 -0.54537791120E-01 -0.10480085225E+00 -0.49745116143E-01  0.88928744840E+00  0.88000000000E+00 0. -1.
        -11    1    4    4    0    0  0.16865170712E-01  0.45256315411E-01  0.11094961075E-01  0.49557313789E-01  0.51100000000E-03 0.  1.
         11    1    4    4    0    0  0.50517312665E-01  0.61521166245E-01  0.19530193951E-01  0.81966715024E-01  0.51100000000E-03 0. -1.
</event>
<event>
 8    1  0.1114686E+005  0.1043930E+01  0.7957747E-01            NaN
         13   -1    0    0    0    0  0.00000000000E+00  0.00000000000E+00  0.74505805969E-08  0.10566000000E+00  0.10566000000E+00 0. -1.
     999900   -1    0    0    0    0 -0.00000000000E+00 -0.00000000000E+00 -0.74505805969E-08  0.93827000000E+00  0.93827000000E+00 0.  1.
     999902    2    1    2    0    0  0.50833260533E-02 -0.23183175367E-01 -0.14075417710E-01  0.10163362107E+01  0.10159615524E+01 0.  0.
     999903    2    3    3    0    0 -0.16515404143E-02  0.12209328186E+00 -0.12824236944E-01  0.12439889626E+00  0.20028162103E-01 0.  0.
         14    1    1    2    0    0 -0.50833260533E-02  0.23183175367E-01  0.14075417710E-01  0.27593789293E-01  0.00000000000E+00 0. -1.
     999901    1    3    3    0    0  0.67348664677E-02 -0.14527645722E+00 -0.12511807656E-02  0.89193731445E+00  0.88000000000E+00 0. -1.
        -11    1    4    4    0    0 -0.63963735902E-02  0.56440780386E-01 -0.14224493371E-01  0.58558283943E-01  0.51100000000E-03 0. -1.
         11    1    4    4    0    0  0.47448331758E-02  0.65652501471E-01  0.14002564263E-02  0.65840612317E-01  0.51100000000E-03 0.  1.
</event>
<event>
 8    1  0.1114686E+005  0.1043930E+01  0.7957747E-01            NaN
         13   -1    0    0    0    0  0.00000000000E+00  0.00000000000E+00  0.74505805969E-08  0.10566000000E+00  0.10566000000E+00 0. -1.
     999900   -1    0    0    0    0 -0.00000000000E+00 -0.00000000000E+00 -0.74505805969E-08  0.93827000000E+00  0.93827000000E+00 0.  1.
     999902    2    1    2    0    0  0.21992526244E-01 -0.42621686853E-02 -0.10991114976E-01  0.10189772066E+01  0.10186716378E+01 0.  0.
     999903    2    3    3    0    0  0.63686824721E-01 -0.11291228616E+00 -0.45306002996E-02  0.13129201415E+00  0.20294596126E-01 0.  0.
         14    1    1    2    0    0 -0.21992526244E-01  0.42621686853E-02  0.10991114976E-01  0.24952793449E-01  0.00000000000E+00 0. -1.
     999901    1    3    3    0    0 -0.41694298477E-01  0.10865011748E+00 -0.64605146759E-02  0.88768519240E+00  0.88000000000E+00 0. -1.
        -11    1    4    4    0    0  0.58417047237E-02 -0.26724058335E-01  0.56399426765E-03  0.27365672265E-01  0.51100000000E-03 0.  1.
         11    1    4    4    0    0  0.57845119997E-01 -0.86188227826E-01 -0.50945945673E-02  0.10392634189E+00  0.51100000000E-03 0. -1.
</event>
<event>
 8    1  0.1114686E+005  0.1043930E+01  0.7957747E-01            NaN
         13   -1    0    0    0    0  0.00000000000E+00  0.00000000000E+00  0.74505805969E-08  0.10566000000E+00  0.10566000000E+00 0. -1.
     999900   -1    0    0    0    0 -0.00000000000E+00 -0.00000000000E+00 -0.74505805969E-08  0.93827000000E+00  0.93827000000E+00 0.  1.
     999902    2    1    2    0    0 -0.22386372431E-01 -0.71919665982E-02 -0.43971540323E-02  0.10200091092E+01  0.10197285785E+01 0.  0.
     999903    2    3    3    0    0 -0.53211090510E-01  0.63256364624E-01 -0.10018075529E+00  0.13147794547E+00  0.20432292959E-01 0.  0.
         14    1    1    2    0    0  0.22386372431E-01  0.71919665982E-02  0.43971540323E-02  0.23920890823E-01  0.00000000000E+00 0. -1.
     999901    1    3    3    0    0  0.30824718078E-01 -0.70448331222E-01  0.95783601254E-01  0.88853116371E+00  0.88000000000E+00 0.  1.
        -11    1    4    4    0    0 -0.68679897051E-02  0.22073501854E-01 -0.25787808338E-01  0.34636410706E-01  0.51100000000E-03 0.  1.
         11    1    4    4    0    0 -0.46343100805E-01  0.41182862770E-01 -0.74392946948E-01  0.96841534760E-01  0.51100000000E-03 0. -1.
</event>
<event>
 8    1  0.1114686E+005  0.1043930E+01  0.7957747E-01            NaN
         13   -1    0    0    0    0  0.00000000000E+00  0.00000000000E+00  0.74505805969E-08  0.10566000000E+00  0.10566000000E+00 0. -1.
     999900   -1    0    0    0    0 -0.00000000000E+00 -0.00000000000E+00 -0.74505805969E-08  0.93827000000E+00  0.93827000000E+00 0. -1.
     999902    2    1    2    0    0 -0.99859470257E-02 -0.22324762960E-01  0.21876406075E-02  0.10193759789E+01  0.10190802159E+01 0.  0.
     999903    2    3    3    0    0  0.40516306098E-01 -0.11568791048E+00  0.44812185041E-01  0.13197302273E+00  0.19582724779E-01 0.  0.
         14    1    1    2    0    0  0.99859470257E-02  0.22324762960E-01 -0.21876406075E-02  0.24554021068E-01  0.00000000000E+00 0. -1.
     999901    1    3    3    0    0 -0.50502253124E-01  0.93363147519E-01 -0.42624544434E-01  0.88740295620E+00  0.88000000000E+00 0. -1.
        -11    1    4    4    0    0  0.18387713198E-01 -0.79784694194E-01  0.31759393859E-01  0.87821555688E-01  0.51100000000E-03 0.  1.
         11    1    4    4    0    0  0.22128592900E-01 -0.35903216285E-01  0.13052791182E-01  0.44151467043E-01  0.51100000000E-03 0. -1.
</event>
<event>
 8    1  0.1114686E+005  0.1043930E+01  0.7957747E-01            NaN
         13   -1    0    0    0    0  0.00000000000E+00  0.00000000000E+00  0.74505805969E-08  0.10566000000E+00  0.10566000000E+00 0. -1.
     999900   -1    0    0    0    0 -0.00000000000E+00 -0.00000000000E+00 -0.74505805969E-08  0.93827000000E+00  0.93827000000E+00 0. -1.
     999902    2    1    2    0    0  0.12447422754E-01  0.28385728417E-02 -0.20056152998E-01  0.10201551161E+01  0.10198780397E+01 0.  0.
     999903    2    3    3    0    0 -0.70099539421E-01 -0.20934685439E-01 -0.10763342892E+00  0.13164571945E+00  0.19835169404E-01 0.  0.
         14    1    1    2    0    0 -0.12447422754E-01 -0.28385728417E-02  0.20056152998E-01  0.23774883850E-01  0.00000000000E+00 0. -1.
     999901    1    3    3    0    0  0.82546962175E-01  0.23773258280E-01  0.87577275924E-01  0.88850939670E+00  0.88000000000E+00 0.  1.
        -11    1    4    4    0    0 -0.55123912854E-01 -0.20097769147E-01 -0.71328621494E-01  0.92361244352E-01  0.51100000000E-03 0.  1.
         11    1    4    4    0    0 -0.14975626567E-01 -0.83691629143E-03 -0.36304807428E-01  0.39284475093E-01  0.51100000000E-03 0. -1.
</event>
<event>
 8    1  0.1114686E+005  0.1043930E+01  0.7957747E-01            NaN
         13   -1    0    0    0    0  0.00000000000E+00  0.00000000000E+00  0.74505805969E-08  0.10566000000E+00  0.10566000000E+00 0. -1.
     999900   -1    0    0    0    0 -0.00000000000E+00 -0.00000000000E+00 -0.74505805969E-08  0.93827000000E+00  0.93827000000E+00 0.  1.
     999902    2    1    2    0    0  0.14065375378E-01 -0.10517665573E-01 -0.14526238231E-01  0.10211381666E+01  0.10208837777E+01 0.  0.
     999903    2    3    3    0    0  0.82040310515E-02 -0.11617078228E-01 -0.13120498156E+00  0.13341664875E+00  0.19570190204E-01 0.  0.
         14    1    1    2    0    0 -0.14065375378E-01  0.10517665573E-01  0.14526238231E-01  0.22791833423E-01  0.00000000000E+00 0. -1.
     999901    1    3    3    0    0  0.58613443269E-02  0.10994126546E-02  0.11667874333E+00  0.88772151783E+00  0.88000000000E+00 0. -1.
        -11    1    4    4    0    0  0.20413937556E-02 -0.44144235613E-02 -0.11083948492E+00  0.11094731616E+00  0.51100000000E-03 0. -1.
         11    1    4    4    0    0  0.61626372959E-02 -0.72026546663E-02 -0.20365496639E-01  0.22469332590E-01  0.51100000000E-03 0.  1.
</event>
<event>
 8    1  0.1114686E+005  0.1043930E+01  0.7957747E-01            NaN
         13   -1    0    0    0    0  0.00000000000E+00  0.00000000000E+00  0.74505805969E-08  0.10566000000E+00  0.10566000000E+00 0.  1.
     999900   -1    0    0    0    0 -0.00000000000E+00 -0.00000000000E+00 -0.74505805969E-08  0.93827000000E+00  0.93827000000E+00 0. -1.
     999902    2    1    2    0    0 -0.14033403562E-01 -0.10926746245E-01  0.21234521242E-01  0.10162309911E+01  0.10158534305E+01 0.  0.
     999903    2    3    3    0    0  0.92966019440E-01 -0.48731703308E-01 -0.64583750548E-01  0.12480355884E+00  0.19682677303E-01 0.  0.
         14    1    1    2    0    0  0.14033403562E-01  0.10926746245E-01 -0.21234521242E-01  0.27699008853E-01  0.00000000000E+00 0. -1.
     999901    1    3    3    0    0 -0.10699942300E+00  0.37804957063E-01  0.85818271790E-01  0.89142743231E+00  0.88000000000E+00 0.  1.
        -11    1    4    4    0    0  0.46141513582E-01 -0.31748827632E-01 -0.42528035293E-01  0.70327251038E-01  0.51100000000E-03 0.  1.
         11    1    4    4    0    0  0.46824505858E-01 -0.16982875677E-01 -0.22055715255E-01  0.54476307800E-01  0.51100000000E-03 0. -1.
</event>
<event>
 8    1  0.1114686E+005  0.1043930E+01  0.7957747E-01            NaN
         13   -1    0    0    0    0  0.00000000000E+00  0.00000000000E+00  0.74505805969E-08  0.10566000000E+00  0.10566000000E+00 0.  1.
     999900   -1    0    0    0    0 -0.00000000000E+00 -0.00000000000E+00 -0.74505805969E-08  0.93827000000E+00  0.93827000000E+00 0. -1.
     999902    2    1    2    0    0  0.96351516953E-02  0.18469710784E-01  0.11296372562E-01  0.10202324390E+01  0.10199571830E+01 0.  0.
     999903    2    3    3    0    0  0.78452499344E-01 -0.77493131529E-01 -0.64412904413E-01  0.12912268758E+00  0.19070031610E-01 0.  0.
         14    1    1    2    0    0 -0.96351516953E-02 -0.18469710784E-01 -0.11296372562E-01  0.23697561007E-01  0.00000000000E+00 0. -1.
     999901    1    3    3    0    0 -0.68817347649E-01  0.95962842312E-01  0.75709276975E-01  0.89110975141E+00  0.88000000000E+00 0. -1.
        -11    1    4    4    0    0  0.56197309378E-01 -0.63809354801E-01 -0.55384545252E-01  0.10147650130E+00  0.51100000000E-03 0. -1.
         11    1    4    4    0    0  0.22255189965E-01 -0.13683776728E-01 -0.90283591612E-02  0.27646186284E-01  0.51100000000E-03 0.  1.
</event>
<event>
 8    1  0.1114686E+005  0.1043930E+01  0.7957747E-01            NaN
         13   -1    0    0    0    0  0.00000000000E+00  0.00000000000E+00  0.74505805969E-08  0.10566000000E+00  0.10566000000E+00 0. -1.
     999900   -1    0    0    0    0 -0.00000000000E+00 -0.00000000000E+00 -0.74505805969E-08  0.93827000000E+00  0.93827000000E+00 0. -1.
     999902    2    1    2    0    0 -0.25274741164E-03  0.14897531410E-01  0.17696576239E-01  0.10207962771E+01  0.10205341103E+01 0.  0.
     999903    2    3    3    0    0  0.23295736984E-01  0.11553724221E+00  0.59829680904E-01  0.13374606377E+00  0.20417471855E-01 0.  0.
         14    1    1    2    0    0  0.25274741164E-03 -0.14897531410E-01 -0.17696576239E-01  0.23133722873E-01  0.00000000000E+00 0.  1.
     999901    1    3    3    0    0 -0.23548484396E-01 -0.10063971080E+00 -0.42133104665E-01  0.88705021336E+00  0.88000000000E+00 0.  1.
        -11    1    4    4    0    0  0.11425227816E-01  0.47176779928E-01  0.35803729103E-01  0.60318757727E-01  0.51100000000E-03 0. -1.
         11    1    4    4    0    0  0.11870509168E-01  0.68360462286E-01  0.24025951801E-01  0.73427306044E-01  0.51100000000E-03 0.  1.
</event>
<event>
 8    1  0.1114686E+005  0.1043930E+01  0.7957747E-01            NaN
         13   -1    0    0    0    0  0.00000000000E+00  0.00000000000E+00  0.74505805969E-08  0.10566000000E+00  0.10566000000E+00 0. -1.
     999900   -1    0    0    0    0 -0.00000000000E+00 -0.00000000000E+00 -0.74505805969E-08  0.93827000000E+00  0.93827000000E+00 0.  1.
     999902    2    1    2    0    0 -0.69599921899E-02 -0.27049925153E-03  0.23544636329E-01  0.10193766996E+01  0.10190809541E+01 0.  0.
     999903    2    3    3    0    0  0.67277481878E-01  0.80689041566E-01 -0.69761533708E-01  0.12765270015E+00  0.19787856747E-01 0.  0.
         14    1    1    2    0    0  0.69599921899E-02  0.27049925153E-03 -0.23544636329E-01  0.24553300409E-01  0.00000000000E+00 0.  1.
     999901    1    3    3    0    0 -0.74237474068E-01 -0.80959540817E-01  0.93306170036E-01  0.89172399944E+00  0.88000000000E+00 0. -1.
        -11    1    4    4    0    0  0.66141631236E-01  0.71240677761E-01 -0.61436555314E-01  0.11499852608E+00  0.51100000000E-03 0.  1.
         11    1    4    4    0    0  0.11358506421E-02  0.94483638046E-02 -0.83249783940E-02  0.12654174075E-01  0.51100000000E-03 0. -1.
</event>
<event>
 8    1  0.1114686E+005  0.1043930E+01  0.7957747E-01            NaN
         13   -1    0    0    0    0  0.00000000000E+00  0.00000000000E+00  0.74505805969E-08  0.10566000000E+00  0.10566000000E+00 0. -1.
     999900   -1    0    0    0    0 -0.00000000000E+00 -0.00000000000E+00 -0.74505805969E-08  0.93827000000E+00  0.93827000000E+00 0.  1.
     999902    2    1    2    0    0  0.85390896428E-02 -0.22140559785E-01 -0.59041934385E-02  0.10194763716E+01  0.10191830515E+01 0.  0.
     999903    2    3    3    0    0  0.23966249754E-01 -0.23365822890E-01 -0.12537546818E+00  0.13126869096E+00  0.19801979687E-01 0.  0.
         14    1    1    2    0    0 -0.85390896428E-02  0.22140559785E-01  0.59041934385E-02  0.24453628354E-01  0.00000000000E+00 0.  1.
     999901    1    3    3    0    0 -0.15427160111E-01  0.12252631057E-02  0.11947127474E+00  0.88820768068E+00  0.88000000000E+00 0. -1.
        -11    1    4    4    0    0  0.79166965601E-02 -0.15534261874E-01 -0.89580788777E-01  0.91263170093E-01  0.51100000000E-03 0.  1.
         11    1    4    4    0    0  0.16049553194E-01 -0.78315610159E-02 -0.35794679400E-01  0.40005520869E-01  0.51100000000E-03 0. -1.
</event>
<event>
 8    1  0.1114686E+005  0.1043930E+01  0.7957747E-01            NaN
         13   -1    0    0    0    0  0.00000000000E+00  0.00000000000E+00  0.74505805969E-08  0.10566000000E+00  0.10566000000E+00 0.  1.
     999900   -1    0    0    0    0 -0.00000000000E+00 -0.00000000000E+00 -0.74505805969E-08  0.93827000000E+00  0.93827000000E+00 0.  1.
     999902    2    1    2    0    0  0.28742883007E-02 -0.21504989511E-01 -0.94519827049E-02  0.10202642846E+01  0.10199897766E+01 0.  0.
     999903    2    3    3    0    0  0.30134809630E-01 -0.13380648234E-01 -0.12646153923E+00  0.13206364442E+00  0.19003598957E-01 0.  0.
         14    1    1    2    0    0 -0.28742883007E-02  0.21504989511E-01  0.94519827049E-02  0.23665715374E-01  0.00000000000E+00 0.  1.
     999901    1    3    3    0    0 -0.27260521329E-01 -0.81243412775E-02  0.11700955653E+00  0.88820064021E+00  0.88000000000E+00 0. -1.
        -11    1    4    4    0    0  0.12066668547E-01 -0.88140360856E-03 -0.76910112664E-01  0.77857613071E-01  0.51100000000E-03 0.  1.
         11    1    4    4    0    0  0.18068141084E-01 -0.12499244625E-01 -0.49551426570E-01  0.54206031349E-01  0.51100000000E-03 0. -1.
</event>
<event>
 8    1  0.1114686E+005  0.1043930E+01  0.7957747E-01            NaN
         13   -1    0    0    0    0  0.00000000000E+00  0.00000000000E+00  0.74505805969E-08  0.10566000000E+00  0.10566000000E+00 0. -1.
     999900   -1    0    0    0    0 -0.00000000000E+00 -0.00000000000E+00 -0.74505805969E-08  0.93827000000E+00  0.93827000000E+00 0.  1.
     999902    2    1    2    0    0  0.21482767675E-01  0.43990555519E-02 -0.80159099476E-02  0.10205822847E+01  0.10203151886E+01 0.  0.
     999903    2    3    3    0    0  0.64557608239E-01 -0.10136861683E-02  0.11270156992E+00  0.13128062071E+00  0.19085208163E-01 0.  0.
         14    1    1    2    0    0 -0.21482767675E-01 -0.43990555519E-02  0.80159099476E-02  0.23347715285E-01  0.00000000000E+00 0.  1.
     999901    1    3    3    0    0 -0.43074840564E-01  0.54127417202E-02 -0.12071747986E+00  0.88930166401E+00  0.88000000000E+00 0.  1.
        -11    1    4    4    0    0  0.36936930193E-01  0.59215877134E-03  0.82059727583E-01  0.89993041265E-01  0.51100000000E-03 0.  1.
         11    1    4    4    0    0  0.27620678045E-01 -0.16058449396E-02  0.30641842334E-01  0.41287579443E-01  0.51100000000E-03 0. -1.
</event>
<event>
 8    1  0.1114686E+005  0.1043930E+01  0.7957747E-01            NaN
         13   -1    0    0    0    0  0.00000000000E+00  0.00000000000E+00  0.74505805969E-08  0.10566000000E+00  0.10566000000E+00 0. -1.
     999900   -1    0    0    0    0 -0.00000000000E+00 -0.00000000000E+00 -0.74505805969E-08  0.93827000000E+00  0.93827000000E+00 0. -1.
     999902    2    1    2    0    0  0.13907905929E-01  0.17078043391E-01 -0.89725503279E-02  0.10201477362E+01  0.10198704857E+01 0.  0.
     999903    2    3    3    0    0  0.10709318713E+00 -0.63307992850E-01 -0.37604952809E-01  0.13112286255E+00  0.17384473464E-01 0.  0.
         14    1    1    2    0    0 -0.13907905929E-01 -0.17078043391E-01  0.89725503279E-02  0.23782263827E-01  0.00000000000E+00 0.  1.
     999901    1    3    3    0    0 -0.93185281203E-01  0.80386036241E-01  0.28632402481E-01  0.88902487363E+00  0.88000000000E+00 0. -1.
        -11    1    4    4    0    0  0.95002866354E-01 -0.56579899545E-01 -0.38894516286E-01  0.11721720934E+00  0.51100000000E-03 0. -1.
         11    1    4    4    0    0  0.12090320778E-01 -0.67280933053E-02  0.12895634771E-02  0.13905653203E-01  0.51100000000E-03 0.  1.
</event>
<event>
 8    1  0.1114686E+005  0.1043930E+01  0.7957747E-01            NaN
         13   -1    0    0    0    0  0.00000000000E+00  0.00000000000E+00  0.74505805969E-08  0.10566000000E+00  0.10566000000E+00 0.  1.
     999900   -1    0    0    0    0 -0.00000000000E+00 -0.00000000000E+00 -0.74505805969E-08  0.93827000000E+00  0.93827000000E+00 0. -1.
     999902    2    1    2    0    0  0.23548621670E-01  0.15529729263E-01 -0.46831109558E-02  0.10153355669E+01  0.10149328411E+01 0.  0.
     999903    2    3    3    0    0  0.60744867492E-01  0.37056749948E-01  0.10360579854E+00  0.12765687437E+00  0.22337735794E-01 0.  0.
         14    1    1    2    0    0 -0.23548621670E-01 -0.15529729263E-01  0.46831109558E-02  0.28594433055E-01  0.00000000000E+00 0.  1.
     999901    1    3    3    0    0 -0.37196245822E-01 -0.21527020686E-01 -0.10828890950E+00  0.88767869257E+00  0.88000000000E+00 0. -1.
        -11    1    4    4    0    0  0.39466461773E-01  0.35611214282E-01  0.76650656670E-01  0.93280997403E-01  0.51100000000E-03 0.  1.
         11    1    4    4    0    0  0.21278405719E-01  0.14455356668E-02  0.26955141871E-01  0.34375876972E-01  0.51100000000E-03 0. -1.
</event>
<event>
 8    1  0.1114686E+005  0.1043930E+01  0.7957747E-01            NaN
         13   -1    0    0    0    0  0.00000000000E+00  0.00000000000E+00  0.74505805969E-08  0.10566000000E+00  0.10566000000E+00 0. -1.
     999900   -1    0    0    0    0 -0.00000000000E+00 -0.00000000000E+00 -0.74505805969E-08  0.93827000000E+00  0.93827000000E+00 0. -1.
     999902    2    1    2    0    0 -0.35887755841E-02  0.91571438498E-02 -0.21282004550E-01  0.10204852498E+01  0.10202159030E+01 0.  0.
     999903    2    3    3    0    0 -0.65412659318E-01  0.10604364715E+00  0.35688226986E-01  0.13118507867E+00  0.20292959863E-01 0.  0.
         14    1    1    2    0    0  0.35887755841E-02 -0.91571438498E-02  0.21282004550E-01  0.23444750188E-01  0.00000000000E+00 0. -1.
     999901    1    3    3    0    0  0.61823883734E-01 -0.96886503296E-01 -0.56970231536E-01  0.88930017115E+00  0.88000000000E+00 0. -1.
        -11    1    4    4    0    0 -0.26307023385E-01  0.31050937989E-01  0.41200245270E-02  0.40907895967E-01  0.51100000000E-03 0. -1.
         11    1    4    4    0    0 -0.39105635933E-01  0.74992709157E-01  0.31568202459E-01  0.90277182698E-01  0.51100000000E-03 0.  1.
</event>
<event>
 8    1  0.1114686E+005  0.1043930E+01  0.7957747E-01            NaN
         13   -1    0    0    0    0  0.00000000000E+00  0.00000000000E+00  0.74505805969E-08  0.10566000000E+00  0.10566000000E+00 0.  1.
     999900   -1    0    0    0    0 -0.00000000000E+00 -0.00000000000E+00 -0.74505805969E-08  0.93827000000E+00  0.93827000000E+00 0.  1.
     999902    2    1    2    0    0  0.20279617872E-01 -0.12024529887E-01  0.34676599789E-02  0.10200998324E+01  0.10198214507E+01 0.  0.
     999903    2    3    3    0    0 -0.10148217517E+00 -0.39348641654E-01 -0.65478888416E-01  0.12862567810E+00  0.20251734752E-01 0.  0.
         14    1    1    2    0    0 -0.20279617872E-01  0.12024529887E-01 -0.34676599789E-02  0.23830167557E-01  0.00000000000E+00 0. -1.
     999901    1    3    3    0    0  0.12176179304E+00  0.27324111767E-01  0.68946548395E-01  0.89147415434E+00  0.88000000000E+00 0. -1.
        -11    1    4    4    0    0 -0.76026513536E-01 -0.19948536856E-01 -0.44022045228E-01  0.90089824454E-01  0.51100000000E-03 0.  1.
         11    1    4    4    0    0 -0.25455661636E-01 -0.19400104798E-01 -0.21456843188E-01  0.38535853644E-01  0.51100000000E-03 0. -1.
</event>
<event>
 8    1  0.1114686E+005  0.1043930E+01  0.7957747E-01            NaN
         13   -1    0    0    0    0  0.00000000000E+00  0.00000000000E+00  0.74505805969E-08  0.10566000000E+00  0.10566000000E+00 0. -1.
     999900   -1    0    0    0    0 -0.00000000000E+00 -0.00000000000E+00 -0.74505805969E-08  0.93827000000E+00  0.93827000000E+00 0. -1.
     999902    2    1    2    0    0 -0.26460539673E-01 -0.60991573018E-02  0.77053107878E-02  0.10157035639E+01  0.10153112814E+01 0.  0.
     999903    2    3    3    0    0 -0.58179932952E-01 -0.28052154759E-02 -0.11151038807E+00  0.12709265198E+00  0.18033349884E-01 0.  0.
         14    1    1    2    0    0  0.26460539673E-01  0.60991573018E-02 -0.77053107878E-02  0.28226436082E-01  0.00000000000E+00 0. -1.
     999901    1    3    3    0    0  0.31719393280E-01 -0.32939418259E-02  0.11921569885E+00  0.88861091194E+00  0.88000000000E+00 0.  1.
        -11    1    4    4    0    0 -0.28822747910E-01  0.49251350983E-02 -0.41373587395E-01  0.50665990642E-01  0.51100000000E-03 0. -1.
         11    1    4    4    0    0 -0.29357185042E-01 -0.77303505742E-02 -0.70136800672E-01  0.76426661337E-01  0.51100000000E-03 0.  1.
</event>
<event>
 8    1  0.1114686E+005  0.1043930E+01  0.7957747E-01            NaN
         13   -1    0    0    0    0  0.00000000000E+00  0.00000000000E+00  0.74505805969E-08  0.10566000000E+00  0.10566000000E+00 0.  1.
     999900   -1    0    0    0    0 -0.00000000000E+00 -0.00000000000E+00 -0.74505805969E-08  0.93827000000E+00  0.93827000000E+00 0.  1.
     999902    2    1    2    0    0 -0.19685801200E-01  0.77921996626E-02 -0.11231633878E-01  0.10199633827E+01  0.10196817657E+01 0.  0.
     999903    2    3    3    0    0  0.19402710745E-01  0.12359564995E+00  0.31535878298E-01  0.13048746345E+00  0.19496579854E-01 0.  0.
         14    1    1    2    0    0  0.19685801200E-01 -0.77921996626E-02  0.11231633878E-01  0.23966617284E-01  0.00000000000E+00 0.  1.
     999901    1    3    3    0    0 -0.39088511945E-01 -0.11580345029E+00 -0.42767512176E-01  0.88947591927E+00  0.88000000000E+00 0. -1.
        -11    1    4    4    0    0  0.12923175887E-01  0.69118540813E-01  0.27401488623E-01  0.75468429551E-01  0.51100000000E-03 0.  1.
         11    1    4    4    0    0  0.64795348583E-02  0.54477109135E-01  0.41343896750E-02  0.55019033894E-01  0.51100000000E-03 0. -1.
</event>
<event>
 8    1  0.1114686E+005  0.1043930E+01  0.7957747E-01            NaN
         13   -1    0    0    0    0  0.00000000000E+00  0.00000000000E+00  0.74505805969E-08  0.10566000000E+00  0.10566000000E+00 0.  1.
     999900   -1    0    0    0    0 -0.00000000000E+00 -0.00000000000E+00 -0.74505805969E-08  0.93827000000E+00  0.93827000000E+00 0.  1.
     999902    2    1    2    0    0 -0.14776643622E-02 -0.14589654113E-01 -0.20478716038E-01  0.10187423183E+01  0.10184308969E+01 0.  0.
     999903    2    3    3    0    0 -0.44925245126E-01 -0.78289048788E-01  0.89639299308E-01  0.12853375708E+00  0.18392115677E-01 0.  0.
         14    1    1    2    0    0  0.14776643622E-02  0.14589654113E-01  0.20478716038E-01  0.25187681705E-01  0.00000000000E+00 0.  1.
     999901    1    3    3    0    0  0.43447580764E-01  0.63699394675E-01 -0.11011801535E+00  0.89020856121E+00  0.88000000000E+00 0. -1.
        -11    1    4    4    0    0 -0.14716589291E-01 -0.31410800725E-01  0.22938911629E-01  0.41589315819E-01  0.51100000000E-03 0. -1.
         11    1    4    4    0    0 -0.30208655835E-01 -0.46878248063E-01  0.66700387679E-01  0.86944441261E-01  0.51100000000E-03 0.  1.
</event>
<event>
 8    1  0.1114686E+005  0.1043930E+01  0.7957747E-01            NaN
         13   -1    0    0    0    0  0.00000000000E+00  0.00000000000E+00  0.74505805969E-08  0.10566000000E+00  0.10566000000E+00 0.  1.
     999900   -1    0    0    0    0 -0.00000000000E+00 -0.00000000000E+00 -0.74505805969E-08  0.93827000000E+00  0.93827000000E+00 0.  1.
     999902    2    1    2    0    0  0.18399132891E-01  0.92978382009E-02 -0.98976961131E-02  0.10210620689E+01  0.10208059591E+01 0.  0.
     999903    2    3    3    0    0 -0.19725639577E-01 -0.51609934476E-01 -0.11745206376E+00  0.13160650670E+00  0.21739345241E-01 0.  0.
         14    1    1    2    0    0 -0.18399132891E-01 -0.92978382009E-02  0.98976961131E-02  0.22867931141E-01  0.00000000000E+00 0.  1.
     999901    1    3    3    0    0  0.38124772468E-01  0.60907772677E-01  0.10755436765E+00  0.88945556215E+00  0.88000000000E+00 0. -1.
        -11    1    4    4    0    0 -0.14531905006E-02 -0.21436140609E-01 -0.64433365056E-01  0.67923041306E-01  0.51100000000E-03 0.  1.
         11    1    4    4    0    0 -0.18272449076E-01 -0.30173793867E-01 -0.53018698705E-01  0.63683465397E-01  0.51100000000E-03 0. -1.
</event>
<event>
 8    1  0.1114686E+005  0.1043930E+01  0.7957747E-01            NaN
         13   -1    0    0    0    0  0.00000000000E+00  0.00000000000E+00  0.74505805969E-08  0.10566000000E+00  0.10566000000E+00 0.  1.
     999900   -1    0    0    0    0 -0.00000000000E+00 -0.00000000000E+00 -0.74505805969E-08  0.93827000000E+00  0.93827000000E+00 0.  1.
     999902    2    1    2    0    0 -0.15650311894E-01 -0.30449318498E-01  0.93841328914E-02  0.10084313351E+01  0.10078063318E+01 0.  0.
     999903    2    3    3    0    0  0.59597287406E-01 -0.27505624558E-01 -0.96253730691E-01  0.11892010709E+00  0.23849845920E-01 0.  0.
         14    1    1    2    0    0  0.15650311894E-01  0.30449318498E-01 -0.93841328914E-02  0.35498664897E-01  0.00000000000E+00 0. -1.
     999901    1    3    3    0    0 -0.75247599300E-01 -0.29436939402E-02  0.10563786358E+00  0.88951122801E+00  0.88000000000E+00 0. -1.
        -11    1    4    4    0    0  0.56809899869E-01 -0.31371317137E-01 -0.87506603772E-01  0.10894581721E+00  0.51100000000E-03 0. -1.
         11    1    4    4    0    0  0.27873875373E-02  0.38656925786E-02 -0.87471269193E-02  0.99742898864E-02  0.51100000000E-03 0.  1.
</event>
<event>
 8    1  0.1114686E+005  0.1043930E+01  0.7957747E-01            NaN
         13   -1    0    0    0    0  0.00000000000E+00  0.00000000000E+00  0.74505805969E-08  0.10566000000E+00  0.10566000000E+00 0.  1.
     999900   -1    0    0    0    0 -0.00000000000E+00 -0.00000000000E+00 -0.74505805969E-08  0.93827000000E+00  0.93827000000E+00 0.  1.
     999902    2    1    2    0    0  0.47016422850E-02  0.17553390330E-01  0.88155454217E-02  0.10237324558E+01  0.10235331945E+01 0.  0.
     999903    2    3    3    0    0  0.46369677901E-01 -0.38127616503E-01 -0.11620435208E+00  0.13217955521E+00  0.19081960190E-01 0.  0.
         14    1    1    2    0    0 -0.47016422850E-02 -0.17553390330E-01 -0.88155454217E-02  0.20197544240E-01  0.00000000000E+00 0. -1.
     999901    1    3    3    0    0 -0.41668035616E-01  0.55681006833E-01  0.12501989750E+00  0.89155290055E+00  0.88000000000E+00 0. -1.
        -11    1    4    4    0    0  0.43467014216E-01 -0.27926060226E-01 -0.10302379627E+00  0.11525367623E+00  0.51100000000E-03 0.  1.
         11    1    4    4    0    0  0.29026636847E-02 -0.10201556278E-01 -0.13180555801E-01  0.16925878978E-01  0.51100000000E-03 0. -1.
</event>
<event>
 8    1  0.1114686E+005  0.1043930E+01  0.7957747E-01            NaN
         13   -1    0    0    0    0  0.00000000000E+00  0.00000000000E+00  0.74505805969E-08  0.10566000000E+00  0.10566000000E+00 0. -1.
     999900   -1    0    0    0    0 -0.00000000000E+00 -0.00000000000E+00 -0.74505805969E-08  0.93827000000E+00  0.93827000000E+00 0.  1.
     999902    2    1    2    0    0 -0.16265000247E-01  0.17389192496E-01 -0.52419219174E-02  0.10195494341E+01  0.10192578852E+01 0.  0.
     999903    2    3    3    0    0  0.14990221286E-01 -0.83567037260E-02  0.12578902148E+00  0.12892670354E+00  0.22464988973E-01 0.  0.
         14    1    1    2    0    0  0.16265000247E-01 -0.17389192496E-01  0.52419219174E-02  0.24380565910E-01  0.00000000000E+00 0. -1.
     999901    1    3    3    0    0 -0.31255221533E-01  0.25745896222E-01 -0.13103094340E+00  0.89062273055E+00  0.88000000000E+00 0.  1.
        -11    1    4    4    0    0  0.19336760250E-02 -0.13533896860E-02  0.91961720057E-01  0.91993422827E-01  0.51100000000E-03 0.  1.
         11    1    4    4    0    0  0.13056545261E-01 -0.70033140400E-02  0.33827301422E-01  0.36933280712E-01  0.51100000000E-03 0. -1.
</event>
<event>
 8    1  0.1114686E+005  0.1043930E+01  0.7957747E-01            NaN
         13   -1    0    0    0    0  0.00000000000E+00  0.00000000000E+00  0.74505805969E-08  0.10566000000E+00  0.10566000000E+00 0.  1.
     999900   -1    0    0    0    0 -0.00000000000E+00 -0.00000000000E+00 -0.74505805969E-08  0.93827000000E+00  0.93827000000E+00 0.  1.
     999902    2    1    2    0    0  0.70365415967E-02 -0.18444994910E-01 -0.13724883065E-01  0.10198862239E+01  0.10196027690E+01 0.  0.
     999903    2    3    3    0    0 -0.93431797467E-01 -0.15965446166E-01  0.84824766763E-01  0.12870045829E+00  0.19600271885E-01 0.  0.
         14    1    1    2    0    0 -0.70365415967E-02  0.18444994910E-01  0.13724883065E-01  0.24043776118E-01  0.00000000000E+00 0. -1.
     999901    1    3    3    0    0  0.10046833906E+00 -0.24795487433E-02 -0.98549649828E-01  0.89118576559E+00  0.88000000000E+00 0.  1.
        -11    1    4    4    0    0 -0.76523399385E-01 -0.12605337018E-01  0.78445803960E-01  0.11031196877E+00  0.51100000000E-03 0. -1.
         11    1    4    4    0    0 -0.16908398082E-01 -0.33601091481E-02  0.63789628031E-02  0.18388489514E-01  0.51100000000E-03 0.  1.
</event>
<event>
 8    1  0.1114686E+005  0.1043930E+01  0.7957747E-01            NaN
         13   -1    0    0    0    0  0.00000000000E+00  0.00000000000E+00  0.74505805969E-08  0.10566000000E+00  0.10566000000E+00 0.  1.
     999900   -1    0    0    0    0 -0.00000000000E+00 -0.00000000000E+00 -0.74505805969E-08  0.93827000000E+00  0.93827000000E+00 0. -1.
     999902    2    1    2    0    0 -0.60274903637E-02  0.21030277510E-01 -0.11394852815E-01  0.10192633042E+01  0.10189647871E+01 0.  0.
     999903    2    3    3    0    0 -0.58425750693E-01 -0.50775771644E-01  0.99594511291E-01  0.12784851558E+00  0.20842958691E-01 0.  0.
         14    1    1    2    0    0  0.60274903637E-02 -0.21030277510E-01  0.11394852815E-01  0.24666695825E-01  0.00000000000E+00 0.  1.
     999901    1    3    3    0    0  0.52398260329E-01  0.71806049154E-01 -0.11098936411E+00  0.89141478859E+00  0.88000000000E+00 0. -1.
        -11    1    4    4    0    0 -0.59506407098E-02  0.61169342905E-03  0.36787143316E-02  0.70411898030E-02  0.51100000000E-03 0.  1.
         11    1    4    4    0    0 -0.52475109983E-01 -0.51387465073E-01  0.95915796959E-01  0.12080732578E+00  0.51100000000E-03 0. -1.
</event>
<event>
 8    1  0.1114686E+005  0.1043930E+01  0.7957747E-01            NaN
         13   -1    0    0    0    0  0.00000000000E+00  0.00000000000E+00  0.74505805969E-08  0.10566000000E+00  0.10566000000E+00 0. -1.
     999900   -1    0    0    0    0 -0.00000000000E+00 -0.00000000000E+00 -0.74505805969E-08  0.93827000000E+00  0.93827000000E+00 0.  1.
     999902    2    1    2    0    0 -0.16076339784E-01 -0.12211456441E-01 -0.84297960365E-02  0.10220523897E+01  0.10218182116E+01 0.  0.
     999903    2    3    3    0    0  0.66930090479E-01 -0.99937699245E-01 -0.52636723236E-01  0.13270419384E+00  0.19302789657E-01 0.  0.
         14    1    1    2    0    0  0.16076339784E-01  0.12211456441E-01  0.84297960365E-02  0.21877610255E-01  0.00000000000E+00 0. -1.
     999901    1    3    3    0    0 -0.83006430264E-01  0.87726242804E-01  0.44206927199E-01  0.88934819590E+00  0.88000000000E+00 0. -1.
        -11    1    4    4    0    0  0.84891980030E-02 -0.25878294215E-01 -0.83982129115E-02  0.28505152084E-01  0.51100000000E-03 0. -1.
         11    1    4    4    0    0  0.58440892476E-01 -0.74059405030E-01 -0.44238510324E-01  0.10419904176E+00  0.51100000000E-03 0.  1.
</event>
<event>
 8    1  0.1114686E+005  0.1043930E+01  0.7957747E-01            NaN
         13   -1    0    0    0    0  0.00000000000E+00  0.00000000000E+00  0.74505805969E-08  0.10566000000E+00  0.10566000000E+00 0.  1.
     999900   -1    0    0    0    0 -0.00000000000E+00 -0.00000000000E+00 -0.74505805969E-08  0.93827000000E+00  0.93827000000E+00 0.  1.
     999902    2    1    2    0    0 -0.82562505848E-02  0.22192514887E-01 -0.13145420262E-02  0.10202149961E+01  0.10199393300E+01 0.  0.
     999903    2    3    3    0    0 -0.87935062985E-01 -0.91943208236E-01 -0.81378662588E-02  0.12924797412E+00  0.21276397844E-01 0.  0.
         14    1    1    2    0    0  0.82562505848E-02 -0.22192514887E-01  0.13145420262E-02  0.23715003932E-01  0.00000000000E+00 0.  1.
     999901    1    3    3    0    0  0.79678812400E-01  0.11413572312E+00  0.68233242325E-02  0.89096702194E+00  0.88000000000E+00 0.  1.
        -11    1    4    4    0    0 -0.34361126068E-01 -0.22134253475E-01 -0.51434378265E-02  0.41198643609E-01  0.51100000000E-03 0. -1.
         11    1    4    4    0    0 -0.53573936917E-01 -0.69808954761E-01 -0.29944284323E-02  0.88049330515E-01  0.51100000000E-03 0.  1.
</event>
<event>
 8    1  0.1114686E+005  0.1043930E+01  0.7957747E-01            NaN
         13   -1    0    0    0    0  0.00000000000E+00  0.00000000000E+00  0.74505805969E-08  0.10566000000E+00  0.10566000000E+00 0.  1.
     999900   -1    0    0    0    0 -0.00000000000E+00 -0.00000000000E+00 -0.74505805969E-08  0.93827000000E+00  0.93827000000E+00 0. -1.
     999902    2    1    2    0    0 -0.13518752192E-01  0.14049380462E-01 -0.13410612199E-01  0.10202659709E+01  0.10199915025E+01 0.  0.
     999903    2    3    3    0    0 -0.64630991639E-01  0.68762424888E-01 -0.92185476276E-01  0.13358031217E+00  0.20978598746E-01 0.  0.
         14    1    1    2    0    0  0.13518752192E-01 -0.14049380462E-01  0.13410612199E-01  0.23664029068E-01  0.00000000000E+00 0.  1.
     999901    1    3    3    0    0  0.51112239446E-01 -0.54713044426E-01  0.78774864078E-01  0.88668565877E+00  0.88000000000E+00 0.  1.
        -11    1    4    4    0    0 -0.45137172983E-01  0.42803885844E-01 -0.72831859238E-01  0.95782450738E-01  0.51100000000E-03 0.  1.
         11    1    4    4    0    0 -0.19493818655E-01  0.25958539043E-01 -0.19353617038E-01  0.37797861427E-01  0.51100000000E-03 0. -1.
</event>
<event>
 8    1  0.1114686E+005  0.1043930E+01  0.7957747E-01            NaN
         13   -1    0    0    0    0  0.00000000000E+00  0.00000000000E+00  0.74505805969E-08  0.10566000000E+00  0.10566000000E+00 0.  1.
     999900   -1    0    0    0    0 -0.00000000000E+00 -0.00000000000E+00 -0.74505805969E-08  0.93827000000E+00  0.93827000000E+00 0.  1.
     999902    2    1    2    0    0  0.19155116727E-01 -0.10396108187E-02 -0.12208655871E-01  0.10211912541E+01  0.10209380622E+01 0.  0.
     999903    2    3    3    0    0 -0.39060378152E-01  0.10790935023E+00 -0.60435866469E-01  0.13125598464E+00  0.20136994340E-01 0.  0.
         14    1    1    2    0    0 -0.19155116727E-01  0.10396108187E-02  0.12208655871E-01  0.22738745912E-01  0.00000000000E+00 0.  1.
     999901    1    3    3    0    0  0.58215494879E-01 -0.10894896105E+00  0.48227210598E-01  0.88993526944E+00  0.88000000000E+00 0. -1.
        -11    1    4    4    0    0 -0.30883674170E-02  0.16524003619E-01 -0.16851055690E-01  0.23807559887E-01  0.51100000000E-03 0.  1.
         11    1    4    4    0    0 -0.35972010735E-01  0.91385346609E-01 -0.43584810779E-01  0.10744842476E+00  0.51100000000E-03 0. -1.
</event>
<event>
 8    1  0.1114686E+005  0.1043930E+01  0.7957747E-01            NaN
         13   -1    0    0    0    0  0.00000000000E+00  0.00000000000E+00  0.74505805969E-08  0.10566000000E+00  0.10566000000E+00 0.  1.
     999900   -1    0    0    0    0 -0.00000000000E+00 -0.00000000000E+00 -0.74505805969E-08  0.93827000000E+00  0.93827000000E+00 0. -1.
     999902    2    1    2    0    0 -0.20141426713E-01  0.16635504702E-01  0.10190485154E-01  0.10158896171E+01  0.10155025608E+01 0.  0.
     999903    2    3    3    0    0 -0.84915691182E-02  0.11593853742E+00 -0.50110703518E-01  0.12817736367E+00  0.20112253640E-01 0.  0.
         14    1    1    2    0    0  0.20141426713E-01 -0.16635504702E-01 -0.10190485154E-01  0.28040382922E-01  0.00000000000E+00 0. -1.
     999901    1    3    3    0    0 -0.11649857595E-01 -0.99303032716E-01  0.60301188672E-01  0.88771225340E+00  0.88000000000E+00 0.  1.
        -11    1    4    4    0    0 -0.11651322185E-01  0.60269145136E-01 -0.18672651820E-01  0.64164259608E-01  0.51100000000E-03 0. -1.
         11    1    4    4    0    0  0.31597530667E-02  0.55669392283E-01 -0.31438051698E-01  0.64013104066E-01  0.51100000000E-03 0.  1.
</event>
<event>
 8    1  0.1114686E+005  0.1043930E+01  0.7957747E-01            NaN
         13   -1    0    0    0    0  0.00000000000E+00  0.00000000000E+00  0.74505805969E-08  0.10566000000E+00  0.10566000000E+00 0. -1.
     999900   -1    0    0    0    0 -0.00000000000E+00 -0.00000000000E+00 -0.74505805969E-08  0.93827000000E+00  0.93827000000E+00 0.  1.
     999902    2    1    2    0    0 -0.11144971050E-01  0.76607976750E-02 -0.18331214049E-01  0.10211499296E+01  0.10208958062E+01 0.  0.
     999903    2    3    3    0    0  0.12271927330E+00  0.37599156062E-01 -0.12085962719E-01  0.13050132075E+00  0.20268390277E-01 0.  0.
         14    1    1    2    0    0  0.11144971050E-01 -0.76607976750E-02  0.18331214049E-01  0.22780070440E-01  0.00000000000E+00 0. -1.
     999901    1    3    3    0    0 -0.13386424436E+00 -0.29938358387E-01 -0.62452513294E-02  0.89064860881E+00  0.88000000000E+00 0.  1.
        -11    1    4    4    0    0  0.59802145007E-01  0.28696516727E-01 -0.81825497994E-02  0.66835633175E-01  0.51100000000E-03 0.  1.
         11    1    4    4    0    0  0.62917128298E-01  0.89026393349E-02 -0.39034129201E-02  0.63665687571E-01  0.51100000000E-03 0. -1.
</event>
<event>
 8    1  0.1114686E+005  0.1043930E+01  0.7957747E-01            NaN
         13   -1    0    0    0    0  0.00000000000E+00  0.00000000000E+00  0.74505805969E-08  0.10566000000E+00  0.10566000000E+00 0. -1.
     999900   -1    0    0    0    0 -0.00000000000E+00 -0.00000000000E+00 -0.74505805969E-08  0.93827000000E+00  0.93827000000E+00 0.  1.
     999902    2    1    2    0    0  0.23077983635E-01  0.86839965295E-02  0.10026936435E-01  0.10173114993E+01  0.10169631960E+01 0.  0.
     999903    2    3    3    0    0 -0.39287898550E-01 -0.11625151603E+00  0.18146886200E-01  0.12626474457E+00  0.23569520356E-01 0.  0.
         14    1    1    2    0    0 -0.23077983635E-01 -0.86839965295E-02 -0.10026936435E-01  0.26618500684E-01  0.00000000000E+00 0.  1.
     999901    1    3    3    0    0  0.62365882185E-01  0.12493551256E+00 -0.81199497645E-02  0.89104675475E+00  0.88000000000E+00 0.  1.
        -11    1    4    4    0    0 -0.26586904471E-01 -0.49082446409E-01  0.15129432732E-01  0.57836933621E-01  0.51100000000E-03 0.  1.
         11    1    4    4    0    0 -0.12700994079E-01 -0.67169069624E-01  0.30174534682E-02  0.68427810949E-01  0.51100000000E-03 0. -1.
</event>
<event>
 8    1  0.1114686E+005  0.1043930E+01  0.7957747E-01            NaN
         13   -1    0    0    0    0  0.00000000000E+00  0.00000000000E+00  0.74505805969E-08  0.10566000000E+00  0.10566000000E+00 0. -1.
     999900   -1    0    0    0    0 -0.00000000000E+00 -0.00000000000E+00 -0.74505805969E-08  0.93827000000E+00  0.93827000000E+00 0.  1.
     999902    2    1    2    0    0 -0.17175176172E-01  0.72931039186E-02 -0.15087046164E-01  0.10199342711E+01  0.10196519614E+01 0.  0.
     999903    2    3    3    0    0  0.10932318887E+00 -0.89771296346E-02 -0.63780526279E-01  0.12940767869E+00  0.25421315711E-01 0.  0.
         14    1    1    2    0    0  0.17175176172E-01 -0.72931039186E-02  0.15087046164E-01  0.23995728855E-01  0.00000000000E+00 0. -1.
     999901    1    3    3    0    0 -0.12649836504E+00  0.16270233553E-01  0.48693480115E-01  0.89052659245E+00  0.88000000000E+00 0. -1.
        -11    1    4    4    0    0  0.10490894418E+00 -0.48078621031E-02 -0.54537380876E-01  0.11833676158E+00  0.51100000000E-03 0. -1.
         11    1    4    4    0    0  0.44142446881E-02 -0.41692675314E-02 -0.92431454025E-02  0.11070917119E-01  0.51100000000E-03 0.  1.
</event>
<event>
 8    1  0.1114686E+005  0.1043930E+01  0.7957747E-01            NaN
         13   -1    0    0    0    0  0.00000000000E+00  0.00000000000E+00  0.74505805969E-08  0.10566000000E+00  0.10566000000E+00 0.  1.
     999900   -1    0    0    0    0 -0.00000000000E+00 -0.00000000000E+00 -0.74505805969E-08  0.93827000000E+00  0.93827000000E+00 0.  1.
     999902    2    1    2    0    0 -0.11777824565E-01 -0.21438413787E-01  0.10164309605E-01  0.10174415888E+01  0.10170967263E+01 0.  0.
     999903    2    3    3    0    0  0.93803627807E-01  0.37879917286E-01  0.73785636320E-01  0.12687223122E+00  0.20450775130E-01 0.  0.
         14    1    1    2    0    0  0.11777824565E-01  0.21438413787E-01 -0.10164309605E-01  0.26488411182E-01  0.00000000000E+00 0. -1.
     999901    1    3    3    0    0 -0.10558145237E+00 -0.59318331073E-01 -0.63621326714E-01  0.89056935760E+00  0.88000000000E+00 0.  1.
        -11    1    4    4    0    0  0.59364986342E-01  0.34307880759E-01  0.47998383732E-01  0.83697898704E-01  0.51100000000E-03 0.  1.
         11    1    4    4    0    0  0.34438641465E-01  0.35720365277E-02  0.25787252588E-01  0.43174332513E-01  0.51100000000E-03 0. -1.
</event>
<event>
 8    1  0.1114686E+005  0.1043930E+01  0.7957747E-01            NaN
         13   -1    0    0    0    0  0.00000000000E+00  0.00000000000E+00  0.74505805969E-08  0.10566000000E+00  0.10566000000E+00 0. -1.
     999900   -1    0    0    0    0 -0.00000000000E+00 -0.00000000000E+00 -0.74505805969E-08  0.93827000000E+00  0.93827000000E+00 0.  1.
     999902    2    1    2    0    0  0.85667667301E-02 -0.33551346816E-03  0.22108360538E-01  0.10202175209E+01  0.10199419141E+01 0.  0.
     999903    2    3    3    0    0  0.12954133160E+00  0.11310556961E-01 -0.52755864554E-02  0.13144288302E+00  0.18453032069E-01 0.  0.
         14    1    1    2    0    0 -0.85667667301E-02  0.33551346816E-03 -0.22108360538E-01  0.23712479145E-01  0.00000000000E+00 0.  1.
     999901    1    3    3    0    0 -0.12097456487E+00 -0.11646070429E-01  0.27383946994E-01  0.88877463783E+00  0.88000000000E+00 0. -1.
        -11    1    4    4    0    0  0.86922571445E-01  0.15110094974E-01 -0.78401035806E-02  0.88575260326E-01  0.51100000000E-03 0. -1.
         11    1    4    4    0    0  0.42618760158E-01 -0.37995380133E-02  0.25645171252E-02  0.42867622696E-01  0.51100000000E-03 0.  1.
</event>
<event>
 8    1  0.1114686E+005  0.1043930E+01  0.7957747E-01            NaN
         13   -1    0    0    0    0  0.00000000000E+00  0.00000000000E+00  0.74505805969E-08  0.10566000000E+00  0.10566000000E+00 0. -1.
     999900   -1    0    0    0    0 -0.00000000000E+00 -0.00000000000E+00 -0.74505805969E-08  0.93827000000E+00  0.93827000000E+00 0. -1.
     999902    2    1    2    0    0  0.36445142947E-02  0.62539005433E-02 -0.22900134949E-01  0.10199131322E+01  0.10196303190E+01 0.  0.
     999903    2    3    3    0    0 -0.83327420613E-01  0.28162404975E-01 -0.96741075377E-01  0.13227774284E+00  0.20049576199E-01 0.  0.
         14    1    1    2    0    0 -0.36445142947E-02 -0.62539005433E-02  0.22900134949E-01  0.24016867762E-01  0.00000000000E+00 0. -1.
     999901    1    3    3    0    0  0.86971934908E-01 -0.21908504432E-01  0.73840940428E-01  0.88763538940E+00  0.88000000000E+00 0.  1.
        -11    1    4    4    0    0 -0.49621928642E-01  0.25678047107E-01 -0.67133012462E-01  0.87343004234E-01  0.51100000000E-03 0. -1.
         11    1    4    4    0    0 -0.33705491971E-01  0.24843578679E-02 -0.29608062915E-01  0.44934738606E-01  0.51100000000E-03 0.  1.
</event>
<event>
 8    1  0.1114686E+005  0.1043930E+01  0.7957747E-01            NaN
         13   -1    0    0    0    0  0.00000000000E+00  0.00000000000E+00  0.74505805969E-08  0.10566000000E+00  0.10566000000E+00 0.  1.
     999900   -1    0    0    0    0 -0.00000000000E+00 -0.00000000000E+00 -0.74505805969E-08  0.93827000000E+00  0.93827000000E+00 0. -1.
     999902    2    1    2    0    0  0.13004810165E-01 -0.22657774367E-01  0.25705830353E-02  0.10176791386E+01  0.10173405140E+01 0.  0.
     999903    2    3    3    0    0 -0.48697782335E-01  0.10556681662E+00  0.42634134190E-01  0.12534856994E+00  0.19461958035E-01 0.  0.
         14    1    1    2    0    0 -0.13004810165E-01  0.22657774367E-01 -0.25705830353E-02  0.26250861392E-01  0.00000000000E+00 0.  1.
     999901    1    3    3    0    0  0.61702592500E-01 -0.12822459099E+00 -0.40063551155E-01  0.89233056867E+00  0.88000000000E+00 0. -1.
        -11    1    4    4    0    0 -0.26073015984E-01  0.69018975139E-01  0.35105350201E-01  0.81707207916E-01  0.51100000000E-03 0.  1.
         11    1    4    4    0    0 -0.22624766351E-01  0.36547841484E-01  0.75287839896E-02  0.43641362020E-01  0.51100000000E-03 0. -1.
</event>
<event>
 8    1  0.1114686E+005  0.1043930E+01  0.7957747E-01            NaN
         13   -1    0    0    0    0  0.00000000000E+00  0.00000000000E+00  0.74505805969E-08  0.10566000000E+00  0.10566000000E+00 0. -1.
     999900   -1    0    0    0    0 -0.00000000000E+00 -0.00000000000E+00 -0.74505805969E-08  0.93827000000E+00  0.93827000000E+00 0.  1.
     999902    2    1    2    0    0  0.13729651094E-02  0.18699751468E-01 -0.97099596963E-02  0.10228148619E+01  0.10225968867E+01 0.  0.
     999903    2    3    3    0    0 -0.41465973030E-01  0.11933852922E+00  0.40890516946E-01  0.13460106648E+00  0.22006845431E-01 0.  0.
         14    1    1    2    0    0 -0.13729651094E-02 -0.18699751468E-01  0.97099596963E-02  0.21115138064E-01  0.00000000000E+00 0. -1.
     999901    1    3    3    0    0  0.42838938140E-01 -0.10063877775E+00 -0.50600476643E-01  0.88821379546E+00  0.88000000000E+00 0. -1.
        -11    1    4    4    0    0 -0.89418506106E-02  0.58986308382E-01  0.20129362412E-01  0.62966607190E-01  0.51100000000E-03 0. -1.
         11    1    4    4    0    0 -0.32524122420E-01  0.60352220833E-01  0.20761154534E-01  0.71634459286E-01  0.51100000000E-03 0.  1.
</event>
<event>
 8    1  0.1114686E+005  0.1043930E+01  0.7957747E-01            NaN
         13   -1    0    0    0    0  0.00000000000E+00  0.00000000000E+00  0.74505805969E-08  0.10566000000E+00  0.10566000000E+00 0. -1.
     999900   -1    0    0    0    0 -0.00000000000E+00 -0.00000000000E+00 -0.74505805969E-08  0.93827000000E+00  0.93827000000E+00 0.  1.
     999902    2    1    2    0    0  0.10719383640E-01  0.18896120442E-01 -0.94833814661E-02  0.10202255051E+01  0.10199500861E+01 0.  0.
     999903    2    3    3    0    0  0.66493464877E-01  0.88947679504E-01  0.69625532800E-01  0.13215107728E+00  0.16826225035E-01 0.  0.
         14    1    1    2    0    0 -0.10719383640E-01 -0.18896120442E-01  0.94833814661E-02  0.23704494878E-01  0.00000000000E+00 0. -1.
     999901    1    3    3    0    0 -0.55774081237E-01 -0.70051559061E-01 -0.79108914266E-01  0.88807442784E+00  0.88000000000E+00 0. -1.
        -11    1    4    4    0    0  0.37478337589E-01  0.37091853945E-01  0.29157907750E-01  0.60256751679E-01  0.51100000000E-03 0.  1.
         11    1    4    4    0    0  0.29015127288E-01  0.51855825559E-01  0.40467625050E-01  0.71894325604E-01  0.51100000000E-03 0. -1.
</event>
<event>
 8    1  0.1114686E+005  0.1043930E+01  0.7957747E-01            NaN
         13   -1    0    0    0    0  0.00000000000E+00  0.00000000000E+00  0.74505805969E-08  0.10566000000E+00  0.10566000000E+00 0.  1.
     999900   -1    0    0    0    0 -0.00000000000E+00 -0.00000000000E+00 -0.74505805969E-08  0.93827000000E+00  0.93827000000E+00 0.  1.
     999902    2    1    2    0    0  0.54796057759E-02 -0.81069470861E-02  0.20839108525E-01  0.10209078994E+01  0.10206482852E+01 0.  0.
     999903    2    3    3    0    0 -0.13730150492E-01  0.80926639413E-01 -0.96850373347E-01  0.12841318886E+00  0.19295446496E-01 0.  0.
         14    1    1    2    0    0 -0.54796057759E-02  0.81069470861E-02 -0.20839108525E-01  0.23022100569E-01  0.00000000000E+00 0. -1.
     999901    1    3    3    0    0  0.19209756267E-01 -0.89033586499E-01  0.11768948187E+00  0.89249471057E+00  0.88000000000E+00 0. -1.
        -11    1    4    4    0    0 -0.16893872480E-01  0.42351245307E-01 -0.53505420088E-01  0.70300227640E-01  0.51100000000E-03 0. -1.
         11    1    4    4    0    0  0.31637219890E-02  0.38575394106E-01 -0.43344953259E-01  0.58112961216E-01  0.51100000000E-03 0.  1.
</event>
<event>
 8    1  0.1114686E+005  0.1043930E+01  0.7957747E-01            NaN
         13   -1    0    0    0    0  0.00000000000E+00  0.00000000000E+00  0.74505805969E-08  0.10566000000E+00  0.10566000000E+00 0. -1.
     999900   -1    0    0    0    0 -0.00000000000E+00 -0.00000000000E+00 -0.74505805969E-08  0.93827000000E+00  0.93827000000E+00 0.  1.
     999902    2    1    2    0    0 -0.18408717470E-01 -0.44728166453E-02  0.14587518876E-01  0.10200201135E+01  0.10197398439E+01 0.  0.
     999903    2    3    3    0    0  0.51124194985E-02 -0.13873424738E-01 -0.12600024026E+00  0.12850088577E+00  0.20440360794E-01 0.  0.
         14    1    1    2    0    0  0.18408717470E-01  0.44728166453E-02 -0.14587518876E-01  0.23909886545E-01  0.00000000000E+00 0.  1.
     999901    1    3    3    0    0 -0.23521136969E-01  0.94006080926E-02  0.14058775914E+00  0.89151922769E+00  0.88000000000E+00 0. -1.
        -11    1    4    4    0    0  0.12769631982E-02  0.41502769470E-02 -0.54053303915E-01  0.54229846200E-01  0.51100000000E-03 0. -1.
         11    1    4    4    0    0  0.38354563004E-02 -0.18023701685E-01 -0.71946936349E-01  0.74271039568E-01  0.51100000000E-03 0.  1.
</event>
<event>
 8    1  0.1114686E+005  0.1043930E+01  0.7957747E-01            NaN
         13   -1    0    0    0    0  0.00000000000E+00  0.00000000000E+00  0.74505805969E-08  0.10566000000E+00  0.10566000000E+00 0. -1.
     999900   -1    0    0    0    0 -0.00000000000E+00 -0.00000000000E+00 -0.74505805969E-08  0.93827000000E+00  0.93827000000E+00 0.  1.
     999902    2    1    2    0    0 -0.64356230430E-05 -0.10097157443E-01  0.20248666316E-01  0.10213034422E+01  0.10210527704E+01 0.  0.
     999903    2    3    3    0    0  0.86847531601E-01 -0.80691610600E-01 -0.53499565446E-01  0.13115402210E+00  0.16898054410E-01 0.  0.
         14    1    1    2    0    0  0.64356230431E-05  0.10097157443E-01 -0.20248666316E-01  0.22626557790E-01  0.00000000000E+00 0.  1.
     999901    1    3    3    0    0 -0.86853967224E-01  0.70594453157E-01  0.73748231762E-01  0.89014942011E+00  0.88000000000E+00 0. -1.
        -11    1    4    4    0    0  0.60093076162E-01 -0.65013719904E-01 -0.42889788137E-01  0.98375589583E-01  0.51100000000E-03 0.  1.
         11    1    4    4    0    0  0.26754455439E-01 -0.15677890696E-01 -0.10609777308E-01  0.32778432514E-01  0.51100000000E-03 0. -1.
</event>
<event>
 8    1  0.1114686E+005  0.1043930E+01  0.7957747E-01            NaN
         13   -1    0    0    0    0  0.00000000000E+00  0.00000000000E+00  0.74505805969E-08  0.10566000000E+00  0.10566000000E+00 0.  1.
     999900   -1    0    0    0    0 -0.00000000000E+00 -0.00000000000E+00 -0.74505805969E-08  0.93827000000E+00  0.93827000000E+00 0.  1.
     999902    2    1    2    0    0 -0.14761669883E-03 -0.55489290130E-02 -0.33639639348E-01  0.10098354588E+01  0.10092597367E+01 0.  0.
     999903    2    3    3    0    0 -0.11741985617E+00 -0.13138196689E-01 -0.22743181436E-01  0.12195646484E+00  0.19902064660E-01 0.  0.
         14    1    1    2    0    0  0.14761669883E-03  0.55489290130E-02  0.33639639348E-01  0.34094541196E-01  0.00000000000E+00 0.  1.
     999901    1    3    3    0    0  0.11727223947E+00  0.75892676763E-02 -0.10896457912E-01  0.88787899397E+00  0.88000000000E+00 0.  1.
        -11    1    4    4    0    0 -0.30718862075E-01  0.14778168895E-02 -0.13348276468E-01  0.33530136230E-01  0.51100000000E-03 0. -1.
         11    1    4    4    0    0 -0.86700994097E-01 -0.14616013579E-01 -0.93949049682E-02  0.88426328606E-01  0.51100000000E-03 0.  1.
</event>
<event>
 8    1  0.1114686E+005  0.1043930E+01  0.7957747E-01            NaN
         13   -1    0    0    0    0  0.00000000000E+00  0.00000000000E+00  0.74505805969E-08  0.10566000000E+00  0.10566000000E+00 0. -1.
     999900   -1    0    0    0    0 -0.00000000000E+00 -0.00000000000E+00 -0.74505805969E-08  0.93827000000E+00  0.93827000000E+00 0.  1.
     999902    2    1    2    0    0  0.10469250349E-01 -0.17352809679E-01  0.62658306257E-02  0.10227171303E+01  0.10224971114E+01 0.  0.
     999903    2    3    3    0    0 -0.80151030953E-01 -0.12421412613E-01 -0.10165742197E+00  0.13149113064E+00  0.19421810964E-01 0.  0.
         14    1    1    2    0    0 -0.10469250349E-01  0.17352809679E-01 -0.62658306257E-02  0.21212869680E-01  0.00000000000E+00 0. -1.
     999901    1    3    3    0    0  0.90620281302E-01 -0.49313970664E-02  0.10792325259E+00  0.89122599968E+00  0.88000000000E+00 0. -1.
        -11    1    4    4    0    0 -0.17502381242E-01 -0.69789795889E-02 -0.13426236949E-01  0.23142265768E-01  0.51100000000E-03 0. -1.
         11    1    4    4    0    0 -0.62648649711E-01 -0.54424330237E-02 -0.88231185019E-01  0.10834886487E+00  0.51100000000E-03 0.  1.
</event>
<event>
 8    1  0.1114686E+005  0.1043930E+01  0.7957747E-01            NaN
         13   -1    0    0    0    0  0.00000000000E+00  0.00000000000E+00  0.74505805969E-08  0.10566000000E+00  0.10566000000E+00 0. -1.
     999900   -1    0    0    0    0 -0.00000000000E+00 -0.00000000000E+00 -0.74505805969E-08  0.93827000000E+00  0.93827000000E+00 0.  1.
     999902    2    1    2    0    0  0.18520072718E-01  0.14161235659E-01  0.47595397042E-02  0.10201353177E+01  0.10198577741E+01 0.  0.
     999903    2    3    3    0    0  0.12901395034E+00 -0.10955592948E-01  0.21643629400E-01  0.13270936327E+00  0.19460318764E-01 0.  0.
         14    1    1    2    0    0 -0.18520072718E-01 -0.14161235659E-01 -0.47595397042E-02  0.23794682327E-01  0.00000000000E+00 0.  1.
     999901    1    3    3    0    0 -0.11049387762E+00  0.25116828607E-01 -0.16884089696E-01  0.88742595441E+00  0.88000000000E+00 0.  1.
        -11    1    4    4    0    0  0.40176405443E-01 -0.10665527276E-01  0.12450205830E-01  0.43395457972E-01  0.51100000000E-03 0.  1.
         11    1    4    4    0    0  0.88837544894E-01 -0.29006567242E-03  0.91934235699E-02  0.89313905294E-01  0.51100000000E-03 0. -1.
</event>
<event>
 8    1  0.1114686E+005  0.1043930E+01  0.7957747E-01            NaN
         13   -1    0    0    0    0  0.00000000000E+00  0.00000000000E+00  0.74505805969E-08  0.10566000000E+00  0.10566000000E+00 0.  1.
     999900   -1    0    0    0    0 -0.00000000000E+00 -0.00000000000E+00 -0.74505805969E-08  0.93827000000E+00  0.93827000000E+00 0. -1.
     999902    2    1    2    0    0 -0.16451018877E-01  0.12261657123E-01 -0.90793674598E-02  0.10214929955E+01  0.10212465523E+01 0.  0.
     999903    2    3    3    0    0 -0.11261577882E+00  0.86892561098E-02  0.67146836262E-01  0.13297126969E+00  0.20367722807E-01 0.  0.
         14    1    1    2    0    0  0.16451018877E-01 -0.12261657123E-01  0.90793674598E-02  0.22437004501E-01  0.00000000000E+00 0.  1.
     999901    1    3    3    0    0  0.96164759940E-01  0.35724010130E-02 -0.76226203722E-01  0.88852172581E+00  0.88000000000E+00 0. -1.
        -11    1    4    4    0    0 -0.59250292566E-01  0.10387516602E-01  0.25874214928E-01  0.65484607271E-01  0.51100000000E-03 0.  1.
         11    1    4    4    0    0 -0.53365486251E-01 -0.16982604921E-02  0.41272621334E-01  0.67486662418E-01  0.51100000000E-03 0. -1.
</event>
<event>
 8    1  0.1114686E+005  0.1043930E+01  0.7957747E-01            NaN
         13   -1    0    0    0    0  0.00000000000E+00  0.00000000000E+00  0.74505805969E-08  0.10566000000E+00  0.10566000000E+00 0.  1.
     999900   -1    0    0    0    0 -0.00000000000E+00 -0.00000000000E+00 -0.74505805969E-08  0.93827000000E+00  0.93827000000E+00 0. -1.
     999902    2    1    2    0    0  0.15831861120E-01  0.17834641399E-01 -0.54158421258E-02  0.10194748654E+01  0.10191815087E+01 0.  0.
     999903    2    3    3    0    0 -0.29073829727E-01 -0.29602495370E-01  0.11959144841E+00  0.12824334350E+00  0.20558339251E-01 0.  0.
         14    1    1    2    0    0 -0.15831861120E-01 -0.17834641399E-01  0.54158421258E-02  0.24455134559E-01  0.00000000000E+00 0.  1.
     999901    1    3    3    0    0  0.44905690846E-01  0.47437136769E-01 -0.12500729053E+00  0.89123152194E+00  0.88000000000E+00 0. -1.
        -11    1    4    4    0    0 -0.18917419036E-01 -0.29701042331E-01  0.10218769230E+00  0.10808610566E+00  0.51100000000E-03 0. -1.
         11    1    4    4    0    0 -0.10156410691E-01  0.98546961110E-04  0.17403756109E-01  0.20157237840E-01  0.51100000000E-03 0.  1.
</event>
<event>
 8    1  0.1114686E+005  0.1043930E+01  0.7957747E-01            NaN
         13   -1    0    0    0    0  0.00000000000E+00  0.00000000000E+00  0.74505805969E-08  0.10566000000E+00  0.10566000000E+00 0.  1.
     999900   -1    0    0    0    0 -0.00000000000E+00 -0.00000000000E+00 -0.74505805969E-08  0.93827000000E+00  0.93827000000E+00 0. -1.
     999902    2    1    2    0    0 -0.15428865603E-01 -0.11258650380E-01 -0.13216909488E-01  0.10207029942E+01  0.10204386844E+01 0.  0.
     999903    2    3    3    0    0  0.63758657447E-02 -0.83244781275E-01 -0.10164235792E+00  0.13307891313E+00  0.20210960488E-01 0.  0.
         14    1    1    2    0    0  0.15428865603E-01  0.11258650380E-01  0.13216909488E-01  0.23227005803E-01  0.00000000000E+00 0.  1.
     999901    1    3    3    0    0 -0.21804731348E-01  0.71986130896E-01  0.88425448433E-01  0.88762408106E+00  0.88000000000E+00 0.  1.
        -11    1    4    4    0    0  0.98899258008E-02 -0.18917985396E-01 -0.28443526356E-01  0.35566783891E-01  0.51100000000E-03 0. -1.
         11    1    4    4    0    0 -0.35140600562E-02 -0.64326795879E-01 -0.73198831565E-01  0.97512129244E-01  0.51100000000E-03 0.  1.
</event>
<event>
 8    1  0.1114686E+005  0.1043930E+01  0.7957747E-01            NaN
         13   -1    0    0    0    0  0.00000000000E+00  0.00000000000E+00  0.74505805969E-08  0.10566000000E+00  0.10566000000E+00 0. -1.
     999900   -1    0    0    0    0 -0.00000000000E+00 -0.00000000000E+00 -0.74505805969E-08  0.93827000000E+00  0.93827000000E+00 0.  1.
     999902    2    1    2    0    0  0.10167338187E-01 -0.20591333214E-01 -0.62355172691E-03  0.10209568290E+01  0.10206983296E+01 0.  0.
     999903    2    3    3    0    0  0.27191539869E-05  0.10117610516E+00  0.77197895966E-01  0.12911222019E+00  0.21768004021E-01 0.  0.
         14    1    1    2    0    0 -0.10167338187E-01  0.20591333214E-01  0.62355172691E-03  0.22973171007E-01  0.00000000000E+00 0.  1.
     999901    1    3    3    0    0  0.10164619033E-01 -0.12176743837E+00 -0.77821447693E-01  0.89184460880E+00  0.88000000000E+00 0.  1.
        -11    1    4    4    0    0 -0.72705999613E-02  0.38749782812E-01  0.39558497309E-01  0.55852870312E-01  0.51100000000E-03 0.  1.
         11    1    4    4    0    0  0.72733191153E-02  0.62426322345E-01  0.37639398658E-01  0.73259349880E-01  0.51100000000E-03 0. -1.
</event>
<event>
 8    1  0.1114686E+005  0.1043930E+01  0.7957747E-01            NaN
         13   -1    0    0    0    0  0.00000000000E+00  0.00000000000E+00  0.74505805969E-08  0.10566000000E+00  0.10566000000E+00 0. -1.
     999900   -1    0    0    0    0 -0.00000000000E+00 -0.00000000000E+00 -0.74505805969E-08  0.93827000000E+00  0.93827000000E+00 0.  1.
     999902    2    1    2    0    0  0.75644681565E-02 -0.48964539730E-02 -0.20570029889E-01  0.10214728726E+01  0.10212259823E+01 0.  0.
     999903    2    3    3    0    0  0.12355201268E+00 -0.27054073506E-01  0.32674968227E-01  0.13199038241E+00  0.18888747131E-01 0.  0.
         14    1    1    2    0    0 -0.75644681565E-02  0.48964539730E-02  0.20570029889E-01  0.22457127368E-01  0.00000000000E+00 0. -1.
     999901    1    3    3    0    0 -0.11598754453E+00  0.22157619533E-01 -0.53244998116E-01  0.88948249022E+00  0.88000000000E+00 0. -1.
        -11    1    4    4    0    0  0.92505262452E-01 -0.18780478655E-01  0.32573162804E-01  0.99855906264E-01  0.51100000000E-03 0.  1.
         11    1    4    4    0    0  0.31046750232E-01 -0.82735948509E-02  0.10180542338E-03  0.32134476144E-01  0.51100000000E-03 0. -1.
</event>
<event>
 8    1  0.1114686E+005  0.1043930E+01  0.7957747E-01            NaN
         13   -1    0    0    0    0  0.00000000000E+00  0.00000000000E+00  0.74505805969E-08  0.10566000000E+00  0.10566000000E+00 0. -1.
     999900   -1    0    0    0    0 -0.00000000000E+00 -0.00000000000E+00 -0.74505805969E-08  0.93827000000E+00  0.93827000000E+00 0. -1.
     999902    2    1    2    0    0 -0.16531459659E-01  0.14857293176E-01  0.62642340439E-02  0.10208373833E+01  0.10205761579E+01 0.  0.
     999903    2    3    3    0    0  0.57626962113E-01  0.10478587737E+00  0.47008831042E-01  0.13221668581E+00  0.31152446971E-01 0.  0.
         14    1    1    2    0    0  0.16531459659E-01 -0.14857293176E-01 -0.62642340439E-02  0.23092616723E-01  0.00000000000E+00 0. -1.
     999901    1    3    3    0    0 -0.74158421772E-01 -0.89928584197E-01 -0.40744596998E-01  0.88862069746E+00  0.88000000000E+00 0.  1.
        -11    1    4    4    0    0  0.35550774390E-01  0.88809052436E-01  0.42128571145E-01  0.10452742694E+00  0.51100000000E-03 0. -1.
         11    1    4    4    0    0  0.22076187723E-01  0.15976824937E-01  0.48802598972E-02  0.27689258876E-01  0.51100000000E-03 0.  1.
</event>
<event>
 8    1  0.1114686E+005  0.1043930E+01  0.7957747E-01            NaN
         13   -1    0    0    0    0  0.00000000000E+00  0.00000000000E+00  0.74505805969E-08  0.10566000000E+00  0.10566000000E+00 0. -1.
     999900   -1    0    0    0    0 -0.00000000000E+00 -0.00000000000E+00 -0.74505805969E-08  0.93827000000E+00  0.93827000000E+00 0. -1.
     999902    2    1    2    0    0  0.12292819563E-01 -0.70804105525E-02  0.19468119047E-01  0.10198415529E+01  0.10195570311E+01 0.  0.
     999903    2    3    3    0    0 -0.31908219451E-01 -0.67084639255E-01 -0.10262433793E+00  0.12829188663E+00  0.20213118163E-01 0.  0.
         14    1    1    2    0    0 -0.12292819563E-01  0.70804105525E-02 -0.19468119047E-01  0.24088447140E-01  0.00000000000E+00 0.  1.
     999901    1    3    3    0    0  0.44201039014E-01  0.60004228703E-01  0.12209245698E+00  0.89154966623E+00  0.88000000000E+00 0.  1.
        -11    1    4    4    0    0 -0.15153275278E-01 -0.22104728270E-01 -0.23011636123E-01  0.35327571125E-01  0.51100000000E-03 0.  1.
         11    1    4    4    0    0 -0.16754944173E-01 -0.44979910985E-01 -0.79612701807E-01  0.92964315500E-01  0.51100000000E-03 0. -1.
</event>
<event>
 8    1  0.1114686E+005  0.1043930E+01  0.7957747E-01            NaN
         13   -1    0    0    0    0  0.00000000000E+00  0.00000000000E+00  0.74505805969E-08  0.10566000000E+00  0.10566000000E+00 0. -1.
     999900   -1    0    0    0    0 -0.00000000000E+00 -0.00000000000E+00 -0.74505805969E-08  0.93827000000E+00  0.93827000000E+00 0. -1.
     999902    2    1    2    0    0  0.50916868023E-02 -0.15930786125E-01  0.16709007197E-01  0.10202888041E+01  0.10200148713E+01 0.  0.
     999903    2    3    3    0    0  0.10937192488E+00  0.95951050591E-02  0.70983695065E-01  0.13210431826E+00  0.18936260092E-01 0.  0.
         14    1    1    2    0    0 -0.50916868023E-02  0.15930786125E-01 -0.16709007197E-01  0.23641195878E-01  0.00000000000E+00 0.  1.
     999901    1    3    3    0    0 -0.10428023808E+00 -0.25525891184E-01 -0.54274687868E-01  0.88818448586E+00  0.88000000000E+00 0. -1.
        -11    1    4    4    0    0  0.14347717898E-01 -0.45425292737E-02  0.12980971145E-01  0.19881104445E-01  0.51100000000E-03 0.  1.
         11    1    4    4    0    0  0.95024206981E-01  0.14137634333E-01  0.58002723921E-01  0.11222321382E+00  0.51100000000E-03 0. -1.
</event>
<event>
 8    1  0.1114686E+005  0.1043930E+01  0.7957747E-01            NaN
         13   -1    0    0    0    0  0.00000000000E+00  0.00000000000E+00  0.74505805969E-08  0.10566000000E+00  0.10566000000E+00 0.  1.
     999900   -1    0    0    0    0 -0.00000000000E+00 -0.00000000000E+00 -0.74505805969E-08  0.93827000000E+00  0.93827000000E+00 0.  1.
     999902    2    1    2    0    0  0.14457585069E-01  0.86456004552E-02  0.17033144787E-01  0.10199738694E+01  0.10196925017E+01 0.  0.
     999903    2    3    3    0    0 -0.76831514911E-01 -0.53112863102E-01 -0.83193988847E-01  0.12745312120E+00  0.24474484958E-01 0.  0.
         14    1    1    2    0    0 -0.14457585069E-01 -0.86456004552E-02 -0.17033144787E-01  0.23956130627E-01  0.00000000000E+00 0. -1.
     999901    1    3    3    0    0  0.91289099980E-01  0.61758463557E-01  0.10022713363E+00  0.89252074817E+00  0.88000000000E+00 0. -1.
        -11    1    4    4    0    0 -0.24098326301E-01 -0.50033121572E-02 -0.15595987674E-01  0.29142038631E-01  0.51100000000E-03 0.  1.
         11    1    4    4    0    0 -0.52733188610E-01 -0.48109550945E-01 -0.67598001173E-01  0.98311082573E-01  0.51100000000E-03 0. -1.
</event>
<event>
 8    1  0.1114686E+005  0.1043930E+01  0.7957747E-01            NaN
         13   -1    0    0    0    0  0.00000000000E+00  0.00000000000E+00  0.74505805969E-08  0.10566000000E+00  0.10566000000E+00 0. -1.
     999900   -1    0    0    0    0 -0.00000000000E+00 -0.00000000000E+00 -0.74505805969E-08  0.93827000000E+00  0.93827000000E+00 0.  1.
     999902    2    1    2    0    0 -0.98755813498E-02 -0.14849413586E-01  0.16497570399E-01  0.10196359262E+01  0.10193464671E+01 0.  0.
     999903    2    3    3    0    0  0.33743497157E-01  0.23894194026E-01 -0.11869029277E+00  0.12740308135E+00  0.20847144442E-01 0.  0.
         14    1    1    2    0    0  0.98755813498E-02  0.14849413586E-01 -0.16497570399E-01  0.24294073761E-01  0.00000000000E+00 0.  1.
     999901    1    3    3    0    0 -0.43619078507E-01 -0.38743607612E-01  0.13518786317E+00  0.89223284488E+00  0.88000000000E+00 0. -1.
        -11    1    4    4    0    0  0.20555587200E-01  0.69515978353E-02 -0.36619470219E-01  0.42568810152E-01  0.51100000000E-03 0.  1.
         11    1    4    4    0    0  0.13187909957E-01  0.16942596191E-01 -0.82070822555E-01  0.84834271203E-01  0.51100000000E-03 0. -1.
</event>
<event>
 8    1  0.1114686E+005  0.1043930E+01  0.7957747E-01            NaN
         13   -1    0    0    0    0  0.00000000000E+00  0.00000000000E+00  0.74505805969E-08  0.10566000000E+00  0.10566000000E+00 0. -1.
     999900   -1    0    0    0    0 -0.00000000000E+00 -0.00000000000E+00 -0.74505805969E-08  0.93827000000E+00  0.93827000000E+00 0.  1.
     999902    2    1    2    0    0 -0.45239216133E-02 -0.11224946440E-01 -0.20540041748E-01  0.10200897273E+01  0.10198111066E+01 0.  0.
     999903    2    3    3    0    0  0.51023524567E-01 -0.11400961913E+00  0.34082410452E-01  0.13068890648E+00  0.17787249997E-01 0.  0.
         14    1    1    2    0    0  0.45239216133E-02  0.11224946440E-01  0.20540041748E-01  0.23840272741E-01  0.00000000000E+00 0. -1.
     999901    1    3    3    0    0 -0.55547446181E-01  0.10278467269E+00 -0.54622452200E-01  0.88940082078E+00  0.88000000000E+00 0.  1.
        -11    1    4    4    0    0  0.12646222617E-01 -0.47051170178E-01  0.17324479683E-01  0.51712070920E-01  0.51100000000E-03 0.  1.
         11    1    4    4    0    0  0.38377301950E-01 -0.66958448948E-01  0.16757930768E-01  0.78976835561E-01  0.51100000000E-03 0. -1.
</event>
<event>
 7    1  0.1114686E+005  0.1043930E+01  0.7957747E-01            NaN
         13   -1    0    0    0    0  0.00000000000E+00  0.00000000000E+00  0.74505805969E-08  0.10566000000E+00  0.10566000000E+00 0. -1.
     999900   -1    0    0    0    0 -0.00000000000E+00 -0.00000000000E+00 -0.74505805969E-08  0.93827000000E+00  0.93827000000E+00 0.  1.
     999903    2    1    2    0    0  0.48191051544E-01  0.61702257702E-01  0.10262093949E-02  0.80969711005E-01  0.20627528697E-01 0.  0.
         14    1    1    2    0    0 -0.33752565575E-01  0.37685385224E-01  0.55933003359E-01  0.75418332037E-01  0.00000000000E+00 0. -1.
     999901    1    1    2    0    0 -0.14438485968E-01 -0.99387642926E-01 -0.56959212754E-01  0.88754195696E+00  0.88000000000E+00 0.  1.
        -11    1    3    3    0    0  0.79199779944E-02  0.20111656987E-01 -0.65262351452E-02  0.22584456256E-01  0.51100000000E-03 0. -1.
         11    1    3    3    0    0  0.40271073549E-01  0.41590600714E-01  0.75524445401E-02  0.58385254749E-01  0.51100000000E-03 0.  1.
</event>
<event>
 8    1  0.1114686E+005  0.1043930E+01  0.7957747E-01            NaN
         13   -1    0    0    0    0  0.00000000000E+00  0.00000000000E+00  0.74505805969E-08  0.10566000000E+00  0.10566000000E+00 0.  1.
     999900   -1    0    0    0    0 -0.00000000000E+00 -0.00000000000E+00 -0.74505805969E-08  0.93827000000E+00  0.93827000000E+00 0.  1.
     999902    2    1    2    0    0  0.25583630132E-02  0.21371530656E-01  0.89394076573E-02  0.10206233367E+01  0.10203571899E+01 0.  0.
     999903    2    3    3    0    0 -0.12140369344E+00 -0.63561365492E-03 -0.42092318097E-01  0.13019920021E+00  0.20995421135E-01 0.  0.
         14    1    1    2    0    0 -0.25583630132E-02 -0.21371530656E-01 -0.89394076573E-02  0.23306663278E-01  0.00000000000E+00 0.  1.
     999901    1    3    3    0    0  0.12396205645E+00  0.22007144311E-01  0.51031725754E-01  0.89042413651E+00  0.88000000000E+00 0. -1.
        -11    1    4    4    0    0 -0.83658238624E-01  0.58160866270E-02 -0.36640743793E-01  0.91516845335E-01  0.51100000000E-03 0.  1.
         11    1    4    4    0    0 -0.37745454815E-01 -0.64517002819E-02 -0.54515743035E-02  0.38682354880E-01  0.51100000000E-03 0. -1.
</event>
<event>
 8    1  0.1114686E+005  0.1043930E+01  0.7957747E-01            NaN
         13   -1    0    0    0    0  0.00000000000E+00  0.00000000000E+00  0.74505805969E-08  0.10566000000E+00  0.10566000000E+00 0. -1.
     999900   -1    0    0    0    0 -0.00000000000E+00 -0.00000000000E+00 -0.74505805969E-08  0.93827000000E+00  0.93827000000E+00 0.  1.
     999902    2    1    2    0    0  0.14528164133E-01 -0.16054530863E-01 -0.15755617397E-01  0.10171521174E+01  0.10167995747E+01 0.  0.
     999903    2    3    3    0    0  0.85265723333E-01  0.14175260194E-01  0.91368475540E-01  0.12732448592E+00  0.19802646665E-01 0.  0.
         14    1    1    2    0    0 -0.14528164133E-01  0.16054530863E-01  0.15755617397E-01  0.26777882550E-01  0.00000000000E+00 0. -1.
     999901    1    3    3    0    0 -0.70737559199E-01 -0.30229791058E-01 -0.10712409294E+00  0.88982763153E+00  0.88000000000E+00 0.  1.
        -11    1    4    4    0    0  0.26392983519E-01  0.13640356092E-01  0.33293354183E-01  0.44624628257E-01  0.51100000000E-03 0. -1.
         11    1    4    4    0    0  0.58872739814E-01  0.53490410216E-03  0.58075121356E-01  0.82699857661E-01  0.51100000000E-03 0.  1.
</event>
<event>
 8    1  0.1114686E+005  0.1043930E+01  0.7957747E-01            NaN
         13   -1    0    0    0    0  0.00000000000E+00  0.00000000000E+00  0.74505805969E-08  0.10566000000E+00  0.10566000000E+00 0.  1.
     999900   -1    0    0    0    0 -0.00000000000E+00 -0.00000000000E+00 -0.74505805969E-08  0.93827000000E+00  0.93827000000E+00 0.  1.
     999902    2    1    2    0    0 -0.17699381722E-01  0.13629528588E-01 -0.71709794214E-02  0.10204682203E+01  0.10201984775E+01 0.  0.
     999903    2    3    3    0    0  0.25844883999E-01 -0.11021545285E+00  0.56911124864E-01  0.12842550906E+00  0.20948297531E-01 0.  0.
         14    1    1    2    0    0  0.17699381722E-01 -0.13629528588E-01  0.71709794214E-02  0.23461779743E-01  0.00000000000E+00 0. -1.
     999901    1    3    3    0    0 -0.43544265721E-01  0.12384498144E+00 -0.64082104286E-01  0.89204271119E+00  0.88000000000E+00 0. -1.
        -11    1    4    4    0    0 -0.34648908204E-02 -0.18612427077E-01  0.99529892856E-02  0.21395116891E-01  0.51100000000E-03 0.  1.
         11    1    4    4    0    0  0.29309774820E-01 -0.91603025771E-01  0.46958135579E-01  0.10703039217E+00  0.51100000000E-03 0. -1.
</event>
<event>
 8    1  0.1114686E+005  0.1043930E+01  0.7957747E-01            NaN
         13   -1    0    0    0    0  0.00000000000E+00  0.00000000000E+00  0.74505805969E-08  0.10566000000E+00  0.10566000000E+00 0.  1.
     999900   -1    0    0    0    0 -0.00000000000E+00 -0.00000000000E+00 -0.74505805969E-08  0.93827000000E+00  0.93827000000E+00 0. -1.
     999902    2    1    2    0    0  0.23072400544E-01 -0.28359824123E-02  0.14675196563E-02  0.10206376820E+01  0.10203718665E+01 0.  0.
     999903    2    3    3    0    0  0.12467621120E+00 -0.42191142323E-01 -0.14055738922E-01  0.13378192457E+00  0.19385288675E-01 0.  0.
         14    1    1    2    0    0 -0.23072400544E-01  0.28359824123E-02 -0.14675196563E-02  0.23292317984E-01  0.00000000000E+00 0.  1.
     999901    1    3    3    0    0 -0.10160381065E+00  0.39355159911E-01  0.15523258579E-01  0.88685575744E+00  0.88000000000E+00 0. -1.
        -11    1    4    4    0    0  0.96203636670E-01 -0.37402356559E-01 -0.43282967839E-02  0.10331055734E+00  0.51100000000E-03 0. -1.
         11    1    4    4    0    0  0.28472574528E-01 -0.47887857648E-02 -0.97274421384E-02  0.30471367231E-01  0.51100000000E-03 0.  1.
</event>
<event>
 8    1  0.1114686E+005  0.1043930E+01  0.7957747E-01            NaN
         13   -1    0    0    0    0  0.00000000000E+00  0.00000000000E+00  0.74505805969E-08  0.10566000000E+00  0.10566000000E+00 0.  1.
     999900   -1    0    0    0    0 -0.00000000000E+00 -0.00000000000E+00 -0.74505805969E-08  0.93827000000E+00  0.93827000000E+00 0.  1.
     999902    2    1    2    0    0 -0.57259325121E-02  0.19178573139E-01 -0.12173180111E-01  0.10205037266E+01  0.10202348091E+01 0.  0.
     999903    2    3    3    0    0 -0.99048565630E-01  0.78791178791E-01  0.32904593702E-01  0.13241883073E+00  0.20817450286E-01 0.  0.
         14    1    1    2    0    0  0.57259325121E-02 -0.19178573139E-01  0.12173180111E-01  0.23426273387E-01  0.00000000000E+00 0.  1.
     999901    1    3    3    0    0  0.93322633118E-01 -0.59612605652E-01 -0.45077773813E-01  0.88808489588E+00  0.88000000000E+00 0. -1.
        -11    1    4    4    0    0 -0.53343860909E-01  0.30420685974E-01  0.11234101161E-01  0.62429574575E-01  0.51100000000E-03 0. -1.
         11    1    4    4    0    0 -0.45704704721E-01  0.48370492817E-01  0.21670492542E-01  0.69989256154E-01  0.51100000000E-03 0.  1.
</event>
<event>
 8    1  0.1114686E+005  0.1043930E+01  0.7957747E-01            NaN
         13   -1    0    0    0    0  0.00000000000E+00  0.00000000000E+00  0.74505805969E-08  0.10566000000E+00  0.10566000000E+00 0.  1.
     999900   -1    0    0    0    0 -0.00000000000E+00 -0.00000000000E+00 -0.74505805969E-08  0.93827000000E+00  0.93827000000E+00 0.  1.
     999902    2    1    2    0    0  0.20738784070E-01 -0.36477258274E-02  0.11315656641E-01  0.10200250391E+01  0.10197448864E+01 0.  0.
     999903    2    3    3    0    0 -0.12305390049E+00  0.25237862091E-01  0.11776315945E-01  0.12788663871E+00  0.20906903945E-01 0.  0.
         14    1    1    2    0    0 -0.20738784070E-01  0.36477258274E-02 -0.11315656641E-01  0.23904960859E-01  0.00000000000E+00 0. -1.
     999901    1    3    3    0    0  0.14379268456E+00 -0.28885587918E-01 -0.46065930400E-03  0.89213840044E+00  0.88000000000E+00 0.  1.
        -11    1    4    4    0    0 -0.94241912053E-01  0.10323711724E-01  0.10853327841E-01  0.95426269221E-01  0.51100000000E-03 0. -1.
         11    1    4    4    0    0 -0.28811988441E-01  0.14914150366E-01  0.92298810454E-03  0.32460369485E-01  0.51100000000E-03 0.  1.
</event>
<event>
 8    1  0.1114686E+005  0.1043930E+01  0.7957747E-01            NaN
         13   -1    0    0    0    0  0.00000000000E+00  0.00000000000E+00  0.74505805969E-08  0.10566000000E+00  0.10566000000E+00 0. -1.
     999900   -1    0    0    0    0 -0.00000000000E+00 -0.00000000000E+00 -0.74505805969E-08  0.93827000000E+00  0.93827000000E+00 0. -1.
     999902    2    1    2    0    0 -0.18733522141E-01  0.89758518791E-02  0.12166920296E-01  0.10198562650E+01  0.10195720948E+01 0.  0.
     999903    2    3    3    0    0  0.10255489738E+00 -0.52967202066E-01 -0.49792263459E-01  0.12722713532E+00  0.19607217834E-01 0.  0.
         14    1    1    2    0    0  0.18733522141E-01 -0.89758518791E-02 -0.12166920296E-01  0.24073735030E-01  0.00000000000E+00 0. -1.
     999901    1    3    3    0    0 -0.12128841952E+00  0.61943053945E-01  0.61959183755E-01  0.89262912965E+00  0.88000000000E+00 0. -1.
        -11    1    4    4    0    0  0.21180989549E-01 -0.34960943571E-02 -0.53261527527E-02  0.22124330909E-01  0.51100000000E-03 0. -1.
         11    1    4    4    0    0  0.81373907831E-01 -0.49471107709E-01 -0.44466110706E-01  0.10510280442E+00  0.51100000000E-03 0.  1.
</event>
<event>
 8    1  0.1114686E+005  0.1043930E+01  0.7957747E-01            NaN
         13   -1    0    0    0    0  0.00000000000E+00  0.00000000000E+00  0.74505805969E-08  0.10566000000E+00  0.10566000000E+00 0. -1.
     999900   -1    0    0    0    0 -0.00000000000E+00 -0.00000000000E+00 -0.74505805969E-08  0.93827000000E+00  0.93827000000E+00 0.  1.
     999902    2    1    2    0    0  0.95787484139E-02  0.10128987135E-01  0.18729446136E-01  0.10205817462E+01  0.10203146376E+01 0.  0.
     999903    2    3    3    0    0 -0.82279066353E-01 -0.97363174382E-01  0.78992008811E-02  0.12922900060E+00  0.19705449420E-01 0.  0.
         14    1    1    2    0    0 -0.95787484139E-02 -0.10128987135E-01 -0.18729446136E-01  0.23348253770E-01  0.00000000000E+00 0.  1.
     999901    1    3    3    0    0  0.91857814767E-01  0.10749216152E+00  0.10830245255E-01  0.89135274563E+00  0.88000000000E+00 0.  1.
        -11    1    4    4    0    0 -0.16868645801E-01 -0.13017714447E-01  0.71745268653E-02  0.22488820719E-01  0.51100000000E-03 0.  1.
         11    1    4    4    0    0 -0.65410420552E-01 -0.84345459935E-01  0.72467401573E-03  0.10674017988E+00  0.51100000000E-03 0. -1.
</event>
<event>
 8    1  0.1114686E+005  0.1043930E+01  0.7957747E-01            NaN
         13   -1    0    0    0    0  0.00000000000E+00  0.00000000000E+00  0.74505805969E-08  0.10566000000E+00  0.10566000000E+00 0.  1.
     999900   -1    0    0    0    0 -0.00000000000E+00 -0.00000000000E+00 -0.74505805969E-08  0.93827000000E+00  0.93827000000E+00 0. -1.
     999902    2    1    2    0    0 -0.65193240376E-02 -0.21436906785E-01  0.69311080261E-02  0.10204761556E+01  0.10202065974E+01 0.  0.
     999903    2    3    3    0    0  0.99751876828E-01 -0.30021428006E-01 -0.75332514315E-01  0.13023205105E+00  0.20824897048E-01 0.  0.
         14    1    1    2    0    0  0.65193240376E-02  0.21436906785E-01 -0.69311080261E-02  0.23453844394E-01  0.00000000000E+00 0. -1.
     999901    1    3    3    0    0 -0.10627120087E+00  0.85845212212E-02  0.82263622341E-01  0.89024410456E+00  0.88000000000E+00 0.  1.
        -11    1    4    4    0    0  0.61489030544E-01 -0.91809032793E-02 -0.38100982280E-01  0.72918693309E-01  0.51100000000E-03 0.  1.
         11    1    4    4    0    0  0.38262846284E-01 -0.20840524727E-01 -0.37231532035E-01  0.57313357739E-01  0.51100000000E-03 0. -1.
</event>
<event>
 8    1  0.1114686E+005  0.1043930E+01  0.7957747E-01            NaN
         13   -1    0    0    0    0  0.00000000000E+00  0.00000000000E+00  0.74505805969E-08  0.10566000000E+00  0.10566000000E+00 0. -1.
     999900   -1    0    0    0    0 -0.00000000000E+00 -0.00000000000E+00 -0.74505805969E-08  0.93827000000E+00  0.93827000000E+00 0.  1.
     999902    2    1    2    0    0  0.10426463815E-01  0.16353616964E-01 -0.13523497148E-01  0.10202860386E+01  0.10200120409E+01 0.  0.
     999903    2    3    3    0    0  0.71025662733E-01 -0.10636118468E+00  0.36992169533E-02  0.12954039178E+00  0.20240615699E-01 0.  0.
         14    1    1    2    0    0 -0.10426463815E-01 -0.16353616964E-01  0.13523497148E-01  0.23643961399E-01  0.00000000000E+00 0. -1.
     999901    1    3    3    0    0 -0.60599198918E-01  0.12271480164E+00 -0.17222714101E-01  0.89074564682E+00  0.88000000000E+00 0. -1.
        -11    1    4    4    0    0  0.97958835156E-02 -0.25058142774E-01  0.66375411338E-02  0.27716203319E-01  0.51100000000E-03 0.  1.
         11    1    4    4    0    0  0.61229779217E-01 -0.81303041903E-01 -0.29383241805E-02  0.10182418846E+00  0.51100000000E-03 0. -1.
</event>
<event>
 8    1  0.1114686E+005  0.1043930E+01  0.7957747E-01            NaN
         13   -1    0    0    0    0  0.00000000000E+00  0.00000000000E+00  0.74505805969E-08  0.10566000000E+00  0.10566000000E+00 0. -1.
     999900   -1    0    0    0    0 -0.00000000000E+00 -0.00000000000E+00 -0.74505805969E-08  0.93827000000E+00  0.93827000000E+00 0.  1.
     999902    2    1    2    0    0  0.24300190218E-02 -0.22703361054E-01  0.74956009375E-02  0.10198981122E+01  0.10196149409E+01 0.  0.
     999903    2    3    3    0    0  0.12082366089E+00 -0.35970637287E-01 -0.29974736062E-01  0.13108030121E+00  0.19781728612E-01 0.  0.
         14    1    1    2    0    0 -0.24300190218E-02  0.22703361054E-01 -0.74956009375E-02  0.24031887754E-01  0.00000000000E+00 0.  1.
     999901    1    3    3    0    0 -0.11839364187E+00  0.13267276232E-01  0.37470337000E-01  0.88881781103E+00  0.88000000000E+00 0.  1.
        -11    1    4    4    0    0  0.96335043487E-01 -0.26522629306E-01 -0.31540984045E-01  0.10478065310E+00  0.51100000000E-03 0. -1.
         11    1    4    4    0    0  0.24488617402E-01 -0.94480079805E-02  0.15662479831E-02  0.26299648111E-01  0.51100000000E-03 0.  1.
</event>
<event>
 8    1  0.1114686E+005  0.1043930E+01  0.7957747E-01            NaN
         13   -1    0    0    0    0  0.00000000000E+00  0.00000000000E+00  0.74505805969E-08  0.10566000000E+00  0.10566000000E+00 0.  1.
     999900   -1    0    0    0    0 -0.00000000000E+00 -0.00000000000E+00 -0.74505805969E-08  0.93827000000E+00  0.93827000000E+00 0. -1.
     999902    2    1    2    0    0 -0.82517752986E-02 -0.19560822751E-02  0.82104538165E-02  0.10321262038E+01  0.10320587052E+01 0.  0.
     999903    2    3    3    0    0  0.13744992803E+00  0.79619809864E-02 -0.15472622695E-01  0.13977636069E+00  0.18497380848E-01 0.  0.
         14    1    1    2    0    0  0.82517752986E-02  0.19560822751E-02 -0.82104538165E-02  0.11803796225E-01  0.00000000000E+00 0. -1.
     999901    1    3    3    0    0 -0.14570170333E+00 -0.99180632615E-02  0.23683076512E-01  0.89234984308E+00  0.88000000000E+00 0.  1.
        -11    1    4    4    0    0  0.89318942298E-01  0.13804613001E-01 -0.11846759507E-01  0.91153977561E-01  0.51100000000E-03 0. -1.
         11    1    4    4    0    0  0.48130985735E-01 -0.58426320145E-02 -0.36258631885E-02  0.48622383133E-01  0.51100000000E-03 0.  1.
</event>
<event>
 8    1  0.1114686E+005  0.1043930E+01  0.7957747E-01            NaN
         13   -1    0    0    0    0  0.00000000000E+00  0.00000000000E+00  0.74505805969E-08  0.10566000000E+00  0.10566000000E+00 0. -1.
     999900   -1    0    0    0    0 -0.00000000000E+00 -0.00000000000E+00 -0.74505805969E-08  0.93827000000E+00  0.93827000000E+00 0. -1.
     999902    2    1    2    0    0  0.45472861448E-03 -0.23964899116E-01  0.37392428720E-02  0.10196708758E+01  0.10193822590E+01 0.  0.
     999903    2    3    3    0    0  0.54092903374E-01  0.11516384919E-01 -0.11451135397E+00  0.12943541319E+00  0.24124814659E-01 0.  0.
         14    1    1    2    0    0 -0.45472861448E-03  0.23964899116E-01 -0.37392428720E-02  0.24259124160E-01  0.00000000000E+00 0.  1.
     999901    1    3    3    0    0 -0.53638174759E-01 -0.35481284035E-01  0.11825059684E+00  0.89023546265E+00  0.88000000000E+00 0.  1.
        -11    1    4    4    0    0  0.45615354785E-01  0.71116117040E-02 -0.69632215867E-01  0.83547843903E-01  0.51100000000E-03 0. -1.
         11    1    4    4    0    0  0.84775485885E-02  0.44047732146E-02 -0.44879138102E-01  0.45887569286E-01  0.51100000000E-03 0.  1.
</event>
<event>
 8    1  0.1114686E+005  0.1043930E+01  0.7957747E-01            NaN
         13   -1    0    0    0    0  0.00000000000E+00  0.00000000000E+00  0.74505805969E-08  0.10566000000E+00  0.10566000000E+00 0. -1.
     999900   -1    0    0    0    0 -0.00000000000E+00 -0.00000000000E+00 -0.74505805969E-08  0.93827000000E+00  0.93827000000E+00 0.  1.
     999902    2    1    2    0    0  0.49140584925E-02  0.18800419665E-01 -0.11998279117E-01  0.10210922582E+01  0.10208368318E+01 0.  0.
     999903    2    3    3    0    0 -0.10801410090E+00  0.64018069463E-01  0.33614921479E-01  0.13155419315E+00  0.20277662083E-01 0.  0.
         14    1    1    2    0    0 -0.49140584925E-02 -0.18800419665E-01  0.11998279117E-01  0.22837741837E-01  0.00000000000E+00 0. -1.
     999901    1    3    3    0    0  0.11292815939E+00 -0.45217649798E-01 -0.45613200596E-01  0.88953806501E+00  0.88000000000E+00 0.  1.
        -11    1    4    4    0    0 -0.55098964445E-01  0.44340929238E-01  0.19115582148E-01  0.73264455846E-01  0.51100000000E-03 0. -1.
         11    1    4    4    0    0 -0.52915136451E-01  0.19677140225E-01  0.14499339331E-01  0.58289737305E-01  0.51100000000E-03 0.  1.
</event>
<event>
 8    1  0.1114686E+005  0.1043930E+01  0.7957747E-01            NaN
         13   -1    0    0    0    0  0.00000000000E+00  0.00000000000E+00  0.74505805969E-08  0.10566000000E+00  0.10566000000E+00 0.  1.
     999900   -1    0    0    0    0 -0.00000000000E+00 -0.00000000000E+00 -0.74505805969E-08  0.93827000000E+00  0.93827000000E+00 0.  1.
     999902    2    1    2    0    0  0.21713622151E-02  0.12404047508E-01 -0.20927905851E-01  0.10195055767E+01  0.10192129653E+01 0.  0.
     999903    2    3    3    0    0  0.24622133628E-01  0.21867362708E-02  0.12354863316E+00  0.12738344333E+00  0.18741547432E-01 0.  0.
         14    1    1    2    0    0 -0.21713622151E-02 -0.12404047508E-01  0.20927905851E-01  0.24424423263E-01  0.00000000000E+00 0.  1.
     999901    1    3    3    0    0 -0.22450771413E-01  0.10217311237E-01 -0.14447653901E+00  0.89212213340E+00  0.88000000000E+00 0.  1.
        -11    1    4    4    0    0  0.18988282176E-01  0.75562894080E-02  0.60640032791E-01  0.63993179852E-01  0.51100000000E-03 0. -1.
         11    1    4    4    0    0  0.56338514525E-02 -0.53695531372E-02  0.62908600367E-01  0.63390263481E-01  0.51100000000E-03 0.  1.
</event>
<event>
 8    1  0.1114686E+005  0.1043930E+01  0.7957747E-01            NaN
         13   -1    0    0    0    0  0.00000000000E+00  0.00000000000E+00  0.74505805969E-08  0.10566000000E+00  0.10566000000E+00 0. -1.
     999900   -1    0    0    0    0 -0.00000000000E+00 -0.00000000000E+00 -0.74505805969E-08  0.93827000000E+00  0.93827000000E+00 0.  1.
     999902    2    1    2    0    0  0.23376124421E-01  0.21861283046E-02 -0.16840379760E-03  0.10204512711E+01  0.10201811339E+01 0.  0.
     999903    2    3    3    0    0 -0.86658393151E-01 -0.57920614334E-01  0.72285881100E-01  0.12861606271E+00  0.21268951818E-01 0.  0.
         14    1    1    2    0    0 -0.23376124421E-01 -0.21861283046E-02  0.16840379760E-03  0.23478728879E-01  0.00000000000E+00 0.  1.
     999901    1    3    3    0    0  0.11003451757E+00  0.60106742639E-01 -0.72454284898E-01  0.89183520841E+00  0.88000000000E+00 0.  1.
        -11    1    4    4    0    0 -0.47293330728E-01 -0.43051887606E-01  0.48592165788E-01  0.80321752065E-01  0.51100000000E-03 0.  1.
         11    1    4    4    0    0 -0.39365062423E-01 -0.14868726728E-01  0.23693715312E-01  0.48294310642E-01  0.51100000000E-03 0. -1.
</event>
<event>
 8    1  0.1114686E+005  0.1043930E+01  0.7957747E-01            NaN
         13   -1    0    0    0    0  0.00000000000E+00  0.00000000000E+00  0.74505805969E-08  0.10566000000E+00  0.10566000000E+00 0. -1.
     999900   -1    0    0    0    0 -0.00000000000E+00 -0.00000000000E+00 -0.74505805969E-08  0.93827000000E+00  0.93827000000E+00 0. -1.
     999902    2    1    2    0    0 -0.13068035636E-01 -0.18497690862E-01  0.37010906731E-02  0.10209814446E+01  0.10207235052E+01 0.  0.
     999903    2    3    3    0    0 -0.48033483970E-02 -0.90377176371E-01 -0.94421433775E-01  0.13257669715E+00  0.21681035649E-01 0.  0.
         14    1    1    2    0    0  0.13068035636E-01  0.18497690862E-01 -0.37010906731E-02  0.22948555396E-01  0.00000000000E+00 0.  1.
     999901    1    3    3    0    0 -0.82646872389E-02  0.71879485510E-01  0.98122524448E-01  0.88840474745E+00  0.88000000000E+00 0.  1.
        -11    1    4    4    0    0 -0.12624797425E-01 -0.49108342612E-01 -0.45880690952E-01  0.68383578054E-01  0.51100000000E-03 0. -1.
         11    1    4    4    0    0  0.78214490284E-02 -0.41268833759E-01 -0.48540742823E-01  0.64193119098E-01  0.51100000000E-03 0.  1.
</event>
<event>
 8    1  0.1114686E+005  0.1043930E+01  0.7957747E-01            NaN
         13   -1    0    0    0    0  0.00000000000E+00  0.00000000000E+00  0.74505805969E-08  0.10566000000E+00  0.10566000000E+00 0. -1.
     999900   -1    0    0    0    0 -0.00000000000E+00 -0.00000000000E+00 -0.74505805969E-08  0.93827000000E+00  0.93827000000E+00 0.  1.
     999902    2    1    2    0    0 -0.18963033289E-01  0.12051924575E-01  0.45904362783E-02  0.10209971061E+01  0.10207395226E+01 0.  0.
     999903    2    3    3    0    0  0.10284492216E+00 -0.74424584829E-01  0.83212332518E-02  0.12840017381E+00  0.17356983337E-01 0.  0.
         14    1    1    2    0    0  0.18963033289E-01 -0.12051924575E-01 -0.45904362783E-02  0.22932893901E-01  0.00000000000E+00 0.  1.
     999901    1    3    3    0    0 -0.12180795545E+00  0.86476509404E-01 -0.37307969735E-02  0.89259693229E+00  0.88000000000E+00 0. -1.
        -11    1    4    4    0    0  0.77348341093E-01 -0.50285925710E-01  0.12242620604E-01  0.93067626351E-01  0.51100000000E-03 0.  1.
         11    1    4    4    0    0  0.25496581065E-01 -0.24138659119E-01 -0.39213873524E-02  0.35332547457E-01  0.51100000000E-03 0. -1.
</event>
<event>
 8    1  0.1114686E+005  0.1043930E+01  0.7957747E-01            NaN
         13   -1    0    0    0    0  0.00000000000E+00  0.00000000000E+00  0.74505805969E-08  0.10566000000E+00  0.10566000000E+00 0. -1.
     999900   -1    0    0    0    0 -0.00000000000E+00 -0.00000000000E+00 -0.74505805969E-08  0.93827000000E+00  0.93827000000E+00 0. -1.
     999902    2    1    2    0    0  0.14780589315E-01  0.16005409429E-01  0.90873894454E-02  0.10203245007E+01  0.10200514041E+01 0.  0.
     999903    2    3    3    0    0  0.54298673459E-01  0.11478234977E+00 -0.33262532970E-01  0.13290572758E+00  0.20837527811E-01 0.  0.
         14    1    1    2    0    0 -0.14780589315E-01 -0.16005409429E-01 -0.90873894454E-02  0.23605499326E-01  0.00000000000E+00 0.  1.
     999901    1    3    3    0    0 -0.39518084145E-01 -0.98776940340E-01  0.42349922415E-01  0.88741877310E+00  0.88000000000E+00 0.  1.
        -11    1    4    4    0    0  0.42718656618E-01  0.97021126936E-01 -0.34966629622E-01  0.11162844173E+00  0.51100000000E-03 0.  1.
         11    1    4    4    0    0  0.11580016842E-01  0.17761222833E-01  0.17040966521E-02  0.21277285846E-01  0.51100000000E-03 0. -1.
</event>
<event>
 8    1  0.1114686E+005  0.1043930E+01  0.7957747E-01            NaN
         13   -1    0    0    0    0  0.00000000000E+00  0.00000000000E+00  0.74505805969E-08  0.10566000000E+00  0.10566000000E+00 0. -1.
     999900   -1    0    0    0    0 -0.00000000000E+00 -0.00000000000E+00 -0.74505805969E-08  0.93827000000E+00  0.93827000000E+00 0.  1.
     999902    2    1    2    0    0  0.45928440974E-02  0.22898095961E-01 -0.25522280910E-02  0.10204367907E+01  0.10201663163E+01 0.  0.
     999903    2    3    3    0    0  0.77558036843E-01  0.19267417442E-01 -0.10333363064E+00  0.13167698496E+00  0.16568243528E-01 0.  0.
         14    1    1    2    0    0 -0.45928440974E-02 -0.22898095961E-01  0.25522280910E-02  0.23493209312E-01  0.00000000000E+00 0.  1.
     999901    1    3    3    0    0 -0.72965192746E-01  0.36306785186E-02  0.10078140255E+00  0.88875980573E+00  0.88000000000E+00 0.  1.
        -11    1    4    4    0    0  0.14474621124E-01  0.85026005266E-02 -0.29692696992E-01  0.34113432077E-01  0.51100000000E-03 0.  1.
         11    1    4    4    0    0  0.63083415720E-01  0.10764816916E-01 -0.73640933645E-01  0.97563552883E-01  0.51100000000E-03 0. -1.
</event>
<event>
 8    1  0.1114686E+005  0.1043930E+01  0.7957747E-01            NaN
         13   -1    0    0    0    0  0.00000000000E+00  0.00000000000E+00  0.74505805969E-08  0.10566000000E+00  0.10566000000E+00 0.  1.
     999900   -1    0    0    0    0 -0.00000000000E+00 -0.00000000000E+00 -0.74505805969E-08  0.93827000000E+00  0.93827000000E+00 0.  1.
     999902    2    1    2    0    0 -0.64292542952E-02 -0.16534301771E-01  0.15434628816E-01  0.10204151916E+01  0.10201442139E+01 0.  0.
     999903    2    3    3    0    0  0.20274103491E-01  0.10519913647E+00 -0.66799780293E-01  0.12783768948E+00  0.20059078202E-01 0.  0.
         14    1    1    2    0    0  0.64292542952E-02  0.16534301771E-01 -0.15434628816E-01  0.23514808367E-01  0.00000000000E+00 0. -1.
     999901    1    3    3    0    0 -0.26703357786E-01 -0.12173343824E+00  0.82234409109E-01  0.89257750215E+00  0.88000000000E+00 0. -1.
        -11    1    4    4    0    0  0.46394845083E-02  0.36296951849E-01 -0.33951929821E-01  0.49919817604E-01  0.51100000000E-03 0.  1.
         11    1    4    4    0    0  0.15634618982E-01  0.68902184622E-01 -0.32847850472E-01  0.77917871879E-01  0.51100000000E-03 0. -1.
</event>
<event>
 8    1  0.1114686E+005  0.1043930E+01  0.7957747E-01            NaN
         13   -1    0    0    0    0  0.00000000000E+00  0.00000000000E+00  0.74505805969E-08  0.10566000000E+00  0.10566000000E+00 0.  1.
     999900   -1    0    0    0    0 -0.00000000000E+00 -0.00000000000E+00 -0.74505805969E-08  0.93827000000E+00  0.93827000000E+00 0. -1.
     999902    2    1    2    0    0  0.15957676445E-01  0.39380474738E-02 -0.16195444272E-01  0.10208551637E+01  0.10205943451E+01 0.  0.
     999903    2    3    3    0    0  0.46296554772E-01 -0.95587079247E-01  0.72722084021E-01  0.13027556297E+00  0.20073866093E-01 0.  0.
         14    1    1    2    0    0 -0.15957676445E-01 -0.39380474738E-02  0.16195444272E-01  0.23074836307E-01  0.00000000000E+00 0.  1.
     999901    1    3    3    0    0 -0.30338878327E-01  0.99525126721E-01 -0.88917528293E-01  0.89057960072E+00  0.88000000000E+00 0. -1.
        -11    1    4    4    0    0  0.32991897862E-02 -0.13341031613E-01  0.17584905189E-01  0.22323928625E-01  0.51100000000E-03 0. -1.
         11    1    4    4    0    0  0.42997364986E-01 -0.82246047634E-01  0.55137178832E-01  0.10795163435E+00  0.51100000000E-03 0.  1.
</event>
<event>
 8    1  0.1114686E+005  0.1043930E+01  0.7957747E-01            NaN
         13   -1    0    0    0    0  0.00000000000E+00  0.00000000000E+00  0.74505805969E-08  0.10566000000E+00  0.10566000000E+00 0.  1.
     999900   -1    0    0    0    0 -0.00000000000E+00 -0.00000000000E+00 -0.74505805969E-08  0.93827000000E+00  0.93827000000E+00 0. -1.
     999902    2    1    2    0    0 -0.12898062857E-01 -0.63907740380E-03 -0.19910323383E-01  0.10201983877E+01  0.10199223308E+01 0.  0.
     999903    2    3    3    0    0  0.12650878286E+00  0.77404467535E-02 -0.17352453923E-01  0.12918153726E+00  0.17954811461E-01 0.  0.
         14    1    1    2    0    0  0.12898062857E-01  0.63907740380E-03  0.19910323383E-01  0.23731612306E-01  0.00000000000E+00 0.  1.
     999901    1    3    3    0    0 -0.13940684572E+00 -0.83795241573E-02 -0.25578694601E-02  0.89101685043E+00  0.88000000000E+00 0. -1.
        -11    1    4    4    0    0  0.38930907984E-01  0.47577810655E-02  0.25953231593E-02  0.39309654035E-01  0.51100000000E-03 0. -1.
         11    1    4    4    0    0  0.87577874880E-01  0.29826656880E-02 -0.19947777083E-01  0.89871883226E-01  0.51100000000E-03 0.  1.
</event>
<event>
 8    1  0.1114686E+005  0.1043930E+01  0.7957747E-01            NaN
         13   -1    0    0    0    0  0.00000000000E+00  0.00000000000E+00  0.74505805969E-08  0.10566000000E+00  0.10566000000E+00 0. -1.
     999900   -1    0    0    0    0 -0.00000000000E+00 -0.00000000000E+00 -0.74505805969E-08  0.93827000000E+00  0.93827000000E+00 0. -1.
     999902    2    1    2    0    0  0.21777268517E-01 -0.69134118124E-02  0.57790860070E-02  0.10203621719E+01  0.10200899565E+01 0.  0.
     999903    2    3    3    0    0 -0.65664324779E-01  0.47796018611E-01  0.98892680835E-01  0.12945853200E+00  0.19582804741E-01 0.  0.
         14    1    1    2    0    0 -0.21777268517E-01  0.69134118124E-02 -0.57790860070E-02  0.23567828115E-01  0.00000000000E+00 0.  1.
     999901    1    3    3    0    0  0.87441593297E-01 -0.54709430424E-01 -0.93113594828E-01  0.89090363988E+00  0.88000000000E+00 0. -1.
        -11    1    4    4    0    0 -0.30938183228E-01  0.25250862562E-01  0.63358261529E-01  0.74895311379E-01  0.51100000000E-03 0. -1.
         11    1    4    4    0    0 -0.34726141551E-01  0.22545156050E-01  0.35534419306E-01  0.54563220623E-01  0.51100000000E-03 0.  1.
</event>
<event>
 8    1  0.1114686E+005  0.1043930E+01  0.7957747E-01            NaN
         13   -1    0    0    0    0  0.00000000000E+00  0.00000000000E+00  0.74505805969E-08  0.10566000000E+00  0.10566000000E+00 0.  1.
     999900   -1    0    0    0    0 -0.00000000000E+00 -0.00000000000E+00 -0.74505805969E-08  0.93827000000E+00  0.93827000000E+00 0.  1.
     999902    2    1    2    0    0 -0.13425814930E-01 -0.43897494890E-02 -0.19074141441E-01  0.10201951042E+01  0.10199189700E+01 0.  0.
     999903    2    3    3    0    0  0.36100005799E-01  0.71930908847E-01 -0.10235555202E+00  0.13159314429E+00  0.19048110844E-01 0.  0.
         14    1    1    2    0    0  0.13425814930E-01  0.43897494890E-02  0.19074141441E-01  0.23734895804E-01  0.00000000000E+00 0.  1.
     999901    1    3    3    0    0 -0.49525820729E-01 -0.76320658336E-01  0.83281410583E-01  0.88860195991E+00  0.88000000000E+00 0. -1.
        -11    1    4    4    0    0  0.13533720837E-01  0.44149913801E-01 -0.48897548733E-01  0.67257771903E-01  0.51100000000E-03 0. -1.
         11    1    4    4    0    0  0.22566284962E-01  0.27780995046E-01 -0.53458003291E-01  0.64335372383E-01  0.51100000000E-03 0.  1.
</event>
<event>
 8    1  0.1114686E+005  0.1043930E+01  0.7957747E-01            NaN
         13   -1    0    0    0    0  0.00000000000E+00  0.00000000000E+00  0.74505805969E-08  0.10566000000E+00  0.10566000000E+00 0. -1.
     999900   -1    0    0    0    0 -0.00000000000E+00 -0.00000000000E+00 -0.74505805969E-08  0.93827000000E+00  0.93827000000E+00 0.  1.
     999902    2    1    2    0    0 -0.23101402393E-01 -0.17852255773E-02 -0.72923989061E-02  0.10196392424E+01  0.10193498633E+01 0.  0.
     999903    2    3    3    0    0  0.21436032255E-01 -0.10041721309E+00  0.75707249360E-01  0.12913332234E+00  0.20017671442E-01 0.  0.
         14    1    1    2    0    0  0.23101402393E-01  0.17852255773E-02  0.72923989061E-02  0.24290757598E-01  0.00000000000E+00 0. -1.
     999901    1    3    3    0    0 -0.44537434648E-01  0.98631987514E-01 -0.82999648266E-01  0.89050592006E+00  0.88000000000E+00 0.  1.
        -11    1    4    4    0    0  0.31159472585E-02 -0.47482380696E-01  0.25920945449E-01  0.54188948484E-01  0.51100000000E-03 0.  1.
         11    1    4    4    0    0  0.18320084996E-01 -0.52934832396E-01  0.49786303912E-01  0.74944373860E-01  0.51100000000E-03 0. -1.
</event>
<event>
 8    1  0.1114686E+005  0.1043930E+01  0.7957747E-01            NaN
         13   -1    0    0    0    0  0.00000000000E+00  0.00000000000E+00  0.74505805969E-08  0.10566000000E+00  0.10566000000E+00 0. -1.
     999900   -1    0    0    0    0 -0.00000000000E+00 -0.00000000000E+00 -0.74505805969E-08  0.93827000000E+00  0.93827000000E+00 0. -1.
     999902    2    1    2    0    0 -0.18691994330E-02 -0.13903622516E-01 -0.19091229233E-01  0.10202386586E+01  0.10199635487E+01 0.  0.
     999903    2    3    3    0    0 -0.56786035683E-02  0.10916877933E+00 -0.68370271210E-01  0.13030059800E+00  0.18806459896E-01 0.  0.
         14    1    1    2    0    0  0.18691994330E-02  0.13903622516E-01  0.19091229233E-01  0.23691341440E-01  0.00000000000E+00 0.  1.
     999901    1    3    3    0    0  0.38094041353E-02 -0.12307240185E+00  0.49279041977E-01  0.88993806056E+00  0.88000000000E+00 0.  1.
        -11    1    4    4    0    0 -0.74051655605E-02  0.67924526638E-01 -0.32740469519E-01  0.75767917097E-01  0.51100000000E-03 0.  1.
         11    1    4    4    0    0  0.17265619922E-02  0.41244252696E-01 -0.35629801692E-01  0.54532680902E-01  0.51100000000E-03 0. -1.
</event>
<event>
 8    1  0.1114686E+005  0.1043930E+01  0.7957747E-01            NaN
         13   -1    0    0    0    0  0.00000000000E+00  0.00000000000E+00  0.74505805969E-08  0.10566000000E+00  0.10566000000E+00 0.  1.
     999900   -1    0    0    0    0 -0.00000000000E+00 -0.00000000000E+00 -0.74505805969E-08  0.93827000000E+00  0.93827000000E+00 0. -1.
     999902    2    1    2    0    0  0.42466405373E-02 -0.67789633656E-02  0.22031078657E-01  0.10204916398E+01  0.10202224416E+01 0.  0.
     999903    2    3    3    0    0  0.12918787221E+00 -0.23518710111E-02  0.13460830808E-01  0.13161405566E+00  0.21119376331E-01 0.  0.
         14    1    1    2    0    0 -0.42466405373E-02  0.67789633656E-02 -0.22031078657E-01  0.23438360160E-01  0.00000000000E+00 0. -1.
     999901    1    3    3    0    0 -0.12494123167E+00 -0.44270923546E-02  0.85702478499E-02  0.88887758419E+00  0.88000000000E+00 0.  1.
        -11    1    4    4    0    0  0.14653705022E-01  0.64410195483E-02  0.26700784456E-02  0.16236016864E-01  0.51100000000E-03 0.  1.
         11    1    4    4    0    0  0.11453416719E+00 -0.87928905594E-02  0.10790752362E-01  0.11537803879E+00  0.51100000000E-03 0. -1.
</event>
<event>
 8    1  0.1114686E+005  0.1043930E+01  0.7957747E-01            NaN
         13   -1    0    0    0    0  0.00000000000E+00  0.00000000000E+00  0.74505805969E-08  0.10566000000E+00  0.10566000000E+00 0.  1.
     999900   -1    0    0    0    0 -0.00000000000E+00 -0.00000000000E+00 -0.74505805969E-08  0.93827000000E+00  0.93827000000E+00 0.  1.
     999902    2    1    2    0    0 -0.81193348104E-02 -0.13983542184E-01 -0.16554740121E-01  0.10207886416E+01  0.10205262996E+01 0.  0.
     999903    2    3    3    0    0 -0.47103338574E-01 -0.87660237538E-01  0.83647224994E-01  0.13118848318E+00  0.17621524317E-01 0.  0.
         14    1    1    2    0    0  0.81193348104E-02  0.13983542184E-01  0.16554740121E-01  0.23141358436E-01  0.00000000000E+00 0.  1.
     999901    1    3    3    0    0  0.38984003764E-01  0.73676695355E-01 -0.10020196512E+00  0.88960015839E+00  0.88000000000E+00 0.  1.
        -11    1    4    4    0    0 -0.43038326331E-02 -0.16489065108E-01  0.79305041507E-02  0.18803357694E-01  0.51100000000E-03 0. -1.
         11    1    4    4    0    0 -0.42799505941E-01 -0.71171172430E-01  0.75716720843E-01  0.11238512548E+00  0.51100000000E-03 0.  1.
</event>
<event>
 8    1  0.1114686E+005  0.1043930E+01  0.7957747E-01            NaN
         13   -1    0    0    0    0  0.00000000000E+00  0.00000000000E+00  0.74505805969E-08  0.10566000000E+00  0.10566000000E+00 0. -1.
     999900   -1    0    0    0    0 -0.00000000000E+00 -0.00000000000E+00 -0.74505805969E-08  0.93827000000E+00  0.93827000000E+00 0. -1.
     999902    2    1    2    0    0 -0.19139077588E-01  0.57796979549E-02  0.15600224647E-01  0.10185710527E+01  0.10182553281E+01 0.  0.
     999903    2    3    3    0    0 -0.30612363332E-01 -0.81631423121E-01 -0.91118320064E-01  0.12775053870E+00  0.20416803291E-01 0.  0.
         14    1    1    2    0    0  0.19139077588E-01 -0.57796979549E-02 -0.15600224647E-01  0.25358947305E-01  0.00000000000E+00 0. -1.
     999901    1    3    3    0    0  0.11473285744E-01  0.87411121076E-01  0.10671854471E+00  0.89082051400E+00  0.88000000000E+00 0.  1.
        -11    1    4    4    0    0 -0.46299468202E-03 -0.22126179787E-01 -0.16166628406E-01  0.27411734550E-01  0.51100000000E-03 0. -1.
         11    1    4    4    0    0 -0.30149368650E-01 -0.59505243334E-01 -0.74951691658E-01  0.10033880415E+00  0.51100000000E-03 0.  1.
</event>
<event>
 8    1  0.1114686E+005  0.1043930E+01  0.7957747E-01            NaN
         13   -1    0    0    0    0  0.00000000000E+00  0.00000000000E+00  0.74505805969E-08  0.10566000000E+00  0.10566000000E+00 0. -1.
     999900   -1    0    0    0    0 -0.00000000000E+00 -0.00000000000E+00 -0.74505805969E-08  0.93827000000E+00  0.93827000000E+00 0. -1.
     999902    2    1    2    0    0  0.16618273170E-01 -0.12950861219E-01  0.14464181055E-01  0.10183740938E+01  0.10180533829E+01 0.  0.
     999903    2    3    3    0    0 -0.14439546388E-01 -0.77089420476E-01  0.10310766595E+00  0.13105452882E+00  0.19819674501E-01 0.  0.
         14    1    1    2    0    0 -0.16618273170E-01  0.12950861219E-01 -0.14464181055E-01  0.25555906227E-01  0.00000000000E+00 0.  1.
     999901    1    3    3    0    0  0.31057819558E-01  0.64138559257E-01 -0.88643484892E-01  0.88731956496E+00  0.88000000000E+00 0. -1.
        -11    1    4    4    0    0 -0.15394072245E-01 -0.35996748831E-01  0.58511048429E-01  0.70402750628E-01  0.51100000000E-03 0. -1.
         11    1    4    4    0    0  0.95452585661E-03 -0.41092671646E-01  0.44596617518E-01  0.60651778190E-01  0.51100000000E-03 0.  1.
</event>
<event>
 7    1  0.1114686E+005  0.1043930E+01  0.7957747E-01            NaN
         13   -1    0    0    0    0  0.00000000000E+00  0.00000000000E+00  0.74505805969E-08  0.10566000000E+00  0.10566000000E+00 0. -1.
     999900   -1    0    0    0    0 -0.00000000000E+00 -0.00000000000E+00 -0.74505805969E-08  0.93827000000E+00  0.93827000000E+00 0. -1.
     999903    2    1    2    0    0  0.87050178827E-03 -0.11022183247E+00  0.29135312126E-01  0.11597695573E+00  0.21264470883E-01 0.  0.
         14    1    1    2    0    0 -0.55245246515E-03 -0.11714766771E-01 -0.37722607782E-01  0.39503621379E-01  0.00000000000E+00 0.  1.
     999901    1    1    2    0    0 -0.31804932311E-03  0.12193659924E+00  0.85872956553E-02  0.88844942289E+00  0.88000000000E+00 0.  1.
        -11    1    3    3    0    0 -0.43796574439E-02 -0.50082132690E-01  0.23026358027E-01  0.55298062345E-01  0.51100000000E-03 0.  1.
         11    1    3    3    0    0  0.52501592321E-02 -0.60139699777E-01  0.61089540989E-02  0.60678893385E-01  0.51100000000E-03 0. -1.
</event>
<event>
 8    1  0.1114686E+005  0.1043930E+01  0.7957747E-01            NaN
         13   -1    0    0    0    0  0.00000000000E+00  0.00000000000E+00  0.74505805969E-08  0.10566000000E+00  0.10566000000E+00 0. -1.
     999900   -1    0    0    0    0 -0.00000000000E+00 -0.00000000000E+00 -0.74505805969E-08  0.93827000000E+00  0.93827000000E+00 0.  1.
     999902    2    1    2    0    0  0.14688061298E-01  0.17794529574E-02  0.18605779023E-01  0.10201585758E+01  0.10198815809E+01 0.  0.
     999903    2    3    3    0    0  0.14769873094E-01 -0.86896122444E-01  0.96577384574E-01  0.13227179489E+00  0.19988778478E-01 0.  0.
         14    1    1    2    0    0 -0.14688061298E-01 -0.17794529574E-02 -0.18605779023E-01  0.23771424244E-01  0.00000000000E+00 0. -1.
     999901    1    3    3    0    0 -0.81811796225E-04  0.88675575401E-01 -0.77971605551E-01  0.88788678087E+00  0.88000000000E+00 0.  1.
        -11    1    4    4    0    0  0.94100037460E-02 -0.68145132719E-01  0.85835107565E-01  0.11000106407E+00  0.51100000000E-03 0.  1.
         11    1    4    4    0    0  0.53598693483E-02 -0.18750989725E-01  0.10742277009E-01  0.22270730824E-01  0.51100000000E-03 0. -1.
</event>
<event>
 8    1  0.1114686E+005  0.1043930E+01  0.7957747E-01            NaN
         13   -1    0    0    0    0  0.00000000000E+00  0.00000000000E+00  0.74505805969E-08  0.10566000000E+00  0.10566000000E+00 0.  1.
     999900   -1    0    0    0    0 -0.00000000000E+00 -0.00000000000E+00 -0.74505805969E-08  0.93827000000E+00  0.93827000000E+00 0. -1.
     999902    2    1    2    0    0  0.44248220644E-02 -0.47810907283E-02 -0.22692188260E-01  0.10203212455E+01  0.10200480728E+01 0.  0.
     999903    2    3    3    0    0  0.39516034116E-01 -0.96791461312E-01  0.74179652704E-01  0.12954548531E+00  0.18689782039E-01 0.  0.
         14    1    1    2    0    0 -0.44248220644E-02  0.47810907283E-02  0.22692188260E-01  0.23608754454E-01  0.00000000000E+00 0.  1.
     999901    1    3    3    0    0 -0.35091212052E-01  0.92010370584E-01 -0.96871840965E-01  0.89077576024E+00  0.88000000000E+00 0. -1.
        -11    1    4    4    0    0  0.23491672197E-01 -0.49546481009E-01  0.28037514223E-01  0.61587951482E-01  0.51100000000E-03 0. -1.
         11    1    4    4    0    0  0.16024361919E-01 -0.47244980303E-01  0.46142138482E-01  0.67957533824E-01  0.51100000000E-03 0.  1.
</event>
<event>
 8    1  0.1114686E+005  0.1043930E+01  0.7957747E-01            NaN
         13   -1    0    0    0    0  0.00000000000E+00  0.00000000000E+00  0.74505805969E-08  0.10566000000E+00  0.10566000000E+00 0.  1.
     999900   -1    0    0    0    0 -0.00000000000E+00 -0.00000000000E+00 -0.74505805969E-08  0.93827000000E+00  0.93827000000E+00 0. -1.
     999902    2    1    2    0    0  0.22536725086E-01 -0.15764329646E-01 -0.14890781310E-01  0.10126545554E+01  0.10121714752E+01 0.  0.
     999903    2    3    3    0    0 -0.11153250110E+00  0.27751038661E-01 -0.32452034933E-01  0.12126432530E+00  0.21030527157E-01 0.  0.
         14    1    1    2    0    0 -0.22536725086E-01  0.15764329646E-01  0.14890781310E-01  0.31275444598E-01  0.00000000000E+00 0. -1.
     999901    1    3    3    0    0  0.13406922618E+00 -0.43515368307E-01  0.17561253623E-01  0.89139023010E+00  0.88000000000E+00 0.  1.
        -11    1    4    4    0    0 -0.87898241534E-01  0.27717754774E-01 -0.19135422461E-01  0.94131824099E-01  0.51100000000E-03 0.  1.
         11    1    4    4    0    0 -0.23634259561E-01  0.33283886754E-04 -0.13316612472E-01  0.27132501203E-01  0.51100000000E-03 0. -1.
</event>
<event>
 8    1  0.1114686E+005  0.1043930E+01  0.7957747E-01            NaN
         13   -1    0    0    0    0  0.00000000000E+00  0.00000000000E+00  0.74505805969E-08  0.10566000000E+00  0.10566000000E+00 0.  1.
     999900   -1    0    0    0    0 -0.00000000000E+00 -0.00000000000E+00 -0.74505805969E-08  0.93827000000E+00  0.93827000000E+00 0.  1.
     999902    2    1    2    0    0  0.18940176616E-01  0.13229646294E-01 -0.32557969012E-02  0.10205986039E+01  0.10203318853E+01 0.  0.
     999903    2    3    3    0    0 -0.33047367052E-01 -0.12019170332E-01  0.12342628967E+00  0.12965048054E+00  0.18401336798E-01 0.  0.
         14    1    1    2    0    0 -0.18940176616E-01 -0.13229646294E-01  0.32557969012E-02  0.23331396117E-01  0.00000000000E+00 0.  1.
     999901    1    3    3    0    0  0.51987543668E-01  0.25248816626E-01 -0.12668208657E+00  0.89094812335E+00  0.88000000000E+00 0.  1.
        -11    1    4    4    0    0 -0.28576322066E-02  0.33801946611E-02  0.62849711101E-02  0.77041391881E-02  0.51100000000E-03 0.  1.
         11    1    4    4    0    0 -0.30189734845E-01 -0.15399364993E-01  0.11714131856E+00  0.12194634135E+00  0.51100000000E-03 0. -1.
</event>
<event>
 8    1  0.1228975E+005  0.1043930E+01  0.7957747E-01            NaN
         13   -1    0    0    0    0  0.00000000000E+00  0.00000000000E+00  0.74505805969E-08  0.10566000000E+00  0.10566000000E+00 0.  1.
     999900   -1    0    0    0    0 -0.00000000000E+00 -0.00000000000E+00 -0.74505805969E-08  0.93827000000E+00  0.93827000000E+00 0. -1.
     999902    2    1    2    0    0 -0.88674453513E-02 -0.17662550841E-01 -0.12277062399E-01  0.10206636391E+01  0.10203984225E+01 0.  0.
     999903    2    3    3    0    0  0.20854403146E-01  0.10801520147E+00 -0.65497514326E-01  0.12964697133E+00  0.20401541942E-01 0.  0.
         14    1    1    2    0    0  0.88674453513E-02  0.17662550841E-01  0.12277062399E-01  0.23266360919E-01  0.00000000000E+00 0.  1.
     999901    1    3    3    0    0 -0.29721848497E-01 -0.12567775231E+00  0.53220451927E-01  0.89101666775E+00  0.88000000000E+00 0.  1.
        -11    1    4    4    0    0  0.37865495895E-02  0.69558821569E-01 -0.37614200516E-01  0.79169797381E-01  0.51100000000E-03 0.  1.
         11    1    4    4    0    0  0.17067853556E-01  0.38456379901E-01 -0.27883313810E-01  0.50477173951E-01  0.51100000000E-03 0. -1.
</event>
<event>
 8    1  0.1114686E+005  0.1043930E+01  0.7957747E-01            NaN
         13   -1    0    0    0    0  0.00000000000E+00  0.00000000000E+00  0.74505805969E-08  0.10566000000E+00  0.10566000000E+00 0.  1.
     999900   -1    0    0    0    0 -0.00000000000E+00 -0.00000000000E+00 -0.74505805969E-08  0.93827000000E+00  0.93827000000E+00 0.  1.
     999902    2    1    2    0    0 -0.10481308791E-01  0.75258064575E-02  0.20400918487E-01  0.10197909637E+01  0.10195052313E+01 0.  0.
     999903    2    3    3    0    0 -0.30951200660E-01  0.10658119167E+00 -0.64832610089E-01  0.12990572382E+00  0.18833547487E-01 0.  0.
         14    1    1    2    0    0  0.10481308791E-01 -0.75258064575E-02 -0.20400918487E-01  0.24139036267E-01  0.00000000000E+00 0. -1.
     999901    1    3    3    0    0  0.20469891869E-01 -0.99055385214E-01  0.85233528576E-01  0.88988523991E+00  0.88000000000E+00 0. -1.
        -11    1    4    4    0    0 -0.28031829744E-02  0.40863133770E-01 -0.20816086521E-01  0.45948058885E-01  0.51100000000E-03 0. -1.
         11    1    4    4    0    0 -0.28148017686E-01  0.65718057902E-01 -0.44016523569E-01  0.83957664940E-01  0.51100000000E-03 0.  1.
</event>
<event>
 8    1  0.1114686E+005  0.1043930E+01  0.7957747E-01            NaN
         13   -1    0    0    0    0  0.00000000000E+00  0.00000000000E+00  0.74505805969E-08  0.10566000000E+00  0.10566000000E+00 0. -1.
     999900   -1    0    0    0    0 -0.00000000000E+00 -0.00000000000E+00 -0.74505805969E-08  0.93827000000E+00  0.93827000000E+00 0.  1.
     999902    2    1    2    0    0  0.13914169855E-01  0.13721100903E-01 -0.12495279971E-01  0.10207350705E+01  0.10204714986E+01 0.  0.
     999903    2    3    3    0    0 -0.57374488801E-01 -0.11255090665E+00  0.15408668987E-01  0.12843168986E+00  0.17254950826E-01 0.  0.
         14    1    1    2    0    0 -0.13914169855E-01 -0.13721100903E-01  0.12495279971E-01  0.23194929496E-01  0.00000000000E+00 0. -1.
     999901    1    3    3    0    0  0.71288658657E-01  0.12627200755E+00 -0.27903948957E-01  0.89230338065E+00  0.88000000000E+00 0. -1.
        -11    1    4    4    0    0 -0.17563253258E-01 -0.51124326162E-01  0.26296225201E-02  0.54123383358E-01  0.51100000000E-03 0. -1.
         11    1    4    4    0    0 -0.39811235543E-01 -0.61426580485E-01  0.12779046467E-01  0.74308306501E-01  0.51100000000E-03 0.  1.
</event>
<event>
 8    1  0.1114686E+005  0.1043930E+01  0.7957747E-01            NaN
         13   -1    0    0    0    0  0.00000000000E+00  0.00000000000E+00  0.74505805969E-08  0.10566000000E+00  0.10566000000E+00 0. -1.
     999900   -1    0    0    0    0 -0.00000000000E+00 -0.00000000000E+00 -0.74505805969E-08  0.93827000000E+00  0.93827000000E+00 0.  1.
     999902    2    1    2    0    0 -0.46941402801E-02  0.23231711356E-01  0.17161831566E-02  0.10201667374E+01  0.10198899350E+01 0.  0.
     999903    2    3    3    0    0  0.71373913026E-01 -0.87872517620E-01 -0.56588793980E-01  0.12801766420E+00  0.19246192580E-01 0.  0.
         14    1    1    2    0    0  0.46941402801E-02 -0.23231711356E-01 -0.17161831566E-02  0.23763262615E-01  0.00000000000E+00 0.  1.
     999901    1    3    3    0    0 -0.76068053306E-01  0.11110422898E+00  0.58304977137E-01  0.89214907319E+00  0.88000000000E+00 0. -1.
        -11    1    4    4    0    0  0.55936041890E-01 -0.55313437358E-01 -0.41569732969E-01  0.88975957173E-01  0.51100000000E-03 0.  1.
         11    1    4    4    0    0  0.15437871136E-01 -0.32559080262E-01 -0.15019061011E-01  0.39041707024E-01  0.51100000000E-03 0. -1.
</event>
<event>
 7    1  0.1114686E+005  0.1043930E+01  0.7957747E-01            NaN
         13   -1    0    0    0    0  0.00000000000E+00  0.00000000000E+00  0.74505805969E-08  0.10566000000E+00  0.10566000000E+00 0. -1.
     999900   -1    0    0    0    0 -0.00000000000E+00 -0.00000000000E+00 -0.74505805969E-08  0.93827000000E+00  0.93827000000E+00 0.  1.
     999902    2    1    2    0    0  0.79357154589E-02 -0.11189701119E-01  0.23074787309E-01  0.10170854326E+01  0.10167311082E+01 0.  0.
         14    1    1    2    0    0 -0.79357154589E-02  0.11189701119E-01 -0.23074787309E-01  0.26844567427E-01  0.00000000000E+00 0.  1.
     999901    1    3    3    0    0 -0.78717834453E-01  0.51345583309E-01  0.79115783170E-01  0.88853372110E+00  0.88000000000E+00 0. -1.
        -11    1    3    3    0    0  0.29479945886E-01 -0.36198027566E-01 -0.44608006943E-01  0.64571664169E-01  0.51100000000E-03 0. -1.
         11    1    3    3    0    0  0.57173604026E-01 -0.26337256862E-01 -0.11432988918E-01  0.63980047303E-01  0.51100000000E-03 0.  1.
</event>
<event>
 8    1  0.1114686E+005  0.1043930E+01  0.7957747E-01            NaN
         13   -1    0    0    0    0  0.00000000000E+00  0.00000000000E+00  0.74505805969E-08  0.10566000000E+00  0.10566000000E+00 0.  1.
     999900   -1    0    0    0    0 -0.00000000000E+00 -0.00000000000E+00 -0.74505805969E-08  0.93827000000E+00  0.93827000000E+00 0.  1.
     999902    2    1    2    0    0  0.93468498734E-02  0.20813647271E-01  0.74541480008E-02  0.10199271702E+01  0.10196446914E+01 0.  0.
     999903    2    3    3    0    0 -0.56250501412E-01 -0.48123781748E-01  0.10422604850E+00  0.12952266532E+00  0.20809477777E-01 0.  0.
         14    1    1    2    0    0 -0.93468498734E-02 -0.20813647271E-01 -0.74541480008E-02  0.24002829785E-01  0.00000000000E+00 0. -1.
     999901    1    3    3    0    0  0.65597351286E-01  0.68937429019E-01 -0.96771900503E-01  0.89040450490E+00  0.88000000000E+00 0.  1.
        -11    1    4    4    0    0 -0.13715063921E-01 -0.64412754726E-02  0.10379654904E-01  0.18373659543E-01  0.51100000000E-03 0. -1.
         11    1    4    4    0    0 -0.42535437491E-01 -0.41682506275E-01  0.93846393600E-01  0.11114900577E+00  0.51100000000E-03 0.  1.
</event>
<event>
 8    1  0.1114686E+005  0.1043930E+01  0.7957747E-01            NaN
         13   -1    0    0    0    0  0.00000000000E+00  0.00000000000E+00  0.74505805969E-08  0.10566000000E+00  0.10566000000E+00 0.  1.
     999900   -1    0    0    0    0 -0.00000000000E+00 -0.00000000000E+00 -0.74505805969E-08  0.93827000000E+00  0.93827000000E+00 0. -1.
     999902    2    1    2    0    0 -0.10861705417E-01  0.20755355314E-01 -0.19906181630E-02  0.10204199175E+01  0.10201490499E+01 0.  0.
     999903    2    3    3    0    0 -0.50359446399E-01  0.12161661360E+00 -0.12472215470E-01  0.13371651226E+00  0.19946802954E-01 0.  0.
         14    1    1    2    0    0  0.10861705417E-01 -0.20755355314E-01  0.19906181630E-02  0.23510082507E-01  0.00000000000E+00 0.  1.
     999901    1    3    3    0    0  0.39497740982E-01 -0.10086125828E+00  0.10481597307E-01  0.88670340523E+00  0.88000000000E+00 0. -1.
        -11    1    4    4    0    0 -0.30224197112E-01  0.81719527762E-01  0.66138483085E-03  0.87133701055E-01  0.51100000000E-03 0.  1.
         11    1    4    4    0    0 -0.20135249287E-01  0.39897085838E-01 -0.13133600301E-01  0.46582811208E-01  0.51100000000E-03 0. -1.
</event>
<event>
 8    1  0.1114686E+005  0.1043930E+01  0.7957747E-01            NaN
         13   -1    0    0    0    0  0.00000000000E+00  0.00000000000E+00  0.74505805969E-08  0.10566000000E+00  0.10566000000E+00 0. -1.
     999900   -1    0    0    0    0 -0.00000000000E+00 -0.00000000000E+00 -0.74505805969E-08  0.93827000000E+00  0.93827000000E+00 0. -1.
     999902    2    1    2    0    0  0.40909391952E-02 -0.23243990573E-01 -0.29743649716E-02  0.10201420676E+01  0.10198646833E+01 0.  0.
     999903    2    3    3    0    0  0.24121686136E-01 -0.75140836322E-01  0.10390751006E+00  0.13193136701E+00  0.19522139416E-01 0.  0.
         14    1    1    2    0    0 -0.40909391952E-02  0.23243990573E-01  0.29743649716E-02  0.23787932408E-01  0.00000000000E+00 0. -1.
     999901    1    3    3    0    0 -0.20030746941E-01  0.51896845749E-01 -0.10688187504E+00  0.88821070058E+00  0.88000000000E+00 0. -1.
        -11    1    4    4    0    0 -0.19258233335E-02 -0.17112139841E-01  0.28236440337E-01  0.33077058656E-01  0.51100000000E-03 0.  1.
         11    1    4    4    0    0  0.26047509469E-01 -0.58028696481E-01  0.75671069728E-01  0.98854308351E-01  0.51100000000E-03 0. -1.
</event>
<event>
 8    1  0.1114686E+005  0.1043930E+01  0.7957747E-01            NaN
         13   -1    0    0    0    0  0.00000000000E+00  0.00000000000E+00  0.74505805969E-08  0.10566000000E+00  0.10566000000E+00 0. -1.
     999900   -1    0    0    0    0 -0.00000000000E+00 -0.00000000000E+00 -0.74505805969E-08  0.93827000000E+00  0.93827000000E+00 0.  1.
     999902    2    1    2    0    0  0.18216139383E-01  0.14114398683E-01 -0.14630016223E-02  0.10208392149E+01  0.10205780314E+01 0.  0.
     999903    2    3    3    0    0  0.24904491032E-02 -0.10451848404E+00  0.74154813557E-01  0.12952607564E+00  0.18648111258E-01 0.  0.
         14    1    1    2    0    0 -0.18216139383E-01 -0.14114398683E-01  0.14630016223E-02  0.23090785131E-01  0.00000000000E+00 0.  1.
     999901    1    3    3    0    0  0.15725690280E-01  0.11863288272E+00 -0.75617815180E-01  0.89131313923E+00  0.88000000000E+00 0.  1.
        -11    1    4    4    0    0  0.21330180263E-03 -0.91977225701E-01  0.57221755132E-01  0.10832564759E+00  0.51100000000E-03 0. -1.
         11    1    4    4    0    0  0.22771473006E-02 -0.12541258338E-01  0.16933058426E-01  0.21200428042E-01  0.51100000000E-03 0.  1.
</event>
<event>
 8    1  0.1114686E+005  0.1043930E+01  0.7957747E-01            NaN
         13   -1    0    0    0    0  0.00000000000E+00  0.00000000000E+00  0.74505805969E-08  0.10566000000E+00  0.10566000000E+00 0. -1.
     999900   -1    0    0    0    0 -0.00000000000E+00 -0.00000000000E+00 -0.74505805969E-08  0.93827000000E+00  0.93827000000E+00 0. -1.
     999902    2    1    2    0    0 -0.67773199032E-02 -0.21300415959E-01 -0.72651455806E-02  0.10204263380E+01  0.10201556201E+01 0.  0.
     999903    2    3    3    0    0  0.30714782260E-01  0.82653170580E-01 -0.92487032661E-01  0.12942983080E+00  0.20573901786E-01 0.  0.
         14    1    1    2    0    0  0.67773199032E-02  0.21300415959E-01  0.72651455806E-02  0.23503661957E-01  0.00000000000E+00 0.  1.
     999901    1    3    3    0    0 -0.37492102163E-01 -0.10395358654E+00  0.85221887080E-01  0.89099650724E+00  0.88000000000E+00 0.  1.
        -11    1    4    4    0    0  0.17700483652E-02  0.14964125226E-02 -0.95284441745E-02  0.98196074789E-02  0.51100000000E-03 0.  1.
         11    1    4    4    0    0  0.28944733895E-01  0.81156758057E-01 -0.82958588486E-01  0.11961022332E+00  0.51100000000E-03 0. -1.
</event>
<event>
 8    1  0.1114686E+005  0.1043930E+01  0.7957747E-01            NaN
         13   -1    0    0    0    0  0.00000000000E+00  0.00000000000E+00  0.74505805969E-08  0.10566000000E+00  0.10566000000E+00 0. -1.
     999900   -1    0    0    0    0 -0.00000000000E+00 -0.00000000000E+00 -0.74505805969E-08  0.93827000000E+00  0.93827000000E+00 0.  1.
     999902    2    1    2    0    0 -0.10377218352E-01  0.17447383562E-01 -0.50810441882E-02  0.10230035845E+01  0.10227895283E+01 0.  0.
     999903    2    3    3    0    0 -0.58024845064E-01 -0.39698933303E-01 -0.11177512314E+00  0.13344210587E+00  0.19241349112E-01 0.  0.
         14    1    1    2    0    0  0.10377218352E-01 -0.17447383562E-01  0.50810441882E-02  0.20926415459E-01  0.00000000000E+00 0. -1.
     999901    1    3    3    0    0  0.47647626712E-01  0.57146316865E-01  0.10669407895E+00  0.88956147868E+00  0.88000000000E+00 0. -1.
        -11    1    4    4    0    0 -0.17181616249E-01 -0.23032305206E-01 -0.46149019404E-01  0.54366240747E-01  0.51100000000E-03 0. -1.
         11    1    4    4    0    0 -0.40843228815E-01 -0.16666628097E-01 -0.65626103731E-01  0.79075865118E-01  0.51100000000E-03 0.  1.
</event>
<event>
 8    1  0.1114686E+005  0.1043930E+01  0.7957747E-01            NaN
         13   -1    0    0    0    0  0.00000000000E+00  0.00000000000E+00  0.74505805969E-08  0.10566000000E+00  0.10566000000E+00 0.  1.
     999900   -1    0    0    0    0 -0.00000000000E+00 -0.00000000000E+00 -0.74505805969E-08  0.93827000000E+00  0.93827000000E+00 0.  1.
     999902    2    1    2    0    0 -0.14411250207E-01  0.18034523844E-01  0.11752142180E-01  0.10180255404E+01  0.10176959073E+01 0.  0.
     999903    2    3    3    0    0 -0.15658921728E-01 -0.46841411340E-02  0.12758812601E+00  0.13014285129E+00  0.19781022110E-01 0.  0.
         14    1    1    2    0    0  0.14411250207E-01 -0.18034523844E-01 -0.11752142180E-01  0.25904459628E-01  0.00000000000E+00 0. -1.
     999901    1    3    3    0    0  0.12476715213E-02  0.22718664978E-01 -0.11583598383E+00  0.88788268908E+00  0.88000000000E+00 0.  1.
        -11    1    4    4    0    0 -0.83339760278E-02 -0.99061922338E-02  0.38954771707E-01  0.41052687619E-01  0.51100000000E-03 0. -1.
         11    1    4    4    0    0 -0.73249457001E-02  0.52220510998E-02  0.88633354301E-01  0.89090163671E-01  0.51100000000E-03 0.  1.
</event>
<event>
 8    1  0.1114686E+005  0.1043930E+01  0.7957747E-01            NaN
         13   -1    0    0    0    0  0.00000000000E+00  0.00000000000E+00  0.74505805969E-08  0.10566000000E+00  0.10566000000E+00 0.  1.
     999900   -1    0    0    0    0 -0.00000000000E+00 -0.00000000000E+00 -0.74505805969E-08  0.93827000000E+00  0.93827000000E+00 0. -1.
     999902    2    1    2    0    0 -0.15655836363E-01  0.43543634544E-02 -0.16682888861E-01  0.10206408507E+01  0.10203751083E+01 0.  0.
     999903    2    3    3    0    0  0.44737824001E-01  0.80030842444E-01 -0.92906983846E-01  0.13205521256E+00  0.20011568641E-01 0.  0.
         14    1    1    2    0    0  0.15655836363E-01 -0.43543634544E-02  0.16682888861E-01  0.23289149277E-01  0.00000000000E+00 0.  1.
     999901    1    3    3    0    0 -0.60393660363E-01 -0.75676478990E-01  0.76224094986E-01  0.88858563816E+00  0.88000000000E+00 0.  1.
        -11    1    4    4    0    0  0.37726575826E-01  0.76331783560E-01 -0.89110757407E-01  0.12325106049E+00  0.51100000000E-03 0.  1.
         11    1    4    4    0    0  0.70112481745E-02  0.36990588841E-02 -0.37962264393E-02  0.88041520757E-02  0.51100000000E-03 0. -1.
</event>
<event>
 8    1  0.1114686E+005  0.1043930E+01  0.7957747E-01            NaN
         13   -1    0    0    0    0  0.00000000000E+00  0.00000000000E+00  0.74505805969E-08  0.10566000000E+00  0.10566000000E+00 0.  1.
     999900   -1    0    0    0    0 -0.00000000000E+00 -0.00000000000E+00 -0.74505805969E-08  0.93827000000E+00  0.93827000000E+00 0.  1.
     999902    2    1    2    0    0  0.77118202939E-02  0.16205445574E-01 -0.12359361587E-01  0.10221391199E+01  0.10219068147E+01 0.  0.
     999903    2    3    3    0    0  0.72095715943E-01  0.99602747751E-01  0.48340498060E-01  0.13377834349E+00  0.21008136928E-01 0.  0.
         14    1    1    2    0    0 -0.77118202939E-02 -0.16205445574E-01  0.12359361587E-01  0.21790880141E-01  0.00000000000E+00 0.  1.
     999901    1    3    3    0    0 -0.64383895649E-01 -0.83397302178E-01 -0.60699859648E-01  0.88836077637E+00  0.88000000000E+00 0.  1.
        -11    1    4    4    0    0  0.17343269868E-01  0.17105461998E-01  0.17753900469E-01  0.30147105047E-01  0.51100000000E-03 0. -1.
         11    1    4    4    0    0  0.54752446075E-01  0.82497285753E-01  0.30586597592E-01  0.10363123844E+00  0.51100000000E-03 0.  1.
</event>
<event>
 8    1  0.1114686E+005  0.1043930E+01  0.7957747E-01            NaN
         13   -1    0    0    0    0  0.00000000000E+00  0.00000000000E+00  0.74505805969E-08  0.10566000000E+00  0.10566000000E+00 0.  1.
     999900   -1    0    0    0    0 -0.00000000000E+00 -0.00000000000E+00 -0.74505805969E-08  0.93827000000E+00  0.93827000000E+00 0.  1.
     999902    2    1    2    0    0  0.25351002295E-02 -0.18258837015E-01  0.25853495553E-01  0.10121775970E+01  0.10116794318E+01 0.  0.
     999903    2    3    3    0    0 -0.84383882525E-02  0.29969836798E-01 -0.11383758659E+00  0.11978753609E+00  0.20510001680E-01 0.  0.
         14    1    1    2    0    0 -0.25351002295E-02  0.18258837015E-01 -0.25853495553E-01  0.31752402974E-01  0.00000000000E+00 0. -1.
     999901    1    3    3    0    0  0.10973488482E-01 -0.48228673813E-01  0.13969108214E+00  0.89239006094E+00  0.88000000000E+00 0. -1.
        -11    1    4    4    0    0  0.61608115803E-02  0.39068224961E-02 -0.19195042003E-01  0.20540925487E-01  0.51100000000E-03 0.  1.
         11    1    4    4    0    0 -0.14599199833E-01  0.26063014302E-01 -0.94642544582E-01  0.99246610604E-01  0.51100000000E-03 0. -1.
</event>
<event>
 8    1  0.1114686E+005  0.1043930E+01  0.7957747E-01            NaN
         13   -1    0    0    0    0  0.00000000000E+00  0.00000000000E+00  0.74505805969E-08  0.10566000000E+00  0.10566000000E+00 0.  1.
     999900   -1    0    0    0    0 -0.00000000000E+00 -0.00000000000E+00 -0.74505805969E-08  0.93827000000E+00  0.93827000000E+00 0.  1.
     999902    2    1    2    0    0 -0.23096491569E-02  0.69465620721E-02  0.23307745141E-01  0.10194996871E+01  0.10192069328E+01 0.  0.
     999903    2    3    3    0    0  0.10751992466E+00  0.69949826598E-01  0.11751126735E-01  0.13036218254E+00  0.20067317097E-01 0.  0.
         14    1    1    2    0    0  0.23096491569E-02 -0.69465620721E-02 -0.23307745141E-01  0.24430312880E-01  0.00000000000E+00 0. -1.
     999901    1    3    3    0    0 -0.10982957382E+00 -0.63003264526E-01  0.11556618407E-01  0.88913750458E+00  0.88000000000E+00 0. -1.
        -11    1    4    4    0    0  0.63072186913E-01  0.52523281832E-01  0.67632990756E-02  0.82357751498E-01  0.51100000000E-03 0. -1.
         11    1    4    4    0    0  0.44447737750E-01  0.17426544766E-01  0.49878276591E-02  0.48004431039E-01  0.51100000000E-03 0.  1.
</event>
<event>
 8    1  0.1114686E+005  0.1043930E+01  0.7957747E-01            NaN
         13   -1    0    0    0    0  0.00000000000E+00  0.00000000000E+00  0.74505805969E-08  0.10566000000E+00  0.10566000000E+00 0. -1.
     999900   -1    0    0    0    0 -0.00000000000E+00 -0.00000000000E+00 -0.74505805969E-08  0.93827000000E+00  0.93827000000E+00 0.  1.
     999902    2    1    2    0    0 -0.17716390886E-01 -0.12628459869E-01  0.93288362482E-02  0.10202577443E+01  0.10199830827E+01 0.  0.
     999903    2    3    3    0    0 -0.73530657203E-01 -0.66452353852E-01  0.87053883088E-01  0.13343565007E+00  0.20100280292E-01 0.  0.
         14    1    1    2    0    0  0.17716390886E-01  0.12628459869E-01 -0.93288362482E-02  0.23672255711E-01  0.00000000000E+00 0. -1.
     999901    1    3    3    0    0  0.55814266317E-01  0.53823893984E-01 -0.77725046840E-01  0.88682209422E+00  0.88000000000E+00 0.  1.
        -11    1    4    4    0    0 -0.64729437626E-01 -0.60042345301E-01  0.67835465405E-01  0.11134134368E+00  0.51100000000E-03 0.  1.
         11    1    4    4    0    0 -0.88012195777E-02 -0.64100085519E-02  0.19218417683E-01  0.22094306392E-01  0.51100000000E-03 0. -1.
</event>
<event>
 8    1  0.1114686E+005  0.1043930E+01  0.7957747E-01            NaN
         13   -1    0    0    0    0  0.00000000000E+00  0.00000000000E+00  0.74505805969E-08  0.10566000000E+00  0.10566000000E+00 0.  1.
     999900   -1    0    0    0    0 -0.00000000000E+00 -0.00000000000E+00 -0.74505805969E-08  0.93827000000E+00  0.93827000000E+00 0. -1.
     999902    2    1    2    0    0 -0.11368884997E-01  0.17366455781E-01  0.88577983803E-02  0.10213621927E+01  0.10211128355E+01 0.  0.
     999903    2    3    3    0    0 -0.57761132674E-01 -0.10479667356E+00  0.48761709139E-01  0.13081831796E+00  0.20421478856E-01 0.  0.
         14    1    1    2    0    0  0.11368884997E-01 -0.17366455781E-01 -0.88577983803E-02  0.22567807262E-01  0.00000000000E+00 0. -1.
     999901    1    3    3    0    0  0.46392247677E-01  0.12216312934E+00 -0.39903910759E-01  0.89054387478E+00  0.88000000000E+00 0.  1.
        -11    1    4    4    0    0 -0.53263760071E-01 -0.80357183826E-01  0.41156835489E-01  0.10482581437E+00  0.51100000000E-03 0. -1.
         11    1    4    4    0    0 -0.44973726031E-02 -0.24439489732E-01  0.76048736506E-02  0.25992503591E-01  0.51100000000E-03 0.  1.
</event>
<event>
 8    1  0.1114686E+005  0.1043930E+01  0.7957747E-01            NaN
         13   -1    0    0    0    0  0.00000000000E+00  0.00000000000E+00  0.74505805969E-08  0.10566000000E+00  0.10566000000E+00 0. -1.
     999900   -1    0    0    0    0 -0.00000000000E+00 -0.00000000000E+00 -0.74505805969E-08  0.93827000000E+00  0.93827000000E+00 0.  1.
     999902    2    1    2    0    0  0.22774966611E-01  0.10651818129E-01  0.14041295174E-01  0.10151321129E+01  0.10147235526E+01 0.  0.
     999903    2    3    3    0    0  0.88137747538E-01  0.45942142118E-01  0.80531225934E-01  0.12950317759E+00  0.20170564974E-01 0.  0.
         14    1    1    2    0    0 -0.22774966611E-01 -0.10651818129E-01 -0.14041295174E-01  0.28797887141E-01  0.00000000000E+00 0.  1.
     999901    1    3    3    0    0 -0.65362780927E-01 -0.35290323989E-01 -0.66489930760E-01  0.88562893527E+00  0.88000000000E+00 0.  1.
        -11    1    4    4    0    0  0.23449365710E-01  0.31036824740E-02  0.22073533590E-01  0.32357496863E-01  0.51100000000E-03 0.  1.
         11    1    4    4    0    0  0.64688381828E-01  0.42838459644E-01  0.58457692344E-01  0.97145680724E-01  0.51100000000E-03 0. -1.
</event>
<event>
 8    1  0.1114686E+005  0.1043930E+01  0.7957747E-01            NaN
         13   -1    0    0    0    0  0.00000000000E+00  0.00000000000E+00  0.74505805969E-08  0.10566000000E+00  0.10566000000E+00 0. -1.
     999900   -1    0    0    0    0 -0.00000000000E+00 -0.00000000000E+00 -0.74505805969E-08  0.93827000000E+00  0.93827000000E+00 0. -1.
     999902    2    1    2    0    0 -0.13312048120E-01  0.88658644742E-02 -0.17458363763E-01  0.10202528244E+01  0.10199780474E+01 0.  0.
     999903    2    3    3    0    0  0.12591522936E-01 -0.31156793680E-01 -0.12631234694E+00  0.13226521313E+00  0.20248095523E-01 0.  0.
         14    1    1    2    0    0  0.13312048120E-01 -0.88658644742E-02  0.17458363763E-01  0.23677175577E-01  0.00000000000E+00 0.  1.
     999901    1    3    3    0    0 -0.25903571056E-01  0.40022658154E-01  0.10885398318E+00  0.88798761129E+00  0.88000000000E+00 0.  1.
        -11    1    4    4    0    0  0.15601070031E-01 -0.15375026705E-01 -0.55878753472E-01  0.60020671796E-01  0.51100000000E-03 0.  1.
         11    1    4    4    0    0 -0.30095470948E-02 -0.15781766975E-01 -0.70433593467E-01  0.72244541332E-01  0.51100000000E-03 0. -1.
</event>
<event>
 8    1  0.1114686E+005  0.1043930E+01  0.7957747E-01            NaN
         13   -1    0    0    0    0  0.00000000000E+00  0.00000000000E+00  0.74505805969E-08  0.10566000000E+00  0.10566000000E+00 0.  1.
     999900   -1    0    0    0    0 -0.00000000000E+00 -0.00000000000E+00 -0.74505805969E-08  0.93827000000E+00  0.93827000000E+00 0. -1.
     999902    2    1    2    0    0  0.21641329627E-01  0.72217500599E-03  0.27577985137E-01  0.10088670003E+01  0.10082575119E+01 0.  0.
     999903    2    3    3    0    0 -0.25193091718E-01 -0.38866244929E-01  0.11187638261E+00  0.12271412079E+00  0.19928712752E-01 0.  0.
         14    1    1    2    0    0 -0.21641329627E-01 -0.72217500599E-03 -0.27577985137E-01  0.35062999715E-01  0.00000000000E+00 0. -1.
     999901    1    3    3    0    0  0.46834421345E-01  0.39588419935E-01 -0.84298397469E-01  0.88615287949E+00  0.88000000000E+00 0.  1.
        -11    1    4    4    0    0 -0.22792630854E-01 -0.19083129076E-01  0.77031549116E-01  0.82569912903E-01  0.51100000000E-03 0.  1.
         11    1    4    4    0    0 -0.24004608635E-02 -0.19783115854E-01  0.34844833490E-01  0.40144207891E-01  0.51100000000E-03 0. -1.
</event>
<event>
 8    1  0.1114686E+005  0.1043930E+01  0.7957747E-01            NaN
         13   -1    0    0    0    0  0.00000000000E+00  0.00000000000E+00  0.74505805969E-08  0.10566000000E+00  0.10566000000E+00 0.  1.
     999900   -1    0    0    0    0 -0.00000000000E+00 -0.00000000000E+00 -0.74505805969E-08  0.93827000000E+00  0.93827000000E+00 0.  1.
     999902    2    1    2    0    0 -0.51957253577E-03 -0.20631965054E-01 -0.10459542960E-01  0.10207923688E+01  0.10205301124E+01 0.  0.
     999903    2    3    3    0    0  0.12898296294E+00 -0.48590717412E-02  0.10450374843E-01  0.13092894362E+00  0.19312240580E-01 0.  0.
         14    1    1    2    0    0  0.51957253577E-03  0.20631965054E-01  0.10459542960E-01  0.23137631179E-01  0.00000000000E+00 0.  1.
     999901    1    3    3    0    0 -0.12950253547E+00 -0.15772893313E-01 -0.20909917803E-01  0.88986342521E+00  0.88000000000E+00 0. -1.
        -11    1    4    4    0    0  0.18632535799E-01 -0.75546039031E-02  0.90930440791E-03  0.20132843463E-01  0.51100000000E-03 0.  1.
         11    1    4    4    0    0  0.11035042714E+00  0.26955321619E-02  0.95410704350E-02  0.11079610015E+00  0.51100000000E-03 0. -1.
</event>
<event>
 8    1  0.1114686E+005  0.1043930E+01  0.7957747E-01            NaN
         13   -1    0    0    0    0  0.00000000000E+00  0.00000000000E+00  0.74505805969E-08  0.10566000000E+00  0.10566000000E+00 0.  1.
     999900   -1    0    0    0    0 -0.00000000000E+00 -0.00000000000E+00 -0.74505805969E-08  0.93827000000E+00  0.93827000000E+00 0. -1.
     999902    2    1    2    0    0 -0.66926027080E-02  0.19537108528E-01  0.95387738742E-02  0.10211818628E+01  0.10209284593E+01 0.  0.
     999903    2    3    3    0    0 -0.30177778467E-01  0.96146492607E-01  0.85676333670E-01  0.13426727882E+00  0.23074263928E-01 0.  0.
         14    1    1    2    0    0  0.66926027080E-02 -0.19537108528E-01 -0.95387738742E-02  0.22748137235E-01  0.00000000000E+00 0.  1.
     999901    1    3    3    0    0  0.23485175759E-01 -0.76609384079E-01 -0.76137559796E-01  0.88691458395E+00  0.88000000000E+00 0. -1.
        -11    1    4    4    0    0 -0.18885332437E-01  0.63266407549E-01  0.69683262431E-01  0.95996418107E-01  0.51100000000E-03 0.  1.
         11    1    4    4    0    0 -0.11292446030E-01  0.32880085058E-01  0.15993071239E-01  0.38270860709E-01  0.51100000000E-03 0. -1.
</event>
<event>
 8    1  0.1114686E+005  0.1043930E+01  0.7957747E-01            NaN
         13   -1    0    0    0    0  0.00000000000E+00  0.00000000000E+00  0.74505805969E-08  0.10566000000E+00  0.10566000000E+00 0. -1.
     999900   -1    0    0    0    0 -0.00000000000E+00 -0.00000000000E+00 -0.74505805969E-08  0.93827000000E+00  0.93827000000E+00 0. -1.
     999902    2    1    2    0    0  0.22754496528E-02 -0.62695441624E-02  0.22509134862E-01  0.10204535010E+01  0.10201834157E+01 0.  0.
     999903    2    3    3    0    0 -0.13827290461E-01 -0.10541759816E+00 -0.72930539772E-01  0.12961211982E+00  0.13280587649E-01 0.  0.
         14    1    1    2    0    0 -0.22754496528E-02  0.62695441624E-02 -0.22509134862E-01  0.23476499044E-01  0.00000000000E+00 0.  1.
     999901    1    3    3    0    0  0.16102740113E-01  0.99148054002E-01  0.95439674634E-01  0.89084138114E+00  0.88000000000E+00 0.  1.
        -11    1    4    4    0    0 -0.43467193399E-02 -0.19374013884E-01 -0.80517073733E-02  0.21432160312E-01  0.51100000000E-03 0. -1.
         11    1    4    4    0    0 -0.94805711207E-02 -0.86043584281E-01 -0.64878832398E-01  0.10817995951E+00  0.51100000000E-03 0.  1.
</event>
<event>
 8    1  0.1114686E+005  0.1043930E+01  0.7957747E-01            NaN
         13   -1    0    0    0    0  0.00000000000E+00  0.00000000000E+00  0.74505805969E-08  0.10566000000E+00  0.10566000000E+00 0.  1.
     999900   -1    0    0    0    0 -0.00000000000E+00 -0.00000000000E+00 -0.74505805969E-08  0.93827000000E+00  0.93827000000E+00 0. -1.
     999902    2    1    2    0    0  0.16570509898E-02  0.21747838717E-01 -0.99093928914E-02  0.10199735734E+01  0.10196921987E+01 0.  0.
     999903    2    3    3    0    0 -0.12725636271E+00 -0.11695114493E-01  0.96909224091E-02  0.12973693538E+00  0.20169305158E-01 0.  0.
         14    1    1    2    0    0 -0.16570509898E-02 -0.21747838717E-01  0.99093928914E-02  0.23956426577E-01  0.00000000000E+00 0. -1.
     999901    1    3    3    0    0  0.12891341370E+00  0.33442953211E-01 -0.19600315300E-01  0.89023663804E+00  0.88000000000E+00 0.  1.
        -11    1    4    4    0    0 -0.47159562738E-01  0.47018828236E-02  0.71965121758E-02  0.47939367624E-01  0.51100000000E-03 0.  1.
         11    1    4    4    0    0 -0.80096799976E-01 -0.16396997317E-01  0.24944102333E-02  0.81797567757E-01  0.51100000000E-03 0. -1.
</event>
<event>
 8    1  0.1114686E+005  0.1043930E+01  0.7957747E-01            NaN
         13   -1    0    0    0    0  0.00000000000E+00  0.00000000000E+00  0.74505805969E-08  0.10566000000E+00  0.10566000000E+00 0. -1.
     999900   -1    0    0    0    0 -0.00000000000E+00 -0.00000000000E+00 -0.74505805969E-08  0.93827000000E+00  0.93827000000E+00 0.  1.
     999902    2    1    2    0    0  0.23049105155E-03 -0.12104606768E-02 -0.24792401382E-01  0.10191069964E+01  0.10188046371E+01 0.  0.
     999903    2    3    3    0    0 -0.10147371542E-01 -0.12686367499E+00  0.10882351217E-01  0.12940529456E+00  0.20735079206E-01 0.  0.
         14    1    1    2    0    0 -0.23049105155E-03  0.12104606768E-02  0.24792401382E-01  0.24823003594E-01  0.00000000000E+00 0. -1.
     999901    1    3    3    0    0  0.10377862593E-01  0.12565321432E+00 -0.35674752599E-01  0.88970170185E+00  0.88000000000E+00 0. -1.
        -11    1    4    4    0    0 -0.65674811945E-03 -0.10401919398E+00  0.60742829674E-02  0.10419972202E+00  0.51100000000E-03 0.  1.
         11    1    4    4    0    0 -0.94906234225E-02 -0.22844481012E-01  0.48080682499E-02  0.25205572538E-01  0.51100000000E-03 0. -1.
</event>
<event>
 8    1  0.1114686E+005  0.1043930E+01  0.7957747E-01            NaN
         13   -1    0    0    0    0  0.00000000000E+00  0.00000000000E+00  0.74505805969E-08  0.10566000000E+00  0.10566000000E+00 0.  1.
     999900   -1    0    0    0    0 -0.00000000000E+00 -0.00000000000E+00 -0.74505805969E-08  0.93827000000E+00  0.93827000000E+00 0. -1.
     999902    2    1    2    0    0 -0.16674187309E-01 -0.75445949312E-03  0.17633470987E-01  0.10196496163E+01  0.10193604873E+01 0.  0.
     999903    2    3    3    0    0 -0.66647397115E-01  0.10698899302E+00  0.31790642589E-01  0.13155818030E+00  0.20208653579E-01 0.  0.
         14    1    1    2    0    0  0.16674187309E-01  0.75445949312E-03 -0.17633470987E-01  0.24280383658E-01  0.00000000000E+00 0. -1.
     999901    1    3    3    0    0  0.49973209806E-01 -0.10774345251E+00 -0.14157171602E-01  0.88809143604E+00  0.88000000000E+00 0.  1.
        -11    1    4    4    0    0 -0.50444128833E-01  0.75329906700E-01  0.13822335552E-01  0.91708903920E-01  0.51100000000E-03 0. -1.
         11    1    4    4    0    0 -0.16203268282E-01  0.31659086317E-01  0.17968307038E-01  0.39849276383E-01  0.51100000000E-03 0.  1.
</event>
<event>
 8    1  0.1114686E+005  0.1043930E+01  0.7957747E-01            NaN
         13   -1    0    0    0    0  0.00000000000E+00  0.00000000000E+00  0.74505805969E-08  0.10566000000E+00  0.10566000000E+00 0. -1.
     999900   -1    0    0    0    0 -0.00000000000E+00 -0.00000000000E+00 -0.74505805969E-08  0.93827000000E+00  0.93827000000E+00 0. -1.
     999902    2    1    2    0    0  0.37258233901E-02 -0.15980976600E-02  0.23269389460E-01  0.10203100897E+01  0.10200366557E+01 0.  0.
     999903    2    3    3    0    0  0.34707720699E-01 -0.10182206995E+00 -0.68978284677E-01  0.12929137164E+00  0.19644215889E-01 0.  0.
         14    1    1    2    0    0 -0.37258233901E-02  0.15980976600E-02 -0.23269389460E-01  0.23619910286E-01  0.00000000000E+00 0.  1.
     999901    1    3    3    0    0 -0.30981897309E-01  0.10022397229E+00  0.92247674137E-01  0.89101871808E+00  0.88000000000E+00 0.  1.
        -11    1    4    4    0    0  0.22569382715E-01 -0.36883873316E-01 -0.29103075997E-01  0.52125303840E-01  0.51100000000E-03 0. -1.
         11    1    4    4    0    0  0.12138337984E-01 -0.64938196632E-01 -0.39875208680E-01  0.77166067796E-01  0.51100000000E-03 0.  1.
</event>
<event>
 8    1  0.1114686E+005  0.1043930E+01  0.7957747E-01            NaN
         13   -1    0    0    0    0  0.00000000000E+00  0.00000000000E+00  0.74505805969E-08  0.10566000000E+00  0.10566000000E+00 0. -1.
     999900   -1    0    0    0    0 -0.00000000000E+00 -0.00000000000E+00 -0.74505805969E-08  0.93827000000E+00  0.93827000000E+00 0. -1.
     999902    2    1    2    0    0  0.71601604418E-02  0.68687684478E-02 -0.21264941725E-01  0.10204641605E+01  0.10201943233E+01 0.  0.
     999903    2    3    3    0    0  0.91410212011E-01 -0.81291688397E-01 -0.44769274892E-01  0.13174441219E+00  0.19701185379E-01 0.  0.
         14    1    1    2    0    0 -0.71601604418E-02 -0.68687684478E-02  0.21264941725E-01  0.23465839515E-01  0.00000000000E+00 0. -1.
     999901    1    3    3    0    0 -0.84250051569E-01  0.88160456845E-01  0.23504333166E-01  0.88871974830E+00  0.88000000000E+00 0.  1.
        -11    1    4    4    0    0  0.32229230430E-01 -0.21519104987E-01 -0.22155695057E-01  0.44642257089E-01  0.51100000000E-03 0.  1.
         11    1    4    4    0    0  0.59180981581E-01 -0.59772583411E-01 -0.22613579834E-01  0.87102155096E-01  0.51100000000E-03 0. -1.
</event>
<event>
 8    1  0.1114686E+005  0.1043930E+01  0.7957747E-01            NaN
         13   -1    0    0    0    0  0.00000000000E+00  0.00000000000E+00  0.74505805969E-08  0.10566000000E+00  0.10566000000E+00 0. -1.
     999900   -1    0    0    0    0 -0.00000000000E+00 -0.00000000000E+00 -0.74505805969E-08  0.93827000000E+00  0.93827000000E+00 0.  1.
     999902    2    1    2    0    0 -0.11182624597E-01  0.20431731014E-01  0.10264275084E-02  0.10206156208E+01  0.10203492956E+01 0.  0.
     999903    2    3    3    0    0  0.21512474415E-01 -0.12366585895E+00  0.17436077896E-01  0.12814581089E+00  0.19007914449E-01 0.  0.
         14    1    1    2    0    0  0.11182624597E-01 -0.20431731014E-01 -0.10264275084E-02  0.23314379223E-01  0.00000000000E+00 0.  1.
     999901    1    3    3    0    0 -0.32695099012E-01  0.14409758996E+00 -0.16409650388E-01  0.89246980989E+00  0.88000000000E+00 0.  1.
        -11    1    4    4    0    0  0.16382574204E-01 -0.78356059951E-01  0.19861922886E-01  0.82479197197E-01  0.51100000000E-03 0. -1.
         11    1    4    4    0    0  0.51299002112E-02 -0.45309798997E-01 -0.24258449897E-02  0.45666613694E-01  0.51100000000E-03 0.  1.
</event>
<event>
 8    1  0.1114686E+005  0.1043930E+01  0.7957747E-01            NaN
         13   -1    0    0    0    0  0.00000000000E+00  0.00000000000E+00  0.74505805969E-08  0.10566000000E+00  0.10566000000E+00 0. -1.
     999900   -1    0    0    0    0 -0.00000000000E+00 -0.00000000000E+00 -0.74505805969E-08  0.93827000000E+00  0.93827000000E+00 0. -1.
     999902    2    1    2    0    0  0.25255351358E-02  0.12984383102E-01  0.22621297575E-01  0.10177251219E+01  0.10173876980E+01 0.  0.
     999903    2    3    3    0    0 -0.20385330105E-01  0.12183241225E+00 -0.31714967509E-01  0.12906026331E+00  0.19799344516E-01 0.  0.
         14    1    1    2    0    0 -0.25255351358E-02 -0.12984383102E-01 -0.22621297575E-01  0.26204878100E-01  0.00000000000E+00 0.  1.
     999901    1    3    3    0    0  0.22910865240E-01 -0.10884802915E+00  0.54336265084E-01  0.88866485859E+00  0.88000000000E+00 0.  1.
        -11    1    4    4    0    0 -0.21017705967E-01  0.66645977040E-01 -0.16388628777E-01  0.71779373736E-01  0.51100000000E-03 0.  1.
         11    1    4    4    0    0  0.63237586215E-03  0.55186435207E-01 -0.15326338732E-01  0.57280889571E-01  0.51100000000E-03 0. -1.
</event>
<event>
 8    1  0.1114686E+005  0.1043930E+01  0.7957747E-01            NaN
         13   -1    0    0    0    0  0.00000000000E+00  0.00000000000E+00  0.74505805969E-08  0.10566000000E+00  0.10566000000E+00 0. -1.
     999900   -1    0    0    0    0 -0.00000000000E+00 -0.00000000000E+00 -0.74505805969E-08  0.93827000000E+00  0.93827000000E+00 0. -1.
     999902    2    1    2    0    0 -0.95260380522E-02 -0.22343405314E-01  0.24436898135E-03  0.10196394076E+01  0.10193500325E+01 0.  0.
     999903    2    3    3    0    0  0.11463263772E+00  0.33214743897E-01  0.42293461448E-01  0.12819663835E+00  0.20044459590E-01 0.  0.
         14    1    1    2    0    0  0.95260380522E-02  0.22343405314E-01 -0.24436898135E-03  0.24290592381E-01  0.00000000000E+00 0. -1.
     999901    1    3    3    0    0 -0.12415867577E+00 -0.55558149211E-01 -0.42049092466E-01  0.89144276927E+00  0.88000000000E+00 0.  1.
        -11    1    4    4    0    0  0.97160957303E-01  0.25047746075E-01  0.27959455191E-01  0.10416157383E+00  0.51100000000E-03 0. -1.
         11    1    4    4    0    0  0.17471680413E-01  0.81669978216E-02  0.14334006257E-01  0.24035064515E-01  0.51100000000E-03 0.  1.
</event>
<event>
 8    1  0.1114686E+005  0.1043930E+01  0.7957747E-01            NaN
         13   -1    0    0    0    0  0.00000000000E+00  0.00000000000E+00  0.74505805969E-08  0.10566000000E+00  0.10566000000E+00 0. -1.
     999900   -1    0    0    0    0 -0.00000000000E+00 -0.00000000000E+00 -0.74505805969E-08  0.93827000000E+00  0.93827000000E+00 0.  1.
     999902    2    1    2    0    0 -0.13081893044E-01  0.19188080015E-01  0.40416521437E-04  0.10207067364E+01  0.10204425127E+01 0.  0.
     999903    2    3    3    0    0  0.35533136731E-01  0.26602473008E-01  0.12161480202E+00  0.13098839579E+00  0.19937512060E-01 0.  0.
         14    1    1    2    0    0  0.13081893044E-01 -0.19188080015E-01 -0.40416521437E-04  0.23223263633E-01  0.00000000000E+00 0. -1.
     999901    1    3    3    0    0 -0.48615029774E-01 -0.74143929927E-02 -0.12157438549E+00  0.88971834057E+00  0.88000000000E+00 0.  1.
        -11    1    4    4    0    0  0.25980013172E-02  0.38051810795E-02  0.37904351182E-01  0.38186777468E-01  0.51100000000E-03 0.  1.
         11    1    4    4    0    0  0.32935135413E-01  0.22797291928E-01  0.83710450835E-01  0.92801618326E-01  0.51100000000E-03 0. -1.
</event>
<event>
 8    1  0.1114686E+005  0.1043930E+01  0.7957747E-01            NaN
         13   -1    0    0    0    0  0.00000000000E+00  0.00000000000E+00  0.74505805969E-08  0.10566000000E+00  0.10566000000E+00 0.  1.
     999900   -1    0    0    0    0 -0.00000000000E+00 -0.00000000000E+00 -0.74505805969E-08  0.93827000000E+00  0.93827000000E+00 0.  1.
     999902    2    1    2    0    0 -0.45057863717E-02  0.24058749153E-01 -0.79369799711E-02  0.10181982847E+01  0.10178730892E+01 0.  0.
     999903    2    3    3    0    0  0.78547969197E-01 -0.92978766627E-01 -0.30345962488E-01  0.12629141236E+00  0.14622205311E-01 0.  0.
         14    1    1    2    0    0  0.45057863717E-02 -0.24058749153E-01  0.79369799711E-02  0.25731715308E-01  0.00000000000E+00 0. -1.
     999901    1    3    3    0    0 -0.83053755569E-01  0.11703751578E+00  0.22408982517E-01  0.89190687233E+00  0.88000000000E+00 0. -1.
        -11    1    4    4    0    0  0.18720286217E-01 -0.30249586104E-01 -0.46719238418E-02  0.35882789313E-01  0.51100000000E-03 0. -1.
         11    1    4    4    0    0  0.59827682980E-01 -0.62729180524E-01 -0.25674038647E-01  0.90408623048E-01  0.51100000000E-03 0.  1.
</event>
<event>
 8    1  0.1114686E+005  0.1043930E+01  0.7957747E-01            NaN
         13   -1    0    0    0    0  0.00000000000E+00  0.00000000000E+00  0.74505805969E-08  0.10566000000E+00  0.10566000000E+00 0. -1.
     999900   -1    0    0    0    0 -0.00000000000E+00 -0.00000000000E+00 -0.74505805969E-08  0.93827000000E+00  0.93827000000E+00 0. -1.
     999902    2    1    2    0    0 -0.16363204127E-01 -0.17200355030E-01  0.34466518871E-02  0.10199407092E+01  0.10196585528E+01 0.  0.
     999903    2    3    3    0    0 -0.56786910097E-01 -0.91955568450E-01  0.75026122947E-01  0.13295365261E+00  0.19161808097E-01 0.  0.
         14    1    1    2    0    0  0.16363204127E-01  0.17200355030E-01 -0.34466518871E-02  0.23989290771E-01  0.00000000000E+00 0. -1.
     999901    1    3    3    0    0  0.40423705970E-01  0.74755213421E-01 -0.71579471060E-01  0.88698705662E+00  0.88000000000E+00 0. -1.
        -11    1    4    4    0    0 -0.30869264300E-01 -0.46682542445E-01  0.27402966807E-01  0.62316570496E-01  0.51100000000E-03 0. -1.
         11    1    4    4    0    0 -0.25917645797E-01 -0.45273026006E-01  0.47623156141E-01  0.70637082111E-01  0.51100000000E-03 0.  1.
</event>
<event>
 8    1  0.1114686E+005  0.1043930E+01  0.7957747E-01            NaN
         13   -1    0    0    0    0  0.00000000000E+00  0.00000000000E+00  0.74505805969E-08  0.10566000000E+00  0.10566000000E+00 0.  1.
     999900   -1    0    0    0    0 -0.00000000000E+00 -0.00000000000E+00 -0.74505805969E-08  0.93827000000E+00  0.93827000000E+00 0.  1.
     999902    2    1    2    0    0 -0.75859316417E-02 -0.25369552608E-01  0.11986238177E-01  0.10148640325E+01  0.10144477188E+01 0.  0.
     999903    2    3    3    0    0  0.10198104848E+00  0.58783013008E-01  0.32991428342E-01  0.12383777286E+00  0.19793503366E-01 0.  0.
         14    1    1    2    0    0  0.75859316417E-02  0.25369552608E-01 -0.11986238177E-01  0.29065967454E-01  0.00000000000E+00 0. -1.
     999901    1    3    3    0    0 -0.10956698012E+00 -0.84152565616E-01 -0.21005190164E-01  0.89102625968E+00  0.88000000000E+00 0. -1.
        -11    1    4    4    0    0  0.37511504665E-01  0.27699627605E-01  0.21488434373E-01  0.51345849730E-01  0.51100000000E-03 0.  1.
         11    1    4    4    0    0  0.64469543817E-01  0.31083385403E-01  0.11502993968E-01  0.72491923131E-01  0.51100000000E-03 0. -1.
</event>
<event>
 8    1  0.1114686E+005  0.1043930E+01  0.7957747E-01            NaN
         13   -1    0    0    0    0  0.00000000000E+00  0.00000000000E+00  0.74505805969E-08  0.10566000000E+00  0.10566000000E+00 0.  1.
     999900   -1    0    0    0    0 -0.00000000000E+00 -0.00000000000E+00 -0.74505805969E-08  0.93827000000E+00  0.93827000000E+00 0.  1.
     999902    2    1    2    0    0  0.11519659396E-02 -0.16010869133E-01  0.16966902314E-01  0.10205729726E+01  0.10203056609E+01 0.  0.
     999903    2    3    3    0    0  0.10445778627E+00  0.15399844837E-01 -0.72138680880E-01  0.12950702080E+00  0.20481572763E-01 0.  0.
         14    1    1    2    0    0 -0.11519659396E-02  0.16010869133E-01 -0.16966902314E-01  0.23357027423E-01  0.00000000000E+00 0. -1.
     999901    1    3    3    0    0 -0.10330582033E+00 -0.31410713969E-01  0.89105583194E-01  0.89106595178E+00  0.88000000000E+00 0. -1.
        -11    1    4    4    0    0  0.84120825681E-01  0.15172654060E-01 -0.48354785246E-01  0.98208803687E-01  0.51100000000E-03 0.  1.
         11    1    4    4    0    0  0.20336960590E-01  0.22719077700E-03 -0.23783895635E-01  0.31298217110E-01  0.51100000000E-03 0. -1.
</event>
<event>
 8    1  0.1114686E+005  0.1043930E+01  0.7957747E-01            NaN
         13   -1    0    0    0    0  0.00000000000E+00  0.00000000000E+00  0.74505805969E-08  0.10566000000E+00  0.10566000000E+00 0.  1.
     999900   -1    0    0    0    0 -0.00000000000E+00 -0.00000000000E+00 -0.74505805969E-08  0.93827000000E+00  0.93827000000E+00 0. -1.
     999902    2    1    2    0    0  0.16875284089E-01  0.10306353646E-01 -0.12743274337E-01  0.10204058171E+01  0.10201346208E+01 0.  0.
     999903    2    3    3    0    0  0.44356594518E-01  0.49768141686E-01 -0.11369382559E+00  0.13333002052E+00  0.20155222436E-01 0.  0.
         14    1    1    2    0    0 -0.16875284089E-01 -0.10306353646E-01  0.12743274337E-01  0.23524182863E-01  0.00000000000E+00 0. -1.
     999901    1    3    3    0    0 -0.27481310428E-01 -0.39461788041E-01  0.10095055125E+00  0.88707579661E+00  0.88000000000E+00 0.  1.
        -11    1    4    4    0    0  0.33253415660E-01  0.22707151505E-01 -0.69711402559E-01  0.80506801888E-01  0.51100000000E-03 0. -1.
         11    1    4    4    0    0  0.11103178858E-01  0.27060990181E-01 -0.43982423031E-01  0.52823218635E-01  0.51100000000E-03 0.  1.
</event>
<event>
 8    1  0.1114686E+005  0.1043930E+01  0.7957747E-01            NaN
         13   -1    0    0    0    0  0.00000000000E+00  0.00000000000E+00  0.74505805969E-08  0.10566000000E+00  0.10566000000E+00 0.  1.
     999900   -1    0    0    0    0 -0.00000000000E+00 -0.00000000000E+00 -0.74505805969E-08  0.93827000000E+00  0.93827000000E+00 0.  1.
     999902    2    1    2    0    0  0.11470375647E-01  0.14310636994E-01  0.18549323872E-01  0.10178447309E+01  0.10175104201E+01 0.  0.
     999903    2    3    3    0    0 -0.89380149747E-01  0.90539831329E-01  0.26599251992E-02  0.12866860012E+00  0.19033161269E-01 0.  0.
         14    1    1    2    0    0 -0.11470375647E-01 -0.14310636994E-01 -0.18549323872E-01  0.26085269114E-01  0.00000000000E+00 0.  1.
     999901    1    3    3    0    0  0.10085052539E+00 -0.76229194335E-01  0.15889398673E-01  0.88917613077E+00  0.88000000000E+00 0. -1.
        -11    1    4    4    0    0 -0.60090367059E-01  0.48728701660E-01  0.53019902809E-02  0.77548119259E-01  0.51100000000E-03 0.  1.
         11    1    4    4    0    0 -0.29289782688E-01  0.41811129669E-01 -0.26420650817E-02  0.51120480856E-01  0.51100000000E-03 0. -1.
</event>
<event>
 8    1  0.1114686E+005  0.1043930E+01  0.7957747E-01            NaN
         13   -1    0    0    0    0  0.00000000000E+00  0.00000000000E+00  0.74505805969E-08  0.10566000000E+00  0.10566000000E+00 0.  1.
     999900   -1    0    0    0    0 -0.00000000000E+00 -0.00000000000E+00 -0.74505805969E-08  0.93827000000E+00  0.93827000000E+00 0. -1.
     999902    2    1    2    0    0  0.11409848653E-01 -0.12105337623E-01 -0.11344844218E-01  0.10237947241E+01  0.10235967017E+01 0.  0.
     999903    2    3    3    0    0 -0.24024201196E-02 -0.11826362327E+00 -0.63304137239E-01  0.13578564278E+00  0.20934917761E-01 0.  0.
         14    1    1    2    0    0 -0.11409848653E-01  0.12105337623E-01  0.11344844218E-01  0.20135275900E-01  0.00000000000E+00 0.  1.
     999901    1    3    3    0    0  0.13812268773E-01  0.10615828565E+00  0.51959293021E-01  0.88800908132E+00  0.88000000000E+00 0.  1.
        -11    1    4    4    0    0 -0.55075138696E-02 -0.16053884770E-01 -0.35445586097E-02  0.17346035339E-01  0.51100000000E-03 0. -1.
         11    1    4    4    0    0  0.31050937500E-02 -0.10220973850E+00 -0.59759578629E-01  0.11843960744E+00  0.51100000000E-03 0.  1.
</event>
<event>
 8    1  0.1114686E+005  0.1043930E+01  0.7957747E-01            NaN
         13   -1    0    0    0    0  0.00000000000E+00  0.00000000000E+00  0.74505805969E-08  0.10566000000E+00  0.10566000000E+00 0.  1.
     999900   -1    0    0    0    0 -0.00000000000E+00 -0.00000000000E+00 -0.74505805969E-08  0.93827000000E+00  0.93827000000E+00 0. -1.
     999902    2    1    2    0    0  0.14740586063E-01  0.16012575350E-01 -0.57902555608E-02  0.10214085767E+01  0.10211602549E+01 0.  0.
     999903    2    3    3    0    0  0.10378462172E+00  0.14598714863E-01 -0.80693794577E-01  0.13374795495E+00  0.19815569366E-01 0.  0.
         14    1    1    2    0    0 -0.14740586063E-01 -0.16012575350E-01  0.57902555608E-02  0.22521423274E-01  0.00000000000E+00 0.  1.
     999901    1    3    3    0    0 -0.89044035659E-01  0.14138604870E-02  0.74903539016E-01  0.88766062177E+00  0.88000000000E+00 0. -1.
        -11    1    4    4    0    0  0.88845227491E-01  0.92451185884E-02 -0.75742699077E-01  0.11711602901E+00  0.51100000000E-03 0.  1.
         11    1    4    4    0    0  0.14939394232E-01  0.53535962750E-02 -0.49510955000E-02  0.16631925948E-01  0.51100000000E-03 0. -1.
</event>
<event>
 8    1  0.1114686E+005  0.1043930E+01  0.7957747E-01            NaN
         13   -1    0    0    0    0  0.00000000000E+00  0.00000000000E+00  0.74505805969E-08  0.10566000000E+00  0.10566000000E+00 0.  1.
     999900   -1    0    0    0    0 -0.00000000000E+00 -0.00000000000E+00 -0.74505805969E-08  0.93827000000E+00  0.93827000000E+00 0. -1.
     999902    2    1    2    0    0 -0.20009723860E-01  0.68479202080E-02 -0.94664391643E-02  0.10207589722E+01  0.10204959494E+01 0.  0.
     999903    2    3    3    0    0  0.60420081192E-01  0.99231234338E-01  0.54740882525E-01  0.12995809070E+00  0.19877551146E-01 0.  0.
         14    1    1    2    0    0  0.20009723860E-01 -0.68479202080E-02  0.94664391643E-02  0.23171027828E-01  0.00000000000E+00 0.  1.
     999901    1    3    3    0    0 -0.80429805052E-01 -0.92383314130E-01 -0.64207321690E-01  0.89080088147E+00  0.88000000000E+00 0. -1.
        -11    1    4    4    0    0  0.31257888689E-01  0.41626767874E-01  0.33845345487E-01  0.62093574072E-01  0.51100000000E-03 0.  1.
         11    1    4    4    0    0  0.29162192503E-01  0.57604466464E-01  0.20895537038E-01  0.67864516629E-01  0.51100000000E-03 0. -1.
</event>
<event>
 8    1  0.1114686E+005  0.1043930E+01  0.7957747E-01            NaN
         13   -1    0    0    0    0  0.00000000000E+00  0.00000000000E+00  0.74505805969E-08  0.10566000000E+00  0.10566000000E+00 0.  1.
     999900   -1    0    0    0    0 -0.00000000000E+00 -0.00000000000E+00 -0.74505805969E-08  0.93827000000E+00  0.93827000000E+00 0. -1.
     999902    2    1    2    0    0 -0.41439565742E-02  0.10391201972E-02  0.23556981657E-01  0.10199887483E+01  0.10197077342E+01 0.  0.
     999903    2    3    3    0    0 -0.20139708799E-01  0.12695801352E+00  0.15260083491E-01  0.13084293897E+00  0.19054119283E-01 0.  0.
         14    1    1    2    0    0  0.41439565742E-02 -0.10391201972E-02 -0.23556981657E-01  0.23941251673E-01  0.00000000000E+00 0. -1.
     999901    1    3    3    0    0  0.15995752224E-01 -0.12591889332E+00  0.82968981655E-02  0.88914580936E+00  0.88000000000E+00 0. -1.
        -11    1    4    4    0    0 -0.10263438678E-01  0.90393794902E-01  0.29828140787E-02  0.91024912146E-01  0.51100000000E-03 0.  1.
         11    1    4    4    0    0 -0.98762701204E-02  0.36564218618E-01  0.12277269413E-01  0.39818026821E-01  0.51100000000E-03 0. -1.
</event>
<event>
 8    1  0.1114686E+005  0.1043930E+01  0.7957747E-01            NaN
         13   -1    0    0    0    0  0.00000000000E+00  0.00000000000E+00  0.74505805969E-08  0.10566000000E+00  0.10566000000E+00 0. -1.
     999900   -1    0    0    0    0 -0.00000000000E+00 -0.00000000000E+00 -0.74505805969E-08  0.93827000000E+00  0.93827000000E+00 0. -1.
     999902    2    1    2    0    0 -0.22785812470E-01 -0.62114047029E-03  0.83794975974E-02  0.10196443037E+01  0.10193550466E+01 0.  0.
     999903    2    3    3    0    0 -0.11313556316E+00 -0.24806067884E-01 -0.59935487035E-01  0.13205491366E+00  0.20766341992E-01 0.  0.
         14    1    1    2    0    0  0.22785812470E-01  0.62114047029E-03 -0.83794975974E-02  0.24285696312E-01  0.00000000000E+00 0.  1.
     999901    1    3    3    0    0  0.90349750692E-01  0.24184927413E-01  0.68314984632E-01  0.88758939003E+00  0.88000000000E+00 0.  1.
        -11    1    4    4    0    0 -0.11215628039E-01 -0.64123520457E-02 -0.11840134279E-02  0.12983511846E-01  0.51100000000E-03 0. -1.
         11    1    4    4    0    0 -0.10191993512E+00 -0.18393715838E-01 -0.58751473607E-01  0.11907140181E+00  0.51100000000E-03 0.  1.
</event>
<event>
 8    1  0.1114686E+005  0.1043930E+01  0.7957747E-01            NaN
         13   -1    0    0    0    0  0.00000000000E+00  0.00000000000E+00  0.74505805969E-08  0.10566000000E+00  0.10566000000E+00 0.  1.
     999900   -1    0    0    0    0 -0.00000000000E+00 -0.00000000000E+00 -0.74505805969E-08  0.93827000000E+00  0.93827000000E+00 0.  1.
     999902    2    1    2    0    0  0.21780619799E-01  0.42172248752E-02  0.82395812327E-02  0.10202641790E+01  0.10199896685E+01 0.  0.
     999903    2    3    3    0    0 -0.12037437369E+00  0.37588524392E-01 -0.11332225771E-01  0.12801716083E+00  0.18896748929E-01 0.  0.
         14    1    1    2    0    0 -0.21780619799E-01 -0.42172248752E-02 -0.82395812327E-02  0.23665820995E-01  0.00000000000E+00 0.  1.
     999901    1    3    3    0    0  0.14215499349E+00 -0.33371299517E-01  0.19571807003E-01  0.89224701817E+00  0.88000000000E+00 0. -1.
        -11    1    4    4    0    0 -0.68624672048E-01  0.19213428252E-01 -0.15535087461E-01  0.72939025921E-01  0.51100000000E-03 0. -1.
         11    1    4    4    0    0 -0.51749701641E-01  0.18375096140E-01  0.42028616907E-02  0.55078134913E-01  0.51100000000E-03 0.  1.
</event>
<event>
 8    1  0.1114686E+005  0.1043930E+01  0.7957747E-01            NaN
         13   -1    0    0    0    0  0.00000000000E+00  0.00000000000E+00  0.74505805969E-08  0.10566000000E+00  0.10566000000E+00 0.  1.
     999900   -1    0    0    0    0 -0.00000000000E+00 -0.00000000000E+00 -0.74505805969E-08  0.93827000000E+00  0.93827000000E+00 0.  1.
     999902    2    1    2    0    0  0.12475726233E-01 -0.15017303175E-01 -0.13405356838E-01  0.10202473749E+01  0.10199724699E+01 0.  0.
     999903    2    3    3    0    0 -0.37355286169E-01 -0.85391044691E-01 -0.92339215964E-01  0.13251647682E+00  0.18628953407E-01 0.  0.
         14    1    1    2    0    0 -0.12475726233E-01  0.15017303175E-01  0.13405356838E-01  0.23682625101E-01  0.00000000000E+00 0.  1.
     999901    1    3    3    0    0  0.49831012403E-01  0.70373741516E-01  0.78933859126E-01  0.88773089808E+00  0.88000000000E+00 0. -1.
        -11    1    4    4    0    0  0.92184273021E-03 -0.18935027005E-02  0.14069885708E-03  0.21716499866E-02  0.51100000000E-03 0. -1.
         11    1    4    4    0    0 -0.38277128900E-01 -0.83497541991E-01 -0.92479914821E-01  0.13034482683E+00  0.51100000000E-03 0.  1.
</event>
<event>
 8    1  0.1114686E+005  0.1043930E+01  0.7957747E-01            NaN
         13   -1    0    0    0    0  0.00000000000E+00  0.00000000000E+00  0.74505805969E-08  0.10566000000E+00  0.10566000000E+00 0.  1.
     999900   -1    0    0    0    0 -0.00000000000E+00 -0.00000000000E+00 -0.74505805969E-08  0.93827000000E+00  0.93827000000E+00 0.  1.
     999902    2    1    2    0    0  0.21157136486E-02 -0.12750756821E-01  0.20247962292E-01  0.10199083843E+01  0.10196254579E+01 0.  0.
     999903    2    3    3    0    0  0.29919481573E-01 -0.74643411304E-01  0.10447199145E+00  0.13328702359E+00  0.19601515998E-01 0.  0.
         14    1    1    2    0    0 -0.21157136486E-02  0.12750756821E-01 -0.20247962292E-01  0.24021615698E-01  0.00000000000E+00 0. -1.
     999901    1    3    3    0    0 -0.27803767924E-01  0.61892654483E-01 -0.84224029162E-01  0.88662136072E+00  0.88000000000E+00 0.  1.
        -11    1    4    4    0    0  0.42068499079E-02 -0.38462222365E-02  0.16550919378E-01  0.17512426014E-01  0.51100000000E-03 0.  1.
         11    1    4    4    0    0  0.25712631665E-01 -0.70797189068E-01  0.87921072075E-01  0.11577459757E+00  0.51100000000E-03 0. -1.
</event>
<event>
 8    1  0.1114686E+005  0.1043930E+01  0.7957747E-01            NaN
         13   -1    0    0    0    0  0.00000000000E+00  0.00000000000E+00  0.74505805969E-08  0.10566000000E+00  0.10566000000E+00 0. -1.
     999900   -1    0    0    0    0 -0.00000000000E+00 -0.00000000000E+00 -0.74505805969E-08  0.93827000000E+00  0.93827000000E+00 0.  1.
     999902    2    1    2    0    0 -0.41693097107E-03 -0.23216471499E-01 -0.24724371528E-02  0.10205785263E+01  0.10203113431E+01 0.  0.
     999903    2    3    3    0    0 -0.45767007147E-01  0.51544030249E-01 -0.10836908351E+00  0.12992715690E+00  0.19641839101E-01 0.  0.
         14    1    1    2    0    0  0.41693097107E-03  0.23216471499E-01  0.24724371528E-02  0.23351473739E-01  0.00000000000E+00 0. -1.
     999901    1    3    3    0    0  0.45350076176E-01 -0.74760501748E-01  0.10589664635E+00  0.89065136936E+00  0.88000000000E+00 0. -1.
        -11    1    4    4    0    0 -0.17527784832E-01  0.33404559443E-01 -0.50644816312E-01  0.63152564263E-01  0.51100000000E-03 0. -1.
         11    1    4    4    0    0 -0.28239222315E-01  0.18139470806E-01 -0.57724267194E-01  0.66774592640E-01  0.51100000000E-03 0.  1.
</event>
<event>
 8    1  0.1114686E+005  0.1043930E+01  0.7957747E-01            NaN
         13   -1    0    0    0    0  0.00000000000E+00  0.00000000000E+00  0.74505805969E-08  0.10566000000E+00  0.10566000000E+00 0.  1.
     999900   -1    0    0    0    0 -0.00000000000E+00 -0.00000000000E+00 -0.74505805969E-08  0.93827000000E+00  0.93827000000E+00 0.  1.
     999902    2    1    2    0    0  0.21620326613E-01 -0.10402602553E-01 -0.55684862306E-02  0.10192995168E+01  0.10190018863E+01 0.  0.
     999903    2    3    3    0    0 -0.28701750506E-01  0.96013181398E-01 -0.78001131126E-01  0.12851159674E+00  0.19716301757E-01 0.  0.
         14    1    1    2    0    0 -0.21620326613E-01  0.10402602553E-01  0.55684862306E-02  0.24630483179E-01  0.00000000000E+00 0. -1.
     999901    1    3    3    0    0  0.50322077119E-01 -0.10641578395E+00  0.72432644895E-01  0.89078792008E+00  0.88000000000E+00 0. -1.
        -11    1    4    4    0    0 -0.11217672465E-01  0.49206839494E-01 -0.50840059797E-01  0.71638830460E-01  0.51100000000E-03 0. -1.
         11    1    4    4    0    0 -0.17484078042E-01  0.46806341904E-01 -0.27161071329E-01  0.56872766278E-01  0.51100000000E-03 0.  1.
</event>
<event>
 8    1  0.1114686E+005  0.1043930E+01  0.7957747E-01            NaN
         13   -1    0    0    0    0  0.00000000000E+00  0.00000000000E+00  0.74505805969E-08  0.10566000000E+00  0.10566000000E+00 0.  1.
     999900   -1    0    0    0    0 -0.00000000000E+00 -0.00000000000E+00 -0.74505805969E-08  0.93827000000E+00  0.93827000000E+00 0.  1.
     999902    2    1    2    0    0  0.12034611392E-01  0.15976141136E-02 -0.19995060089E-01  0.10205379785E+01  0.10202698559E+01 0.  0.
     999903    2    3    3    0    0 -0.58520550053E-01  0.10037662780E+00  0.53084081122E-01  0.12920421091E+00  0.19382627849E-01 0.  0.
         14    1    1    2    0    0 -0.12034611392E-01 -0.15976141136E-02  0.19995060089E-01  0.23392021507E-01  0.00000000000E+00 0.  1.
     999901    1    3    3    0    0  0.70555161445E-01 -0.98779013683E-01 -0.73079141211E-01  0.89133376758E+00  0.88000000000E+00 0.  1.
        -11    1    4    4    0    0 -0.48237171653E-01  0.65358628651E-01  0.34675204267E-01  0.88324435918E-01  0.51100000000E-03 0.  1.
         11    1    4    4    0    0 -0.10283378401E-01  0.35017999145E-01  0.18408876855E-01  0.40879774994E-01  0.51100000000E-03 0. -1.
</event>
<event>
 8    1  0.1114686E+005  0.1043930E+01  0.7957747E-01            NaN
         13   -1    0    0    0    0  0.00000000000E+00  0.00000000000E+00  0.74505805969E-08  0.10566000000E+00  0.10566000000E+00 0. -1.
     999900   -1    0    0    0    0 -0.00000000000E+00 -0.00000000000E+00 -0.74505805969E-08  0.93827000000E+00  0.93827000000E+00 0. -1.
     999902    2    1    2    0    0 -0.84265056501E-02 -0.14275570822E-01 -0.15195009880E-01  0.10214425314E+01  0.10211949660E+01 0.  0.
     999903    2    3    3    0    0  0.21304062004E-01 -0.27511276378E-03 -0.13000117286E+00  0.13337700759E+00  0.20861027421E-01 0.  0.
         14    1    1    2    0    0  0.84265056501E-02  0.14275570822E-01  0.15195009880E-01  0.22487468622E-01  0.00000000000E+00 0. -1.
     999901    1    3    3    0    0 -0.29730567654E-01 -0.14000458058E-01  0.11480616298E+00  0.88806552379E+00  0.88000000000E+00 0.  1.
        -11    1    4    4    0    0  0.24490787079E-01  0.15930556674E-02 -0.92887452278E-01  0.96076409122E-01  0.51100000000E-03 0.  1.
         11    1    4    4    0    0 -0.31867250748E-02 -0.18681684312E-02 -0.37113720579E-01  0.37300598470E-01  0.51100000000E-03 0. -1.
</event>
<event>
 8    1  0.1114686E+005  0.1043930E+01  0.7957747E-01            NaN
         13   -1    0    0    0    0  0.00000000000E+00  0.00000000000E+00  0.74505805969E-08  0.10566000000E+00  0.10566000000E+00 0.  1.
     999900   -1    0    0    0    0 -0.00000000000E+00 -0.00000000000E+00 -0.74505805969E-08  0.93827000000E+00  0.93827000000E+00 0. -1.
     999902    2    1    2    0    0 -0.18081481936E-01  0.77227513299E-02 -0.13066291739E-01  0.10203226101E+01  0.10200494693E+01 0.  0.
     999903    2    3    3    0    0 -0.75798680378E-01 -0.10410493013E+00  0.13691209877E-01  0.13096741155E+00  0.19538097017E-01 0.  0.
         14    1    1    2    0    0  0.18081481936E-01 -0.77227513299E-02  0.13066291739E-01  0.23607389880E-01  0.00000000000E+00 0.  1.
     999901    1    3    3    0    0  0.57717198441E-01  0.11182768146E+00 -0.26757501616E-01  0.88935519857E+00  0.88000000000E+00 0. -1.
        -11    1    4    4    0    0 -0.24766400603E-01 -0.19995451797E-01  0.20757165683E-02  0.31902388809E-01  0.51100000000E-03 0. -1.
         11    1    4    4    0    0 -0.51032279774E-01 -0.84109478333E-01  0.11615493309E-01  0.99065022738E-01  0.51100000000E-03 0.  1.
</event>
<event>
 8    1  0.1114686E+005  0.1043930E+01  0.7957747E-01            NaN
         13   -1    0    0    0    0  0.00000000000E+00  0.00000000000E+00  0.74505805969E-08  0.10566000000E+00  0.10566000000E+00 0. -1.
     999900   -1    0    0    0    0 -0.00000000000E+00 -0.00000000000E+00 -0.74505805969E-08  0.93827000000E+00  0.93827000000E+00 0.  1.
     999902    2    1    2    0    0  0.12891651534E-01  0.20303106185E-01 -0.45221599832E-02  0.10194583689E+01  0.10191646114E+01 0.  0.
     999903    2    3    3    0    0 -0.99542799461E-01  0.60091591871E-01 -0.54881478552E-01  0.12998622745E+00  0.19096447346E-01 0.  0.
         14    1    1    2    0    0 -0.12891651534E-01 -0.20303106185E-01  0.45221599832E-02  0.24471631145E-01  0.00000000000E+00 0.  1.
     999901    1    3    3    0    0  0.11243445099E+00 -0.39788485686E-01  0.50359318569E-01  0.88947214140E+00  0.88000000000E+00 0.  1.
        -11    1    4    4    0    0 -0.76304744110E-01  0.52634603361E-01 -0.37388262121E-01  0.99954783328E-01  0.51100000000E-03 0.  1.
         11    1    4    4    0    0 -0.23238055350E-01  0.74569885097E-02 -0.17493216431E-01  0.30031444124E-01  0.51100000000E-03 0. -1.
</event>
<event>
 8    1  0.1114686E+005  0.1043930E+01  0.7957747E-01            NaN
         13   -1    0    0    0    0  0.00000000000E+00  0.00000000000E+00  0.74505805969E-08  0.10566000000E+00  0.10566000000E+00 0. -1.
     999900   -1    0    0    0    0 -0.00000000000E+00 -0.00000000000E+00 -0.74505805969E-08  0.93827000000E+00  0.93827000000E+00 0. -1.
     999902    2    1    2    0    0 -0.21893773445E-01  0.71808028085E-02  0.16385163971E-02  0.10208305199E+01  0.10205691375E+01 0.  0.
     999903    2    3    3    0    0 -0.28197561678E-01  0.11016342518E+00 -0.64584234859E-01  0.13233144222E+00  0.20233745989E-01 0.  0.
         14    1    1    2    0    0  0.21893773445E-01 -0.71808028085E-02 -0.16385163971E-02  0.23099480094E-01  0.00000000000E+00 0.  1.
     999901    1    3    3    0    0  0.63037882324E-02 -0.10298262237E+00  0.66222751256E-01  0.88849907768E+00  0.88000000000E+00 0.  1.
        -11    1    4    4    0    0 -0.22727870416E-01  0.67530143984E-01 -0.30654368796E-01  0.77568214415E-01  0.51100000000E-03 0.  1.
         11    1    4    4    0    0 -0.54696912611E-02  0.42633281196E-01 -0.33929866063E-01  0.54763227810E-01  0.51100000000E-03 0. -1.
</event>
<event>
 8    1  0.1114686E+005  0.1043930E+01  0.7957747E-01            NaN
         13   -1    0    0    0    0  0.00000000000E+00  0.00000000000E+00  0.74505805969E-08  0.10566000000E+00  0.10566000000E+00 0.  1.
     999900   -1    0    0    0    0 -0.00000000000E+00 -0.00000000000E+00 -0.74505805969E-08  0.93827000000E+00  0.93827000000E+00 0. -1.
     999902    2    1    2    0    0  0.35447729035E-02 -0.25757898040E-01 -0.99479606597E-02  0.10160912384E+01  0.10157098051E+01 0.  0.
     999903    2    3    3    0    0 -0.11684193631E+00 -0.44571366452E-01 -0.19323138994E-01  0.12764607953E+00  0.16777756996E-01 0.  0.
         14    1    1    2    0    0 -0.35447729035E-02  0.25757898040E-01  0.99479606597E-02  0.27838761604E-01  0.00000000000E+00 0.  1.
     999901    1    3    3    0    0  0.12038670921E+00  0.18813468412E-01  0.93751783344E-02  0.88844515887E+00  0.88000000000E+00 0. -1.
        -11    1    4    4    0    0 -0.52560695692E-01 -0.15028999930E-01 -0.15057531352E-02  0.54690273212E-01  0.51100000000E-03 0. -1.
         11    1    4    4    0    0 -0.64281240618E-01 -0.29542366522E-01 -0.17817385859E-01  0.72955806315E-01  0.51100000000E-03 0.  1.
</event>
<event>
 8    1  0.1114686E+005  0.1043930E+01  0.7957747E-01            NaN
         13   -1    0    0    0    0  0.00000000000E+00  0.00000000000E+00  0.74505805969E-08  0.10566000000E+00  0.10566000000E+00 0.  1.
     999900   -1    0    0    0    0 -0.00000000000E+00 -0.00000000000E+00 -0.74505805969E-08  0.93827000000E+00  0.93827000000E+00 0.  1.
     999902    2    1    2    0    0  0.12611782598E-02 -0.77416560187E-02 -0.22455249047E-01  0.10201442476E+01  0.10198669148E+01 0.  0.
     999903    2    3    3    0    0 -0.37887787620E-01  0.30369951532E-01  0.11621712472E+00  0.12761124348E+00  0.20503438186E-01 0.  0.
         14    1    1    2    0    0 -0.12611782598E-02  0.77416560187E-02  0.22455249047E-01  0.23785752422E-01  0.00000000000E+00 0.  1.
     999901    1    3    3    0    0  0.39148965879E-01 -0.38111607551E-01 -0.13867237377E+00  0.89253300410E+00  0.88000000000E+00 0.  1.
        -11    1    4    4    0    0 -0.24023667620E-01  0.29639670304E-01  0.93456328625E-01  0.10094549590E+00  0.51100000000E-03 0. -1.
         11    1    4    4    0    0 -0.13864120000E-01  0.73028122814E-03  0.22760796094E-01  0.26665747578E-01  0.51100000000E-03 0.  1.
</event>
<event>
 8    1  0.1114686E+005  0.1043930E+01  0.7957747E-01            NaN
         13   -1    0    0    0    0  0.00000000000E+00  0.00000000000E+00  0.74505805969E-08  0.10566000000E+00  0.10566000000E+00 0. -1.
     999900   -1    0    0    0    0 -0.00000000000E+00 -0.00000000000E+00 -0.74505805969E-08  0.93827000000E+00  0.93827000000E+00 0.  1.
     999902    2    1    2    0    0  0.23191843930E-01 -0.24181300223E-02 -0.50571205820E-03  0.10206069487E+01  0.10203404231E+01 0.  0.
     999903    2    3    3    0    0  0.53465886310E-01  0.80322695628E-01  0.87729210467E-01  0.13181678030E+00  0.19207102025E-01 0.  0.
         14    1    1    2    0    0 -0.23191843930E-01  0.24181300223E-02  0.50571205820E-03  0.23323051309E-01  0.00000000000E+00 0. -1.
     999901    1    3    3    0    0 -0.30274042380E-01 -0.82740825651E-01 -0.88234922525E-01  0.88879016839E+00  0.88000000000E+00 0.  1.
        -11    1    4    4    0    0  0.33874690675E-01  0.42026770314E-01  0.59624887848E-01  0.80430917335E-01  0.51100000000E-03 0.  1.
         11    1    4    4    0    0  0.19591195635E-01  0.38295925314E-01  0.28104322618E-01  0.51385862967E-01  0.51100000000E-03 0. -1.
</event>
<event>
 8    1  0.1114686E+005  0.1043930E+01  0.7957747E-01            NaN
         13   -1    0    0    0    0  0.00000000000E+00  0.00000000000E+00  0.74505805969E-08  0.10566000000E+00  0.10566000000E+00 0.  1.
     999900   -1    0    0    0    0 -0.00000000000E+00 -0.00000000000E+00 -0.74505805969E-08  0.93827000000E+00  0.93827000000E+00 0.  1.
     999902    2    1    2    0    0  0.71001058223E-02 -0.82995134277E-02  0.17460780981E-01  0.10233345564E+01  0.10231272853E+01 0.  0.
     999903    2    3    3    0    0 -0.90718091330E-01 -0.95531233680E-01 -0.72949145859E-02  0.13328364930E+00  0.18850111118E-01 0.  0.
         14    1    1    2    0    0 -0.71001058223E-02  0.82995134277E-02 -0.17460780981E-01  0.20595443629E-01  0.00000000000E+00 0. -1.
     999901    1    3    3    0    0  0.97818197153E-01  0.87231720253E-01  0.24755695567E-01  0.89005090707E+00  0.88000000000E+00 0. -1.
        -11    1    4    4    0    0 -0.42956453818E-01 -0.54829230462E-01 -0.10530480478E-01  0.70446104064E-01  0.51100000000E-03 0.  1.
         11    1    4    4    0    0 -0.47761637513E-01 -0.40702003218E-01  0.32355658917E-02  0.62837545238E-01  0.51100000000E-03 0. -1.
</event>
<event>
 8    1  0.1114686E+005  0.1043930E+01  0.7957747E-01            NaN
         13   -1    0    0    0    0  0.00000000000E+00  0.00000000000E+00  0.74505805969E-08  0.10566000000E+00  0.10566000000E+00 0.  1.
     999900   -1    0    0    0    0 -0.00000000000E+00 -0.00000000000E+00 -0.74505805969E-08  0.93827000000E+00  0.93827000000E+00 0. -1.
     999902    2    1    2    0    0 -0.12412152914E-01  0.17365996518E-01  0.89121789772E-02  0.10207984996E+01  0.10205363837E+01 0.  0.
     999903    2    3    3    0    0 -0.70186462107E-02 -0.70169516502E-01  0.10763013704E+00  0.13094638203E+00  0.24283453782E-01 0.  0.
         14    1    1    2    0    0  0.12412152914E-01 -0.17365996518E-01 -0.89121789772E-02  0.23131500365E-01  0.00000000000E+00 0. -1.
     999901    1    3    3    0    0 -0.53935067036E-02  0.87535513020E-01 -0.98717958064E-01  0.88985211760E+00  0.88000000000E+00 0. -1.
        -11    1    4    4    0    0 -0.12290377881E-01 -0.49279057450E-01  0.59624829259E-01  0.78325348877E-01  0.51100000000E-03 0.  1.
         11    1    4    4    0    0  0.52717316708E-02 -0.20890459053E-01  0.48005307782E-01  0.52621033157E-01  0.51100000000E-03 0. -1.
</event>
<event>
 8    1  0.1114686E+005  0.1043930E+01  0.7957747E-01            NaN
         13   -1    0    0    0    0  0.00000000000E+00  0.00000000000E+00  0.74505805969E-08  0.10566000000E+00  0.10566000000E+00 0.  1.
     999900   -1    0    0    0    0 -0.00000000000E+00 -0.00000000000E+00 -0.74505805969E-08  0.93827000000E+00  0.93827000000E+00 0. -1.
     999902    2    1    2    0    0  0.16560607693E-01 -0.89673142102E-02  0.14076255450E-01  0.10204181430E+01  0.10201472341E+01 0.  0.
     999903    2    3    3    0    0 -0.65642690225E-01 -0.63480053971E-01  0.91975559701E-01  0.13148770559E+00  0.22154753579E-01 0.  0.
         14    1    1    2    0    0 -0.16560607693E-01  0.89673142102E-02 -0.14076255450E-01  0.23511856983E-01  0.00000000000E+00 0. -1.
     999901    1    3    3    0    0  0.82203297918E-01  0.54512739761E-01 -0.77899304251E-01  0.88893043743E+00  0.88000000000E+00 0. -1.
        -11    1    4    4    0    0 -0.31504302046E-02 -0.80677455312E-02  0.23744690719E-02  0.89951627447E-02  0.51100000000E-03 0.  1.
         11    1    4    4    0    0 -0.62492260021E-01 -0.55412308440E-01  0.89601090629E-01  0.12249254284E+00  0.51100000000E-03 0. -1.
</event>
<event>
 8    1  0.1114686E+005  0.1043930E+01  0.7957747E-01            NaN
         13   -1    0    0    0    0  0.00000000000E+00  0.00000000000E+00  0.74505805969E-08  0.10566000000E+00  0.10566000000E+00 0.  1.
     999900   -1    0    0    0    0 -0.00000000000E+00 -0.00000000000E+00 -0.74505805969E-08  0.93827000000E+00  0.93827000000E+00 0. -1.
     999902    2    1    2    0    0 -0.84652194251E-02 -0.13462449129E-01  0.18919591871E-01  0.10192146519E+01  0.10189149416E+01 0.  0.
     999903    2    3    3    0    0 -0.80894777318E-01  0.73972704546E-01  0.68079735913E-01  0.13055967568E+00  0.19875926539E-01 0.  0.
         14    1    1    2    0    0  0.84652194251E-02  0.13462449129E-01 -0.18919591871E-01  0.24715348127E-01  0.00000000000E+00 0. -1.
     999901    1    3    3    0    0  0.72429557892E-01 -0.87435153676E-01 -0.49160144042E-01  0.88865497620E+00  0.88000000000E+00 0.  1.
        -11    1    4    4    0    0 -0.34839373290E-02  0.10650618596E-01  0.91603569149E-02  0.14482636348E-01  0.51100000000E-03 0.  1.
         11    1    4    4    0    0 -0.77410839988E-01  0.63322085950E-01  0.58919378998E-01  0.11607703933E+00  0.51100000000E-03 0. -1.
</event>
<event>
 8    1  0.1114686E+005  0.1043930E+01  0.7957747E-01            NaN
         13   -1    0    0    0    0  0.00000000000E+00  0.00000000000E+00  0.74505805969E-08  0.10566000000E+00  0.10566000000E+00 0.  1.
     999900   -1    0    0    0    0 -0.00000000000E+00 -0.00000000000E+00 -0.74505805969E-08  0.93827000000E+00  0.93827000000E+00 0.  1.
     999902    2    1    2    0    0 -0.19049722326E-01 -0.69354241429E-02 -0.12161632362E-01  0.10202889905E+01  0.10200150620E+01 0.  0.
     999903    2    3    3    0    0  0.12228151754E+00 -0.13239773515E-01 -0.32484078382E-01  0.12875813517E+00  0.19884186924E-01 0.  0.
         14    1    1    2    0    0  0.19049722326E-01  0.69354241429E-02  0.12161632362E-01  0.23641009506E-01  0.00000000000E+00 0.  1.
     999901    1    3    3    0    0 -0.14133123987E+00  0.63043493725E-02  0.20322446021E-01  0.89153085532E+00  0.88000000000E+00 0. -1.
        -11    1    4    4    0    0  0.86330847845E-01 -0.47620094631E-02 -0.30778956975E-01  0.91778523290E-01  0.51100000000E-03 0. -1.
         11    1    4    4    0    0  0.35950669694E-01 -0.84777640523E-02 -0.17051214071E-02  0.36979611880E-01  0.51100000000E-03 0.  1.
</event>
<event>
 8    1  0.1114686E+005  0.1043930E+01  0.7957747E-01            NaN
         13   -1    0    0    0    0  0.00000000000E+00  0.00000000000E+00  0.74505805969E-08  0.10566000000E+00  0.10566000000E+00 0. -1.
     999900   -1    0    0    0    0 -0.00000000000E+00 -0.00000000000E+00 -0.74505805969E-08  0.93827000000E+00  0.93827000000E+00 0.  1.
     999902    2    1    2    0    0 -0.47124911182E-02 -0.19748721796E-01 -0.10149867032E-01  0.10212311149E+01  0.10209788199E+01 0.  0.
     999903    2    3    3    0    0  0.42159785670E-01  0.42715791940E-01 -0.11521118662E+00  0.13154762808E+00  0.20714114063E-01 0.  0.
         14    1    1    2    0    0  0.47124911182E-02  0.19748721796E-01  0.10149867032E-01  0.22698885124E-01  0.00000000000E+00 0. -1.
     999901    1    3    3    0    0 -0.46872276789E-01 -0.62464513737E-01  0.10506131959E+00  0.88968348680E+00  0.88000000000E+00 0. -1.
        -11    1    4    4    0    0  0.15390102255E-01  0.73186259789E-02 -0.48607403453E-01  0.51510759314E-01  0.51100000000E-03 0.  1.
         11    1    4    4    0    0  0.26769683415E-01  0.35397165962E-01 -0.66603783168E-01  0.80036868764E-01  0.51100000000E-03 0. -1.
</event>
<event>
 8    1  0.1114686E+005  0.1043930E+01  0.7957747E-01            NaN
         13   -1    0    0    0    0  0.00000000000E+00  0.00000000000E+00  0.74505805969E-08  0.10566000000E+00  0.10566000000E+00 0. -1.
     999900   -1    0    0    0    0 -0.00000000000E+00 -0.00000000000E+00 -0.74505805969E-08  0.93827000000E+00  0.93827000000E+00 0.  1.
     999902    2    1    2    0    0  0.15282810540E-01 -0.23346173333E-02  0.18839116297E-01  0.10195593816E+01  0.10192680735E+01 0.  0.
     999903    2    3    3    0    0  0.27612457224E-01 -0.38658945862E-01  0.12221066379E+00  0.13267880690E+00  0.20279486353E-01 0.  0.
         14    1    1    2    0    0 -0.15282810540E-01  0.23346173333E-02 -0.18839116297E-01  0.24370618354E-01  0.00000000000E+00 0.  1.
     999901    1    3    3    0    0 -0.12329646684E-01  0.36324328529E-01 -0.10337154750E+00  0.88688057475E+00  0.88000000000E+00 0.  1.
        -11    1    4    4    0    0  0.13505529109E-01 -0.39961084632E-02  0.29310568468E-01  0.32522895693E-01  0.51100000000E-03 0. -1.
         11    1    4    4    0    0  0.14106928115E-01 -0.34662837399E-01  0.92900095324E-01  0.10015591121E+00  0.51100000000E-03 0.  1.
</event>
<event>
 7    1  0.1114686E+005  0.1043930E+01  0.7957747E-01            NaN
         13   -1    0    0    0    0  0.00000000000E+00  0.00000000000E+00  0.74505805969E-08  0.10566000000E+00  0.10566000000E+00 0. -1.
     999900   -1    0    0    0    0 -0.00000000000E+00 -0.00000000000E+00 -0.74505805969E-08  0.93827000000E+00  0.93827000000E+00 0.  1.
     999903    2    1    2    0    0 -0.16978311887E-01  0.84971558091E-01  0.12015587932E-01  0.89788842392E-01  0.20229510767E-01 0.  0.
         14    1    1    2    0    0  0.55944528333E-01 -0.27826564266E-01  0.32256315999E-01  0.70317692305E-01  0.00000000000E+00 0. -1.
     999901    1    1    2    0    0 -0.38966216445E-01 -0.57144993824E-01 -0.44271903930E-01  0.88382346530E+00  0.88000000000E+00 0.  1.
        -11    1    3    3    0    0 -0.76532933107E-02  0.11462331439E-01 -0.31632401010E-02  0.14150093620E-01  0.51100000000E-03 0.  1.
         11    1    3    3    0    0 -0.93250185764E-02  0.73509226651E-01  0.15178828033E-01  0.75638748772E-01  0.51100000000E-03 0. -1.
</event>
<event>
 8    1  0.1114686E+005  0.1043930E+01  0.7957747E-01            NaN
         13   -1    0    0    0    0  0.00000000000E+00  0.00000000000E+00  0.74505805969E-08  0.10566000000E+00  0.10566000000E+00 0.  1.
     999900   -1    0    0    0    0 -0.00000000000E+00 -0.00000000000E+00 -0.74505805969E-08  0.93827000000E+00  0.93827000000E+00 0. -1.
     999902    2    1    2    0    0 -0.14963506001E-01 -0.15758628688E-01 -0.59390024880E-02  0.10214019588E+01  0.10211534893E+01 0.  0.
     999903    2    3    3    0    0 -0.80767275901E-01  0.73561047922E-01  0.69905236295E-01  0.13119945974E+00  0.19798372338E-01 0.  0.
         14    1    1    2    0    0  0.14963506001E-01  0.15758628688E-01  0.59390024880E-02  0.22528041205E-01  0.00000000000E+00 0. -1.
     999901    1    3    3    0    0  0.65803769900E-01 -0.89319676611E-01 -0.75844238783E-01  0.89020249905E+00  0.88000000000E+00 0. -1.
        -11    1    4    4    0    0 -0.10296396870E-01  0.18320115140E-01  0.87744243664E-02  0.22779246063E-01  0.51100000000E-03 0.  1.
         11    1    4    4    0    0 -0.70470879032E-01  0.55240932782E-01  0.61130811929E-01  0.10842021368E+00  0.51100000000E-03 0. -1.
</event>
<event>
 8    1  0.1114686E+005  0.1043930E+01  0.7957747E-01            NaN
         13   -1    0    0    0    0  0.00000000000E+00  0.00000000000E+00  0.74505805969E-08  0.10566000000E+00  0.10566000000E+00 0. -1.
     999900   -1    0    0    0    0 -0.00000000000E+00 -0.00000000000E+00 -0.74505805969E-08  0.93827000000E+00  0.93827000000E+00 0. -1.
     999902    2    1    2    0    0 -0.11634123358E-01  0.11046000172E-01 -0.17670584556E-01  0.10200633600E+01  0.10197841153E+01 0.  0.
     999903    2    3    3    0    0  0.93731099369E-01  0.72251969102E-01 -0.52435006887E-01  0.13098711701E+00  0.20058136702E-01 0.  0.
         14    1    1    2    0    0  0.11634123358E-01 -0.11046000172E-01  0.17670584556E-01  0.23866639995E-01  0.00000000000E+00 0. -1.
     999901    1    3    3    0    0 -0.10536522273E+00 -0.61205968930E-01  0.34764422331E-01  0.88907624299E+00  0.88000000000E+00 0.  1.
        -11    1    4    4    0    0  0.76347696917E-01  0.66252497300E-01 -0.39655261613E-01  0.10858713145E+00  0.51100000000E-03 0. -1.
         11    1    4    4    0    0  0.17383402452E-01  0.59994718026E-02 -0.12779745275E-01  0.22399985558E-01  0.51100000000E-03 0.  1.
</event>
<event>
 8    1  0.1672254E+005  0.1043930E+01  0.7957747E-01            NaN
         13   -1    0    0    0    0  0.00000000000E+00  0.00000000000E+00  0.74505805969E-08  0.10566000000E+00  0.10566000000E+00 0.  1.
     999900   -1    0    0    0    0 -0.00000000000E+00 -0.00000000000E+00 -0.74505805969E-08  0.93827000000E+00  0.93827000000E+00 0.  1.
     999902    2    1    2    0    0 -0.54106740405E-02 -0.12231397942E-01  0.22035901270E-01  0.10181528118E+01  0.10178264511E+01 0.  0.
     999903    2    3    3    0    0  0.45094225599E-01 -0.11524369385E-01 -0.11427512733E+00  0.12622683876E+00  0.26610333043E-01 0.  0.
         14    1    1    2    0    0  0.54106740405E-02  0.12231397942E-01 -0.22035901270E-01  0.25777188248E-01  0.00000000000E+00 0. -1.
     999901    1    3    3    0    0 -0.50504899640E-01 -0.70702855608E-03  0.13631102860E+00  0.89192597299E+00  0.88000000000E+00 0. -1.
        -11    1    4    4    0    0  0.74075179685E-02 -0.40857136235E-02 -0.54607878644E-01  0.55261613343E-01  0.51100000000E-03 0.  1.
         11    1    4    4    0    0  0.37686707631E-01 -0.74386557619E-02 -0.59667248688E-01  0.70965225418E-01  0.51100000000E-03 0. -1.
</event>
<event>
 8    1  0.1114686E+005  0.1043930E+01  0.7957747E-01            NaN
         13   -1    0    0    0    0  0.00000000000E+00  0.00000000000E+00  0.74505805969E-08  0.10566000000E+00  0.10566000000E+00 0.  1.
     999900   -1    0    0    0    0 -0.00000000000E+00 -0.00000000000E+00 -0.74505805969E-08  0.93827000000E+00  0.93827000000E+00 0. -1.
     999902    2    1    2    0    0  0.10913273962E-02 -0.18393262576E-01 -0.14841684969E-01  0.10202703568E+01  0.10199959913E+01 0.  0.
     999903    2    3    3    0    0 -0.83173602328E-01  0.91671579811E-01 -0.31736694308E-01  0.12925953237E+00  0.19475170689E-01 0.  0.
         14    1    1    2    0    0 -0.10913273962E-02  0.18393262576E-01  0.14841684969E-01  0.23659643201E-01  0.00000000000E+00 0.  1.
     999901    1    3    3    0    0  0.84264929724E-01 -0.11006484239E+00  0.16895009339E-01  0.89101082443E+00  0.88000000000E+00 0.  1.
        -11    1    4    4    0    0 -0.81548126018E-01  0.90872060270E-01 -0.28291214227E-01  0.12533348363E+00  0.51100000000E-03 0.  1.
         11    1    4    4    0    0 -0.16254763095E-02  0.79951954128E-03 -0.34454800811E-02  0.39260487413E-02  0.51100000000E-03 0. -1.
</event>
<event>
 8    1  0.1114686E+005  0.1043930E+01  0.7957747E-01            NaN
         13   -1    0    0    0    0  0.00000000000E+00  0.00000000000E+00  0.74505805969E-08  0.10566000000E+00  0.10566000000E+00 0. -1.
     999900   -1    0    0    0    0 -0.00000000000E+00 -0.00000000000E+00 -0.74505805969E-08  0.93827000000E+00  0.93827000000E+00 0.  1.
     999902    2    1    2    0    0  0.61508996014E-03 -0.23001154089E-01  0.27439380902E-02  0.10207575892E+01  0.10204945347E+01 0.  0.
     999903    2    3    3    0    0  0.12267306168E+00 -0.34265377181E-01  0.27996071642E-01  0.13190287588E+00  0.19793749101E-01 0.  0.
         14    1    1    2    0    0 -0.61508996014E-03  0.23001154089E-01 -0.27439380902E-02  0.23172410780E-01  0.00000000000E+00 0.  1.
     999901    1    3    3    0    0 -0.12205797171E+00  0.11264223092E-01 -0.25252133552E-01  0.88885471334E+00  0.88000000000E+00 0. -1.
        -11    1    4    4    0    0  0.30648095353E-01 -0.64090088746E-02 -0.14386457385E-02  0.31348237049E-01  0.51100000000E-03 0. -1.
         11    1    4    4    0    0  0.92024966322E-01 -0.27856368306E-01  0.29434717381E-01  0.10055463883E+00  0.51100000000E-03 0.  1.
</event>
<event>
 8    1  0.1114686E+005  0.1043930E+01  0.7957747E-01            NaN
         13   -1    0    0    0    0  0.00000000000E+00  0.00000000000E+00  0.74505805969E-08  0.10566000000E+00  0.10566000000E+00 0. -1.
     999900   -1    0    0    0    0 -0.00000000000E+00 -0.00000000000E+00 -0.74505805969E-08  0.93827000000E+00  0.93827000000E+00 0. -1.
     999902    2    1    2    0    0  0.19989852630E-01  0.96036496220E-02 -0.66712850398E-02  0.10207711931E+01  0.10205084509E+01 0.  0.
     999903    2    3    3    0    0 -0.68785028627E-01 -0.10690689887E+00  0.20742729805E-02  0.12862088498E+00  0.19456727709E-01 0.  0.
         14    1    1    2    0    0 -0.19989852630E-01 -0.96036496220E-02  0.66712850398E-02  0.23158806927E-01  0.00000000000E+00 0.  1.
     999901    1    3    3    0    0  0.88774881257E-01  0.11651054850E+00 -0.87455580203E-02  0.89215030810E+00  0.88000000000E+00 0. -1.
        -11    1    4    4    0    0 -0.50432272970E-01 -0.92080103688E-01  0.25105329675E-02  0.10501772969E+00  0.51100000000E-03 0.  1.
         11    1    4    4    0    0 -0.18352755657E-01 -0.14826795187E-01 -0.43625998699E-03  0.23603155287E-01  0.51100000000E-03 0. -1.
</event>
<event>
 8    1  0.1114686E+005  0.1043930E+01  0.7957747E-01            NaN
         13   -1    0    0    0    0  0.00000000000E+00  0.00000000000E+00  0.74505805969E-08  0.10566000000E+00  0.10566000000E+00 0.  1.
     999900   -1    0    0    0    0 -0.00000000000E+00 -0.00000000000E+00 -0.74505805969E-08  0.93827000000E+00  0.93827000000E+00 0.  1.
     999902    2    1    2    0    0  0.72161695443E-02 -0.22472493598E-01 -0.78798854990E-02  0.10190466990E+01  0.10187428508E+01 0.  0.
     999903    2    3    3    0    0  0.17150676000E-02 -0.12654945179E+00 -0.33103036268E-01  0.13253754359E+00  0.21276377632E-01 0.  0.
         14    1    1    2    0    0 -0.72161695443E-02  0.22472493598E-01  0.78798854990E-02  0.24883300964E-01  0.00000000000E+00 0. -1.
     999901    1    3    3    0    0  0.55011019443E-02  0.10407695820E+00  0.25223150769E-01  0.88650915544E+00  0.88000000000E+00 0. -1.
        -11    1    4    4    0    0 -0.65069247521E-02 -0.52592158923E-01 -0.59711331221E-02  0.53330955380E-01  0.51100000000E-03 0. -1.
         11    1    4    4    0    0  0.82219923520E-02 -0.73957292871E-01 -0.27131903146E-01  0.79206588213E-01  0.51100000000E-03 0.  1.
</event>
<event>
 8    1  0.1114686E+005  0.1043930E+01  0.7957747E-01            NaN
         13   -1    0    0    0    0  0.00000000000E+00  0.00000000000E+00  0.74505805969E-08  0.10566000000E+00  0.10566000000E+00 0. -1.
     999900   -1    0    0    0    0 -0.00000000000E+00 -0.00000000000E+00 -0.74505805969E-08  0.93827000000E+00  0.93827000000E+00 0.  1.
     999902    2    1    2    0    0  0.17505391038E-01 -0.15242387412E-01  0.64779580930E-02  0.10198315969E+01  0.10195468371E+01 0.  0.
     999903    2    3    3    0    0 -0.19717318174E-01  0.12469045649E+00  0.81841187916E-02  0.12799661115E+00  0.19485124818E-01 0.  0.
         14    1    1    2    0    0 -0.17505391038E-01  0.15242387412E-01 -0.64779580930E-02  0.24098403068E-01  0.00000000000E+00 0. -1.
     999901    1    3    3    0    0  0.37222709212E-01 -0.13993284390E+00 -0.17061606986E-02  0.89183498578E+00  0.88000000000E+00 0. -1.
        -11    1    4    4    0    0 -0.15704671210E-01  0.75298183355E-01 -0.37879131811E-02  0.77013391833E-01  0.51100000000E-03 0. -1.
         11    1    4    4    0    0 -0.40126469645E-02  0.49392273136E-01  0.11972031973E-01  0.50983219315E-01  0.51100000000E-03 0.  1.
</event>
<event>
 8    1  0.1114686E+005  0.1043930E+01  0.7957747E-01            NaN
         13   -1    0    0    0    0  0.00000000000E+00  0.00000000000E+00  0.74505805969E-08  0.10566000000E+00  0.10566000000E+00 0.  1.
     999900   -1    0    0    0    0 -0.00000000000E+00 -0.00000000000E+00 -0.74505805969E-08  0.93827000000E+00  0.93827000000E+00 0. -1.
     999902    2    1    2    0    0  0.65045877817E-02  0.22604761055E-01 -0.38006641892E-02  0.10201029160E+01  0.10198246071E+01 0.  0.
     999903    2    3    3    0    0  0.84938874797E-01 -0.94301687499E-01  0.12166548147E-01  0.12877020203E+00  0.18064310654E-01 0.  0.
         14    1    1    2    0    0 -0.65045877817E-02 -0.22604761055E-01  0.38006641892E-02  0.23827084019E-01  0.00000000000E+00 0.  1.
     999901    1    3    3    0    0 -0.78434287016E-01  0.11690644855E+00 -0.15967212336E-01  0.89133271395E+00  0.88000000000E+00 0. -1.
        -11    1    4    4    0    0  0.37636840198E-01 -0.35074741106E-01  0.12598692587E-01  0.52969400408E-01  0.51100000000E-03 0. -1.
         11    1    4    4    0    0  0.47302034600E-01 -0.59226946393E-01 -0.43214443975E-03  0.75800801619E-01  0.51100000000E-03 0.  1.
</event>
<event>
 8    1  0.1114686E+005  0.1043930E+01  0.7957747E-01            NaN
         13   -1    0    0    0    0  0.00000000000E+00  0.00000000000E+00  0.74505805969E-08  0.10566000000E+00  0.10566000000E+00 0. -1.
     999900   -1    0    0    0    0 -0.00000000000E+00 -0.00000000000E+00 -0.74505805969E-08  0.93827000000E+00  0.93827000000E+00 0. -1.
     999902    2    1    2    0    0 -0.56715894414E-02 -0.23640264055E-01  0.89426295003E-03  0.10196024700E+01  0.10193122034E+01 0.  0.
     999903    2    3    3    0    0 -0.93639577038E-01 -0.89633592402E-01  0.19817483277E-01  0.13255592412E+00  0.19385280527E-01 0.  0.
         14    1    1    2    0    0  0.56715894414E-02  0.23640264055E-01 -0.89426295003E-03  0.24327530035E-01  0.00000000000E+00 0.  1.
     999901    1    3    3    0    0  0.87967987596E-01  0.65993328347E-01 -0.18923220327E-01  0.88704654585E+00  0.88000000000E+00 0. -1.
        -11    1    4    4    0    0 -0.67980700104E-01 -0.61847821067E-01  0.53598496827E-02  0.92062574736E-01  0.51100000000E-03 0.  1.
         11    1    4    4    0    0 -0.25658876934E-01 -0.27785771335E-01  0.14457633594E-01  0.40493349384E-01  0.51100000000E-03 0. -1.
</event>
<event>
 8    1  0.1114686E+005  0.1043930E+01  0.7957747E-01            NaN
         13   -1    0    0    0    0  0.00000000000E+00  0.00000000000E+00  0.74505805969E-08  0.10566000000E+00  0.10566000000E+00 0.  1.
     999900   -1    0    0    0    0 -0.00000000000E+00 -0.00000000000E+00 -0.74505805969E-08  0.93827000000E+00  0.93827000000E+00 0.  1.
     999902    2    1    2    0    0  0.36598591824E-02  0.21095454560E-01  0.11160885645E-01  0.10197850597E+01  0.10194991858E+01 0.  0.
     999903    2    3    3    0    0 -0.99538884980E-01  0.49050284740E-01  0.67880168217E-01  0.13150102275E+00  0.19258288922E-01 0.  0.
         14    1    1    2    0    0 -0.36598591824E-02 -0.21095454560E-01 -0.11160885645E-01  0.24144940271E-01  0.00000000000E+00 0.  1.
     999901    1    3    3    0    0  0.10319874416E+00 -0.27954830180E-01 -0.56719282572E-01  0.88828403697E+00  0.88000000000E+00 0.  1.
        -11    1    4    4    0    0 -0.46807266832E-01  0.22716188645E-01  0.43087193643E-01  0.67555257618E-01  0.51100000000E-03 0.  1.
         11    1    4    4    0    0 -0.52731618148E-01  0.26334096095E-01  0.24792974574E-01  0.63945765137E-01  0.51100000000E-03 0. -1.
</event>
<event>
 8    1  0.1114686E+005  0.1043930E+01  0.7957747E-01            NaN
         13   -1    0    0    0    0  0.00000000000E+00  0.00000000000E+00  0.74505805969E-08  0.10566000000E+00  0.10566000000E+00 0. -1.
     999900   -1    0    0    0    0 -0.00000000000E+00 -0.00000000000E+00 -0.74505805969E-08  0.93827000000E+00  0.93827000000E+00 0. -1.
     999902    2    1    2    0    0  0.43774517632E-02  0.15961063472E-01 -0.17395723783E-01  0.10199189851E+01  0.10196363113E+01 0.  0.
     999903    2    3    3    0    0  0.97764733076E-01  0.77303048466E-01  0.36385710839E-01  0.13122529987E+00  0.19038251963E-01 0.  0.
         14    1    1    2    0    0 -0.43774517632E-02 -0.15961063472E-01  0.17395723783E-01  0.24011014911E-01  0.00000000000E+00 0. -1.
     999901    1    3    3    0    0 -0.93387281313E-01 -0.61341984994E-01 -0.53781434622E-01  0.88869368522E+00  0.88000000000E+00 0. -1.
        -11    1    4    4    0    0  0.82635878147E-01  0.71884948127E-01  0.35442327847E-01  0.11511973701E+00  0.51100000000E-03 0.  1.
         11    1    4    4    0    0  0.15128854929E-01  0.54181003397E-02  0.94338299140E-03  0.16105562866E-01  0.51100000000E-03 0. -1.
</event>
<event>
 8    1  0.1114686E+005  0.1043930E+01  0.7957747E-01            NaN
         13   -1    0    0    0    0  0.00000000000E+00  0.00000000000E+00  0.74505805969E-08  0.10566000000E+00  0.10566000000E+00 0. -1.
     999900   -1    0    0    0    0 -0.00000000000E+00 -0.00000000000E+00 -0.74505805969E-08  0.93827000000E+00  0.93827000000E+00 0. -1.
     999902    2    1    2    0    0  0.18233251519E-01 -0.12041310528E-01  0.13978106139E-02  0.10220348294E+01  0.10218002711E+01 0.  0.
     999903    2    3    3    0    0 -0.11833517638E+00 -0.26500200750E-02  0.50500054919E-01  0.13009864211E+00  0.19109279363E-01 0.  0.
         14    1    1    2    0    0 -0.18233251519E-01  0.12041310528E-01 -0.13978106139E-02  0.21895170580E-01  0.00000000000E+00 0. -1.
     999901    1    3    3    0    0  0.13656842790E+00 -0.93912904528E-02 -0.49102244305E-01  0.89193618731E+00  0.88000000000E+00 0.  1.
        -11    1    4    4    0    0 -0.17582263952E-01  0.62501691601E-02  0.96569559704E-02  0.21017101128E-01  0.51100000000E-03 0. -1.
         11    1    4    4    0    0 -0.10075291243E+00 -0.89001892352E-02  0.40843098949E-01  0.10908154098E+00  0.51100000000E-03 0.  1.
</event>
<event>
 8    1  0.1114686E+005  0.1043930E+01  0.7957747E-01            NaN
         13   -1    0    0    0    0  0.00000000000E+00  0.00000000000E+00  0.74505805969E-08  0.10566000000E+00  0.10566000000E+00 0. -1.
     999900   -1    0    0    0    0 -0.00000000000E+00 -0.00000000000E+00 -0.74505805969E-08  0.93827000000E+00  0.93827000000E+00 0. -1.
     999902    2    1    2    0    0  0.66011648207E-02 -0.23280337915E-01  0.11405319563E-02  0.10197050062E+01  0.10194172107E+01 0.  0.
     999903    2    3    3    0    0  0.12710212657E+00 -0.11649664149E-02  0.23947619278E-01  0.13092509270E+00  0.20287525835E-01 0.  0.
         14    1    1    2    0    0 -0.66011648207E-02  0.23280337915E-01 -0.11405319563E-02  0.24224993778E-01  0.00000000000E+00 0.  1.
     999901    1    3    3    0    0 -0.12050096175E+00 -0.22115371500E-01 -0.22807087322E-01  0.88877991352E+00  0.88000000000E+00 0. -1.
        -11    1    4    4    0    0  0.10604811897E+00  0.37392635230E-03  0.27390017217E-01  0.10952998458E+00  0.51100000000E-03 0. -1.
         11    1    4    4    0    0  0.21054007606E-01 -0.15388927672E-02 -0.34423979384E-02  0.21395108127E-01  0.51100000000E-03 0.  1.
</event>
<event>
 8    1  0.1114686E+005  0.1043930E+01  0.7957747E-01            NaN
         13   -1    0    0    0    0  0.00000000000E+00  0.00000000000E+00  0.74505805969E-08  0.10566000000E+00  0.10566000000E+00 0.  1.
     999900   -1    0    0    0    0 -0.00000000000E+00 -0.00000000000E+00 -0.74505805969E-08  0.93827000000E+00  0.93827000000E+00 0. -1.
     999902    2    1    2    0    0  0.11665243728E-01 -0.20492850742E-01  0.24217665488E-03  0.10203483654E+01  0.10200758272E+01 0.  0.
     999903    2    3    3    0    0 -0.62909418296E-01 -0.72441151485E-01  0.87387136784E-01  0.13138590820E+00  0.20504386334E-01 0.  0.
         14    1    1    2    0    0 -0.11665243728E-01  0.20492850742E-01 -0.24217665488E-03  0.23581634641E-01  0.00000000000E+00 0.  1.
     999901    1    3    3    0    0  0.74574662024E-01  0.51948300743E-01 -0.87144960129E-01  0.88896245716E+00  0.88000000000E+00 0. -1.
        -11    1    4    4    0    0 -0.36397498493E-01 -0.56285571220E-01  0.58212191876E-01  0.88779298421E-01  0.51100000000E-03 0. -1.
         11    1    4    4    0    0 -0.26511919802E-01 -0.16155580265E-01  0.29174944908E-01  0.42606609777E-01  0.51100000000E-03 0.  1.
</event>
<event>
 8    1  0.1114686E+005  0.1043930E+01  0.7957747E-01            NaN
         13   -1    0    0    0    0  0.00000000000E+00  0.00000000000E+00  0.74505805969E-08  0.10566000000E+00  0.10566000000E+00 0.  1.
     999900   -1    0    0    0    0 -0.00000000000E+00 -0.00000000000E+00 -0.74505805969E-08  0.93827000000E+00  0.93827000000E+00 0.  1.
     999902    2    1    2    0    0 -0.48830337190E-02 -0.15171493149E-01  0.17249469041E-01  0.10204446342E+01  0.10201743425E+01 0.  0.
     999903    2    3    3    0    0  0.12575639105E+00  0.16106176949E-01 -0.16836798101E-01  0.12959850524E+00  0.20933608508E-01 0.  0.
         14    1    1    2    0    0  0.48830337190E-02  0.15171493149E-01 -0.17249469041E-01  0.23485365760E-01  0.00000000000E+00 0.  1.
     999901    1    3    3    0    0 -0.13063942476E+00 -0.31277670098E-01  0.34086267142E-01  0.89084612900E+00  0.88000000000E+00 0. -1.
        -11    1    4    4    0    0  0.93718826539E-01  0.18630506369E-01 -0.18846172566E-01  0.97394833316E-01  0.51100000000E-03 0. -1.
         11    1    4    4    0    0  0.32037564507E-01 -0.25243294202E-02  0.20093744645E-02  0.32203671922E-01  0.51100000000E-03 0.  1.
</event>
<event>
 7    1  0.1114686E+005  0.1043930E+01  0.7957747E-01            NaN
         13   -1    0    0    0    0  0.00000000000E+00  0.00000000000E+00  0.74505805969E-08  0.10566000000E+00  0.10566000000E+00 0. -1.
     999900   -1    0    0    0    0 -0.00000000000E+00 -0.00000000000E+00 -0.74505805969E-08  0.93827000000E+00  0.93827000000E+00 0.  1.
     999902    2    1    2    0    0 -0.19910588092E-01  0.57172047539E-02  0.13826969722E-01  0.10190241164E+01  0.10187197096E+01 0.  0.
         14    1    1    2    0    0  0.19910588092E-01 -0.57172047539E-02 -0.13826969722E-01  0.24905883643E-01  0.00000000000E+00 0.  1.
     999901    1    3    3    0    0 -0.11028849055E+00 -0.46230166755E-01  0.11222884343E-02  0.88808898146E+00  0.88000000000E+00 0. -1.
        -11    1    3    3    0    0  0.21249594450E-01  0.13138279208E-01  0.39936319664E-01  0.47109769625E-01  0.51100000000E-03 0. -1.
         11    1    3    3    0    0  0.69128308004E-01  0.38809092301E-01 -0.27231638376E-01  0.83825365268E-01  0.51100000000E-03 0.  1.
</event>
<event>
 8    1  0.1114686E+005  0.1043930E+01  0.7957747E-01            NaN
         13   -1    0    0    0    0  0.00000000000E+00  0.00000000000E+00  0.74505805969E-08  0.10566000000E+00  0.10566000000E+00 0. -1.
     999900   -1    0    0    0    0 -0.00000000000E+00 -0.00000000000E+00 -0.74505805969E-08  0.93827000000E+00  0.93827000000E+00 0. -1.
     999902    2    1    2    0    0  0.47308081578E-02  0.19955632076E-01 -0.11090264623E-01  0.10206147310E+01  0.10203483853E+01 0.  0.
     999903    2    3    3    0    0  0.19101506215E-01  0.13008294913E+00 -0.12449295511E-01  0.13363311348E+00  0.20405461633E-01 0.  0.
         14    1    1    2    0    0 -0.47308081578E-02 -0.19955632076E-01  0.11090264623E-01  0.23315268963E-01  0.00000000000E+00 0. -1.
     999901    1    3    3    0    0 -0.14370698057E-01 -0.11012731706E+00  0.13590308877E-02  0.88698161756E+00  0.88000000000E+00 0. -1.
        -11    1    4    4    0    0  0.20031567911E-01  0.85987309253E-01 -0.14514783225E-01  0.89476371845E-01  0.51100000000E-03 0.  1.
         11    1    4    4    0    0 -0.93006169574E-03  0.44095639879E-01  0.20654877135E-02  0.44156741632E-01  0.51100000000E-03 0. -1.
</event>
<event>
 8    1  0.1114686E+005  0.1043930E+01  0.7957747E-01            NaN
         13   -1    0    0    0    0  0.00000000000E+00  0.00000000000E+00  0.74505805969E-08  0.10566000000E+00  0.10566000000E+00 0.  1.
     999900   -1    0    0    0    0 -0.00000000000E+00 -0.00000000000E+00 -0.74505805969E-08  0.93827000000E+00  0.93827000000E+00 0. -1.
     999902    2    1    2    0    0 -0.26805767019E-01  0.10394271571E-01  0.89697792671E-02  0.10138127796E+01  0.10133653364E+01 0.  0.
     999903    2    3    3    0    0 -0.81876016399E-01  0.43256982177E-01 -0.84535845652E-01  0.12653830568E+00  0.17052420197E-01 0.  0.
         14    1    1    2    0    0  0.26805767019E-01 -0.10394271571E-01 -0.89697792671E-02  0.30117220441E-01  0.00000000000E+00 0.  1.
     999901    1    3    3    0    0  0.55070249380E-01 -0.32862710606E-01  0.93505624919E-01  0.88727447388E+00  0.88000000000E+00 0.  1.
        -11    1    4    4    0    0 -0.35678218938E-01  0.13704064023E-01 -0.44343216246E-01  0.58543305555E-01  0.51100000000E-03 0. -1.
         11    1    4    4    0    0 -0.46197797462E-01  0.29552918154E-01 -0.40192629406E-01  0.67995000120E-01  0.51100000000E-03 0.  1.
</event>
<event>
 8    1  0.1114686E+005  0.1043930E+01  0.7957747E-01            NaN
         13   -1    0    0    0    0  0.00000000000E+00  0.00000000000E+00  0.74505805969E-08  0.10566000000E+00  0.10566000000E+00 0.  1.
     999900   -1    0    0    0    0 -0.00000000000E+00 -0.00000000000E+00 -0.74505805969E-08  0.93827000000E+00  0.93827000000E+00 0. -1.
     999902    2    1    2    0    0 -0.15375692135E-01 -0.10544485883E-01 -0.20928010874E-02  0.10251689257E+01  0.10249972431E+01 0.  0.
     999903    2    3    3    0    0 -0.55553310874E-01 -0.10911381748E+00 -0.58278627831E-01  0.13697581537E+00  0.19338563032E-01 0.  0.
         14    1    1    2    0    0  0.15375692135E-01  0.10544485883E-01  0.20928010874E-02  0.18761074265E-01  0.00000000000E+00 0. -1.
     999901    1    3    3    0    0  0.40177618739E-01  0.98569331594E-01  0.56185826744E-01  0.88819311037E+00  0.88000000000E+00 0.  1.
        -11    1    4    4    0    0 -0.28876295910E-01 -0.64459705410E-01 -0.43276726180E-01  0.82837372224E-01  0.51100000000E-03 0. -1.
         11    1    4    4    0    0 -0.26677014963E-01 -0.44654112067E-01 -0.15001901651E-01  0.54138443143E-01  0.51100000000E-03 0.  1.
</event>
<event>
 8    1  0.1114686E+005  0.1043930E+01  0.7957747E-01            NaN
         13   -1    0    0    0    0  0.00000000000E+00  0.00000000000E+00  0.74505805969E-08  0.10566000000E+00  0.10566000000E+00 0. -1.
     999900   -1    0    0    0    0 -0.00000000000E+00 -0.00000000000E+00 -0.74505805969E-08  0.93827000000E+00  0.93827000000E+00 0.  1.
     999902    2    1    2    0    0 -0.17990412528E-01 -0.91635507518E-02 -0.14396903510E-01  0.10191328946E+01  0.10188311737E+01 0.  0.
     999903    2    3    3    0    0  0.48978861961E-01  0.10220749472E+00  0.53434592924E-01  0.12700649919E+00  0.20738713060E-01 0.  0.
         14    1    1    2    0    0  0.17990412528E-01  0.91635507518E-02  0.14396903510E-01  0.24797105395E-01  0.00000000000E+00 0. -1.
     999901    1    3    3    0    0 -0.66969274489E-01 -0.11137104547E+00 -0.67831496434E-01  0.89212639542E+00  0.88000000000E+00 0.  1.
        -11    1    4    4    0    0  0.10607396315E-01  0.42660277129E-01  0.25745152361E-01  0.50945952660E-01  0.51100000000E-03 0. -1.
         11    1    4    4    0    0  0.38371465646E-01  0.59547217587E-01  0.27689440564E-01  0.76060546526E-01  0.51100000000E-03 0.  1.
</event>
<event>
 8    1  0.1307728E+005  0.1043930E+01  0.7957747E-01            NaN
         13   -1    0    0    0    0  0.00000000000E+00  0.00000000000E+00  0.74505805969E-08  0.10566000000E+00  0.10566000000E+00 0. -1.
     999900   -1    0    0    0    0 -0.00000000000E+00 -0.00000000000E+00 -0.74505805969E-08  0.93827000000E+00  0.93827000000E+00 0. -1.
     999902    2    1    2    0    0 -0.18273608269E-01  0.46692067752E-02  0.13201048192E-01  0.10209084031E+01  0.10206488003E+01 0.  0.
     999903    2    3    3    0    0  0.10201857150E+00  0.14090973931E-01 -0.73742178544E-01  0.12842977428E+00  0.21212108513E-01 0.  0.
         14    1    1    2    0    0  0.18273608269E-01 -0.46692067752E-02 -0.13201048192E-01  0.23021596913E-01  0.00000000000E+00 0.  1.
     999901    1    3    3    0    0 -0.12029217977E+00 -0.94217671558E-02  0.86943226736E-01  0.89247862881E+00  0.88000000000E+00 0.  1.
        -11    1    4    4    0    0  0.31502819872E-01 -0.39796426734E-02 -0.16278895061E-01  0.35686534731E-01  0.51100000000E-03 0.  1.
         11    1    4    4    0    0  0.70515751625E-01  0.18070616604E-01 -0.57463283482E-01  0.92743239545E-01  0.51100000000E-03 0. -1.
</event>
<event>
 8    1  0.1114686E+005  0.1043930E+01  0.7957747E-01            NaN
         13   -1    0    0    0    0  0.00000000000E+00  0.00000000000E+00  0.74505805969E-08  0.10566000000E+00  0.10566000000E+00 0. -1.
     999900   -1    0    0    0    0 -0.00000000000E+00 -0.00000000000E+00 -0.74505805969E-08  0.93827000000E+00  0.93827000000E+00 0.  1.
     999902    2    1    2    0    0  0.12666411641E-01 -0.70824116599E-02 -0.18920929981E-01  0.10200846623E+01  0.10198059218E+01 0.  0.
     999903    2    3    3    0    0  0.31023926454E-01 -0.59299180944E-01 -0.11353329969E+00  0.13328418313E+00  0.19899408554E-01 0.  0.
         14    1    1    2    0    0 -0.12666411641E-01  0.70824116599E-02  0.18920929981E-01  0.23845337702E-01  0.00000000000E+00 0. -1.
     999901    1    3    3    0    0 -0.18357514813E-01  0.52216769284E-01  0.94612369714E-01  0.88680047917E+00  0.88000000000E+00 0. -1.
        -11    1    4    4    0    0  0.36860929566E-03 -0.10003395454E-01 -0.79476209821E-02  0.12791778363E-01  0.51100000000E-03 0. -1.
         11    1    4    4    0    0  0.30655317158E-01 -0.49295785490E-01 -0.10558567871E+00  0.12049240477E+00  0.51100000000E-03 0.  1.
</event>
<event>
 8    1  0.1114686E+005  0.1043930E+01  0.7957747E-01            NaN
         13   -1    0    0    0    0  0.00000000000E+00  0.00000000000E+00  0.74505805969E-08  0.10566000000E+00  0.10566000000E+00 0. -1.
     999900   -1    0    0    0    0 -0.00000000000E+00 -0.00000000000E+00 -0.74505805969E-08  0.93827000000E+00  0.93827000000E+00 0. -1.
     999902    2    1    2    0    0 -0.19037925180E-01  0.69478751988E-02  0.10948958181E-01  0.10208953468E+01  0.10206354461E+01 0.  0.
     999903    2    3    3    0    0 -0.59521985256E-01  0.10665066524E+00  0.49368831549E-01  0.13350834430E+00  0.21678684071E-01 0.  0.
         14    1    1    2    0    0  0.19037925180E-01 -0.69478751988E-02 -0.10948958181E-01  0.23034653246E-01  0.00000000000E+00 0.  1.
     999901    1    3    3    0    0  0.40484060076E-01 -0.99702790041E-01 -0.38419873368E-01  0.88738700246E+00  0.88000000000E+00 0.  1.
        -11    1    4    4    0    0 -0.87406620531E-02  0.32996700601E-01  0.18753146700E-01  0.38950263874E-01  0.51100000000E-03 0. -1.
         11    1    4    4    0    0 -0.50781323203E-01  0.73653964639E-01  0.30615684850E-01  0.94558080421E-01  0.51100000000E-03 0.  1.
</event>
<event>
 8    1  0.1114686E+005  0.1043930E+01  0.7957747E-01            NaN
         13   -1    0    0    0    0  0.00000000000E+00  0.00000000000E+00  0.74505805969E-08  0.10566000000E+00  0.10566000000E+00 0. -1.
     999900   -1    0    0    0    0 -0.00000000000E+00 -0.00000000000E+00 -0.74505805969E-08  0.93827000000E+00  0.93827000000E+00 0.  1.
     999902    2    1    2    0    0  0.16517063803E-01  0.25133354689E-02 -0.17809577261E-01  0.10195105140E+01  0.10192180223E+01 0.  0.
     999903    2    3    3    0    0  0.59261364813E-01  0.85698879060E-01  0.75551174145E-01  0.12964359151E+00  0.15597232854E-01 0.  0.
         14    1    1    2    0    0 -0.16517063803E-01 -0.25133354689E-02  0.17809577261E-01  0.24419485951E-01  0.00000000000E+00 0. -1.
     999901    1    3    3    0    0 -0.42744301010E-01 -0.83185543591E-01 -0.93360751406E-01  0.88986692254E+00  0.88000000000E+00 0.  1.
        -11    1    4    4    0    0  0.24055815169E-01  0.48102689936E-01  0.36398512228E-01  0.64943543451E-01  0.51100000000E-03 0.  1.
         11    1    4    4    0    0  0.35205549644E-01  0.37596189123E-01  0.39152661916E-01  0.64700048056E-01  0.51100000000E-03 0. -1.
</event>
<event>
 8    1  0.1114686E+005  0.1043930E+01  0.7957747E-01            NaN
         13   -1    0    0    0    0  0.00000000000E+00  0.00000000000E+00  0.74505805969E-08  0.10566000000E+00  0.10566000000E+00 0.  1.
     999900   -1    0    0    0    0 -0.00000000000E+00 -0.00000000000E+00 -0.74505805969E-08  0.93827000000E+00  0.93827000000E+00 0.  1.
     999902    2    1    2    0    0  0.40831980536E-02  0.53886516211E-02  0.23019854833E-01  0.10199378390E+01  0.10196556142E+01 0.  0.
     999903    2    3    3    0    0 -0.30160458926E-02  0.78353155938E-01  0.10555722018E+00  0.13304064382E+00  0.20228015143E-01 0.  0.
         14    1    1    2    0    0 -0.40831980536E-02 -0.53886516211E-02 -0.23019854833E-01  0.23992160994E-01  0.00000000000E+00 0. -1.
     999901    1    3    3    0    0  0.70992439462E-02 -0.72964504317E-01 -0.82537365348E-01  0.88689719519E+00  0.88000000000E+00 0. -1.
        -11    1    4    4    0    0  0.17546312394E-02  0.29185537118E-01  0.24660921882E-01  0.38253058659E-01  0.51100000000E-03 0. -1.
         11    1    4    4    0    0 -0.47706771320E-02  0.49167618820E-01  0.80896298299E-01  0.94787585159E-01  0.51100000000E-03 0.  1.
</event>
<event>
 8    1  0.1114686E+005  0.1043930E+01  0.7957747E-01            NaN
         13   -1    0    0    0    0  0.00000000000E+00  0.00000000000E+00  0.74505805969E-08  0.10566000000E+00  0.10566000000E+00 0.  1.
     999900   -1    0    0    0    0 -0.00000000000E+00 -0.00000000000E+00 -0.74505805969E-08  0.93827000000E+00  0.93827000000E+00 0. -1.
     999902    2    1    2    0    0  0.15903674712E-01  0.15468206003E-01 -0.11960336125E-01  0.10187259942E+01  0.10184141640E+01 0.  0.
     999903    2    3    3    0    0  0.10537813881E+00 -0.89524223357E-02 -0.75596984160E-01  0.13156666819E+00  0.20253053111E-01 0.  0.
         14    1    1    2    0    0 -0.15903674712E-01 -0.15468206003E-01  0.11960336125E-01  0.25204005763E-01  0.00000000000E+00 0.  1.
     999901    1    3    3    0    0 -0.89474464099E-01  0.24420628338E-01  0.63636648035E-01  0.88715932604E+00  0.88000000000E+00 0. -1.
        -11    1    4    4    0    0  0.58334501235E-01  0.51367307280E-02 -0.40407041199E-01  0.71149772567E-01  0.51100000000E-03 0.  1.
         11    1    4    4    0    0  0.47043637576E-01 -0.14089153064E-01 -0.35189942961E-01  0.60416895625E-01  0.51100000000E-03 0. -1.
</event>
<event>
 8    1  0.1655342E+005  0.1043930E+01  0.7957747E-01            NaN
         13   -1    0    0    0    0  0.00000000000E+00  0.00000000000E+00  0.74505805969E-08  0.10566000000E+00  0.10566000000E+00 0. -1.
     999900   -1    0    0    0    0 -0.00000000000E+00 -0.00000000000E+00 -0.74505805969E-08  0.93827000000E+00  0.93827000000E+00 0. -1.
     999902    2    1    2    0    0 -0.13355834356E-01  0.10222168741E-01  0.16138797249E-01  0.10206205208E+01  0.10203543089E+01 0.  0.
     999903    2    3    3    0    0  0.28360231690E-01  0.10387148735E+00 -0.70936622408E-01  0.13040001228E+00  0.19456879965E-01 0.  0.
         14    1    1    2    0    0  0.13355834356E-01 -0.10222168741E-01 -0.16138797249E-01  0.23309479225E-01  0.00000000000E+00 0.  1.
     999901    1    3    3    0    0 -0.41716066046E-01 -0.93649318606E-01  0.87075419657E-01  0.89022050850E+00  0.88000000000E+00 0.  1.
        -11    1    4    4    0    0  0.11210387547E-01  0.45089348300E-01 -0.19353920713E-01  0.50334456261E-01  0.51100000000E-03 0.  1.
         11    1    4    4    0    0  0.17149844143E-01  0.58782139047E-01 -0.51582701695E-01  0.80065556016E-01  0.51100000000E-03 0. -1.
</event>
<event>
 8    1  0.1114686E+005  0.1043930E+01  0.7957747E-01            NaN
         13   -1    0    0    0    0  0.00000000000E+00  0.00000000000E+00  0.74505805969E-08  0.10566000000E+00  0.10566000000E+00 0.  1.
     999900   -1    0    0    0    0 -0.00000000000E+00 -0.00000000000E+00 -0.74505805969E-08  0.93827000000E+00  0.93827000000E+00 0.  1.
     999902    2    1    2    0    0 -0.57625128309E-02 -0.22620577113E-01 -0.68298445698E-02  0.10196083257E+01  0.10193182006E+01 0.  0.
     999903    2    3    3    0    0  0.10718342737E+00  0.12927511039E-01 -0.68689365211E-01  0.12952571592E+00  0.20081696796E-01 0.  0.
         14    1    1    2    0    0  0.57625128309E-02  0.22620577113E-01  0.68298445698E-02  0.24321674282E-01  0.00000000000E+00 0. -1.
     999901    1    3    3    0    0 -0.11294594020E+00 -0.35548088151E-01  0.61859520641E-01  0.89008260980E+00  0.88000000000E+00 0. -1.
        -11    1    4    4    0    0  0.61779217459E-01  0.56573817097E-02 -0.50794493558E-01  0.80181165959E-01  0.51100000000E-03 0.  1.
         11    1    4    4    0    0  0.45404209910E-01  0.72701293289E-02 -0.17894871653E-01  0.49344549957E-01  0.51100000000E-03 0. -1.
</event>
<event>
 8    1  0.1295923E+005  0.1043930E+01  0.7957747E-01            NaN
         13   -1    0    0    0    0  0.00000000000E+00  0.00000000000E+00  0.74505805969E-08  0.10566000000E+00  0.10566000000E+00 0.  1.
     999900   -1    0    0    0    0 -0.00000000000E+00 -0.00000000000E+00 -0.74505805969E-08  0.93827000000E+00  0.93827000000E+00 0.  1.
     999902    2    1    2    0    0 -0.15649350858E-01  0.31021814746E-01  0.52166148671E-02  0.10087949997E+01  0.10081829612E+01 0.  0.
     999903    2    3    3    0    0 -0.96685031199E-01 -0.19228558694E-01 -0.66332423602E-01  0.12075719288E+00  0.21554036345E-01 0.  0.
         14    1    1    2    0    0  0.15649350858E-01 -0.31021814746E-01 -0.52166148671E-02  0.35135000258E-01  0.00000000000E+00 0. -1.
     999901    1    3    3    0    0  0.81035680341E-01  0.50250373440E-01  0.71549038469E-01  0.88803780687E+00  0.88000000000E+00 0. -1.
        -11    1    4    4    0    0 -0.36607396325E-01 -0.14119392690E-01 -0.16636583323E-01  0.42620367681E-01  0.51100000000E-03 0.  1.
         11    1    4    4    0    0 -0.60077634875E-01 -0.51091660038E-02 -0.49695840279E-01  0.78136825194E-01  0.51100000000E-03 0. -1.
</event>
<event>
 8    1  0.1114686E+005  0.1043930E+01  0.7957747E-01            NaN
         13   -1    0    0    0    0  0.00000000000E+00  0.00000000000E+00  0.74505805969E-08  0.10566000000E+00  0.10566000000E+00 0.  1.
     999900   -1    0    0    0    0 -0.00000000000E+00 -0.00000000000E+00 -0.74505805969E-08  0.93827000000E+00  0.93827000000E+00 0.  1.
     999902    2    1    2    0    0 -0.10724950796E-01 -0.79709928816E-02 -0.18778438012E-01  0.10208824181E+01  0.10206222223E+01 0.  0.
     999903    2    3    3    0    0 -0.12001937276E+00  0.81736100882E-02  0.49620768217E-01  0.13134075506E+00  0.17796504219E-01 0.  0.
         14    1    1    2    0    0  0.10724950796E-01  0.79709928816E-02  0.18778438012E-01  0.23047581896E-01  0.00000000000E+00 0.  1.
     999901    1    3    3    0    0  0.10929442196E+00 -0.16144602970E-01 -0.68399206229E-01  0.88954166304E+00  0.88000000000E+00 0. -1.
        -11    1    4    4    0    0 -0.56454255058E-01  0.11041720363E-01  0.17940928070E-01  0.60258945591E-01  0.51100000000E-03 0.  1.
         11    1    4    4    0    0 -0.63565117700E-01 -0.28681102748E-02  0.31679840147E-01  0.71081809470E-01  0.51100000000E-03 0. -1.
</event>
<event>
 8    1  0.1114686E+005  0.1043930E+01  0.7957747E-01            NaN
         13   -1    0    0    0    0  0.00000000000E+00  0.00000000000E+00  0.74505805969E-08  0.10566000000E+00  0.10566000000E+00 0. -1.
     999900   -1    0    0    0    0 -0.00000000000E+00 -0.00000000000E+00 -0.74505805969E-08  0.93827000000E+00  0.93827000000E+00 0. -1.
     999902    2    1    2    0    0  0.23640429057E-02  0.20732058897E-02  0.23565158539E-01  0.10201559894E+01  0.10198789336E+01 0.  0.
     999903    2    3    3    0    0  0.58604129815E-01  0.51182653552E-01  0.10609461841E+00  0.13314652107E+00  0.20440644836E-01 0.  0.
         14    1    1    2    0    0 -0.23640429057E-02 -0.20732058897E-02 -0.23565158539E-01  0.23774010568E-01  0.00000000000E+00 0.  1.
     999901    1    3    3    0    0 -0.56240086909E-01 -0.49109447663E-01 -0.82529459867E-01  0.88700946837E+00  0.88000000000E+00 0. -1.
        -11    1    4    4    0    0  0.33148103413E-01  0.34960175330E-01  0.79258034556E-01  0.92752939476E-01  0.51100000000E-03 0.  1.
         11    1    4    4    0    0  0.25456026402E-01  0.16222478223E-01  0.26836583850E-01  0.40393581589E-01  0.51100000000E-03 0. -1.
</event>
<event>
 8    1  0.1114686E+005  0.1043930E+01  0.7957747E-01            NaN
         13   -1    0    0    0    0  0.00000000000E+00  0.00000000000E+00  0.74505805969E-08  0.10566000000E+00  0.10566000000E+00 0. -1.
     999900   -1    0    0    0    0 -0.00000000000E+00 -0.00000000000E+00 -0.74505805969E-08  0.93827000000E+00  0.93827000000E+00 0.  1.
     999902    2    1    2    0    0 -0.12759956061E-01  0.12984633174E-01 -0.96753729328E-02  0.10233137438E+01  0.10231060494E+01 0.  0.
     999903    2    3    3    0    0  0.11927638049E+00 -0.24273150635E-01  0.44692052268E-01  0.13102592392E+00  0.18824782069E-01 0.  0.
         14    1    1    2    0    0  0.12759956061E-01 -0.12984633174E-01  0.96753729328E-02  0.20616256176E-01  0.00000000000E+00 0. -1.
     999901    1    3    3    0    0 -0.13203633655E+00  0.37257783808E-01 -0.54367425201E-01  0.89228781990E+00  0.88000000000E+00 0.  1.
        -11    1    4    4    0    0  0.30340339017E-02 -0.15653354245E-02  0.50698744045E-02  0.61335458085E-02  0.51100000000E-03 0.  1.
         11    1    4    4    0    0  0.11624234658E+00 -0.22707815210E-01  0.39622177863E-01  0.12489237811E+00  0.51100000000E-03 0. -1.
</event>
<event>
 8    1  0.1114686E+005  0.1043930E+01  0.7957747E-01            NaN
         13   -1    0    0    0    0  0.00000000000E+00  0.00000000000E+00  0.74505805969E-08  0.10566000000E+00  0.10566000000E+00 0.  1.
     999900   -1    0    0    0    0 -0.00000000000E+00 -0.00000000000E+00 -0.74505805969E-08  0.93827000000E+00  0.93827000000E+00 0.  1.
     999902    2    1    2    0    0  0.22328308986E-01 -0.14540074898E-02  0.72916389319E-02  0.10203962897E+01  0.10201248711E+01 0.  0.
     999903    2    3    3    0    0  0.34253606793E-01  0.90970461124E-01 -0.85141069710E-01  0.13066132879E+00  0.19350625668E-01 0.  0.
         14    1    1    2    0    0 -0.22328308986E-01  0.14540074898E-02 -0.72916389319E-02  0.23533710253E-01  0.00000000000E+00 0. -1.
     999901    1    3    3    0    0 -0.11925297807E-01 -0.92424468614E-01  0.92432708642E-01  0.88973496096E+00  0.88000000000E+00 0. -1.
        -11    1    4    4    0    0  0.52001594575E-02  0.89100661329E-02 -0.17886439100E-01  0.20654703134E-01  0.51100000000E-03 0.  1.
         11    1    4    4    0    0  0.29053447335E-01  0.82060394991E-01 -0.67254630610E-01  0.11000662565E+00  0.51100000000E-03 0. -1.
</event>
<event>
 8    1  0.1114686E+005  0.1043930E+01  0.7957747E-01            NaN
         13   -1    0    0    0    0  0.00000000000E+00  0.00000000000E+00  0.74505805969E-08  0.10566000000E+00  0.10566000000E+00 0.  1.
     999900   -1    0    0    0    0 -0.00000000000E+00 -0.00000000000E+00 -0.74505805969E-08  0.93827000000E+00  0.93827000000E+00 0. -1.
     999902    2    1    2    0    0 -0.18713980356E-01 -0.68753090448E-02  0.68532913592E-02  0.10228480044E+01  0.10226307201E+01 0.  0.
     999903    2    3    3    0    0 -0.13279856441E+00 -0.68546797095E-03 -0.16663338585E-01  0.13515062449E+00  0.18764217831E-01 0.  0.
         14    1    1    2    0    0  0.18713980356E-01  0.68753090448E-02 -0.68532913592E-02  0.21081995581E-01  0.00000000000E+00 0.  1.
     999901    1    3    3    0    0  0.11408458406E+00 -0.61898410739E-02  0.23516629944E-01  0.88769737993E+00  0.88000000000E+00 0. -1.
        -11    1    4    4    0    0 -0.42009796090E-01 -0.29924836467E-02  0.30027849158E-02  0.42226244969E-01  0.51100000000E-03 0. -1.
         11    1    4    4    0    0 -0.90788768321E-01  0.23070156758E-02 -0.19666123501E-01  0.92924379519E-01  0.51100000000E-03 0.  1.
</event>
<event>
 8    1  0.1114686E+005  0.1043930E+01  0.7957747E-01            NaN
         13   -1    0    0    0    0  0.00000000000E+00  0.00000000000E+00  0.74505805969E-08  0.10566000000E+00  0.10566000000E+00 0.  1.
     999900   -1    0    0    0    0 -0.00000000000E+00 -0.00000000000E+00 -0.74505805969E-08  0.93827000000E+00  0.93827000000E+00 0.  1.
     999902    2    1    2    0    0  0.14568245002E-01  0.17730576620E-01  0.25092037349E-01  0.10099268024E+01  0.10093542137E+01 0.  0.
     999903    2    3    3    0    0 -0.51721567350E-01 -0.98585419539E-01  0.39174176879E-01  0.11968972338E+00  0.19920047026E-01 0.  0.
         14    1    1    2    0    0 -0.14568245002E-01 -0.17730576620E-01 -0.25092037349E-01  0.34003197614E-01  0.00000000000E+00 0.  1.
     999901    1    3    3    0    0  0.66289812352E-01  0.11631599616E+00 -0.14082139531E-01  0.89023707901E+00  0.88000000000E+00 0. -1.
        -11    1    4    4    0    0 -0.42467862339E-01 -0.62297864205E-01  0.29871019764E-01  0.81099211827E-01  0.51100000000E-03 0. -1.
         11    1    4    4    0    0 -0.92537050108E-02 -0.36287555335E-01  0.93031571149E-02  0.38590511553E-01  0.51100000000E-03 0.  1.
</event>
<event>
 8    1  0.1114686E+005  0.1043930E+01  0.7957747E-01            NaN
         13   -1    0    0    0    0  0.00000000000E+00  0.00000000000E+00  0.74505805969E-08  0.10566000000E+00  0.10566000000E+00 0. -1.
     999900   -1    0    0    0    0 -0.00000000000E+00 -0.00000000000E+00 -0.74505805969E-08  0.93827000000E+00  0.93827000000E+00 0.  1.
     999902    2    1    2    0    0 -0.68872765743E-02 -0.18548393053E-02  0.22503327652E-01  0.10203233322E+01  0.10200502083E+01 0.  0.
     999903    2    3    3    0    0 -0.49008639528E-01 -0.45971408163E-01  0.11359712012E+00  0.13352089658E+00  0.20206607982E-01 0.  0.
         14    1    1    2    0    0  0.68872765743E-02  0.18548393053E-02 -0.22503327652E-01  0.23606667763E-01  0.00000000000E+00 0.  1.
     999901    1    3    3    0    0  0.42121362954E-01  0.44116568857E-01 -0.91093792470E-01  0.88680243566E+00  0.88000000000E+00 0.  1.
        -11    1    4    4    0    0 -0.35082068861E-02 -0.14286371509E-01  0.23769563799E-01  0.27958204710E-01  0.51100000000E-03 0. -1.
         11    1    4    4    0    0 -0.45500432642E-01 -0.31685036654E-01  0.89827556323E-01  0.10556269187E+00  0.51100000000E-03 0.  1.
</event>
<event>
 8    1  0.1114686E+005  0.1043930E+01  0.7957747E-01            NaN
         13   -1    0    0    0    0  0.00000000000E+00  0.00000000000E+00  0.74505805969E-08  0.10566000000E+00  0.10566000000E+00 0.  1.
     999900   -1    0    0    0    0 -0.00000000000E+00 -0.00000000000E+00 -0.74505805969E-08  0.93827000000E+00  0.93827000000E+00 0. -1.
     999902    2    1    2    0    0  0.19515309737E-01 -0.63418312420E-02 -0.11139944346E-01  0.10205812421E+01  0.10203141218E+01 0.  0.
     999903    2    3    3    0    0 -0.44319276302E-01 -0.11985989724E+00  0.19375690457E-01  0.13047315331E+00  0.17811039696E-01 0.  0.
         14    1    1    2    0    0 -0.19515309737E-01  0.63418312420E-02  0.11139944346E-01  0.23348757947E-01  0.00000000000E+00 0.  1.
     999901    1    3    3    0    0  0.63834586039E-01  0.11351806600E+00 -0.30515634803E-01  0.89010808875E+00  0.88000000000E+00 0. -1.
        -11    1    4    4    0    0 -0.37893056482E-01 -0.99818140077E-01  0.94193266686E-02  0.10718455884E+00  0.51100000000E-03 0. -1.
         11    1    4    4    0    0 -0.64262198198E-02 -0.20041757162E-01  0.99563637885E-02  0.23288594466E-01  0.51100000000E-03 0.  1.
</event>
<event>
 8    1  0.1114686E+005  0.1043930E+01  0.7957747E-01            NaN
         13   -1    0    0    0    0  0.00000000000E+00  0.00000000000E+00  0.74505805969E-08  0.10566000000E+00  0.10566000000E+00 0. -1.
     999900   -1    0    0    0    0 -0.00000000000E+00 -0.00000000000E+00 -0.74505805969E-08  0.93827000000E+00  0.93827000000E+00 0. -1.
     999902    2    1    2    0    0 -0.21355628501E-01  0.40274610321E-02  0.12356249091E-01  0.10189307960E+01  0.10186240753E+01 0.  0.
     999903    2    3    3    0    0  0.99312785309E-01  0.72737353130E-01 -0.24125009690E-01  0.12729589444E+00  0.21644324497E-01 0.  0.
         14    1    1    2    0    0  0.21355628501E-01 -0.40274610321E-02 -0.12356249091E-01  0.24999204040E-01  0.00000000000E+00 0.  1.
     999901    1    3    3    0    0 -0.12066841381E+00 -0.68709892098E-01  0.36481258781E-01  0.89163490152E+00  0.88000000000E+00 0. -1.
        -11    1    4    4    0    0  0.25565429719E-01  0.31163477605E-01 -0.67898024218E-02  0.40879286578E-01  0.51100000000E-03 0. -1.
         11    1    4    4    0    0  0.73747355590E-01  0.41573875525E-01 -0.17335207268E-01  0.86416607864E-01  0.51100000000E-03 0.  1.
</event>
<event>
 8    1  0.1114686E+005  0.1043930E+01  0.7957747E-01            NaN
         13   -1    0    0    0    0  0.00000000000E+00  0.00000000000E+00  0.74505805969E-08  0.10566000000E+00  0.10566000000E+00 0.  1.
     999900   -1    0    0    0    0 -0.00000000000E+00 -0.00000000000E+00 -0.74505805969E-08  0.93827000000E+00  0.93827000000E+00 0. -1.
     999902    2    1    2    0    0  0.17678813653E-02  0.42245144496E-02  0.23766682918E-01  0.10197261337E+01  0.10194388459E+01 0.  0.
     999903    2    3    3    0    0 -0.37323848780E-01  0.53747987270E-01  0.11386546097E+00  0.13287861156E+00  0.20235275732E-01 0.  0.
         14    1    1    2    0    0 -0.17678813653E-02 -0.42245144496E-02 -0.23766682918E-01  0.24203866299E-01  0.00000000000E+00 0. -1.
     999901    1    3    3    0    0  0.39091730145E-01 -0.49523472821E-01 -0.90098778053E-01  0.88684752214E+00  0.88000000000E+00 0. -1.
        -11    1    4    4    0    0 -0.15870781683E-01  0.36621960741E-01  0.55344119097E-01  0.68236957430E-01  0.51100000000E-03 0. -1.
         11    1    4    4    0    0 -0.21453067097E-01  0.17126026530E-01  0.58521341874E-01  0.64641654127E-01  0.51100000000E-03 0.  1.
</event>
<event>
 8    1  0.1114686E+005  0.1043930E+01  0.7957747E-01            NaN
         13   -1    0    0    0    0  0.00000000000E+00  0.00000000000E+00  0.74505805969E-08  0.10566000000E+00  0.10566000000E+00 0.  1.
     999900   -1    0    0    0    0 -0.00000000000E+00 -0.00000000000E+00 -0.74505805969E-08  0.93827000000E+00  0.93827000000E+00 0. -1.
     999902    2    1    2    0    0  0.13767338673E-01 -0.15887863958E-01  0.11088378541E-01  0.10201620389E+01  0.10198851257E+01 0.  0.
     999903    2    3    3    0    0 -0.87935015000E-01 -0.33417162448E-01  0.89214901091E-01  0.13069343432E+00  0.16498532888E-01 0.  0.
         14    1    1    2    0    0 -0.13767338673E-01  0.15887863958E-01 -0.11088378541E-01  0.23767961081E-01  0.00000000000E+00 0. -1.
     999901    1    3    3    0    0  0.10170235367E+00  0.17529298489E-01 -0.78126522550E-01  0.88946860460E+00  0.88000000000E+00 0. -1.
        -11    1    4    4    0    0 -0.77077088273E-01 -0.23076864861E-01  0.73710592244E-01  0.10911888818E+00  0.51100000000E-03 0.  1.
         11    1    4    4    0    0 -0.10857926727E-01 -0.10340297586E-01  0.15504308847E-01  0.21574546133E-01  0.51100000000E-03 0. -1.
</event>
<event>
 8    1  0.1114686E+005  0.1043930E+01  0.7957747E-01            NaN
         13   -1    0    0    0    0  0.00000000000E+00  0.00000000000E+00  0.74505805969E-08  0.10566000000E+00  0.10566000000E+00 0. -1.
     999900   -1    0    0    0    0 -0.00000000000E+00 -0.00000000000E+00 -0.74505805969E-08  0.93827000000E+00  0.93827000000E+00 0. -1.
     999902    2    1    2    0    0 -0.35050857843E-02 -0.18819939799E-01 -0.13091237410E-01  0.10207382718E+01  0.10204747734E+01 0.  0.
     999903    2    3    3    0    0 -0.19046604864E-02 -0.19334622420E-01  0.12662148097E+00  0.12971500053E+00  0.20384468694E-01 0.  0.
         14    1    1    2    0    0  0.35050857843E-02  0.18819939799E-01  0.13091237410E-01  0.23191728210E-01  0.00000000000E+00 0. -1.
     999901    1    3    3    0    0 -0.16004252979E-02  0.51468262048E-03 -0.13971271838E+00  0.89102327126E+00  0.88000000000E+00 0. -1.
        -11    1    4    4    0    0  0.29925152395E-03 -0.18922090231E-01  0.57120284893E-01  0.60175768524E-01  0.51100000000E-03 0.  1.
         11    1    4    4    0    0 -0.22039120104E-02 -0.41253218886E-03  0.69501196072E-01  0.69539232002E-01  0.51100000000E-03 0. -1.
</event>
<event>
 8    1  0.1114686E+005  0.1043930E+01  0.7957747E-01            NaN
         13   -1    0    0    0    0  0.00000000000E+00  0.00000000000E+00  0.74505805969E-08  0.10566000000E+00  0.10566000000E+00 0. -1.
     999900   -1    0    0    0    0 -0.00000000000E+00 -0.00000000000E+00 -0.74505805969E-08  0.93827000000E+00  0.93827000000E+00 0. -1.
     999902    2    1    2    0    0 -0.26715634642E-02 -0.20629405882E-01 -0.91064613499E-02  0.10212223520E+01  0.10209698600E+01 0.  0.
     999903    2    3    3    0    0 -0.11395917928E+00  0.58046882091E-01 -0.17349773140E-01  0.13069282196E+00  0.20578241468E-01 0.  0.
         14    1    1    2    0    0  0.26715634642E-02  0.20629405882E-01  0.91064613499E-02  0.22707647978E-01  0.00000000000E+00 0.  1.
     999901    1    3    3    0    0  0.11128761581E+00 -0.78676287973E-01  0.82433117896E-02  0.89052953006E+00  0.88000000000E+00 0.  1.
        -11    1    4    4    0    0 -0.55310865880E-01  0.28873410842E-01  0.18768206314E-02  0.62423948247E-01  0.51100000000E-03 0.  1.
         11    1    4    4    0    0 -0.58648313397E-01  0.29173471249E-01 -0.19226593771E-01  0.68268873713E-01  0.51100000000E-03 0. -1.
</event>
<event>
 8    1  0.1114686E+005  0.1043930E+01  0.7957747E-01            NaN
         13   -1    0    0    0    0  0.00000000000E+00  0.00000000000E+00  0.74505805969E-08  0.10566000000E+00  0.10566000000E+00 0. -1.
     999900   -1    0    0    0    0 -0.00000000000E+00 -0.00000000000E+00 -0.74505805969E-08  0.93827000000E+00  0.93827000000E+00 0. -1.
     999902    2    1    2    0    0  0.51015359522E-03 -0.19948265823E-01 -0.13863331204E-01  0.10196321499E+01  0.10193425997E+01 0.  0.
     999903    2    3    3    0    0 -0.11883049893E-01 -0.12822883986E+00 -0.25509087232E-01  0.13283234285E+00  0.20245382880E-01 0.  0.
         14    1    1    2    0    0 -0.51015359522E-03  0.19948265823E-01  0.13863331204E-01  0.24297850072E-01  0.00000000000E+00 0. -1.
     999901    1    3    3    0    0  0.12393203489E-01  0.10828057404E+00  0.11645756028E-01  0.88679980708E+00  0.88000000000E+00 0.  1.
        -11    1    4    4    0    0  0.10364783991E-02 -0.89579881559E-01 -0.16500891505E-01  0.91094291858E-01  0.51100000000E-03 0. -1.
         11    1    4    4    0    0 -0.12919528292E-01 -0.38648958301E-01 -0.90081957275E-02  0.41738050988E-01  0.51100000000E-03 0.  1.
</event>
<event>
 8    1  0.1114686E+005  0.1043930E+01  0.7957747E-01            NaN
         13   -1    0    0    0    0  0.00000000000E+00  0.00000000000E+00  0.74505805969E-08  0.10566000000E+00  0.10566000000E+00 0. -1.
     999900   -1    0    0    0    0 -0.00000000000E+00 -0.00000000000E+00 -0.74505805969E-08  0.93827000000E+00  0.93827000000E+00 0. -1.
     999902    2    1    2    0    0 -0.14108900490E-01  0.16803601472E-01  0.94166578705E-02  0.10200533264E+01  0.10197738442E+01 0.  0.
     999903    2    3    3    0    0  0.96927066173E-01 -0.25070186838E-01  0.79383526464E-01  0.12933577145E+00  0.20065569467E-01 0.  0.
         14    1    1    2    0    0  0.14108900490E-01 -0.16803601472E-01 -0.94166578705E-02  0.23876673573E-01  0.00000000000E+00 0. -1.
     999901    1    3    3    0    0 -0.11103596666E+00  0.41873788310E-01 -0.69966868594E-01  0.89071755498E+00  0.88000000000E+00 0.  1.
        -11    1    4    4    0    0  0.49429464713E-01 -0.40360728355E-02  0.45555989035E-01  0.67343679167E-01  0.51100000000E-03 0. -1.
         11    1    4    4    0    0  0.47497601460E-01 -0.21034114003E-01  0.33827537429E-01  0.61992092285E-01  0.51100000000E-03 0.  1.
</event>
<event>
 8    1  0.1114686E+005  0.1043930E+01  0.7957747E-01            NaN
         13   -1    0    0    0    0  0.00000000000E+00  0.00000000000E+00  0.74505805969E-08  0.10566000000E+00  0.10566000000E+00 0. -1.
     999900   -1    0    0    0    0 -0.00000000000E+00 -0.00000000000E+00 -0.74505805969E-08  0.93827000000E+00  0.93827000000E+00 0.  1.
     999902    2    1    2    0    0  0.11999309421E-01  0.23223947401E-01  0.83034139696E-02  0.10165022432E+01  0.10161321413E+01 0.  0.
     999903    2    3    3    0    0 -0.69026465566E-01  0.10719077075E+00  0.11937744770E-01  0.12879237393E+00  0.13800418503E-01 0.  0.
         14    1    1    2    0    0 -0.11999309421E-01 -0.23223947401E-01 -0.83034139696E-02  0.27427756799E-01  0.00000000000E+00 0.  1.
     999901    1    3    3    0    0  0.81025774988E-01 -0.83966823348E-01 -0.36343308004E-02  0.88770986927E+00  0.88000000000E+00 0.  1.
        -11    1    4    4    0    0 -0.29135779648E-01  0.33832329225E-01  0.19710030195E-02  0.44695258477E-01  0.51100000000E-03 0. -1.
         11    1    4    4    0    0 -0.39890685919E-01  0.73358441524E-01  0.99667417505E-02  0.84097115456E-01  0.51100000000E-03 0.  1.
</event>
<event>
 8    1  0.1114686E+005  0.1043930E+01  0.7957747E-01            NaN
         13   -1    0    0    0    0  0.00000000000E+00  0.00000000000E+00  0.74505805969E-08  0.10566000000E+00  0.10566000000E+00 0.  1.
     999900   -1    0    0    0    0 -0.00000000000E+00 -0.00000000000E+00 -0.74505805969E-08  0.93827000000E+00  0.93827000000E+00 0.  1.
     999902    2    1    2    0    0  0.16038168890E-01  0.12751268145E-01 -0.11475799258E-01  0.10204457144E+01  0.10201754479E+01 0.  0.
     999903    2    3    3    0    0  0.38913722948E-01  0.69599214951E-01 -0.10507689891E+00  0.13336277248E+00  0.19650593959E-01 0.  0.
         14    1    1    2    0    0 -0.16038168890E-01 -0.12751268145E-01  0.11475799258E-01  0.23484285582E-01  0.00000000000E+00 0.  1.
     999901    1    3    3    0    0 -0.22875554058E-01 -0.56847946806E-01  0.93601099649E-01  0.88708294194E+00  0.88000000000E+00 0. -1.
        -11    1    4    4    0    0  0.35213782225E-01  0.52761684253E-01 -0.71280114117E-01  0.95419712708E-01  0.51100000000E-03 0. -1.
         11    1    4    4    0    0  0.36999407233E-02  0.16837530698E-01 -0.33796784790E-01  0.37943059768E-01  0.51100000000E-03 0.  1.
</event>
<event>
 8    1  0.1114686E+005  0.1043930E+01  0.7957747E-01            NaN
         13   -1    0    0    0    0  0.00000000000E+00  0.00000000000E+00  0.74505805969E-08  0.10566000000E+00  0.10566000000E+00 0.  1.
     999900   -1    0    0    0    0 -0.00000000000E+00 -0.00000000000E+00 -0.74505805969E-08  0.93827000000E+00  0.93827000000E+00 0.  1.
     999902    2    1    2    0    0 -0.17764959700E-01  0.98569587744E-02 -0.10770954571E-01  0.10209350681E+01  0.10206760732E+01 0.  0.
     999903    2    3    3    0    0  0.13650527806E-01 -0.96484660878E-01 -0.85085820763E-01  0.13086868169E+00  0.19783535049E-01 0.  0.
         14    1    1    2    0    0  0.17764959700E-01 -0.98569587744E-02  0.10770954571E-01  0.22994931871E-01  0.00000000000E+00 0. -1.
     999901    1    3    3    0    0 -0.31415487505E-01  0.10634161965E+00  0.74314866192E-01  0.89006638644E+00  0.88000000000E+00 0. -1.
        -11    1    4    4    0    0 -0.25654753664E-02 -0.40397141959E-01 -0.41776378500E-01  0.58172482016E-01  0.51100000000E-03 0.  1.
         11    1    4    4    0    0  0.16216003172E-01 -0.56087518919E-01 -0.43309442263E-01  0.72696199677E-01  0.51100000000E-03 0. -1.
</event>
<event>
 8    1  0.1114686E+005  0.1043930E+01  0.7957747E-01            NaN
         13   -1    0    0    0    0  0.00000000000E+00  0.00000000000E+00  0.74505805969E-08  0.10566000000E+00  0.10566000000E+00 0. -1.
     999900   -1    0    0    0    0 -0.00000000000E+00 -0.00000000000E+00 -0.74505805969E-08  0.93827000000E+00  0.93827000000E+00 0. -1.
     999902    2    1    2    0    0 -0.10722913364E-02 -0.17918456378E-01 -0.15806861548E-01  0.10200118529E+01  0.10197313873E+01 0.  0.
     999903    2    3    3    0    0 -0.97680332216E-01  0.37476646207E-01  0.72002891650E-01  0.12865766759E+00  0.20553167897E-01 0.  0.
         14    1    1    2    0    0  0.10722913364E-02  0.17918456378E-01  0.15806861548E-01  0.23918147079E-01  0.00000000000E+00 0. -1.
     999901    1    3    3    0    0  0.96608040880E-01 -0.55395102585E-01 -0.87809753198E-01  0.89135418533E+00  0.88000000000E+00 0. -1.
        -11    1    4    4    0    0 -0.59287514935E-01  0.12454896336E-01  0.44962067039E-01  0.75445228234E-01  0.51100000000E-03 0.  1.
         11    1    4    4    0    0 -0.38392817281E-01  0.25021749871E-01  0.27040824611E-01  0.53212439354E-01  0.51100000000E-03 0. -1.
</event>
<event>
 8    1  0.1114686E+005  0.1043930E+01  0.7957747E-01            NaN
         13   -1    0    0    0    0  0.00000000000E+00  0.00000000000E+00  0.74505805969E-08  0.10566000000E+00  0.10566000000E+00 0. -1.
     999900   -1    0    0    0    0 -0.00000000000E+00 -0.00000000000E+00 -0.74505805969E-08  0.93827000000E+00  0.93827000000E+00 0. -1.
     999902    2    1    2    0    0 -0.34792853909E-02 -0.16642418832E-01  0.16843130443E-01  0.10199974578E+01  0.10197166506E+01 0.  0.
     999903    2    3    3    0    0 -0.33942675235E-01  0.89495035067E-01 -0.81905501151E-01  0.12761611027E+00  0.20393478796E-01 0.  0.
         14    1    1    2    0    0  0.34792853909E-02  0.16642418832E-01 -0.16843130443E-01  0.23932542166E-01  0.00000000000E+00 0.  1.
     999901    1    3    3    0    0  0.30463389844E-01 -0.10613745390E+00  0.98748631594E-01  0.89238134757E+00  0.88000000000E+00 0. -1.
        -11    1    4    4    0    0 -0.95362195966E-02  0.37575114493E-01 -0.45003978960E-01  0.59400740370E-01  0.51100000000E-03 0. -1.
         11    1    4    4    0    0 -0.24406455638E-01  0.51919920574E-01 -0.36901522192E-01  0.68215369898E-01  0.51100000000E-03 0.  1.
</event>
<event>
 8    1  0.1114686E+005  0.1043930E+01  0.7957747E-01            NaN
         13   -1    0    0    0    0  0.00000000000E+00  0.00000000000E+00  0.74505805969E-08  0.10566000000E+00  0.10566000000E+00 0. -1.
     999900   -1    0    0    0    0 -0.00000000000E+00 -0.00000000000E+00 -0.74505805969E-08  0.93827000000E+00  0.93827000000E+00 0.  1.
     999902    2    1    2    0    0 -0.56365418264E-02 -0.18957511902E-01 -0.13425913488E-01  0.10200257532E+01  0.10197456174E+01 0.  0.
     999903    2    3    3    0    0  0.90954593023E-02 -0.13048325938E+00 -0.12053811617E-01  0.13286347558E+00  0.19969987733E-01 0.  0.
         14    1    1    2    0    0  0.56365418264E-02  0.18957511902E-01  0.13425913488E-01  0.23904246783E-01  0.00000000000E+00 0. -1.
     999901    1    3    3    0    0 -0.14732001129E-01  0.11152574747E+00 -0.13721018707E-02  0.88716227764E+00  0.88000000000E+00 0.  1.
        -11    1    4    4    0    0 -0.58352011928E-02 -0.23841611041E-01 -0.40613032679E-02  0.24884278073E-01  0.51100000000E-03 0.  1.
         11    1    4    4    0    0  0.14930660495E-01 -0.10664164834E+00 -0.79925083494E-02  0.10797919750E+00  0.51100000000E-03 0. -1.
</event>
<event>
 8    1  0.1114686E+005  0.1043930E+01  0.7957747E-01            NaN
         13   -1    0    0    0    0  0.00000000000E+00  0.00000000000E+00  0.74505805969E-08  0.10566000000E+00  0.10566000000E+00 0.  1.
     999900   -1    0    0    0    0 -0.00000000000E+00 -0.00000000000E+00 -0.74505805969E-08  0.93827000000E+00  0.93827000000E+00 0. -1.
     999902    2    1    2    0    0 -0.96606441559E-03 -0.10945650765E-01  0.20551935900E-01  0.10206250087E+01  0.10203589004E+01 0.  0.
     999903    2    3    3    0    0  0.62291333508E-02 -0.89949587512E-01 -0.91513621282E-01  0.12997800678E+00  0.19743580476E-01 0.  0.
         14    1    1    2    0    0  0.96606441559E-03  0.10945650765E-01 -0.20551935900E-01  0.23304991319E-01  0.00000000000E+00 0. -1.
     999901    1    3    3    0    0 -0.71951977664E-02  0.79003936747E-01  0.11206555718E+00  0.89064700190E+00  0.88000000000E+00 0.  1.
        -11    1    4    4    0    0  0.12612152366E-01 -0.66324691016E-01 -0.62321088768E-01  0.91881501141E-01  0.51100000000E-03 0.  1.
         11    1    4    4    0    0 -0.63830190152E-02 -0.23624896495E-01 -0.29192532514E-01  0.38096505637E-01  0.51100000000E-03 0. -1.
</event>
<event>
 8    1  0.1114686E+005  0.1043930E+01  0.7957747E-01            NaN
         13   -1    0    0    0    0  0.00000000000E+00  0.00000000000E+00  0.74505805969E-08  0.10566000000E+00  0.10566000000E+00 0. -1.
     999900   -1    0    0    0    0 -0.00000000000E+00 -0.00000000000E+00 -0.74505805969E-08  0.93827000000E+00  0.93827000000E+00 0. -1.
     999902    2    1    2    0    0  0.16135029530E-02  0.15856072465E-01 -0.17844732260E-01  0.10200040121E+01  0.10197233605E+01 0.  0.
     999903    2    3    3    0    0 -0.68557799564E-01  0.89388683158E-01  0.62775693736E-01  0.13049251158E+00  0.19924841204E-01 0.  0.
         14    1    1    2    0    0 -0.16135029530E-02 -0.15856072465E-01  0.17844732260E-01  0.23925987863E-01  0.00000000000E+00 0.  1.
     999901    1    3    3    0    0  0.70171302517E-01 -0.73532610694E-01 -0.80620425996E-01  0.88951150056E+00  0.88000000000E+00 0. -1.
        -11    1    4    4    0    0 -0.24428274704E-01  0.19254724938E-01  0.12212416045E-01  0.33419893239E-01  0.51100000000E-03 0. -1.
         11    1    4    4    0    0 -0.44129524860E-01  0.70133958220E-01  0.50563277692E-01  0.97072618343E-01  0.51100000000E-03 0.  1.
</event>
<event>
 8    1  0.1114686E+005  0.1043930E+01  0.7957747E-01            NaN
         13   -1    0    0    0    0  0.00000000000E+00  0.00000000000E+00  0.74505805969E-08  0.10566000000E+00  0.10566000000E+00 0.  1.
     999900   -1    0    0    0    0 -0.00000000000E+00 -0.00000000000E+00 -0.74505805969E-08  0.93827000000E+00  0.93827000000E+00 0.  1.
     999902    2    1    2    0    0  0.17375654152E-01 -0.14209785341E-01  0.60948598235E-02  0.10206710518E+01  0.10204060061E+01 0.  0.
     999903    2    3    3    0    0 -0.11719356765E+00  0.27020692987E-01  0.41562881657E-01  0.12878159204E+00  0.19818556137E-01 0.  0.
         14    1    1    2    0    0 -0.17375654152E-01  0.14209785341E-01 -0.60948598235E-02  0.23258948234E-01  0.00000000000E+00 0. -1.
     999901    1    3    3    0    0  0.13456922181E+00 -0.41230478328E-01 -0.35468021834E-01  0.89188945973E+00  0.88000000000E+00 0.  1.
        -11    1    4    4    0    0 -0.36264813888E-01  0.45496104407E-02  0.21571213755E-01  0.42443068519E-01  0.51100000000E-03 0.  1.
         11    1    4    4    0    0 -0.80928753766E-01  0.22471082546E-01  0.19991667902E-01  0.86338523519E-01  0.51100000000E-03 0. -1.
</event>
<event>
 8    1  0.1114686E+005  0.1043930E+01  0.7957747E-01            NaN
         13   -1    0    0    0    0  0.00000000000E+00  0.00000000000E+00  0.74505805969E-08  0.10566000000E+00  0.10566000000E+00 0.  1.
     999900   -1    0    0    0    0 -0.00000000000E+00 -0.00000000000E+00 -0.74505805969E-08  0.93827000000E+00  0.93827000000E+00 0.  1.
     999902    2    1    2    0    0 -0.18690552192E-01 -0.22771999676E-02  0.14120559985E-01  0.10203946522E+01  0.10201231953E+01 0.  0.
     999903    2    3    3    0    0  0.66412970779E-01 -0.19595153636E-01 -0.10579623904E+00  0.12802558068E+00  0.20076164473E-01 0.  0.
         14    1    1    2    0    0  0.18690552192E-01  0.22771999676E-02 -0.14120559985E-01  0.23535347782E-01  0.00000000000E+00 0.  1.
     999901    1    3    3    0    0 -0.85103522971E-01  0.17317953669E-01  0.11991679903E+00  0.89236907153E+00  0.88000000000E+00 0. -1.
        -11    1    4    4    0    0  0.47481933955E-01 -0.19834646939E-01 -0.63883912730E-01  0.82032692861E-01  0.51100000000E-03 0. -1.
         11    1    4    4    0    0  0.18931036823E-01  0.23949330268E-03 -0.41912326314E-01  0.45992887823E-01  0.51100000000E-03 0.  1.
</event>
<event>
 8    1  0.1114686E+005  0.1043930E+01  0.7957747E-01            NaN
         13   -1    0    0    0    0  0.00000000000E+00  0.00000000000E+00  0.74505805969E-08  0.10566000000E+00  0.10566000000E+00 0.  1.
     999900   -1    0    0    0    0 -0.00000000000E+00 -0.00000000000E+00 -0.74505805969E-08  0.93827000000E+00  0.93827000000E+00 0.  1.
     999902    2    1    2    0    0 -0.10126622714E-01 -0.22316821835E-02  0.20499805803E-01  0.10209567344E+01  0.10206982329E+01 0.  0.
     999903    2    3    3    0    0  0.84389134281E-01 -0.24385803586E-01  0.97062741384E-01  0.13231399603E+00  0.19225617755E-01 0.  0.
         14    1    1    2    0    0  0.10126622714E-01  0.22316821835E-02 -0.20499805803E-01  0.22973265569E-01  0.00000000000E+00 0. -1.
     999901    1    3    3    0    0 -0.94515756995E-01  0.22154121403E-01 -0.76562935581E-01  0.88864273841E+00  0.88000000000E+00 0.  1.
        -11    1    4    4    0    0  0.27892718026E-01 -0.11658720196E-01  0.21455627125E-01  0.37074715532E-01  0.51100000000E-03 0. -1.
         11    1    4    4    0    0  0.56496416255E-01 -0.12727083390E-01  0.75607114259E-01  0.95239280493E-01  0.51100000000E-03 0.  1.
</event>
<event>
 8    1  0.1114686E+005  0.1043930E+01  0.7957747E-01            NaN
         13   -1    0    0    0    0  0.00000000000E+00  0.00000000000E+00  0.74505805969E-08  0.10566000000E+00  0.10566000000E+00 0.  1.
     999900   -1    0    0    0    0 -0.00000000000E+00 -0.00000000000E+00 -0.74505805969E-08  0.93827000000E+00  0.93827000000E+00 0. -1.
     999902    2    1    2    0    0 -0.21011571892E-02 -0.19420182171E-01 -0.13516714820E-01  0.10201758442E+01  0.10198992564E+01 0.  0.
     999903    2    3    3    0    0 -0.10783217109E+00 -0.72760964773E-01 -0.12153105574E-01  0.13224220604E+00  0.20454045241E-01 0.  0.
         14    1    1    2    0    0  0.21011571892E-02  0.19420182171E-01  0.13516714820E-01  0.23754155775E-01  0.00000000000E+00 0.  1.
     999901    1    3    3    0    0  0.10573101390E+00  0.53340782602E-01 -0.13636092463E-02  0.88793363818E+00  0.88000000000E+00 0. -1.
        -11    1    4    4    0    0 -0.52698470685E-01 -0.43191761679E-01 -0.14372658358E-01  0.69638290608E-01  0.51100000000E-03 0.  1.
         11    1    4    4    0    0 -0.55133700405E-01 -0.29569203094E-01  0.22195527848E-02  0.62603915433E-01  0.51100000000E-03 0. -1.
</event>
<event>
 8    1  0.1114686E+005  0.1043930E+01  0.7957747E-01            NaN
         13   -1    0    0    0    0  0.00000000000E+00  0.00000000000E+00  0.74505805969E-08  0.10566000000E+00  0.10566000000E+00 0.  1.
     999900   -1    0    0    0    0 -0.00000000000E+00 -0.00000000000E+00 -0.74505805969E-08  0.93827000000E+00  0.93827000000E+00 0. -1.
     999902    2    1    2    0    0  0.10975298639E-01  0.19614516130E-01  0.34214109001E-02  0.10211947306E+01  0.10209416170E+01 0.  0.
     999903    2    3    3    0    0 -0.24153122487E-02  0.66778588913E-01  0.11311252954E+00  0.13303038783E+00  0.20914733445E-01 0.  0.
         14    1    1    2    0    0 -0.10975298639E-01 -0.19614516130E-01 -0.34214109001E-02  0.22735269424E-01  0.00000000000E+00 0. -1.
     999901    1    3    3    0    0  0.13390610888E-01 -0.47164072784E-01 -0.10969111864E+00  0.88816434275E+00  0.88000000000E+00 0. -1.
        -11    1    4    4    0    0 -0.10639903246E-01  0.48657431903E-01  0.75023120329E-01  0.90052667509E-01  0.51100000000E-03 0. -1.
         11    1    4    4    0    0  0.82245909969E-02  0.18121157010E-01  0.38089409215E-01  0.42977720319E-01  0.51100000000E-03 0.  1.
</event>
<event>
 8    1  0.1114686E+005  0.1043930E+01  0.7957747E-01            NaN
         13   -1    0    0    0    0  0.00000000000E+00  0.00000000000E+00  0.74505805969E-08  0.10566000000E+00  0.10566000000E+00 0.  1.
     999900   -1    0    0    0    0 -0.00000000000E+00 -0.00000000000E+00 -0.74505805969E-08  0.93827000000E+00  0.93827000000E+00 0. -1.
     999902    2    1    2    0    0 -0.65150116097E-02  0.20016610230E-01  0.93704937624E-02  0.10208883808E+01  0.10206283211E+01 0.  0.
     999903    2    3    3    0    0  0.90047733638E-02 -0.74329922299E-02 -0.12764966545E+00  0.12972685313E+00  0.19957054267E-01 0.  0.
         14    1    1    2    0    0  0.65150116097E-02 -0.20016610230E-01 -0.93704937624E-02  0.23041619186E-01  0.00000000000E+00 0. -1.
     999901    1    3    3    0    0 -0.15519784974E-01  0.27449602460E-01  0.13702015921E+00  0.89116152769E+00  0.88000000000E+00 0.  1.
        -11    1    4    4    0    0 -0.48230549301E-02 -0.74054194057E-02 -0.38131954841E-01  0.39145998473E-01  0.51100000000E-03 0.  1.
         11    1    4    4    0    0  0.13827828294E-01 -0.27572824203E-04 -0.89517710611E-01  0.90580854653E-01  0.51100000000E-03 0. -1.
</event>
<event>
 8    1  0.1114686E+005  0.1043930E+01  0.7957747E-01            NaN
         13   -1    0    0    0    0  0.00000000000E+00  0.00000000000E+00  0.74505805969E-08  0.10566000000E+00  0.10566000000E+00 0. -1.
     999900   -1    0    0    0    0 -0.00000000000E+00 -0.00000000000E+00 -0.74505805969E-08  0.93827000000E+00  0.93827000000E+00 0. -1.
     999902    2    1    2    0    0  0.91763291513E-02  0.15994671763E-01  0.11234152217E-01  0.10223373921E+01  0.10221093398E+01 0.  0.
     999903    2    3    3    0    0  0.12071207650E+00 -0.54045669427E-01  0.28138393808E-02  0.13249652202E+00  0.74209741541E-02 0.  0.
         14    1    1    2    0    0 -0.91763291513E-02 -0.15994671763E-01 -0.11234152217E-01  0.21592607937E-01  0.00000000000E+00 0.  1.
     999901    1    3    3    0    0 -0.11153574735E+00  0.70040341190E-01  0.84203128360E-02  0.88984087004E+00  0.88000000000E+00 0. -1.
        -11    1    4    4    0    0  0.19403819570E-01 -0.10250092304E-01 -0.18409723943E-02  0.22027775796E-01  0.51100000000E-03 0. -1.
         11    1    4    4    0    0  0.10130825693E+00 -0.43795577123E-01  0.46548117751E-02  0.11046874622E+00  0.51100000000E-03 0.  1.
</event>
<event>
 8    1  0.1114686E+005  0.1043930E+01  0.7957747E-01            NaN
         13   -1    0    0    0    0  0.00000000000E+00  0.00000000000E+00  0.74505805969E-08  0.10566000000E+00  0.10566000000E+00 0.  1.
     999900   -1    0    0    0    0 -0.00000000000E+00 -0.00000000000E+00 -0.74505805969E-08  0.93827000000E+00  0.93827000000E+00 0.  1.
     999902    2    1    2    0    0  0.34370726112E-02  0.19375267191E-01  0.10818696464E-01  0.10214742960E+01  0.10212274374E+01 0.  0.
     999903    2    3    3    0    0  0.33327191952E-01 -0.12322221264E+00 -0.33508968114E-02  0.12938223922E+00  0.20835544234E-01 0.  0.
         14    1    1    2    0    0 -0.34370726112E-02 -0.19375267191E-01 -0.10818696464E-01  0.22455703953E-01  0.00000000000E+00 0.  1.
     999901    1    3    3    0    0 -0.29890119340E-01  0.14259747983E+00  0.14169593276E-01  0.89209205683E+00  0.88000000000E+00 0.  1.
        -11    1    4    4    0    0  0.57606492716E-03 -0.38420608019E-01 -0.60542243839E-03  0.38433092885E-01  0.51100000000E-03 0. -1.
         11    1    4    4    0    0  0.32751127025E-01 -0.84801604621E-01 -0.27454743730E-02  0.90949146330E-01  0.51100000000E-03 0.  1.
</event>
<event>
 8    1  0.1114686E+005  0.1043930E+01  0.7957747E-01            NaN
         13   -1    0    0    0    0  0.00000000000E+00  0.00000000000E+00  0.74505805969E-08  0.10566000000E+00  0.10566000000E+00 0.  1.
     999900   -1    0    0    0    0 -0.00000000000E+00 -0.00000000000E+00 -0.74505805969E-08  0.93827000000E+00  0.93827000000E+00 0.  1.
     999902    2    1    2    0    0  0.18948368688E-01 -0.98102177232E-02  0.10366932421E-01  0.10202075563E+01  0.10199317152E+01 0.  0.
     999903    2    3    3    0    0 -0.87434041009E-01  0.30479661326E-01 -0.86711559994E-01  0.12759077114E+00  0.13667075814E-01 0.  0.
         14    1    1    2    0    0 -0.18948368688E-01  0.98102177232E-02 -0.10366932421E-01  0.23722443709E-01  0.00000000000E+00 0.  1.
     999901    1    3    3    0    0  0.10638240970E+00 -0.40289879050E-01  0.97078492415E-01  0.89261678515E+00  0.88000000000E+00 0. -1.
        -11    1    4    4    0    0 -0.37215736084E-01  0.20021242565E-01 -0.40950774112E-01  0.58848009206E-01  0.51100000000E-03 0. -1.
         11    1    4    4    0    0 -0.50218304925E-01  0.10458418761E-01 -0.45760785881E-01  0.68742761932E-01  0.51100000000E-03 0.  1.
</event>
<event>
 8    1  0.1114686E+005  0.1043930E+01  0.7957747E-01            NaN
         13   -1    0    0    0    0  0.00000000000E+00  0.00000000000E+00  0.74505805969E-08  0.10566000000E+00  0.10566000000E+00 0. -1.
     999900   -1    0    0    0    0 -0.00000000000E+00 -0.00000000000E+00 -0.74505805969E-08  0.93827000000E+00  0.93827000000E+00 0. -1.
     999902    2    1    2    0    0  0.20361859244E-01 -0.17328876697E-02 -0.10604604602E-01  0.10209068410E+01  0.10206472026E+01 0.  0.
     999903    2    3    3    0    0 -0.32036943051E-01  0.12315592194E+00  0.17363720727E-01  0.13010659601E+00  0.20796170326E-01 0.  0.
         14    1    1    2    0    0 -0.20361859244E-01  0.17328876697E-02  0.10604604602E-01  0.23023159000E-01  0.00000000000E+00 0. -1.
     999901    1    3    3    0    0  0.52398802295E-01 -0.12488880961E+00 -0.27968325329E-01  0.89080024499E+00  0.88000000000E+00 0.  1.
        -11    1    4    4    0    0 -0.61063047480E-02  0.24797207735E-01 -0.48229353880E-02  0.25994428170E-01  0.51100000000E-03 0. -1.
         11    1    4    4    0    0 -0.25930638303E-01  0.98358714203E-01  0.22186656115E-01  0.10411216784E+00  0.51100000000E-03 0.  1.
</event>
<event>
 8    1  0.1114686E+005  0.1043930E+01  0.7957747E-01            NaN
         13   -1    0    0    0    0  0.00000000000E+00  0.00000000000E+00  0.74505805969E-08  0.10566000000E+00  0.10566000000E+00 0.  1.
     999900   -1    0    0    0    0 -0.00000000000E+00 -0.00000000000E+00 -0.74505805969E-08  0.93827000000E+00  0.93827000000E+00 0. -1.
     999902    2    1    2    0    0  0.21772140360E-02  0.92347185350E-02 -0.21517866791E-01  0.10204132213E+01  0.10201421976E+01 0.  0.
     999903    2    3    3    0    0 -0.10669335552E+00 -0.11019326583E-01  0.68663727125E-01  0.12890004301E+00  0.19890097902E-01 0.  0.
         14    1    1    2    0    0 -0.21772140360E-02 -0.92347185350E-02  0.21517866791E-01  0.23516778662E-01  0.00000000000E+00 0.  1.
     999901    1    3    3    0    0  0.10887056955E+00  0.20254045117E-01 -0.90181593916E-01  0.89151317833E+00  0.88000000000E+00 0.  1.
        -11    1    4    4    0    0 -0.96338104629E-01 -0.12477930199E-01  0.67655148306E-01  0.11838162593E+00  0.51100000000E-03 0.  1.
         11    1    4    4    0    0 -0.10355250887E-01  0.14586036170E-02  0.10085788187E-02  0.10518417071E-01  0.51100000000E-03 0. -1.
</event>
<event>
 8    1  0.1114686E+005  0.1043930E+01  0.7957747E-01            NaN
         13   -1    0    0    0    0  0.00000000000E+00  0.00000000000E+00  0.74505805969E-08  0.10566000000E+00  0.10566000000E+00 0. -1.
     999900   -1    0    0    0    0 -0.00000000000E+00 -0.00000000000E+00 -0.74505805969E-08  0.93827000000E+00  0.93827000000E+00 0.  1.
     999902    2    1    2    0    0  0.18266968875E-01  0.12069701434E-01 -0.60544273897E-02  0.10212140159E+01  0.10209613363E+01 0.  0.
     999903    2    3    3    0    0 -0.42092345330E-01  0.12152053903E+00 -0.22891753948E-01  0.13222232398E+00  0.20486669302E-01 0.  0.
         14    1    1    2    0    0 -0.18266968875E-01 -0.12069701434E-01  0.60544273897E-02  0.22715984143E-01  0.00000000000E+00 0.  1.
     999901    1    3    3    0    0  0.60359314205E-01 -0.10945083759E+00  0.16837326558E-01  0.88899169188E+00  0.88000000000E+00 0. -1.
        -11    1    4    4    0    0 -0.16492338379E-01  0.31219070681E-01  0.11524537938E-02  0.35330112795E-01  0.51100000000E-03 0. -1.
         11    1    4    4    0    0 -0.25600006951E-01  0.90301468346E-01 -0.24044207741E-01  0.96892211184E-01  0.51100000000E-03 0.  1.
</event>
<event>
 8    1  0.1114686E+005  0.1043930E+01  0.7957747E-01            NaN
         13   -1    0    0    0    0  0.00000000000E+00  0.00000000000E+00  0.74505805969E-08  0.10566000000E+00  0.10566000000E+00 0. -1.
     999900   -1    0    0    0    0 -0.00000000000E+00 -0.00000000000E+00 -0.74505805969E-08  0.93827000000E+00  0.93827000000E+00 0. -1.
     999902    2    1    2    0    0  0.20410167761E-02  0.24193412247E-01  0.24210658136E-02  0.10195302355E+01  0.10192382218E+01 0.  0.
     999903    2    3    3    0    0  0.89033342947E-01  0.31479132853E-01 -0.87944815153E-01  0.13060575114E+00  0.20141989901E-01 0.  0.
         14    1    1    2    0    0 -0.20410167761E-02 -0.24193412247E-01 -0.24210658136E-02  0.24399764451E-01  0.00000000000E+00 0.  1.
     999901    1    3    3    0    0 -0.86992326171E-01 -0.72857206062E-02  0.90365880967E-01  0.88892448441E+00  0.88000000000E+00 0.  1.
        -11    1    4    4    0    0  0.18926956898E-01  0.10891730667E-01 -0.31223108006E-01  0.38105158297E-01  0.51100000000E-03 0. -1.
         11    1    4    4    0    0  0.70106386049E-01  0.20587402186E-01 -0.56721707148E-01  0.92500592843E-01  0.51100000000E-03 0.  1.
</event>
<event>
 8    1  0.1114686E+005  0.1043930E+01  0.7957747E-01            NaN
         13   -1    0    0    0    0  0.00000000000E+00  0.00000000000E+00  0.74505805969E-08  0.10566000000E+00  0.10566000000E+00 0.  1.
     999900   -1    0    0    0    0 -0.00000000000E+00 -0.00000000000E+00 -0.74505805969E-08  0.93827000000E+00  0.93827000000E+00 0.  1.
     999902    2    1    2    0    0 -0.14182298512E-02  0.27393118135E-01  0.16990948372E-01  0.10116641260E+01  0.10111494535E+01 0.  0.
     999903    2    3    3    0    0 -0.29340733235E-01 -0.54984293530E-01 -0.10018116852E+00  0.11964674439E+00  0.19872739032E-01 0.  0.
         14    1    1    2    0    0  0.14182298512E-02 -0.27393118135E-01 -0.16990948372E-01  0.32265873979E-01  0.00000000000E+00 0. -1.
     999901    1    3    3    0    0  0.27922503383E-01  0.82377411665E-01  0.11717211689E+00  0.89201738163E+00  0.88000000000E+00 0. -1.
        -11    1    4    4    0    0 -0.73089822528E-02 -0.46352784565E-02 -0.25414738684E-01  0.26852878641E-01  0.51100000000E-03 0.  1.
         11    1    4    4    0    0 -0.22031750982E-01 -0.50349015073E-01 -0.74766429835E-01  0.92793865753E-01  0.51100000000E-03 0. -1.
</event>
<event>
 8    1  0.1114686E+005  0.1043930E+01  0.7957747E-01            NaN
         13   -1    0    0    0    0  0.00000000000E+00  0.00000000000E+00  0.74505805969E-08  0.10566000000E+00  0.10566000000E+00 0.  1.
     999900   -1    0    0    0    0 -0.00000000000E+00 -0.00000000000E+00 -0.74505805969E-08  0.93827000000E+00  0.93827000000E+00 0.  1.
     999902    2    1    2    0    0  0.37739461291E-02  0.20886273054E-01  0.22941420018E-01  0.10126763950E+01  0.10121939998E+01 0.  0.
     999903    2    3    3    0    0  0.37814964415E-01 -0.16350137122E-01  0.11769457593E+00  0.12615312871E+00  0.19112827129E-01 0.  0.
         14    1    1    2    0    0 -0.37739461291E-02 -0.20886273054E-01 -0.22941420018E-01  0.31253604975E-01  0.00000000000E+00 0. -1.
     999901    1    3    3    0    0 -0.34041018286E-01  0.37236410176E-01 -0.94753155914E-01  0.88652326632E+00  0.88000000000E+00 0.  1.
        -11    1    4    4    0    0  0.19211147650E-01  0.19434383325E-02  0.49281363709E-01  0.52931645323E-01  0.51100000000E-03 0. -1.
         11    1    4    4    0    0  0.18603816765E-01 -0.18293575455E-01  0.68413212223E-01  0.73221483383E-01  0.51100000000E-03 0.  1.
</event>
<event>
 8    1  0.1114686E+005  0.1043930E+01  0.7957747E-01            NaN
         13   -1    0    0    0    0  0.00000000000E+00  0.00000000000E+00  0.74505805969E-08  0.10566000000E+00  0.10566000000E+00 0. -1.
     999900   -1    0    0    0    0 -0.00000000000E+00 -0.00000000000E+00 -0.74505805969E-08  0.93827000000E+00  0.93827000000E+00 0.  1.
     999902    2    1    2    0    0 -0.14201070463E-01 -0.16453308633E-01 -0.10942697864E-01  0.10195963935E+01  0.10193059802E+01 0.  0.
     999903    2    3    3    0    0  0.22777245707E-01 -0.18624905724E-01 -0.12650323899E+00  0.13126855407E+00  0.19043995836E-01 0.  0.
         14    1    1    2    0    0  0.14201070463E-01  0.16453308633E-01  0.10942697864E-01  0.24333606469E-01  0.00000000000E+00 0. -1.
     999901    1    3    3    0    0 -0.36978316170E-01  0.21715970910E-02  0.11556054112E+00  0.88832783946E+00  0.88000000000E+00 0. -1.
        -11    1    4    4    0    0  0.22935575248E-01 -0.21872491833E-01 -0.11666892708E+00  0.12089808178E+00  0.51100000000E-03 0.  1.
         11    1    4    4    0    0 -0.15832954102E-03  0.32475861094E-02 -0.98343119098E-02  0.10370472290E-01  0.51100000000E-03 0. -1.
</event>
<event>
 8    1  0.1114686E+005  0.1043930E+01  0.7957747E-01            NaN
         13   -1    0    0    0    0  0.00000000000E+00  0.00000000000E+00  0.74505805969E-08  0.10566000000E+00  0.10566000000E+00 0. -1.
     999900   -1    0    0    0    0 -0.00000000000E+00 -0.00000000000E+00 -0.74505805969E-08  0.93827000000E+00  0.93827000000E+00 0.  1.
     999902    2    1    2    0    0 -0.80186289064E-02 -0.83493301095E-02  0.21054393209E-01  0.10199029903E+01  0.10196199353E+01 0.  0.
     999903    2    3    3    0    0 -0.52825497221E-02 -0.12896360328E+00  0.18274040359E-01  0.13166708727E+00  0.18513914134E-01 0.  0.
         14    1    1    2    0    0  0.80186289064E-02  0.83493301095E-02 -0.21054393209E-01  0.24027009723E-01  0.00000000000E+00 0.  1.
     999901    1    3    3    0    0 -0.27360791843E-02  0.12061427317E+00  0.27803528497E-02  0.88823590300E+00  0.88000000000E+00 0. -1.
        -11    1    4    4    0    0 -0.57285257261E-02 -0.76937968913E-01  0.21005005960E-02  0.77181217218E-01  0.51100000000E-03 0. -1.
         11    1    4    4    0    0  0.44597600398E-03 -0.52025634371E-01  0.16173539763E-01  0.54485870056E-01  0.51100000000E-03 0.  1.
</event>
<event>
 8    1  0.1114686E+005  0.1043930E+01  0.7957747E-01            NaN
         13   -1    0    0    0    0  0.00000000000E+00  0.00000000000E+00  0.74505805969E-08  0.10566000000E+00  0.10566000000E+00 0.  1.
     999900   -1    0    0    0    0 -0.00000000000E+00 -0.00000000000E+00 -0.74505805969E-08  0.93827000000E+00  0.93827000000E+00 0.  1.
     999902    2    1    2    0    0 -0.68318090192E-02  0.23406118076E-01  0.47273113876E-02  0.10190931836E+01  0.10187904835E+01 0.  0.
     999903    2    3    3    0    0 -0.40561003369E-01 -0.11767751228E+00  0.16785474316E-01  0.12713598246E+00  0.19713294922E-01 0.  0.
         14    1    1    2    0    0  0.68318090192E-02 -0.23406118076E-01 -0.47273113876E-02  0.24836816438E-01  0.00000000000E+00 0. -1.
     999901    1    3    3    0    0  0.33729194349E-01  0.14108363036E+00 -0.12058162928E-01  0.89195720110E+00  0.88000000000E+00 0. -1.
        -11    1    4    4    0    0 -0.42291341386E-01 -0.11171879955E+00  0.17962976270E-01  0.12079974075E+00  0.51100000000E-03 0. -1.
         11    1    4    4    0    0  0.17303380169E-02 -0.59587127343E-02 -0.11775019544E-02  0.63362417059E-02  0.51100000000E-03 0.  1.
</event>
<event>
 8    1  0.1114686E+005  0.1043930E+01  0.7957747E-01            NaN
         13   -1    0    0    0    0  0.00000000000E+00  0.00000000000E+00  0.74505805969E-08  0.10566000000E+00  0.10566000000E+00 0.  1.
     999900   -1    0    0    0    0 -0.00000000000E+00 -0.00000000000E+00 -0.74505805969E-08  0.93827000000E+00  0.93827000000E+00 0.  1.
     999902    2    1    2    0    0 -0.20139400270E-01  0.88019496147E-02 -0.12044502981E-01  0.10188672824E+01  0.10185589818E+01 0.  0.
     999903    2    3    3    0    0  0.93082674836E-01 -0.26819607058E-01  0.78531561532E-01  0.12629114727E+00  0.19964269173E-01 0.  0.
         14    1    1    2    0    0  0.20139400270E-01 -0.88019496147E-02  0.12044502981E-01  0.25062717576E-01  0.00000000000E+00 0.  1.
     999901    1    3    3    0    0 -0.11322207511E+00  0.35621556673E-01 -0.90576064513E-01  0.89257613516E+00  0.88000000000E+00 0.  1.
        -11    1    4    4    0    0  0.27172526161E-01 -0.60084537366E-02  0.11854475981E-01  0.30252891037E-01  0.51100000000E-03 0.  1.
         11    1    4    4    0    0  0.65910148675E-01 -0.20811153321E-01  0.66677085551E-01  0.96038256229E-01  0.51100000000E-03 0. -1.
</event>
<event>
 8    1  0.1114686E+005  0.1043930E+01  0.7957747E-01            NaN
         13   -1    0    0    0    0  0.00000000000E+00  0.00000000000E+00  0.74505805969E-08  0.10566000000E+00  0.10566000000E+00 0. -1.
     999900   -1    0    0    0    0 -0.00000000000E+00 -0.00000000000E+00 -0.74505805969E-08  0.93827000000E+00  0.93827000000E+00 0. -1.
     999902    2    1    2    0    0 -0.21518277075E-01 -0.66971960192E-02  0.87168801099E-02  0.10197665424E+01  0.10194802246E+01 0.  0.
     999903    2    3    3    0    0 -0.85348336694E-01  0.48506505597E-01  0.86347633834E-01  0.13232738446E+00  0.20430446568E-01 0.  0.
         14    1    1    2    0    0  0.21518277075E-01  0.66971960192E-02 -0.87168801099E-02  0.24163457568E-01  0.00000000000E+00 0.  1.
     999901    1    3    3    0    0  0.63830059620E-01 -0.55203701617E-01 -0.77630753724E-01  0.88743915797E+00  0.88000000000E+00 0. -1.
        -11    1    4    4    0    0 -0.31006893216E-01  0.16061796469E-01  0.18422745117E-01  0.39485027433E-01  0.51100000000E-03 0. -1.
         11    1    4    4    0    0 -0.54341443478E-01  0.32444709128E-01  0.67924888717E-01  0.92842357024E-01  0.51100000000E-03 0.  1.
</event>
<event>
 8    1  0.1114686E+005  0.1043930E+01  0.7957747E-01            NaN
         13   -1    0    0    0    0  0.00000000000E+00  0.00000000000E+00  0.74505805969E-08  0.10566000000E+00  0.10566000000E+00 0.  1.
     999900   -1    0    0    0    0 -0.00000000000E+00 -0.00000000000E+00 -0.74505805969E-08  0.93827000000E+00  0.93827000000E+00 0.  1.
     999902    2    1    2    0    0  0.36850003326E-02 -0.20977029302E-01  0.10607792077E-01  0.10201362983E+01  0.10198587779E+01 0.  0.
     999903    2    3    3    0    0 -0.12188190540E+00  0.41318513244E-02 -0.38749795365E-01  0.12949962992E+00  0.19908200559E-01 0.  0.
         14    1    1    2    0    0 -0.36850003326E-02  0.20977029302E-01 -0.10607792077E-01  0.23793701656E-01  0.00000000000E+00 0. -1.
     999901    1    3    3    0    0  0.12556690573E+00 -0.25108880626E-01  0.49357587442E-01  0.89063666842E+00  0.88000000000E+00 0.  1.
        -11    1    4    4    0    0 -0.82160150523E-01  0.11500390586E-01 -0.29501873946E-01  0.88052092564E-01  0.51100000000E-03 0.  1.
         11    1    4    4    0    0 -0.39721754877E-01 -0.73685392617E-02 -0.92479214189E-02  0.41447537357E-01  0.51100000000E-03 0. -1.
</event>
<event>
 8    1  0.1114686E+005  0.1043930E+01  0.7957747E-01            NaN
         13   -1    0    0    0    0  0.00000000000E+00  0.00000000000E+00  0.74505805969E-08  0.10566000000E+00  0.10566000000E+00 0.  1.
     999900   -1    0    0    0    0 -0.00000000000E+00 -0.00000000000E+00 -0.74505805969E-08  0.93827000000E+00  0.93827000000E+00 0.  1.
     999902    2    1    2    0    0  0.14669590781E-02  0.20967476551E-01 -0.11712052555E-01  0.10198684286E+01  0.10195845490E+01 0.  0.
     999903    2    3    3    0    0 -0.52879448312E-01 -0.10640151347E+00  0.40803455322E-01  0.12749279573E+00  0.21724936738E-01 0.  0.
         14    1    1    2    0    0 -0.14669590781E-02 -0.20967476551E-01  0.11712052555E-01  0.24061571373E-01  0.00000000000E+00 0. -1.
     999901    1    3    3    0    0  0.54346407390E-01  0.12736899002E+00 -0.52515507877E-01  0.89237563289E+00  0.88000000000E+00 0.  1.
        -11    1    4    4    0    0 -0.21796645358E-01 -0.53983261316E-01  0.95326583832E-02  0.58995075626E-01  0.51100000000E-03 0. -1.
         11    1    4    4    0    0 -0.31082802954E-01 -0.52418252150E-01  0.31270796939E-01  0.68497720108E-01  0.51100000000E-03 0.  1.
</event>
<event>
 8    1  0.1114686E+005  0.1043930E+01  0.7957747E-01            NaN
         13   -1    0    0    0    0  0.00000000000E+00  0.00000000000E+00  0.74505805969E-08  0.10566000000E+00  0.10566000000E+00 0. -1.
     999900   -1    0    0    0    0 -0.00000000000E+00 -0.00000000000E+00 -0.74505805969E-08  0.93827000000E+00  0.93827000000E+00 0. -1.
     999902    2    1    2    0    0 -0.10377772526E-01  0.19947212002E-01  0.70455592898E-02  0.10203666952E+01  0.10200945854E+01 0.  0.
     999903    2    3    3    0    0 -0.16947048934E-01  0.70033920733E-01 -0.10810610342E+00  0.13142814880E+00  0.19861424385E-01 0.  0.
         14    1    1    2    0    0  0.10377772526E-01 -0.19947212002E-01 -0.70455592898E-02  0.23563304840E-01  0.00000000000E+00 0.  1.
     999901    1    3    3    0    0  0.65692764075E-02 -0.50086708731E-01  0.11515166271E+00  0.88893854636E+00  0.88000000000E+00 0.  1.
        -11    1    4    4    0    0 -0.36737931134E-02  0.99756497859E-02 -0.31106117986E-01  0.32876466380E-01  0.51100000000E-03 0.  1.
         11    1    4    4    0    0 -0.13273255820E-01  0.60058270947E-01 -0.76999985436E-01  0.98551682418E-01  0.51100000000E-03 0. -1.
</event>
<event>
 8    1  0.1114686E+005  0.1043930E+01  0.7957747E-01            NaN
         13   -1    0    0    0    0  0.00000000000E+00  0.00000000000E+00  0.74505805969E-08  0.10566000000E+00  0.10566000000E+00 0. -1.
     999900   -1    0    0    0    0 -0.00000000000E+00 -0.00000000000E+00 -0.74505805969E-08  0.93827000000E+00  0.93827000000E+00 0.  1.
     999902    2    1    2    0    0 -0.63359517805E-02 -0.50829081127E-02 -0.22527176423E-01  0.10199831021E+01  0.10197019539E+01 0.  0.
     999903    2    3    3    0    0 -0.47928777395E-01  0.11853637081E+00  0.10367724388E-01  0.12976191402E+00  0.19560820875E-01 0.  0.
         14    1    1    2    0    0  0.63359517805E-02  0.50829081127E-02  0.22527176423E-01  0.23946897867E-01  0.00000000000E+00 0. -1.
     999901    1    3    3    0    0  0.41592825615E-01 -0.12361927893E+00 -0.32894900811E-01  0.89022118811E+00  0.88000000000E+00 0.  1.
        -11    1    4    4    0    0 -0.36554761759E-01  0.74071116317E-01  0.13747447419E-01  0.83737890535E-01  0.51100000000E-03 0. -1.
         11    1    4    4    0    0 -0.11374015637E-01  0.44465254496E-01 -0.33797230315E-02  0.46024023486E-01  0.51100000000E-03 0.  1.
</event>
<event>
 8    1  0.1114686E+005  0.1043930E+01  0.7957747E-01            NaN
         13   -1    0    0    0    0  0.00000000000E+00  0.00000000000E+00  0.74505805969E-08  0.10566000000E+00  0.10566000000E+00 0.  1.
     999900   -1    0    0    0    0 -0.00000000000E+00 -0.00000000000E+00 -0.74505805969E-08  0.93827000000E+00  0.93827000000E+00 0. -1.
     999902    2    1    2    0    0 -0.58124200680E-02 -0.21725005199E-02  0.22675524425E-01  0.10204207807E+01  0.10201499332E+01 0.  0.
     999903    2    3    3    0    0  0.19659901751E-01  0.12083311712E+00  0.42658901420E-01  0.13127593504E+00  0.20650310406E-01 0.  0.
         14    1    1    2    0    0  0.58124200680E-02  0.21725005199E-02 -0.22675524425E-01  0.23509219330E-01  0.00000000000E+00 0. -1.
     999901    1    3    3    0    0 -0.25472321819E-01 -0.12300561764E+00 -0.19983376994E-01  0.88914484563E+00  0.88000000000E+00 0. -1.
        -11    1    4    4    0    0  0.77221989568E-02  0.86578148624E-01  0.37359444548E-01  0.94611824809E-01  0.51100000000E-03 0. -1.
         11    1    4    4    0    0  0.11937702794E-01  0.34254968501E-01  0.52994568716E-02  0.36664110232E-01  0.51100000000E-03 0.  1.
</event>
<event>
 8    1  0.1114686E+005  0.1043930E+01  0.7957747E-01            NaN
         13   -1    0    0    0    0  0.00000000000E+00  0.00000000000E+00  0.74505805969E-08  0.10566000000E+00  0.10566000000E+00 0. -1.
     999900   -1    0    0    0    0 -0.00000000000E+00 -0.00000000000E+00 -0.74505805969E-08  0.93827000000E+00  0.93827000000E+00 0.  1.
     999902    2    1    2    0    0 -0.11306898149E-01 -0.19293295334E-03 -0.20778221184E-01  0.10202737610E+01  0.10199994753E+01 0.  0.
     999903    2    3    3    0    0 -0.11406850236E-01 -0.62818795034E-01 -0.11500582709E+00  0.13303036129E+00  0.19859997915E-01 0.  0.
         14    1    1    2    0    0  0.11306898149E-01  0.19293295334E-03  0.20778221184E-01  0.23656239017E-01  0.00000000000E+00 0. -1.
     999901    1    3    3    0    0  0.99952087413E-04  0.62625862080E-01  0.94227605906E-01  0.88724339970E+00  0.88000000000E+00 0. -1.
        -11    1    4    4    0    0 -0.13538487815E-01 -0.36198665692E-01 -0.53745573973E-01  0.66200316411E-01  0.51100000000E-03 0.  1.
         11    1    4    4    0    0  0.21316375789E-02 -0.26620129342E-01 -0.61260253117E-01  0.66830044874E-01  0.51100000000E-03 0. -1.
</event>
<event>
 8    1  0.1114686E+005  0.1043930E+01  0.7957747E-01            NaN
         13   -1    0    0    0    0  0.00000000000E+00  0.00000000000E+00  0.74505805969E-08  0.10566000000E+00  0.10566000000E+00 0. -1.
     999900   -1    0    0    0    0 -0.00000000000E+00 -0.00000000000E+00 -0.74505805969E-08  0.93827000000E+00  0.93827000000E+00 0. -1.
     999902    2    1    2    0    0 -0.19783119578E-02 -0.54874861512E-02 -0.36472154692E-01  0.10069943223E+01  0.10063167100E+01 0.  0.
     999903    2    3    3    0    0 -0.59172487824E-01 -0.33038819283E-01  0.91092963382E-01  0.11553310097E+00  0.21378085672E-01 0.  0.
         14    1    1    2    0    0  0.19783119578E-02  0.54874861512E-02  0.36472154692E-01  0.36935677743E-01  0.00000000000E+00 0. -1.
     999901    1    3    3    0    0  0.57194175866E-01  0.27551333132E-01 -0.12756511807E+00  0.89146122129E+00  0.88000000000E+00 0. -1.
        -11    1    4    4    0    0 -0.50789210143E-01 -0.27206801249E-01  0.61740374199E-01  0.84450511120E-01  0.51100000000E-03 0. -1.
         11    1    4    4    0    0 -0.83832776813E-02 -0.58320180341E-02  0.29352589183E-01  0.31082589850E-01  0.51100000000E-03 0.  1.
</event>
<event>
 8    1  0.1114686E+005  0.1043930E+01  0.7957747E-01            NaN
         13   -1    0    0    0    0  0.00000000000E+00  0.00000000000E+00  0.74505805969E-08  0.10566000000E+00  0.10566000000E+00 0. -1.
     999900   -1    0    0    0    0 -0.00000000000E+00 -0.00000000000E+00 -0.74505805969E-08  0.93827000000E+00  0.93827000000E+00 0. -1.
     999902    2    1    2    0    0 -0.23865057331E-01 -0.26198817482E-02  0.33472841738E-02  0.10196893512E+01  0.10194011791E+01 0.  0.
     999903    2    3    3    0    0 -0.11042111599E+00 -0.69851501777E-01  0.14572260255E-01  0.13281955125E+00  0.18884577508E-01 0.  0.
         14    1    1    2    0    0  0.23865057331E-01  0.26198817482E-02 -0.33472841738E-02  0.24240648777E-01  0.00000000000E+00 0.  1.
     999901    1    3    3    0    0  0.86556058659E-01  0.67231620028E-01 -0.11224976081E-01  0.88686979998E+00  0.88000000000E+00 0. -1.
        -11    1    4    4    0    0 -0.84062666764E-01 -0.60782534062E-01  0.15694926447E-01  0.10491730185E+00  0.51100000000E-03 0. -1.
         11    1    4    4    0    0 -0.26358449225E-01 -0.90689677146E-02 -0.11226661921E-02  0.27902249396E-01  0.51100000000E-03 0.  1.
</event>
<event>
 8    1  0.1114686E+005  0.1043930E+01  0.7957747E-01            NaN
         13   -1    0    0    0    0  0.00000000000E+00  0.00000000000E+00  0.74505805969E-08  0.10566000000E+00  0.10566000000E+00 0. -1.
     999900   -1    0    0    0    0 -0.00000000000E+00 -0.00000000000E+00 -0.74505805969E-08  0.93827000000E+00  0.93827000000E+00 0. -1.
     999902    2    1    2    0    0  0.13298370808E-01 -0.16400322781E-01 -0.11473061123E-01  0.10198998443E+01  0.10196167142E+01 0.  0.
     999903    2    3    3    0    0  0.18149403196E-01 -0.85425012263E-02  0.12604924167E+00  0.12917111920E+00  0.19859293695E-01 0.  0.
         14    1    1    2    0    0 -0.13298370808E-01  0.16400322781E-01  0.11473061123E-01  0.24030155742E-01  0.00000000000E+00 0. -1.
     999901    1    3    3    0    0 -0.48510323883E-02 -0.78578215545E-02 -0.13752230279E+00  0.89072872506E+00  0.88000000000E+00 0. -1.
        -11    1    4    4    0    0  0.15881319970E-01 -0.13941945987E-01  0.79903754572E-01  0.82652678708E-01  0.51100000000E-03 0.  1.
         11    1    4    4    0    0  0.22680832267E-02  0.53994447611E-02  0.46145487099E-01  0.46518440493E-01  0.51100000000E-03 0. -1.
</event>
<event>
 8    1  0.1114686E+005  0.1043930E+01  0.7957747E-01            NaN
         13   -1    0    0    0    0  0.00000000000E+00  0.00000000000E+00  0.74505805969E-08  0.10566000000E+00  0.10566000000E+00 0.  1.
     999900   -1    0    0    0    0 -0.00000000000E+00 -0.00000000000E+00 -0.74505805969E-08  0.93827000000E+00  0.93827000000E+00 0.  1.
     999902    2    1    2    0    0  0.29034292697E-02  0.20476514196E-01 -0.23154310379E-02  0.10231194557E+01  0.10229077875E+01 0.  0.
     999903    2    3    3    0    0  0.51883181221E-02 -0.57913254096E-01  0.11640190740E+00  0.13169139746E+00  0.20306562332E-01 0.  0.
         14    1    1    2    0    0 -0.29034292697E-02 -0.20476514196E-01  0.23154310379E-02  0.20810544348E-01  0.00000000000E+00 0. -1.
     999901    1    3    3    0    0 -0.22848888524E-02  0.78389768293E-01 -0.11871733844E+00  0.89142805819E+00  0.88000000000E+00 0.  1.
        -11    1    4    4    0    0 -0.71109575699E-02 -0.32986837661E-01  0.66189105219E-01  0.74296406018E-01  0.51100000000E-03 0. -1.
         11    1    4    4    0    0  0.12299275692E-01 -0.24926416436E-01  0.50212802179E-01  0.57394991441E-01  0.51100000000E-03 0.  1.
</event>
<event>
 8    1  0.1114686E+005  0.1043930E+01  0.7957747E-01            NaN
         13   -1    0    0    0    0  0.00000000000E+00  0.00000000000E+00  0.74505805969E-08  0.10566000000E+00  0.10566000000E+00 0.  1.
     999900   -1    0    0    0    0 -0.00000000000E+00 -0.00000000000E+00 -0.74505805969E-08  0.93827000000E+00  0.93827000000E+00 0.  1.
     999902    2    1    2    0    0 -0.21427288162E-02  0.24089052975E-01 -0.19614945995E-02  0.10196664219E+01  0.10193776978E+01 0.  0.
     999903    2    3    3    0    0  0.52539340957E-01  0.10295329591E+00 -0.61358816402E-01  0.13245858866E+00  0.20508775510E-01 0.  0.
         14    1    1    2    0    0  0.21427288162E-02 -0.24089052975E-01  0.19614945995E-02  0.24263578076E-01  0.00000000000E+00 0.  1.
     999901    1    3    3    0    0 -0.54682069774E-01 -0.78864242932E-01  0.59397321803E-01  0.88720783326E+00  0.88000000000E+00 0. -1.
        -11    1    4    4    0    0  0.38629005644E-01  0.71948687780E-01 -0.53335399403E-01  0.97538401160E-01  0.51100000000E-03 0. -1.
         11    1    4    4    0    0  0.13910335313E-01  0.31004608127E-01 -0.80234169987E-02  0.34920187499E-01  0.51100000000E-03 0.  1.
</event>
<event>
 8    1  0.1114686E+005  0.1043930E+01  0.7957747E-01            NaN
         13   -1    0    0    0    0  0.00000000000E+00  0.00000000000E+00  0.74505805969E-08  0.10566000000E+00  0.10566000000E+00 0.  1.
     999900   -1    0    0    0    0 -0.00000000000E+00 -0.00000000000E+00 -0.74505805969E-08  0.93827000000E+00  0.93827000000E+00 0.  1.
     999902    2    1    2    0    0 -0.40676422136E-02 -0.11386204496E-01 -0.18691167463E-01  0.10216690228E+01  0.10214264736E+01 0.  0.
     999903    2    3    3    0    0 -0.25614140339E-01  0.12609175725E+00  0.55785442942E-02  0.13040393288E+00  0.20465828179E-01 0.  0.
         14    1    1    2    0    0  0.40676422136E-02  0.11386204496E-01  0.18691167463E-01  0.22260977228E-01  0.00000000000E+00 0.  1.
     999901    1    3    3    0    0  0.21546498125E-01 -0.13747796175E+00 -0.24269711757E-01  0.89126508989E+00  0.88000000000E+00 0. -1.
        -11    1    4    4    0    0 -0.82014929328E-02  0.17591699523E-01  0.66065971802E-02  0.20509525244E-01  0.51100000000E-03 0.  1.
         11    1    4    4    0    0 -0.17412647406E-01  0.10850005773E+00 -0.10280528861E-02  0.10989440764E+00  0.51100000000E-03 0. -1.
</event>
<event>
 8    1  0.1114686E+005  0.1043930E+01  0.7957747E-01            NaN
         13   -1    0    0    0    0  0.00000000000E+00  0.00000000000E+00  0.74505805969E-08  0.10566000000E+00  0.10566000000E+00 0.  1.
     999900   -1    0    0    0    0 -0.00000000000E+00 -0.00000000000E+00 -0.74505805969E-08  0.93827000000E+00  0.93827000000E+00 0. -1.
     999902    2    1    2    0    0 -0.10418304111E-01  0.16956066306E-01  0.13982862130E-01  0.10196077945E+01  0.10193176566E+01 0.  0.
     999903    2    3    3    0    0 -0.65369061721E-01 -0.10401845032E+00 -0.32707967689E-01  0.12840947036E+00  0.18061801957E-01 0.  0.
         14    1    1    2    0    0  0.10418304111E-01 -0.16956066306E-01 -0.13982862130E-01  0.24322205461E-01  0.00000000000E+00 0. -1.
     999901    1    3    3    0    0  0.54950757610E-01  0.12097451663E+00  0.46690829819E-01  0.89119832418E+00  0.88000000000E+00 0.  1.
        -11    1    4    4    0    0 -0.51337454396E-01 -0.73090339561E-01 -0.30454169950E-01  0.94368689454E-01  0.51100000000E-03 0.  1.
         11    1    4    4    0    0 -0.14031607325E-01 -0.30928110759E-01 -0.22537977382E-02  0.34040780903E-01  0.51100000000E-03 0. -1.
</event>
<event>
 8    1  0.1114686E+005  0.1043930E+01  0.7957747E-01            NaN
         13   -1    0    0    0    0  0.00000000000E+00  0.00000000000E+00  0.74505805969E-08  0.10566000000E+00  0.10566000000E+00 0.  1.
     999900   -1    0    0    0    0 -0.00000000000E+00 -0.00000000000E+00 -0.74505805969E-08  0.93827000000E+00  0.93827000000E+00 0. -1.
     999902    2    1    2    0    0  0.13776210186E-01  0.31630161599E-02  0.19391402415E-01  0.10199338519E+01  0.10196515322E+01 0.  0.
     999903    2    3    3    0    0  0.11444339065E+00 -0.26073719478E-01 -0.53849323348E-01  0.13069098748E+00  0.20081236834E-01 0.  0.
         14    1    1    2    0    0 -0.13776210186E-01 -0.31630161599E-02 -0.19391402415E-01  0.23996148148E-01  0.00000000000E+00 0. -1.
     999901    1    3    3    0    0 -0.10066718046E+00  0.29236735637E-01  0.73240725763E-01  0.88924286438E+00  0.88000000000E+00 0.  1.
        -11    1    4    4    0    0  0.87571640809E-01 -0.24722048868E-01 -0.48989626957E-01  0.10334513363E+00  0.51100000000E-03 0.  1.
         11    1    4    4    0    0  0.26871749836E-01 -0.13516706100E-02 -0.48596963909E-02  0.27345853848E-01  0.51100000000E-03 0. -1.
</event>
<event>
 8    1  0.1114686E+005  0.1043930E+01  0.7957747E-01            NaN
         13   -1    0    0    0    0  0.00000000000E+00  0.00000000000E+00  0.74505805969E-08  0.10566000000E+00  0.10566000000E+00 0.  1.
     999900   -1    0    0    0    0 -0.00000000000E+00 -0.00000000000E+00 -0.74505805969E-08  0.93827000000E+00  0.93827000000E+00 0.  1.
     999902    2    1    2    0    0  0.20377023218E-01 -0.10982871744E-01 -0.37170488929E-02  0.10204851072E+01  0.10202157571E+01 0.  0.
     999903    2    3    3    0    0 -0.11014156991E+00 -0.26641276631E-01  0.57303657091E-01  0.12863096251E+00  0.20525407639E-01 0.  0.
         14    1    1    2    0    0 -0.20377023218E-01  0.10982871744E-01  0.37170488929E-02  0.23444892822E-01  0.00000000000E+00 0.  1.
     999901    1    3    3    0    0  0.13051859313E+00  0.15658404886E-01 -0.61020705983E-01  0.89185414466E+00  0.88000000000E+00 0.  1.
        -11    1    4    4    0    0 -0.81115308444E-01 -0.28307826544E-01  0.45798464025E-01  0.97359060881E-01  0.51100000000E-03 0. -1.
         11    1    4    4    0    0 -0.29026261465E-01  0.16665499133E-02  0.11505193065E-01  0.31271901632E-01  0.51100000000E-03 0.  1.
</event>
<event>
 8    1  0.1114686E+005  0.1043930E+01  0.7957747E-01            NaN
         13   -1    0    0    0    0  0.00000000000E+00  0.00000000000E+00  0.74505805969E-08  0.10566000000E+00  0.10566000000E+00 0. -1.
     999900   -1    0    0    0    0 -0.00000000000E+00 -0.00000000000E+00 -0.74505805969E-08  0.93827000000E+00  0.93827000000E+00 0. -1.
     999902    2    1    2    0    0 -0.19942035544E-01 -0.14318905674E-01  0.80499104382E-02  0.10180936516E+01  0.10177657719E+01 0.  0.
     999903    2    3    3    0    0 -0.69364960929E-01 -0.10770972616E+00 -0.25842044846E-01  0.13112514282E+00  0.10635266100E-01 0.  0.
         14    1    1    2    0    0  0.19942035544E-01  0.14318905674E-01 -0.80499104382E-02  0.25836348415E-01  0.00000000000E+00 0.  1.
     999901    1    3    3    0    0  0.49422925385E-01  0.93390820482E-01  0.33891955284E-01  0.88696850876E+00  0.88000000000E+00 0.  1.
        -11    1    4    4    0    0 -0.53425864479E-01 -0.77428163188E-01 -0.22588014190E-01  0.96746694807E-01  0.51100000000E-03 0. -1.
         11    1    4    4    0    0 -0.15939096450E-01 -0.30281562968E-01 -0.32540306558E-02  0.34378448015E-01  0.51100000000E-03 0.  1.
</event>
<event>
 8    1  0.1114686E+005  0.1043930E+01  0.7957747E-01            NaN
         13   -1    0    0    0    0  0.00000000000E+00  0.00000000000E+00  0.74505805969E-08  0.10566000000E+00  0.10566000000E+00 0. -1.
     999900   -1    0    0    0    0 -0.00000000000E+00 -0.00000000000E+00 -0.74505805969E-08  0.93827000000E+00  0.93827000000E+00 0. -1.
     999902    2    1    2    0    0  0.19591865770E-02  0.82592886007E-02 -0.22407635936E-01  0.10199684389E+01  0.10196869422E+01 0.  0.
     999903    2    3    3    0    0  0.14960823286E-01  0.31642007867E-01  0.12155622873E+00  0.12786901149E+00  0.18695573333E-01 0.  0.
         14    1    1    2    0    0 -0.19591865770E-02 -0.82592886007E-02  0.22407635936E-01  0.23961561061E-01  0.00000000000E+00 0. -1.
     999901    1    3    3    0    0 -0.13001636708E-01 -0.23382719267E-01 -0.14396386467E+00  0.89209942744E+00  0.88000000000E+00 0. -1.
        -11    1    4    4    0    0  0.19936654024E-02 -0.23638989449E-02  0.70059764212E-02  0.76751251829E-02  0.51100000000E-03 0. -1.
         11    1    4    4    0    0  0.12967157883E-01  0.34005906812E-01  0.11455025231E+00  0.12019388631E+00  0.51100000000E-03 0.  1.
</event>
<event>
 8    1  0.1114686E+005  0.1043930E+01  0.7957747E-01            NaN
         13   -1    0    0    0    0  0.00000000000E+00  0.00000000000E+00  0.74505805969E-08  0.10566000000E+00  0.10566000000E+00 0. -1.
     999900   -1    0    0    0    0 -0.00000000000E+00 -0.00000000000E+00 -0.74505805969E-08  0.93827000000E+00  0.93827000000E+00 0.  1.
     999902    2    1    2    0    0 -0.91155551256E-02  0.78404991910E-02 -0.20572048078E-01  0.10201019507E+01  0.10198236190E+01 0.  0.
     999903    2    3    3    0    0 -0.11661383593E+00 -0.22521236338E-01 -0.54159209422E-01  0.13240503574E+00  0.22178383792E-01 0.  0.
         14    1    1    2    0    0  0.91155551256E-02 -0.78404991910E-02  0.20572048078E-01  0.23828049331E-01  0.00000000000E+00 0. -1.
     999901    1    3    3    0    0  0.10749828081E+00  0.30361735529E-01  0.33587161344E-01  0.88769691493E+00  0.88000000000E+00 0. -1.
        -11    1    4    4    0    0 -0.80663816284E-01 -0.19984523988E-01 -0.27364843584E-01  0.87493589719E-01  0.51100000000E-03 0.  1.
         11    1    4    4    0    0 -0.35950019650E-01 -0.25367123502E-02 -0.26794365838E-01  0.44911446025E-01  0.51100000000E-03 0. -1.
</event>
<event>
 8    1  0.1114686E+005  0.1043930E+01  0.7957747E-01            NaN
         13   -1    0    0    0    0  0.00000000000E+00  0.00000000000E+00  0.74505805969E-08  0.10566000000E+00  0.10566000000E+00 0.  1.
     999900   -1    0    0    0    0 -0.00000000000E+00 -0.00000000000E+00 -0.74505805969E-08  0.93827000000E+00  0.93827000000E+00 0. -1.
     999902    2    1    2    0    0 -0.11913326291E-01  0.17750255072E-01  0.10494613615E-01  0.10201153866E+01  0.10198373724E+01 0.  0.
     999903    2    3    3    0    0 -0.38870711544E-01 -0.45000226339E-01 -0.11258113711E+00  0.12892967979E+00  0.20307567805E-01 0.  0.
         14    1    1    2    0    0  0.11913326291E-01 -0.17750255072E-01 -0.10494613615E-01  0.23814613441E-01  0.00000000000E+00 0. -1.
     999901    1    3    3    0    0  0.26957385253E-01  0.62750481411E-01  0.12307575073E+00  0.89118570677E+00  0.88000000000E+00 0.  1.
        -11    1    4    4    0    0 -0.93391274054E-02 -0.22372478625E-02 -0.28542022174E-01  0.30118644217E-01  0.51100000000E-03 0.  1.
         11    1    4    4    0    0 -0.29531584139E-01 -0.42762978476E-01 -0.84039114938E-01  0.98811035570E-01  0.51100000000E-03 0. -1.
</event>
<event>
 8    1  0.1114686E+005  0.1043930E+01  0.7957747E-01            NaN
         13   -1    0    0    0    0  0.00000000000E+00  0.00000000000E+00  0.74505805969E-08  0.10566000000E+00  0.10566000000E+00 0.  1.
     999900   -1    0    0    0    0 -0.00000000000E+00 -0.00000000000E+00 -0.74505805969E-08  0.93827000000E+00  0.93827000000E+00 0.  1.
     999902    2    1    2    0    0  0.33940681305E-01 -0.35675088650E-02 -0.95339163489E-02  0.10084956589E+01  0.10078729590E+01 0.  0.
     999903    2    3    3    0    0 -0.73932248761E-01 -0.88938204221E-01  0.76455183416E-02  0.11764221550E+00  0.20130954803E-01 0.  0.
         14    1    1    2    0    0 -0.33940681305E-01  0.35675088650E-02  0.95339163489E-02  0.35434341081E-01  0.00000000000E+00 0.  1.
     999901    1    3    3    0    0  0.10787293007E+00  0.85370695356E-01 -0.17179434690E-01  0.89085344341E+00  0.88000000000E+00 0. -1.
        -11    1    4    4    0    0 -0.47097200672E-01 -0.51770767657E-01 -0.47485328665E-02  0.70151039767E-01  0.51100000000E-03 0.  1.
         11    1    4    4    0    0 -0.26835048089E-01 -0.37167436563E-01  0.12394051208E-01  0.47491175738E-01  0.51100000000E-03 0. -1.
</event>
<event>
 8    1  0.1114686E+005  0.1043930E+01  0.7957747E-01            NaN
         13   -1    0    0    0    0  0.00000000000E+00  0.00000000000E+00  0.74505805969E-08  0.10566000000E+00  0.10566000000E+00 0.  1.
     999900   -1    0    0    0    0 -0.00000000000E+00 -0.00000000000E+00 -0.74505805969E-08  0.93827000000E+00  0.93827000000E+00 0. -1.
     999902    2    1    2    0    0 -0.81842314543E-02 -0.18866802519E-01 -0.84283775360E-02  0.10217044420E+01  0.10214626725E+01 0.  0.
     999903    2    3    3    0    0  0.27223661149E-01  0.10321673340E+00 -0.71929774685E-01  0.13030636252E+00  0.20273969695E-01 0.  0.
         14    1    1    2    0    0  0.81842314543E-02  0.18866802519E-01  0.84283775360E-02  0.22225558028E-01  0.00000000000E+00 0.  1.
     999901    1    3    3    0    0 -0.35407892604E-01 -0.12208353592E+00  0.63501397149E-01  0.89139807945E+00  0.88000000000E+00 0. -1.
        -11    1    4    4    0    0  0.74777448104E-02  0.66056476301E-02 -0.78402626218E-02  0.12699688462E-01  0.51100000000E-03 0.  1.
         11    1    4    4    0    0  0.19745916339E-01  0.96611085774E-01 -0.64089512063E-01  0.11760667406E+00  0.51100000000E-03 0. -1.
</event>
<event>
 8    1  0.1114686E+005  0.1043930E+01  0.7957747E-01            NaN
         13   -1    0    0    0    0  0.00000000000E+00  0.00000000000E+00  0.74505805969E-08  0.10566000000E+00  0.10566000000E+00 0. -1.
     999900   -1    0    0    0    0 -0.00000000000E+00 -0.00000000000E+00 -0.74505805969E-08  0.93827000000E+00  0.93827000000E+00 0.  1.
     999902    2    1    2    0    0 -0.33934318405E-03  0.11966504308E-01  0.20939018901E-01  0.10198104044E+01  0.10195251375E+01 0.  0.
     999903    2    3    3    0    0  0.15187989082E-01  0.11039985488E+00 -0.64150496231E-01  0.13010795519E+00  0.19849203163E-01 0.  0.
         14    1    1    2    0    0  0.33934318405E-03 -0.11966504308E-01 -0.20939018901E-01  0.24119595595E-01  0.00000000000E+00 0.  1.
     999901    1    3    3    0    0 -0.15527332266E-01 -0.98433350576E-01  0.85089515132E-01  0.88970244921E+00  0.88000000000E+00 0. -1.
        -11    1    4    4    0    0  0.10165446445E-01  0.59962111942E-01 -0.46037855299E-01  0.76279331483E-01  0.51100000000E-03 0. -1.
         11    1    4    4    0    0  0.50225426363E-02  0.50437742942E-01 -0.18112640932E-01  0.53828623707E-01  0.51100000000E-03 0.  1.
</event>
<event>
 8    1  0.1114686E+005  0.1043930E+01  0.7957747E-01            NaN
         13   -1    0    0    0    0  0.00000000000E+00  0.00000000000E+00  0.74505805969E-08  0.10566000000E+00  0.10566000000E+00 0.  1.
     999900   -1    0    0    0    0 -0.00000000000E+00 -0.00000000000E+00 -0.74505805969E-08  0.93827000000E+00  0.93827000000E+00 0. -1.
     999902    2    1    2    0    0 -0.24063432789E-02 -0.17155246719E-01 -0.16239682981E-01  0.10201850999E+01  0.10199087301E+01 0.  0.
     999903    2    3    3    0    0  0.70552518182E-01 -0.10949775488E+00 -0.12178492448E-01  0.13234129181E+00  0.19962106429E-01 0.  0.
         14    1    1    2    0    0  0.24063432789E-02  0.17155246719E-01  0.16239682981E-01  0.23744900111E-01  0.00000000000E+00 0.  1.
     999901    1    3    3    0    0 -0.72958861461E-01  0.92342508162E-01 -0.40611905326E-02  0.88784380808E+00  0.88000000000E+00 0. -1.
        -11    1    4    4    0    0  0.46700188762E-01 -0.86614069094E-01 -0.13092658109E-01  0.99270254421E-01  0.51100000000E-03 0.  1.
         11    1    4    4    0    0  0.23852329420E-01 -0.22883685788E-01  0.91416566124E-03  0.33071037387E-01  0.51100000000E-03 0. -1.
</event>
<event>
 8    1  0.1114686E+005  0.1043930E+01  0.7957747E-01            NaN
         13   -1    0    0    0    0  0.00000000000E+00  0.00000000000E+00  0.74505805969E-08  0.10566000000E+00  0.10566000000E+00 0.  1.
     999900   -1    0    0    0    0 -0.00000000000E+00 -0.00000000000E+00 -0.74505805969E-08  0.93827000000E+00  0.93827000000E+00 0. -1.
     999902    2    1    2    0    0  0.43468585067E-02 -0.20499266949E-01 -0.11818716119E-01  0.10198717961E+01  0.10195879968E+01 0.  0.
     999903    2    3    3    0    0  0.69808780867E-01 -0.11101259272E+00  0.21395337294E-02  0.13270058480E+00  0.20194206409E-01 0.  0.
         14    1    1    2    0    0 -0.43468585067E-02  0.20499266949E-01  0.11818716119E-01  0.24058203903E-01  0.00000000000E+00 0.  1.
     999901    1    3    3    0    0 -0.65461922360E-01  0.90513325769E-01 -0.13958249848E-01  0.88717121130E+00  0.88000000000E+00 0. -1.
        -11    1    4    4    0    0  0.60087025037E-01 -0.83903615306E-01 -0.38800453903E-02  0.10327431003E+00  0.51100000000E-03 0. -1.
         11    1    4    4    0    0  0.97217558299E-02 -0.27108977412E-01  0.60195791196E-02  0.29426274765E-01  0.51100000000E-03 0.  1.
</event>
<event>
 8    1  0.1114686E+005  0.1043930E+01  0.7957747E-01            NaN
         13   -1    0    0    0    0  0.00000000000E+00  0.00000000000E+00  0.74505805969E-08  0.10566000000E+00  0.10566000000E+00 0.  1.
     999900   -1    0    0    0    0 -0.00000000000E+00 -0.00000000000E+00 -0.74505805969E-08  0.93827000000E+00  0.93827000000E+00 0. -1.
     999902    2    1    2    0    0  0.34593379310E-02 -0.23548205757E-01 -0.67247704612E-02  0.10191972777E+01  0.10188971407E+01 0.  0.
     999903    2    3    3    0    0 -0.20484179867E-01  0.12227788256E+00  0.15886967094E-01  0.12658883571E+00  0.20021373938E-01 0.  0.
         14    1    1    2    0    0 -0.34593379310E-02  0.23548205757E-01  0.67247704612E-02  0.24732722273E-01  0.00000000000E+00 0.  1.
     999901    1    3    3    0    0  0.23943517798E-01 -0.14582608832E+00 -0.22611737555E-01  0.89260844201E+00  0.88000000000E+00 0. -1.
        -11    1    4    4    0    0 -0.18450562219E-03  0.52348679367E-01  0.11748215192E-01  0.53653517638E-01  0.51100000000E-03 0. -1.
         11    1    4    4    0    0 -0.20299674245E-01  0.69929203198E-01  0.41387519020E-02  0.72935318074E-01  0.51100000000E-03 0.  1.
</event>
<event>
 8    1  0.1114686E+005  0.1043930E+01  0.7957747E-01            NaN
         13   -1    0    0    0    0  0.00000000000E+00  0.00000000000E+00  0.74505805969E-08  0.10566000000E+00  0.10566000000E+00 0. -1.
     999900   -1    0    0    0    0 -0.00000000000E+00 -0.00000000000E+00 -0.74505805969E-08  0.93827000000E+00  0.93827000000E+00 0. -1.
     999902    2    1    2    0    0 -0.60098575224E-02 -0.98310578068E-02 -0.21285906630E-01  0.10197254982E+01  0.10194381952E+01 0.  0.
     999903    2    3    3    0    0  0.17642817560E-01 -0.38382671487E-01 -0.12446437287E+00  0.13292200276E+00  0.19808589545E-01 0.  0.
         14    1    1    2    0    0  0.60098575224E-02  0.98310578068E-02  0.21285906630E-01  0.24204501773E-01  0.00000000000E+00 0. -1.
     999901    1    3    3    0    0 -0.23652675082E-01  0.28551613680E-01  0.10317846624E+00  0.88680349547E+00  0.88000000000E+00 0.  1.
        -11    1    4    4    0    0  0.15209626501E-01 -0.29983284475E-01 -0.68848684667E-01  0.76620705998E-01  0.51100000000E-03 0. -1.
         11    1    4    4    0    0  0.24331910588E-02 -0.83993870120E-02 -0.55615688208E-01  0.56301296759E-01  0.51100000000E-03 0.  1.
</event>
<event>
 8    1  0.1114686E+005  0.1043930E+01  0.7957747E-01            NaN
         13   -1    0    0    0    0  0.00000000000E+00  0.00000000000E+00  0.74505805969E-08  0.10566000000E+00  0.10566000000E+00 0. -1.
     999900   -1    0    0    0    0 -0.00000000000E+00 -0.00000000000E+00 -0.74505805969E-08  0.93827000000E+00  0.93827000000E+00 0. -1.
     999902    2    1    2    0    0 -0.14199984177E-01  0.11424334960E-01  0.15046174017E-01  0.10202964998E+01  0.10200227474E+01 0.  0.
     999903    2    3    3    0    0 -0.91328606480E-01  0.88388166510E-01  0.34748905966E-01  0.13335768939E+00  0.20576795467E-01 0.  0.
         14    1    1    2    0    0  0.14199984177E-01 -0.11424334960E-01 -0.15046174017E-01  0.23633500216E-01  0.00000000000E+00 0.  1.
     999901    1    3    3    0    0  0.77128622303E-01 -0.76963831550E-01 -0.19702731949E-01  0.88693881040E+00  0.88000000000E+00 0. -1.
        -11    1    4    4    0    0 -0.92682890504E-03  0.54235042587E-02 -0.86104688561E-03  0.55924889810E-02  0.51100000000E-03 0.  1.
         11    1    4    4    0    0 -0.90401777575E-01  0.82964662252E-01  0.35609952852E-01  0.12776520040E+00  0.51100000000E-03 0. -1.
</event>
<event>
 8    1  0.1114686E+005  0.1043930E+01  0.7957747E-01            NaN
         13   -1    0    0    0    0  0.00000000000E+00  0.00000000000E+00  0.74505805969E-08  0.10566000000E+00  0.10566000000E+00 0. -1.
     999900   -1    0    0    0    0 -0.00000000000E+00 -0.00000000000E+00 -0.74505805969E-08  0.93827000000E+00  0.93827000000E+00 0.  1.
     999902    2    1    2    0    0 -0.18227556505E-01  0.72436885921E-02  0.13542870807E-01  0.10200946441E+01  0.10198161397E+01 0.  0.
     999903    2    3    3    0    0 -0.84499464961E-01  0.51443944341E-01  0.87250531347E-01  0.13342759968E+00  0.20090548734E-01 0.  0.
         14    1    1    2    0    0  0.18227556505E-01 -0.72436885921E-02 -0.13542870807E-01  0.23835355887E-01  0.00000000000E+00 0.  1.
     999901    1    3    3    0    0  0.66271908456E-01 -0.44200255749E-01 -0.73707660540E-01  0.88666704443E+00  0.88000000000E+00 0.  1.
        -11    1    4    4    0    0 -0.35177310991E-01  0.27988538861E-01  0.28591578887E-01  0.53277959987E-01  0.51100000000E-03 0.  1.
         11    1    4    4    0    0 -0.49322153970E-01  0.23455405480E-01  0.58658952460E-01  0.80149639695E-01  0.51100000000E-03 0. -1.
</event>
<event>
 8    1  0.1114686E+005  0.1043930E+01  0.7957747E-01            NaN
         13   -1    0    0    0    0  0.00000000000E+00  0.00000000000E+00  0.74505805969E-08  0.10566000000E+00  0.10566000000E+00 0. -1.
     999900   -1    0    0    0    0 -0.00000000000E+00 -0.00000000000E+00 -0.74505805969E-08  0.93827000000E+00  0.93827000000E+00 0. -1.
     999902    2    1    2    0    0  0.49440348357E-02  0.19469879409E-01 -0.12870697867E-01  0.10200726207E+01  0.10197935952E+01 0.  0.
     999903    2    3    3    0    0 -0.12468568615E+00  0.19083892115E-01 -0.27079673379E-01  0.13046264516E+00  0.19403035916E-01 0.  0.
         14    1    1    2    0    0 -0.49440348357E-02 -0.19469879409E-01  0.12870697867E-01  0.23857379325E-01  0.00000000000E+00 0. -1.
     999901    1    3    3    0    0  0.12962972099E+00  0.38598729454E-03  0.14208975512E-01  0.88960997551E+00  0.88000000000E+00 0. -1.
        -11    1    4    4    0    0 -0.76985616393E-01  0.12605457170E-01 -0.70807344333E-02  0.78333138600E-01  0.51100000000E-03 0. -1.
         11    1    4    4    0    0 -0.47700069759E-01  0.64784349445E-02 -0.19998938945E-01  0.52129506560E-01  0.51100000000E-03 0.  1.
</event>
<event>
 8    1  0.1138395E+005  0.1043930E+01  0.7957747E-01            NaN
         13   -1    0    0    0    0  0.00000000000E+00  0.00000000000E+00  0.74505805969E-08  0.10566000000E+00  0.10566000000E+00 0.  1.
     999900   -1    0    0    0    0 -0.00000000000E+00 -0.00000000000E+00 -0.74505805969E-08  0.93827000000E+00  0.93827000000E+00 0. -1.
     999902    2    1    2    0    0  0.13467178857E-02  0.16577946266E-01 -0.27878148923E-01  0.10114672038E+01  0.10109461267E+01 0.  0.
     999903    2    3    3    0    0 -0.45075272294E-01 -0.84498904151E-01 -0.74854984462E-01  0.12322266878E+00  0.20216637416E-01 0.  0.
         14    1    1    2    0    0 -0.13467178857E-02 -0.16577946266E-01  0.27878148923E-01  0.32462796226E-01  0.00000000000E+00 0.  1.
     999901    1    3    3    0    0  0.46421990179E-01  0.10107685042E+00  0.46976835539E-01  0.88824453499E+00  0.88000000000E+00 0.  1.
        -11    1    4    4    0    0 -0.76823099118E-02 -0.33723324432E-01 -0.22540797067E-01  0.41287154779E-01  0.51100000000E-03 0.  1.
         11    1    4    4    0    0 -0.37392962382E-01 -0.50775579719E-01 -0.52314187395E-01  0.81935514005E-01  0.51100000000E-03 0. -1.
</event>
<event>
 8    1  0.1114686E+005  0.1043930E+01  0.7957747E-01            NaN
         13   -1    0    0    0    0  0.00000000000E+00  0.00000000000E+00  0.74505805969E-08  0.10566000000E+00  0.10566000000E+00 0. -1.
     999900   -1    0    0    0    0 -0.00000000000E+00 -0.00000000000E+00 -0.74505805969E-08  0.93827000000E+00  0.93827000000E+00 0. -1.
     999902    2    1    2    0    0  0.13822848791E-01 -0.17726140070E-01  0.63092087156E-02  0.10205827667E+01  0.10203156817E+01 0.  0.
     999903    2    3    3    0    0  0.84878169278E-01 -0.12531932291E-01 -0.98958327224E-01  0.13144999114E+00  0.11180192163E-01 0.  0.
         14    1    1    2    0    0 -0.13822848791E-01  0.17726140070E-01 -0.63092087156E-02  0.23347233350E-01  0.00000000000E+00 0.  1.
     999901    1    3    3    0    0 -0.71055320487E-01 -0.51942077793E-02  0.10526753594E+00  0.88913277551E+00  0.88000000000E+00 0.  1.
        -11    1    4    4    0    0  0.18454506758E-01 -0.27230756567E-02 -0.28973212914E-01  0.34462909748E-01  0.51100000000E-03 0.  1.
         11    1    4    4    0    0  0.66423662519E-01 -0.98088566342E-02 -0.69985114310E-01  0.96987081392E-01  0.51100000000E-03 0. -1.
</event>
<event>
 8    1  0.1114686E+005  0.1043930E+01  0.7957747E-01            NaN
         13   -1    0    0    0    0  0.00000000000E+00  0.00000000000E+00  0.74505805969E-08  0.10566000000E+00  0.10566000000E+00 0. -1.
     999900   -1    0    0    0    0 -0.00000000000E+00 -0.00000000000E+00 -0.74505805969E-08  0.93827000000E+00  0.93827000000E+00 0. -1.
     999902    2    1    2    0    0 -0.99437112240E-02 -0.26699705885E-02  0.23791608316E-01  0.10180061353E+01  0.10176760018E+01 0.  0.
     999903    2    3    3    0    0  0.46420711802E-01  0.10003473414E+00 -0.58628062611E-01  0.12642427885E+00  0.19596378177E-01 0.  0.
         14    1    1    2    0    0  0.99437112240E-02  0.26699705885E-02 -0.23791608316E-01  0.25923864722E-01  0.00000000000E+00 0.  1.
     999901    1    3    3    0    0 -0.56364423026E-01 -0.10270470473E+00  0.82419670927E-01  0.89158185643E+00  0.88000000000E+00 0. -1.
        -11    1    4    4    0    0  0.36069658239E-01  0.60409555583E-01 -0.30202940699E-01  0.76569010697E-01  0.51100000000E-03 0.  1.
         11    1    4    4    0    0  0.10351053562E-01  0.39625178561E-01 -0.28425121912E-01  0.49855268153E-01  0.51100000000E-03 0. -1.
</event>
<event>
 8    1  0.1114686E+005  0.1043930E+01  0.7957747E-01            NaN
         13   -1    0    0    0    0  0.00000000000E+00  0.00000000000E+00  0.74505805969E-08  0.10566000000E+00  0.10566000000E+00 0. -1.
     999900   -1    0    0    0    0 -0.00000000000E+00 -0.00000000000E+00 -0.74505805969E-08  0.93827000000E+00  0.93827000000E+00 0. -1.
     999902    2    1    2    0    0 -0.19223218253E-01 -0.11929993806E-01 -0.57152981599E-02  0.10205950154E+01  0.10203282139E+01 0.  0.
     999903    2    3    3    0    0 -0.12294417128E+00  0.43314267664E-01 -0.42632686287E-02  0.13278193098E+00  0.24929314059E-01 0.  0.
         14    1    1    2    0    0  0.19223218253E-01  0.11929993806E-01  0.57152981599E-02  0.23334984578E-01  0.00000000000E+00 0. -1.
     999901    1    3    3    0    0  0.10372095303E+00 -0.55244261470E-01 -0.14520295313E-02  0.88781308445E+00  0.88000000000E+00 0.  1.
        -11    1    4    4    0    0 -0.40343701216E-01  0.26828442954E-01 -0.20013104746E-03  0.48452871458E-01  0.51100000000E-03 0. -1.
         11    1    4    4    0    0 -0.82600470065E-01  0.16485824710E-01 -0.40631375812E-02  0.84329059518E-01  0.51100000000E-03 0.  1.
</event>
<event>
 8    1  0.1114686E+005  0.1043930E+01  0.7957747E-01            NaN
         13   -1    0    0    0    0  0.00000000000E+00  0.00000000000E+00  0.74505805969E-08  0.10566000000E+00  0.10566000000E+00 0.  1.
     999900   -1    0    0    0    0 -0.00000000000E+00 -0.00000000000E+00 -0.74505805969E-08  0.93827000000E+00  0.93827000000E+00 0.  1.
     999902    2    1    2    0    0 -0.16698231027E-01 -0.15884890506E-02  0.20932023512E-01  0.10171064315E+01  0.10167526687E+01 0.  0.
     999903    2    3    3    0    0  0.64870758402E-01  0.77699949869E-01  0.75291751626E-01  0.12812097798E+00  0.22374977799E-01 0.  0.
         14    1    1    2    0    0  0.16698231027E-01  0.15884890506E-02 -0.20932023512E-01  0.26823568465E-01  0.00000000000E+00 0. -1.
     999901    1    3    3    0    0 -0.81568989429E-01 -0.79288438920E-01 -0.54359728114E-01  0.88898545355E+00  0.88000000000E+00 0.  1.
        -11    1    4    4    0    0  0.33565085774E-01  0.27860214501E-01  0.22638774244E-01  0.49148568192E-01  0.51100000000E-03 0. -1.
         11    1    4    4    0    0  0.31305672628E-01  0.49839735368E-01  0.52652977382E-01  0.78972409793E-01  0.51100000000E-03 0.  1.
</event>
<event>
 8    1  0.1114686E+005  0.1043930E+01  0.7957747E-01            NaN
         13   -1    0    0    0    0  0.00000000000E+00  0.00000000000E+00  0.74505805969E-08  0.10566000000E+00  0.10566000000E+00 0.  1.
     999900   -1    0    0    0    0 -0.00000000000E+00 -0.00000000000E+00 -0.74505805969E-08  0.93827000000E+00  0.93827000000E+00 0.  1.
     999902    2    1    2    0    0  0.99848770016E-02  0.20724127552E-01 -0.35891268950E-02  0.10206476233E+01  0.10203820373E+01 0.  0.
     999903    2    3    3    0    0 -0.11636929638E+00 -0.49559431047E-01 -0.13554086818E-01  0.12879311941E+00  0.20149540751E-01 0.  0.
         14    1    1    2    0    0 -0.99848770016E-02 -0.20724127552E-01  0.35891268950E-02  0.23282376670E-01  0.00000000000E+00 0.  1.
     999901    1    3    3    0    0  0.12635417338E+00  0.70283558599E-01  0.99649599234E-02  0.89185450392E+00  0.88000000000E+00 0.  1.
        -11    1    4    4    0    0 -0.90808613800E-01 -0.44881176872E-01 -0.49528701896E-02  0.10141654905E+00  0.51100000000E-03 0. -1.
         11    1    4    4    0    0 -0.25560682577E-01 -0.46782541751E-02 -0.86012166289E-02  0.27376570356E-01  0.51100000000E-03 0.  1.
</event>
<event>
 8    1  0.1114686E+005  0.1043930E+01  0.7957747E-01            NaN
         13   -1    0    0    0    0  0.00000000000E+00  0.00000000000E+00  0.74505805969E-08  0.10566000000E+00  0.10566000000E+00 0. -1.
     999900   -1    0    0    0    0 -0.00000000000E+00 -0.00000000000E+00 -0.74505805969E-08  0.93827000000E+00  0.93827000000E+00 0.  1.
     999902    2    1    2    0    0  0.36569639715E-03 -0.22464315093E-01 -0.88725848892E-02  0.10197742150E+01  0.10194880812E+01 0.  0.
     999903    2    3    3    0    0  0.10870942901E+00 -0.68363753578E-01  0.20200584851E-01  0.13146662635E+00  0.19597639040E-01 0.  0.
         14    1    1    2    0    0 -0.36569639715E-03  0.22464315093E-01  0.88725848892E-02  0.24155785002E-01  0.00000000000E+00 0. -1.
     999901    1    3    3    0    0 -0.10834373262E+00  0.45899438486E-01 -0.29073169740E-01  0.88830758865E+00  0.88000000000E+00 0.  1.
        -11    1    4    4    0    0  0.10234363525E+00 -0.68871679149E-01  0.17862816851E-01  0.12464697835E+00  0.51100000000E-03 0. -1.
         11    1    4    4    0    0  0.63657937682E-02  0.50792557035E-03  0.23377679993E-02  0.68196480043E-02  0.51100000000E-03 0.  1.
</event>
<event>
 8    1  0.1114686E+005  0.1043930E+01  0.7957747E-01            NaN
         13   -1    0    0    0    0  0.00000000000E+00  0.00000000000E+00  0.74505805969E-08  0.10566000000E+00  0.10566000000E+00 0.  1.
     999900   -1    0    0    0    0 -0.00000000000E+00 -0.00000000000E+00 -0.74505805969E-08  0.93827000000E+00  0.93827000000E+00 0. -1.
     999902    2    1    2    0    0  0.95099115022E-02  0.72431494247E-02 -0.22726349811E-01  0.10182514368E+01  0.10179276006E+01 0.  0.
     999903    2    3    3    0    0 -0.98035828304E-01  0.62844981806E-03  0.76792828207E-01  0.12611136533E+00  0.19887670052E-01 0.  0.
         14    1    1    2    0    0 -0.95099115022E-02 -0.72431494247E-02  0.22726349811E-01  0.25678563163E-01  0.00000000000E+00 0.  1.
     999901    1    3    3    0    0  0.10754573981E+00  0.66146996066E-02 -0.99519178018E-01  0.89214007151E+00  0.88000000000E+00 0. -1.
        -11    1    4    4    0    0 -0.84840916396E-01 -0.59747202577E-02  0.62353723038E-01  0.10546054369E+00  0.51100000000E-03 0.  1.
         11    1    4    4    0    0 -0.13194911908E-01  0.66031700758E-02  0.14439105169E-01  0.20650821640E-01  0.51100000000E-03 0. -1.
</event>
<event>
 8    1  0.1114686E+005  0.1043930E+01  0.7957747E-01            NaN
         13   -1    0    0    0    0  0.00000000000E+00  0.00000000000E+00  0.74505805969E-08  0.10566000000E+00  0.10566000000E+00 0.  1.
     999900   -1    0    0    0    0 -0.00000000000E+00 -0.00000000000E+00 -0.74505805969E-08  0.93827000000E+00  0.93827000000E+00 0.  1.
     999902    2    1    2    0    0 -0.39460934163E-03 -0.25003257032E-02  0.23368505779E-01  0.10204248004E+01  0.10201540466E+01 0.  0.
     999903    2    3    3    0    0 -0.40171063932E-01 -0.11888126960E+00  0.35117853579E-01  0.13179397852E+00  0.19746353996E-01 0.  0.
         14    1    1    2    0    0  0.39460934163E-03  0.25003257032E-02 -0.23368505779E-01  0.23505199585E-01  0.00000000000E+00 0. -1.
     999901    1    3    3    0    0  0.39776454590E-01  0.11638094390E+00 -0.11749347799E-01  0.88863082189E+00  0.88000000000E+00 0. -1.
        -11    1    4    4    0    0 -0.31603561900E-02 -0.76921106277E-02  0.79105224483E-02  0.11488859977E-01  0.51100000000E-03 0. -1.
         11    1    4    4    0    0 -0.37010707742E-01 -0.11118915897E+00  0.27207331130E-01  0.12030511855E+00  0.51100000000E-03 0.  1.
</event>
<event>
 8    1  0.1114686E+005  0.1043930E+01  0.7957747E-01            NaN
         13   -1    0    0    0    0  0.00000000000E+00  0.00000000000E+00  0.74505805969E-08  0.10566000000E+00  0.10566000000E+00 0. -1.
     999900   -1    0    0    0    0 -0.00000000000E+00 -0.00000000000E+00 -0.74505805969E-08  0.93827000000E+00  0.93827000000E+00 0. -1.
     999902    2    1    2    0    0 -0.90747533128E-02 -0.13679950774E-01  0.16525132667E-01  0.10206368205E+01  0.10203709851E+01 0.  0.
     999903    2    3    3    0    0 -0.45365687183E-01 -0.36849587766E-01 -0.11466360400E+00  0.12987066232E+00  0.17398538914E-01 0.  0.
         14    1    1    2    0    0  0.90747533128E-02  0.13679950774E-01 -0.16525132667E-01  0.23293179486E-01  0.00000000000E+00 0.  1.
     999901    1    3    3    0    0  0.36290933870E-01  0.23169636992E-01  0.13118873667E+00  0.89076615820E+00  0.88000000000E+00 0.  1.
        -11    1    4    4    0    0 -0.36939399465E-01 -0.34692592789E-01 -0.10644291194E+00  0.11789168695E+00  0.51100000000E-03 0. -1.
         11    1    4    4    0    0 -0.84262877177E-02 -0.21569949770E-02 -0.82206920579E-02  0.11978975371E-01  0.51100000000E-03 0.  1.
</event>
<event>
 8    1  0.1114686E+005  0.1043930E+01  0.7957747E-01            NaN
         13   -1    0    0    0    0  0.00000000000E+00  0.00000000000E+00  0.74505805969E-08  0.10566000000E+00  0.10566000000E+00 0. -1.
     999900   -1    0    0    0    0 -0.00000000000E+00 -0.00000000000E+00 -0.74505805969E-08  0.93827000000E+00  0.93827000000E+00 0.  1.
     999902    2    1    2    0    0 -0.13317296055E-01 -0.10579855676E-01 -0.14150348011E-01  0.10218049900E+01  0.10215654269E+01 0.  0.
     999903    2    3    3    0    0 -0.48878386006E-01 -0.11857620691E+00 -0.34508969974E-01  0.13425652566E+00  0.19609492860E-01 0.  0.
         14    1    1    2    0    0  0.13317296055E-01  0.10579855676E-01  0.14150348011E-01  0.22125010038E-01  0.00000000000E+00 0. -1.
     999901    1    3    3    0    0  0.35561089951E-01  0.10799635123E+00  0.20358621963E-01  0.88754846430E+00  0.88000000000E+00 0.  1.
        -11    1    4    4    0    0 -0.13497986719E-01 -0.58190007514E-01 -0.14745668869E-01  0.61530224210E-01  0.51100000000E-03 0. -1.
         11    1    4    4    0    0 -0.35380399287E-01 -0.60386199394E-01 -0.19763301105E-01  0.72726301450E-01  0.51100000000E-03 0.  1.
</event>
<event>
 8    1  0.1114686E+005  0.1043930E+01  0.7957747E-01            NaN
         13   -1    0    0    0    0  0.00000000000E+00  0.00000000000E+00  0.74505805969E-08  0.10566000000E+00  0.10566000000E+00 0.  1.
     999900   -1    0    0    0    0 -0.00000000000E+00 -0.00000000000E+00 -0.74505805969E-08  0.93827000000E+00  0.93827000000E+00 0.  1.
     999902    2    1    2    0    0 -0.49707304827E-02 -0.21125149533E-01  0.94125565667E-02  0.10202746343E+01  0.10200003692E+01 0.  0.
     999903    2    3    3    0    0  0.58438490431E-01  0.91684392805E-01 -0.63793162446E-01  0.12780289839E+00  0.21045859781E-01 0.  0.
         14    1    1    2    0    0  0.49707304827E-02  0.21125149533E-01 -0.94125565667E-02  0.23655365680E-01  0.00000000000E+00 0. -1.
     999901    1    3    3    0    0 -0.63409220914E-01 -0.11280954234E+00  0.73205719013E-01  0.89247173593E+00  0.88000000000E+00 0.  1.
        -11    1    4    4    0    0  0.34319165348E-01  0.61564071572E-01 -0.30367345512E-01  0.76748790304E-01  0.51100000000E-03 0.  1.
         11    1    4    4    0    0  0.24119325083E-01  0.30120321233E-01 -0.33425816935E-01  0.51054108085E-01  0.51100000000E-03 0. -1.
</event>
<event>
 8    1  0.1114686E+005  0.1043930E+01  0.7957747E-01            NaN
         13   -1    0    0    0    0  0.00000000000E+00  0.00000000000E+00  0.74505805969E-08  0.10566000000E+00  0.10566000000E+00 0.  1.
     999900   -1    0    0    0    0 -0.00000000000E+00 -0.00000000000E+00 -0.74505805969E-08  0.93827000000E+00  0.93827000000E+00 0. -1.
     999902    2    1    2    0    0  0.18401454935E-01 -0.40038216411E-02 -0.13823904550E-01  0.10205688256E+01  0.10203014179E+01 0.  0.
     999903    2    3    3    0    0  0.30347101798E-01  0.12499190563E+00  0.95920354521E-02  0.13077620799E+00  0.21598295599E-01 0.  0.
         14    1    1    2    0    0 -0.18401454935E-01  0.40038216411E-02  0.13823904550E-01  0.23361174381E-01  0.00000000000E+00 0.  1.
     999901    1    3    3    0    0 -0.11945646863E-01 -0.12899572727E+00 -0.23415940002E-01  0.88979261762E+00  0.88000000000E+00 0. -1.
        -11    1    4    4    0    0  0.44703236069E-02  0.17185554778E-01  0.89786138994E-02  0.19904866609E-01  0.51100000000E-03 0. -1.
         11    1    4    4    0    0  0.25876778191E-01  0.10780635085E+00  0.61342155265E-03  0.11087134139E+00  0.51100000000E-03 0.  1.
</event>
<event>
 8    1  0.1114686E+005  0.1043930E+01  0.7957747E-01            NaN
         13   -1    0    0    0    0  0.00000000000E+00  0.00000000000E+00  0.74505805969E-08  0.10566000000E+00  0.10566000000E+00 0.  1.
     999900   -1    0    0    0    0 -0.00000000000E+00 -0.00000000000E+00 -0.74505805969E-08  0.93827000000E+00  0.93827000000E+00 0.  1.
     999902    2    1    2    0    0 -0.23296181135E-01 -0.54591842148E-02 -0.24350663670E-02  0.10198791311E+01  0.10195955069E+01 0.  0.
     999903    2    3    3    0    0  0.35984820551E-01 -0.66356808078E-01 -0.10385293686E+00  0.12998681051E+00  0.20322527476E-01 0.  0.
         14    1    1    2    0    0  0.23296181135E-01  0.54591842148E-02  0.24350663670E-02  0.24050868924E-01  0.00000000000E+00 0.  1.
     999901    1    3    3    0    0 -0.59281001686E-01  0.60897623863E-01  0.10141787049E+00  0.88989232057E+00  0.88000000000E+00 0. -1.
        -11    1    4    4    0    0  0.13264579309E-01 -0.19103421195E-01 -0.18105097709E-01  0.29477880685E-01  0.51100000000E-03 0.  1.
         11    1    4    4    0    0  0.22720241241E-01 -0.47253386883E-01 -0.85747839151E-01  0.10050892982E+00  0.51100000000E-03 0. -1.
</event>
<event>
 8    1  0.1114686E+005  0.1043930E+01  0.7957747E-01            NaN
         13   -1    0    0    0    0  0.00000000000E+00  0.00000000000E+00  0.74505805969E-08  0.10566000000E+00  0.10566000000E+00 0.  1.
     999900   -1    0    0    0    0 -0.00000000000E+00 -0.00000000000E+00 -0.74505805969E-08  0.93827000000E+00  0.93827000000E+00 0.  1.
     999902    2    1    2    0    0 -0.66522726308E-02  0.20483237629E-01 -0.40623529045E-02  0.10220138309E+01  0.10217788176E+01 0.  0.
     999903    2    3    3    0    0 -0.77372447440E-01 -0.87664549665E-01 -0.56026664444E-01  0.13106064660E+00  0.19139933848E-01 0.  0.
         14    1    1    2    0    0  0.66522726308E-02 -0.20483237629E-01  0.40623529045E-02  0.21916169055E-01  0.00000000000E+00 0.  1.
     999901    1    3    3    0    0  0.70720174809E-01  0.10814778729E+00  0.51964311539E-01  0.89095318435E+00  0.88000000000E+00 0. -1.
        -11    1    4    4    0    0 -0.64590863905E-01 -0.61334505491E-01 -0.44834906670E-01  0.99721267746E-01  0.51100000000E-03 0. -1.
         11    1    4    4    0    0 -0.12781583535E-01 -0.26330044174E-01 -0.11191757773E-01  0.31339378853E-01  0.51100000000E-03 0.  1.
</event>
<event>
 8    1  0.1114686E+005  0.1043930E+01  0.7957747E-01            NaN
         13   -1    0    0    0    0  0.00000000000E+00  0.00000000000E+00  0.74505805969E-08  0.10566000000E+00  0.10566000000E+00 0.  1.
     999900   -1    0    0    0    0 -0.00000000000E+00 -0.00000000000E+00 -0.74505805969E-08  0.93827000000E+00  0.93827000000E+00 0.  1.
     999902    2    1    2    0    0 -0.24464780220E-02  0.23852971955E-01 -0.19541840722E-02  0.10198723949E+01  0.10195886100E+01 0.  0.
     999903    2    3    3    0    0 -0.93839331440E-01 -0.26647207722E-01 -0.83656113769E-01  0.12994086549E+00  0.19245502014E-01 0.  0.
         14    1    1    2    0    0  0.24464780220E-02 -0.23852971955E-01  0.19541840722E-02  0.24057605059E-01  0.00000000000E+00 0.  1.
     999901    1    3    3    0    0  0.91392853418E-01  0.50500179677E-01  0.81701929697E-01  0.88993152946E+00  0.88000000000E+00 0.  1.
        -11    1    4    4    0    0 -0.73764021594E-01 -0.28463488041E-01 -0.69869222091E-01  0.10551431348E+00  0.51100000000E-03 0. -1.
         11    1    4    4    0    0 -0.20075309845E-01  0.18162803189E-02 -0.13786891678E-01  0.24426552002E-01  0.51100000000E-03 0.  1.
</event>
<event>
 8    1  0.1597923E+005  0.1043930E+01  0.7957747E-01            NaN
         13   -1    0    0    0    0  0.00000000000E+00  0.00000000000E+00  0.74505805969E-08  0.10566000000E+00  0.10566000000E+00 0.  1.
     999900   -1    0    0    0    0 -0.00000000000E+00 -0.00000000000E+00 -0.74505805969E-08  0.93827000000E+00  0.93827000000E+00 0. -1.
     999902    2    1    2    0    0 -0.84500242763E-02  0.88163250612E-02  0.26068337419E-01  0.10151430461E+01  0.10147348005E+01 0.  0.
     999903    2    3    3    0    0  0.57159340153E-01  0.22451695242E-02 -0.10570438380E+00  0.12289206190E+00  0.25628327493E-01 0.  0.
         14    1    1    2    0    0  0.84500242763E-02 -0.88163250612E-02 -0.26068337419E-01  0.28786953879E-01  0.00000000000E+00 0. -1.
     999901    1    3    3    0    0 -0.65609364429E-01  0.65711555371E-02  0.13177272122E+00  0.89225098422E+00  0.88000000000E+00 0.  1.
        -11    1    4    4    0    0  0.13963513781E-01  0.62142734593E-02 -0.50012684733E-01  0.52298438475E-01  0.51100000000E-03 0.  1.
         11    1    4    4    0    0  0.43195826372E-01 -0.39691039351E-02 -0.55691699069E-01  0.70593623424E-01  0.51100000000E-03 0. -1.
</event>
<event>
 8    1  0.1114686E+005  0.1043930E+01  0.7957747E-01            NaN
         13   -1    0    0    0    0  0.00000000000E+00  0.00000000000E+00  0.74505805969E-08  0.10566000000E+00  0.10566000000E+00 0.  1.
     999900   -1    0    0    0    0 -0.00000000000E+00 -0.00000000000E+00 -0.74505805969E-08  0.93827000000E+00  0.93827000000E+00 0.  1.
     999902    2    1    2    0    0 -0.20668357427E-01 -0.10798867738E-01  0.93331956784E-03  0.10205918846E+01  0.10203250107E+01 0.  0.
     999903    2    3    3    0    0  0.26294223555E-01 -0.41228867485E-01 -0.11948867511E+00  0.13062956763E+00  0.19883026732E-01 0.  0.
         14    1    1    2    0    0  0.20668357427E-01  0.10798867738E-01 -0.93331956784E-03  0.23338115360E-01  0.00000000000E+00 0.  1.
     999901    1    3    3    0    0 -0.46962580982E-01  0.30429999747E-01  0.12042199468E+00  0.88996231701E+00  0.88000000000E+00 0. -1.
        -11    1    4    4    0    0  0.19752106214E-01 -0.14029712714E-01 -0.45959386503E-01  0.51956759594E-01  0.51100000000E-03 0. -1.
         11    1    4    4    0    0  0.65421173412E-02 -0.27199154771E-01 -0.73529288610E-01  0.78672808035E-01  0.51100000000E-03 0.  1.
</event>
<event>
 8    1  0.1114686E+005  0.1043930E+01  0.7957747E-01            NaN
         13   -1    0    0    0    0  0.00000000000E+00  0.00000000000E+00  0.74505805969E-08  0.10566000000E+00  0.10566000000E+00 0.  1.
     999900   -1    0    0    0    0 -0.00000000000E+00 -0.00000000000E+00 -0.74505805969E-08  0.93827000000E+00  0.93827000000E+00 0.  1.
     999902    2    1    2    0    0  0.72010557081E-02  0.21101789693E-01  0.82225265340E-02  0.10201655165E+01  0.10198886853E+01 0.  0.
     999903    2    3    3    0    0 -0.11360878053E+00 -0.56590394965E-01  0.29502358964E-02  0.12850476876E+00  0.19883256380E-01 0.  0.
         14    1    1    2    0    0 -0.72010557081E-02 -0.21101789693E-01 -0.82225265340E-02  0.23764483461E-01  0.00000000000E+00 0.  1.
     999901    1    3    3    0    0  0.12080983624E+00  0.77692184658E-01  0.52722906376E-02  0.89166074778E+00  0.88000000000E+00 0. -1.
        -11    1    4    4    0    0 -0.44519489427E-01 -0.23826088654E-01 -0.84320886925E-02  0.51195983047E-01  0.51100000000E-03 0.  1.
         11    1    4    4    0    0 -0.69089291107E-01 -0.32764306312E-01  0.11382324589E-01  0.77308785709E-01  0.51100000000E-03 0. -1.
</event>
<event>
 8    1  0.1114686E+005  0.1043930E+01  0.7957747E-01            NaN
         13   -1    0    0    0    0  0.00000000000E+00  0.00000000000E+00  0.74505805969E-08  0.10566000000E+00  0.10566000000E+00 0. -1.
     999900   -1    0    0    0    0 -0.00000000000E+00 -0.00000000000E+00 -0.74505805969E-08  0.93827000000E+00  0.93827000000E+00 0. -1.
     999902    2    1    2    0    0  0.23089556858E-01  0.13274601503E-02  0.69668096023E-02  0.10197757825E+01  0.10194896863E+01 0.  0.
     999903    2    3    3    0    0  0.27506186469E-01 -0.10158437315E+00  0.75282328426E-01  0.13113785728E+00  0.21301020577E-01 0.  0.
         14    1    1    2    0    0 -0.23089556858E-01 -0.13274601503E-02 -0.69668096023E-02  0.24154217486E-01  0.00000000000E+00 0. -1.
     999901    1    3    3    0    0 -0.44166296112E-02  0.10291183330E+00 -0.68315518824E-01  0.88863792523E+00  0.88000000000E+00 0.  1.
        -11    1    4    4    0    0  0.77392564943E-02 -0.13818765565E-01  0.20105816704E-01  0.25599987484E-01  0.51100000000E-03 0. -1.
         11    1    4    4    0    0  0.19766929975E-01 -0.87765607580E-01  0.55176511722E-01  0.10553786980E+00  0.51100000000E-03 0.  1.
</event>
<event>
 8    1  0.1114686E+005  0.1043930E+01  0.7957747E-01            NaN
         13   -1    0    0    0    0  0.00000000000E+00  0.00000000000E+00  0.74505805969E-08  0.10566000000E+00  0.10566000000E+00 0. -1.
     999900   -1    0    0    0    0 -0.00000000000E+00 -0.00000000000E+00 -0.74505805969E-08  0.93827000000E+00  0.93827000000E+00 0.  1.
     999902    2    1    2    0    0 -0.16452550061E-01 -0.60385386694E-02 -0.17524689981E-01  0.10191456277E+01  0.10188442203E+01 0.  0.
     999903    2    3    3    0    0  0.49423312075E-01 -0.47996162208E-02 -0.11937954849E+00  0.13082385244E+00  0.19942509333E-01 0.  0.
         14    1    1    2    0    0  0.16452550061E-01  0.60385386694E-02  0.17524689981E-01  0.24784372328E-01  0.00000000000E+00 0. -1.
     999901    1    3    3    0    0 -0.65875862136E-01 -0.12389224485E-02  0.10185485851E+00  0.88832177523E+00  0.88000000000E+00 0. -1.
        -11    1    4    4    0    0  0.37023101957E-01  0.33917649849E-02 -0.97687159645E-01  0.10452395146E+00  0.51100000000E-03 0. -1.
         11    1    4    4    0    0  0.12400210118E-01 -0.81913812057E-02 -0.21692388845E-01  0.26299900985E-01  0.51100000000E-03 0.  1.
</event>
<event>
 8    1  0.1114686E+005  0.1043930E+01  0.7957747E-01            NaN
         13   -1    0    0    0    0  0.00000000000E+00  0.00000000000E+00  0.74505805969E-08  0.10566000000E+00  0.10566000000E+00 0. -1.
     999900   -1    0    0    0    0 -0.00000000000E+00 -0.00000000000E+00 -0.74505805969E-08  0.93827000000E+00  0.93827000000E+00 0. -1.
     999902    2    1    2    0    0 -0.20218481111E-01 -0.69813639046E-02 -0.99338167120E-02  0.10203459559E+01  0.10200733614E+01 0.  0.
     999903    2    3    3    0    0  0.36519239665E-01  0.12217267371E+00  0.10231939268E-02  0.12904354346E+00  0.19783126993E-01 0.  0.
         14    1    1    2    0    0  0.20218481111E-01  0.69813639046E-02  0.99338167120E-02  0.23584044074E-01  0.00000000000E+00 0. -1.
     999901    1    3    3    0    0 -0.56737720776E-01 -0.12915403762E+00 -0.10957010639E-01  0.89130241247E+00  0.88000000000E+00 0. -1.
        -11    1    4    4    0    0  0.14491892937E-01  0.53952721617E-01  0.10127430119E-01  0.56777963090E-01  0.51100000000E-03 0. -1.
         11    1    4    4    0    0  0.22027346729E-01  0.68219952098E-01 -0.91042361923E-02  0.72265580367E-01  0.51100000000E-03 0.  1.
</event>
<event>
 8    1  0.1114686E+005  0.1043930E+01  0.7957747E-01            NaN
         13   -1    0    0    0    0  0.00000000000E+00  0.00000000000E+00  0.74505805969E-08  0.10566000000E+00  0.10566000000E+00 0.  1.
     999900   -1    0    0    0    0 -0.00000000000E+00 -0.00000000000E+00 -0.74505805969E-08  0.93827000000E+00  0.93827000000E+00 0. -1.
     999902    2    1    2    0    0 -0.20476150300E-01  0.16449991841E-03  0.11134301514E-01  0.10206217941E+01  0.10203556116E+01 0.  0.
     999903    2    3    3    0    0  0.83569644629E-01 -0.89998663852E-01  0.36150900179E-01  0.12956581734E+00  0.19919047167E-01 0.  0.
         14    1    1    2    0    0  0.20476150300E-01 -0.16449991841E-03 -0.11134301514E-01  0.23308205884E-01  0.00000000000E+00 0. -1.
     999901    1    3    3    0    0 -0.10404579493E+00  0.90163163771E-01 -0.25016598664E-01  0.89105597678E+00  0.88000000000E+00 0. -1.
        -11    1    4    4    0    0  0.70101677508E-02 -0.17883037193E-01  0.45928627699E-02  0.19756036560E-01  0.51100000000E-03 0. -1.
         11    1    4    4    0    0  0.76559476878E-01 -0.72115626659E-01  0.31558037409E-01  0.10980978078E+00  0.51100000000E-03 0.  1.
</event>
<event>
 8    1  0.1114686E+005  0.1043930E+01  0.7957747E-01            NaN
         13   -1    0    0    0    0  0.00000000000E+00  0.00000000000E+00  0.74505805969E-08  0.10566000000E+00  0.10566000000E+00 0.  1.
     999900   -1    0    0    0    0 -0.00000000000E+00 -0.00000000000E+00 -0.74505805969E-08  0.93827000000E+00  0.93827000000E+00 0. -1.
     999902    2    1    2    0    0  0.18822219405E-01 -0.16560842486E-01  0.30898003064E-02  0.10186696692E+01  0.10183564261E+01 0.  0.
     999903    2    3    3    0    0 -0.40669462967E-01  0.11499704306E+00  0.27754507332E-01  0.12656256502E+00  0.19220953558E-01 0.  0.
         14    1    1    2    0    0 -0.18822219405E-01  0.16560842486E-01 -0.30898003064E-02  0.25260330820E-01  0.00000000000E+00 0.  1.
     999901    1    3    3    0    0  0.59491682372E-01 -0.13155788555E+00 -0.24664707025E-01  0.89210710416E+00  0.88000000000E+00 0.  1.
        -11    1    4    4    0    0 -0.19273141646E-01  0.52166101373E-01  0.29161278347E-02  0.55691301330E-01  0.51100000000E-03 0. -1.
         11    1    4    4    0    0 -0.21396321321E-01  0.62830941691E-01  0.24838379497E-01  0.70871263689E-01  0.51100000000E-03 0.  1.
</event>
<event>
 8    1  0.1114686E+005  0.1043930E+01  0.7957747E-01            NaN
         13   -1    0    0    0    0  0.00000000000E+00  0.00000000000E+00  0.74505805969E-08  0.10566000000E+00  0.10566000000E+00 0. -1.
     999900   -1    0    0    0    0 -0.00000000000E+00 -0.00000000000E+00 -0.74505805969E-08  0.93827000000E+00  0.93827000000E+00 0.  1.
     999902    2    1    2    0    0  0.78526270218E-03 -0.17735505390E-01  0.15455999000E-01  0.10203916761E+01  0.10201201497E+01 0.  0.
     999903    2    3    3    0    0 -0.66731021669E-01  0.61222554568E-01 -0.88253488226E-01  0.12823222751E+00  0.21297782696E-01 0.  0.
         14    1    1    2    0    0 -0.78526270218E-03  0.17735505390E-01 -0.15455999000E-01  0.23538323943E-01  0.00000000000E+00 0. -1.
     999901    1    3    3    0    0  0.67516284372E-01 -0.78958059958E-01  0.10370948723E+00  0.89215944855E+00  0.88000000000E+00 0. -1.
        -11    1    4    4    0    0 -0.29117939947E-01  0.20326132764E-01 -0.22058960364E-01  0.41807474849E-01  0.51100000000E-03 0.  1.
         11    1    4    4    0    0 -0.37613081722E-01  0.40896421804E-01 -0.66194527862E-01  0.86424752663E-01  0.51100000000E-03 0. -1.
</event>
<event>
 8    1  0.1114686E+005  0.1043930E+01  0.7957747E-01            NaN
         13   -1    0    0    0    0  0.00000000000E+00  0.00000000000E+00  0.74505805969E-08  0.10566000000E+00  0.10566000000E+00 0.  1.
     999900   -1    0    0    0    0 -0.00000000000E+00 -0.00000000000E+00 -0.74505805969E-08  0.93827000000E+00  0.93827000000E+00 0.  1.
     999902    2    1    2    0    0 -0.16604178403E-01  0.14873001882E-01  0.61324115283E-02  0.10208104975E+01  0.10205486565E+01 0.  0.
     999903    2    3    3    0    0 -0.68089971707E-01 -0.58992768183E-01  0.94185979875E-01  0.13184459836E+00  0.19889906182E-01 0.  0.
         14    1    1    2    0    0  0.16604178403E-01 -0.14873001882E-01 -0.61324115283E-02  0.23119502515E-01  0.00000000000E+00 0.  1.
     999901    1    3    3    0    0  0.51485793304E-01  0.73865770064E-01 -0.88053568347E-01  0.88896589912E+00  0.88000000000E+00 0.  1.
        -11    1    4    4    0    0 -0.52731816540E-01 -0.34269229943E-01  0.59689682172E-01  0.86707230813E-01  0.51100000000E-03 0. -1.
         11    1    4    4    0    0 -0.15358155167E-01 -0.24723538240E-01  0.34496297704E-01  0.45137367551E-01  0.51100000000E-03 0.  1.
</event>
<event>
 8    1  0.1114686E+005  0.1043930E+01  0.7957747E-01            NaN
         13   -1    0    0    0    0  0.00000000000E+00  0.00000000000E+00  0.74505805969E-08  0.10566000000E+00  0.10566000000E+00 0. -1.
     999900   -1    0    0    0    0 -0.00000000000E+00 -0.00000000000E+00 -0.74505805969E-08  0.93827000000E+00  0.93827000000E+00 0. -1.
     999902    2    1    2    0    0 -0.44095463309E-02 -0.29379546615E-01 -0.50909118854E-02  0.10137883471E+01  0.10133401667E+01 0.  0.
     999903    2    3    3    0    0  0.51175501702E-01 -0.93773642595E-01 -0.67093881289E-01  0.12751487607E+00  0.18601792745E-01 0.  0.
         14    1    1    2    0    0  0.44095463309E-02  0.29379546615E-01  0.50909118854E-02  0.30141652940E-01  0.00000000000E+00 0. -1.
     999901    1    3    3    0    0 -0.55585048033E-01  0.64394095979E-01  0.62002969403E-01  0.88627347099E+00  0.88000000000E+00 0.  1.
        -11    1    4    4    0    0  0.47185281721E-01 -0.70747470657E-01 -0.51593684998E-01  0.99467707665E-01  0.51100000000E-03 0.  1.
         11    1    4    4    0    0  0.39902199808E-02 -0.23026171937E-01 -0.15500196290E-01  0.28047168407E-01  0.51100000000E-03 0. -1.
</event>
<event>
 7    1  0.1114686E+005  0.1043930E+01  0.7957747E-01            NaN
         13   -1    0    0    0    0  0.00000000000E+00  0.00000000000E+00  0.74505805969E-08  0.10566000000E+00  0.10566000000E+00 0.  1.
     999900   -1    0    0    0    0 -0.00000000000E+00 -0.00000000000E+00 -0.74505805969E-08  0.93827000000E+00  0.93827000000E+00 0. -1.
     999902    2    1    2    0    0 -0.14206211477E-01 -0.17784904082E-01  0.57936969894E-02  0.10204419992E+01  0.10201716461E+01 0.  0.
         14    1    1    2    0    0  0.14206211477E-01  0.17784904082E-01 -0.57936969894E-02  0.23488000821E-01  0.00000000000E+00 0.  1.
     999901    1    3    3    0    0  0.34232553773E-01  0.82536452042E-01 -0.58418804259E-01  0.88645185450E+00  0.88000000000E+00 0. -1.
        -11    1    3    3    0    0 -0.53045311862E-01 -0.75281344348E-01  0.48815935885E-01  0.10423215739E+00  0.51100000000E-03 0. -1.
         11    1    3    3    0    0  0.46065466123E-02 -0.25040011776E-01  0.15396565363E-01  0.29757987288E-01  0.51100000000E-03 0.  1.
</event>
<event>
 8    1  0.1114686E+005  0.1043930E+01  0.7957747E-01            NaN
         13   -1    0    0    0    0  0.00000000000E+00  0.00000000000E+00  0.74505805969E-08  0.10566000000E+00  0.10566000000E+00 0. -1.
     999900   -1    0    0    0    0 -0.00000000000E+00 -0.00000000000E+00 -0.74505805969E-08  0.93827000000E+00  0.93827000000E+00 0. -1.
     999902    2    1    2    0    0 -0.20610484893E-01 -0.12159319230E-01 -0.91116670991E-04  0.10199999053E+01  0.10197191561E+01 0.  0.
     999903    2    3    3    0    0  0.11798531821E+00 -0.40174177197E-02  0.45148104984E-01  0.12796757717E+00  0.20016854482E-01 0.  0.
         14    1    1    2    0    0  0.20610484893E-01  0.12159319230E-01  0.91116670991E-04  0.23930094733E-01  0.00000000000E+00 0.  1.
     999901    1    3    3    0    0 -0.13859580311E+00 -0.81419015104E-02 -0.45239221655E-01  0.89203232810E+00  0.88000000000E+00 0. -1.
        -11    1    4    4    0    0  0.40236433506E-01 -0.30248841824E-02  0.25608952501E-01  0.47793305753E-01  0.51100000000E-03 0.  1.
         11    1    4    4    0    0  0.77748884708E-01 -0.99253353738E-03  0.19539152483E-01  0.80174271415E-01  0.51100000000E-03 0. -1.
</event>
<event>
 8    1  0.1114686E+005  0.1043930E+01  0.7957747E-01            NaN
         13   -1    0    0    0    0  0.00000000000E+00  0.00000000000E+00  0.74505805969E-08  0.10566000000E+00  0.10566000000E+00 0.  1.
     999900   -1    0    0    0    0 -0.00000000000E+00 -0.00000000000E+00 -0.74505805969E-08  0.93827000000E+00  0.93827000000E+00 0.  1.
     999902    2    1    2    0    0 -0.36481578181E-02 -0.25483924692E-01 -0.13110286561E-04  0.10181862698E+01  0.10178607667E+01 0.  0.
     999903    2    3    3    0    0  0.23325533503E-01 -0.18359033802E-01  0.12454057235E+00  0.12897765313E+00  0.15612373617E-01 0.  0.
         14    1    1    2    0    0  0.36481578181E-02  0.25483924692E-01  0.13110286561E-04  0.25743730208E-01  0.00000000000E+00 0. -1.
     999901    1    3    3    0    0 -0.26973691321E-01 -0.71248908902E-02 -0.12455368263E+00  0.88920861667E+00  0.88000000000E+00 0.  1.
        -11    1    4    4    0    0 -0.16007265006E-02 -0.21895381985E-02  0.23395646017E-01  0.23557881407E-01  0.51100000000E-03 0.  1.
         11    1    4    4    0    0  0.24926260003E-01 -0.16169495603E-01  0.10114492633E+00  0.10541977172E+00  0.51100000000E-03 0. -1.
</event>
<event>
 8    1  0.1114686E+005  0.1043930E+01  0.7957747E-01            NaN
         13   -1    0    0    0    0  0.00000000000E+00  0.00000000000E+00  0.74505805969E-08  0.10566000000E+00  0.10566000000E+00 0.  1.
     999900   -1    0    0    0    0 -0.00000000000E+00 -0.00000000000E+00 -0.74505805969E-08  0.93827000000E+00  0.93827000000E+00 0. -1.
     999902    2    1    2    0    0  0.12756563240E-02  0.14195176572E-02 -0.20083533926E-01  0.10237559904E+01  0.10235571978E+01 0.  0.
     999903    2    3    3    0    0 -0.41930038507E-01 -0.89444143522E-01  0.84819388465E-01  0.13183247341E+00  0.20666142505E-01 0.  0.
         14    1    1    2    0    0 -0.12756563240E-02 -0.14195176572E-02  0.20083533926E-01  0.20174009626E-01  0.00000000000E+00 0.  1.
     999901    1    3    3    0    0  0.43205694831E-01  0.90863661179E-01 -0.10490292239E+00  0.89192351696E+00  0.88000000000E+00 0. -1.
        -11    1    4    4    0    0 -0.15545019651E-01 -0.37570237229E-01  0.48238319789E-01  0.63090149615E-01  0.51100000000E-03 0.  1.
         11    1    4    4    0    0 -0.26385018856E-01 -0.51873906293E-01  0.36581068676E-01  0.68742323794E-01  0.51100000000E-03 0. -1.
</event>
<event>
 8    1  0.1114686E+005  0.1043930E+01  0.7957747E-01            NaN
         13   -1    0    0    0    0  0.00000000000E+00  0.00000000000E+00  0.74505805969E-08  0.10566000000E+00  0.10566000000E+00 0. -1.
     999900   -1    0    0    0    0 -0.00000000000E+00 -0.00000000000E+00 -0.74505805969E-08  0.93827000000E+00  0.93827000000E+00 0. -1.
     999902    2    1    2    0    0  0.32758505209E-02  0.37647637264E-02  0.23397914719E-01  0.10200058061E+01  0.10197251970E+01 0.  0.
     999903    2    3    3    0    0  0.11418617256E+00  0.47842490558E-01 -0.34315471713E-01  0.13007615687E+00  0.20368335216E-01 0.  0.
         14    1    1    2    0    0 -0.32758505209E-02 -0.37647637264E-02 -0.23397914719E-01  0.23924193941E-01  0.00000000000E+00 0.  1.
     999901    1    3    3    0    0 -0.11091032204E+00 -0.44077726831E-01  0.57713386432E-01  0.88992964919E+00  0.88000000000E+00 0. -1.
        -11    1    4    4    0    0  0.72786914223E-01  0.20516619497E-01 -0.24610682396E-01  0.79528695241E-01  0.51100000000E-03 0. -1.
         11    1    4    4    0    0  0.41399258338E-01  0.27325871061E-01 -0.97047893161E-02  0.50547461626E-01  0.51100000000E-03 0.  1.
</event>
<event>
 8    1  0.1114686E+005  0.1043930E+01  0.7957747E-01            NaN
         13   -1    0    0    0    0  0.00000000000E+00  0.00000000000E+00  0.74505805969E-08  0.10566000000E+00  0.10566000000E+00 0.  1.
     999900   -1    0    0    0    0 -0.00000000000E+00 -0.00000000000E+00 -0.74505805969E-08  0.93827000000E+00  0.93827000000E+00 0.  1.
     999902    2    1    2    0    0 -0.12696529260E-01  0.16949257862E-01 -0.12115217710E-01  0.10195320965E+01  0.10192401277E+01 0.  0.
     999903    2    3    3    0    0  0.26411835067E-01 -0.75017302804E-01  0.97088673786E-01  0.12716849211E+00  0.20504488677E-01 0.  0.
         14    1    1    2    0    0  0.12696529260E-01 -0.16949257862E-01  0.12115217710E-01  0.24397903547E-01  0.00000000000E+00 0.  1.
     999901    1    3    3    0    0 -0.39108364327E-01  0.91966560666E-01 -0.10920389150E+00  0.89236360434E+00  0.88000000000E+00 0.  1.
        -11    1    4    4    0    0  0.85144933035E-02 -0.44774556196E-01  0.66227870624E-01  0.80396824857E-01  0.51100000000E-03 0. -1.
         11    1    4    4    0    0  0.17897341763E-01 -0.30242746609E-01  0.30860803162E-01  0.46771667251E-01  0.51100000000E-03 0.  1.
</event>
<event>
 8    1  0.1114686E+005  0.1043930E+01  0.7957747E-01            NaN
         13   -1    0    0    0    0  0.00000000000E+00  0.00000000000E+00  0.74505805969E-08  0.10566000000E+00  0.10566000000E+00 0.  1.
     999900   -1    0    0    0    0 -0.00000000000E+00 -0.00000000000E+00 -0.74505805969E-08  0.93827000000E+00  0.93827000000E+00 0. -1.
     999902    2    1    2    0    0  0.36346674386E-02  0.14894827902E-01  0.15506183659E-01  0.10221238441E+01  0.10218912095E+01 0.  0.
     999903    2    3    3    0    0  0.10108092058E+00 -0.42354080421E-01 -0.69838352775E-01  0.13080072663E+00  0.14839606935E-01 0.  0.
         14    1    1    2    0    0 -0.36346674386E-02 -0.14894827902E-01 -0.15506183659E-01  0.21806155949E-01  0.00000000000E+00 0. -1.
     999901    1    3    3    0    0 -0.97446253143E-01  0.57248908323E-01  0.85344536434E-01  0.89132311742E+00  0.88000000000E+00 0.  1.
        -11    1    4    4    0    0  0.57776432409E-01 -0.31756140683E-01 -0.39214261453E-01  0.76711068532E-01  0.51100000000E-03 0. -1.
         11    1    4    4    0    0  0.43304488173E-01 -0.10597939738E-01 -0.30624091322E-01  0.54089658095E-01  0.51100000000E-03 0.  1.
</event>
<event>
 8    1  0.1114686E+005  0.1043930E+01  0.7957747E-01            NaN
         13   -1    0    0    0    0  0.00000000000E+00  0.00000000000E+00  0.74505805969E-08  0.10566000000E+00  0.10566000000E+00 0.  1.
     999900   -1    0    0    0    0 -0.00000000000E+00 -0.00000000000E+00 -0.74505805969E-08  0.93827000000E+00  0.93827000000E+00 0.  1.
     999902    2    1    2    0    0  0.50322646669E-02  0.15147454231E-01 -0.18675112796E-01  0.10193631749E+01  0.10190670996E+01 0.  0.
     999903    2    3    3    0    0 -0.46914599164E-01  0.26476680211E-01 -0.11896729619E+00  0.13207215721E+00  0.19693728382E-01 0.  0.
         14    1    1    2    0    0 -0.50322646669E-02 -0.15147454231E-01  0.18675112796E-01  0.24566825096E-01  0.00000000000E+00 0.  1.
     999901    1    3    3    0    0  0.51946863831E-01 -0.11329225980E-01  0.10029218340E+00  0.88729101769E+00  0.88000000000E+00 0. -1.
        -11    1    4    4    0    0 -0.24303971052E-01  0.19865224375E-01 -0.48538285552E-01  0.57806024199E-01  0.51100000000E-03 0. -1.
         11    1    4    4    0    0 -0.22610628112E-01  0.66114558360E-02 -0.70429010643E-01  0.74266133015E-01  0.51100000000E-03 0.  1.
</event>
<event>
 8    1  0.1114686E+005  0.1043930E+01  0.7957747E-01            NaN
         13   -1    0    0    0    0  0.00000000000E+00  0.00000000000E+00  0.74505805969E-08  0.10566000000E+00  0.10566000000E+00 0.  1.
     999900   -1    0    0    0    0 -0.00000000000E+00 -0.00000000000E+00 -0.74505805969E-08  0.93827000000E+00  0.93827000000E+00 0. -1.
     999902    2    1    2    0    0  0.32197627515E-02 -0.20686292265E-01  0.11588744911E-01  0.10200011770E+01  0.10197204581E+01 0.  0.
     999903    2    3    3    0    0 -0.96638220865E-01 -0.39681702129E-01 -0.74539687266E-01  0.12997277900E+00  0.20571219858E-01 0.  0.
         14    1    1    2    0    0 -0.32197627515E-02  0.20686292265E-01 -0.11588744911E-01  0.23928822965E-01  0.00000000000E+00 0. -1.
     999901    1    3    3    0    0  0.99857983616E-01  0.18995409864E-01  0.86128432176E-01  0.89002839804E+00  0.88000000000E+00 0.  1.
        -11    1    4    4    0    0 -0.15663084279E-01 -0.15166370302E-01 -0.17052224526E-01  0.27683758407E-01  0.51100000000E-03 0.  1.
         11    1    4    4    0    0 -0.80975136586E-01 -0.24515331827E-01 -0.57487462740E-01  0.10228902059E+00  0.51100000000E-03 0. -1.
</event>
<event>
 8    1  0.1201326E+005  0.1043930E+01  0.7957747E-01            NaN
         13   -1    0    0    0    0  0.00000000000E+00  0.00000000000E+00  0.74505805969E-08  0.10566000000E+00  0.10566000000E+00 0. -1.
     999900   -1    0    0    0    0 -0.00000000000E+00 -0.00000000000E+00 -0.74505805969E-08  0.93827000000E+00  0.93827000000E+00 0. -1.
     999902    2    1    2    0    0  0.85188474859E-03  0.41314471903E-02  0.23264937125E-01  0.10202857224E+01  0.10200117173E+01 0.  0.
     999903    2    3    3    0    0 -0.38775692044E-02  0.10621947277E-01 -0.12559806658E+00  0.12774738250E+00  0.20412204693E-01 0.  0.
         14    1    1    2    0    0 -0.85188474859E-03 -0.41314471903E-02 -0.23264937125E-01  0.23644277594E-01  0.00000000000E+00 0.  1.
     999901    1    3    3    0    0  0.47294539530E-02 -0.64905000867E-02  0.14886300371E+00  0.89253833990E+00  0.88000000000E+00 0.  1.
        -11    1    4    4    0    0 -0.37120776849E-02 -0.50043357427E-02 -0.59390231588E-01  0.59718369252E-01  0.51100000000E-03 0.  1.
         11    1    4    4    0    0 -0.16549151956E-03  0.15626283020E-01 -0.66207834992E-01  0.68029013251E-01  0.51100000000E-03 0. -1.
</event>
<event>
 7    1  0.1114686E+005  0.1043930E+01  0.7957747E-01            NaN
         13   -1    0    0    0    0  0.00000000000E+00  0.00000000000E+00  0.74505805969E-08  0.10566000000E+00  0.10566000000E+00 0.  1.
     999900   -1    0    0    0    0 -0.00000000000E+00 -0.00000000000E+00 -0.74505805969E-08  0.93827000000E+00  0.93827000000E+00 0. -1.
     999902    2    1    2    0    0 -0.93470172300E-04  0.17472618203E-01 -0.12463789929E-01  0.10224673072E+01  0.10222420198E+01 0.  0.
         14    1    1    2    0    0  0.93470172300E-04 -0.17472618203E-01  0.12463789929E-01  0.21462692817E-01  0.00000000000E+00 0.  1.
     999901    1    3    3    0    0 -0.60785141114E-02 -0.87880396923E-01 -0.48558289434E-01  0.88573010560E+00  0.88000000000E+00 0.  1.
        -11    1    3    3    0    0 -0.16137528148E-02  0.72091037430E-01 -0.16564575414E-01  0.73988973203E-01  0.51100000000E-03 0.  1.
         11    1    3    3    0    0  0.75987967539E-02  0.33261977696E-01  0.52659074919E-01  0.62748228379E-01  0.51100000000E-03 0. -1.
</event>
<event>
 8    1  0.1114686E+005  0.1043930E+01  0.7957747E-01            NaN
         13   -1    0    0    0    0  0.00000000000E+00  0.00000000000E+00  0.74505805969E-08  0.10566000000E+00  0.10566000000E+00 0.  1.
     999900   -1    0    0    0    0 -0.00000000000E+00 -0.00000000000E+00 -0.74505805969E-08  0.93827000000E+00  0.93827000000E+00 0.  1.
     999902    2    1    2    0    0 -0.21545012269E-01 -0.74312205037E-02  0.60264690771E-02  0.10203560966E+01  0.10200837392E+01 0.  0.
     999903    2    3    3    0    0  0.77753558013E-01 -0.99925316213E-01  0.20339676428E-01  0.12983926256E+00  0.20343231362E-01 0.  0.
         14    1    1    2    0    0  0.21545012269E-01  0.74312205037E-02 -0.60264690771E-02  0.23573903397E-01  0.00000000000E+00 0.  1.
     999901    1    3    3    0    0 -0.99298570282E-01  0.92494095709E-01 -0.14313207351E-01  0.89051683404E+00  0.88000000000E+00 0.  1.
        -11    1    4    4    0    0  0.49766608657E-01 -0.58225837771E-01  0.28260041999E-02  0.76649924606E-01  0.51100000000E-03 0.  1.
         11    1    4    4    0    0  0.27986949355E-01 -0.41699478442E-01  0.17513672228E-01  0.53189337958E-01  0.51100000000E-03 0. -1.
</event>
<event>
 8    1  0.1114686E+005  0.1043930E+01  0.7957747E-01            NaN
         13   -1    0    0    0    0  0.00000000000E+00  0.00000000000E+00  0.74505805969E-08  0.10566000000E+00  0.10566000000E+00 0.  1.
     999900   -1    0    0    0    0 -0.00000000000E+00 -0.00000000000E+00 -0.74505805969E-08  0.93827000000E+00  0.93827000000E+00 0.  1.
     999902    2    1    2    0    0 -0.11730635381E-01 -0.81161982100E-02  0.18575192998E-01  0.10205095330E+01  0.10202407503E+01 0.  0.
     999903    2    3    3    0    0 -0.39865833729E-01  0.10730878874E+00  0.61882523277E-01  0.13147070265E+00  0.18725333900E-01 0.  0.
         14    1    1    2    0    0  0.11730635381E-01  0.81161982100E-02 -0.18575192998E-01  0.23420467005E-01  0.00000000000E+00 0. -1.
     999901    1    3    3    0    0  0.28135198349E-01 -0.11542498695E+00 -0.43307330279E-01  0.88903883034E+00  0.88000000000E+00 0.  1.
        -11    1    4    4    0    0 -0.13751487651E-01  0.27253338085E-01  0.25333759406E-01  0.39672513609E-01  0.51100000000E-03 0.  1.
         11    1    4    4    0    0 -0.26114346078E-01  0.80055450654E-01  0.36548763870E-01  0.91798189045E-01  0.51100000000E-03 0. -1.
</event>
<event>
 8    1  0.1114686E+005  0.1043930E+01  0.7957747E-01            NaN
         13   -1    0    0    0    0  0.00000000000E+00  0.00000000000E+00  0.74505805969E-08  0.10566000000E+00  0.10566000000E+00 0.  1.
     999900   -1    0    0    0    0 -0.00000000000E+00 -0.00000000000E+00 -0.74505805969E-08  0.93827000000E+00  0.93827000000E+00 0.  1.
     999902    2    1    2    0    0  0.19666981524E-01 -0.63856736899E-02  0.17472170298E-01  0.10168589135E+01  0.10164985028E+01 0.  0.
     999903    2    3    3    0    0 -0.10399874276E+00  0.38454972775E-01  0.56764883455E-01  0.12621430857E+00  0.20329197393E-01 0.  0.
         14    1    1    2    0    0 -0.19666981524E-01  0.63856736899E-02 -0.17472170298E-01  0.27071086525E-01  0.00000000000E+00 0. -1.
     999901    1    3    3    0    0  0.12366572429E+00 -0.44840646465E-01 -0.39292713157E-01  0.89064460490E+00  0.88000000000E+00 0.  1.
        -11    1    4    4    0    0 -0.48953207556E-01  0.28916585939E-01  0.29058276389E-01  0.63853191151E-01  0.51100000000E-03 0. -1.
         11    1    4    4    0    0 -0.55045535208E-01  0.95383868356E-02  0.27706607066E-01  0.62361117420E-01  0.51100000000E-03 0.  1.
</event>
<event>
 8    1  0.1114686E+005  0.1043930E+01  0.7957747E-01            NaN
         13   -1    0    0    0    0  0.00000000000E+00  0.00000000000E+00  0.74505805969E-08  0.10566000000E+00  0.10566000000E+00 0.  1.
     999900   -1    0    0    0    0 -0.00000000000E+00 -0.00000000000E+00 -0.74505805969E-08  0.93827000000E+00  0.93827000000E+00 0.  1.
     999902    2    1    2    0    0 -0.10132791794E-01 -0.10082848404E-01  0.20363370352E-01  0.10190502059E+01  0.10187464444E+01 0.  0.
     999903    2    3    3    0    0  0.11909645494E+00 -0.12594401790E-01 -0.39499382258E-01  0.12759630623E+00  0.19443035491E-01 0.  0.
         14    1    1    2    0    0  0.10132791794E-01  0.10082848404E-01 -0.20363370352E-01  0.24879794082E-01  0.00000000000E+00 0. -1.
     999901    1    3    3    0    0 -0.12922924674E+00  0.25115533861E-02  0.59862752610E-01  0.89145389968E+00  0.88000000000E+00 0.  1.
        -11    1    4    4    0    0  0.69442927272E-01 -0.36313228545E-03 -0.15744923878E-01  0.71208256277E-01  0.51100000000E-03 0.  1.
         11    1    4    4    0    0  0.49653527672E-01 -0.12231269505E-01 -0.23754458380E-01  0.56388049956E-01  0.51100000000E-03 0. -1.
</event>
<event>
 8    1  0.1114686E+005  0.1043930E+01  0.7957747E-01            NaN
         13   -1    0    0    0    0  0.00000000000E+00  0.00000000000E+00  0.74505805969E-08  0.10566000000E+00  0.10566000000E+00 0.  1.
     999900   -1    0    0    0    0 -0.00000000000E+00 -0.00000000000E+00 -0.74505805969E-08  0.93827000000E+00  0.93827000000E+00 0. -1.
     999902    2    1    2    0    0 -0.12080112652E-01  0.12994108909E-01 -0.16506707425E-01  0.10196968125E+01  0.10194088198E+01 0.  0.
     999903    2    3    3    0    0  0.11995669472E+00 -0.20880837149E-01  0.33446479451E-01  0.12780189077E+00  0.19724054587E-01 0.  0.
         14    1    1    2    0    0  0.12080112652E-01 -0.12994108909E-01  0.16506707425E-01  0.24233187533E-01  0.00000000000E+00 0.  1.
     999901    1    3    3    0    0 -0.13203680737E+00  0.33874946058E-01 -0.49953186875E-01  0.89189492170E+00  0.88000000000E+00 0. -1.
        -11    1    4    4    0    0  0.61400481726E-01 -0.87078732281E-03  0.14733299991E-01  0.63151474063E-01  0.51100000000E-03 0. -1.
         11    1    4    4    0    0  0.58556212990E-01 -0.20010049826E-01  0.18713179460E-01  0.64650416706E-01  0.51100000000E-03 0.  1.
</event>
<event>
 8    1  0.1114686E+005  0.1043930E+01  0.7957747E-01            NaN
         13   -1    0    0    0    0  0.00000000000E+00  0.00000000000E+00  0.74505805969E-08  0.10566000000E+00  0.10566000000E+00 0.  1.
     999900   -1    0    0    0    0 -0.00000000000E+00 -0.00000000000E+00 -0.74505805969E-08  0.93827000000E+00  0.93827000000E+00 0. -1.
     999902    2    1    2    0    0  0.13294025220E-01 -0.12761118533E-01 -0.15184811927E-01  0.10200520653E+01  0.10197725531E+01 0.  0.
     999903    2    3    3    0    0  0.29034838606E-01  0.10858783457E+00  0.58794745884E-01  0.12851052582E+00  0.20586243814E-01 0.  0.
         14    1    1    2    0    0 -0.13294025220E-01  0.12761118533E-01  0.15184811927E-01  0.23877934710E-01  0.00000000000E+00 0.  1.
     999901    1    3    3    0    0 -0.15740813385E-01 -0.12134895310E+00 -0.73979557810E-01  0.89154153947E+00  0.88000000000E+00 0. -1.
        -11    1    4    4    0    0  0.30483161625E-02  0.22204253230E-01  0.20953359800E-01  0.30685916979E-01  0.51100000000E-03 0.  1.
         11    1    4    4    0    0  0.25986522443E-01  0.86383581338E-01  0.37841386084E-01  0.97824608842E-01  0.51100000000E-03 0. -1.
</event>
<event>
 8    1  0.1114686E+005  0.1043930E+01  0.7957747E-01            NaN
         13   -1    0    0    0    0  0.00000000000E+00  0.00000000000E+00  0.74505805969E-08  0.10566000000E+00  0.10566000000E+00 0.  1.
     999900   -1    0    0    0    0 -0.00000000000E+00 -0.00000000000E+00 -0.74505805969E-08  0.93827000000E+00  0.93827000000E+00 0.  1.
     999902    2    1    2    0    0  0.12997183105E-01  0.17997480459E-01  0.71418137741E-02  0.10206095889E+01  0.10203431243E+01 0.  0.
     999903    2    3    3    0    0 -0.42594677928E-01 -0.11857660694E+00  0.13134836777E-01  0.12832104098E+00  0.20470645307E-01 0.  0.
         14    1    1    2    0    0 -0.12997183105E-01 -0.17997480459E-01 -0.71418137741E-02  0.23320411135E-01  0.00000000000E+00 0. -1.
     999901    1    3    3    0    0  0.55591861033E-01  0.13657408740E+00 -0.59930230032E-02  0.89228854789E+00  0.88000000000E+00 0.  1.
        -11    1    4    4    0    0 -0.29972262009E-01 -0.84123684330E-01 -0.11850507589E-03  0.89305128182E-01  0.51100000000E-03 0.  1.
         11    1    4    4    0    0 -0.12622415919E-01 -0.34452922612E-01  0.13253341853E-01  0.39015912798E-01  0.51100000000E-03 0. -1.
</event>
<event>
 8    1  0.1114686E+005  0.1043930E+01  0.7957747E-01            NaN
         13   -1    0    0    0    0  0.00000000000E+00  0.00000000000E+00  0.74505805969E-08  0.10566000000E+00  0.10566000000E+00 0. -1.
     999900   -1    0    0    0    0 -0.00000000000E+00 -0.00000000000E+00 -0.74505805969E-08  0.93827000000E+00  0.93827000000E+00 0. -1.
     999902    2    1    2    0    0  0.20590143256E-01  0.83099001673E-02 -0.49906391971E-02  0.10211722558E+01  0.10209186359E+01 0.  0.
     999903    2    3    3    0    0  0.80687154919E-01  0.12966183191E-01 -0.10485284346E+00  0.13347535282E+00  0.11958768873E-01 0.  0.
         14    1    1    2    0    0 -0.20590143256E-01 -0.83099001673E-02  0.49906391971E-02  0.22757744170E-01  0.00000000000E+00 0. -1.
     999901    1    3    3    0    0 -0.60097011663E-01 -0.46562830238E-02  0.99862204259E-01  0.88769690301E+00  0.88000000000E+00 0.  1.
        -11    1    4    4    0    0  0.40198282048E-01  0.50894032421E-02 -0.42592680289E-01  0.58789467085E-01  0.51100000000E-03 0.  1.
         11    1    4    4    0    0  0.40488872871E-01  0.78767799491E-02 -0.62260163167E-01  0.74685885730E-01  0.51100000000E-03 0. -1.
</event>
<event>
 8    1  0.1114686E+005  0.1043930E+01  0.7957747E-01            NaN
         13   -1    0    0    0    0  0.00000000000E+00  0.00000000000E+00  0.74505805969E-08  0.10566000000E+00  0.10566000000E+00 0. -1.
     999900   -1    0    0    0    0 -0.00000000000E+00 -0.00000000000E+00 -0.74505805969E-08  0.93827000000E+00  0.93827000000E+00 0.  1.
     999902    2    1    2    0    0  0.10142470354E-01 -0.71257066596E-02  0.19806429487E-01  0.10205646400E+01  0.10202971353E+01 0.  0.
     999903    2    3    3    0    0 -0.12435400879E+00  0.86719334984E-03  0.33292206506E-01  0.13020793868E+00  0.19520879948E-01 0.  0.
         14    1    1    2    0    0 -0.10142470354E-01  0.71257066596E-02 -0.19806429487E-01  0.23365360029E-01  0.00000000000E+00 0.  1.
     999901    1    3    3    0    0  0.13449647915E+00 -0.79929000095E-02 -0.13485777019E-01  0.89035670129E+00  0.88000000000E+00 0.  1.
        -11    1    4    4    0    0 -0.12771247018E-01 -0.59127269836E-02  0.41682304601E-02  0.14686740855E-01  0.51100000000E-03 0.  1.
         11    1    4    4    0    0 -0.11158276177E+00  0.67799203335E-02  0.29123976046E-01  0.11552119782E+00  0.51100000000E-03 0. -1.
</event>
<event>
 8    1  0.1114686E+005  0.1043930E+01  0.7957747E-01            NaN
         13   -1    0    0    0    0  0.00000000000E+00  0.00000000000E+00  0.74505805969E-08  0.10566000000E+00  0.10566000000E+00 0.  1.
     999900   -1    0    0    0    0 -0.00000000000E+00 -0.00000000000E+00 -0.74505805969E-08  0.93827000000E+00  0.93827000000E+00 0. -1.
     999902    2    1    2    0    0 -0.15217684104E-01 -0.70148747476E-02 -0.15406484518E-01  0.10211671763E+01  0.10209134419E+01 0.  0.
     999903    2    3    3    0    0 -0.92972374284E-01  0.49177331960E-01  0.75809265589E-01  0.13126624418E+00  0.20530702682E-01 0.  0.
         14    1    1    2    0    0  0.15217684104E-01  0.70148747476E-02  0.15406484518E-01  0.22762823692E-01  0.00000000000E+00 0. -1.
     999901    1    3    3    0    0  0.77754690180E-01 -0.56192206707E-01 -0.91215750107E-01  0.88990093213E+00  0.88000000000E+00 0. -1.
        -11    1    4    4    0    0 -0.76507878175E-01  0.48677642249E-01  0.64277636072E-01  0.11115234544E+00  0.51100000000E-03 0. -1.
         11    1    4    4    0    0 -0.16464496109E-01  0.49968971079E-03  0.11531629517E-01  0.20113898733E-01  0.51100000000E-03 0.  1.
</event>
<event>
 8    1  0.1114686E+005  0.1043930E+01  0.7957747E-01            NaN
         13   -1    0    0    0    0  0.00000000000E+00  0.00000000000E+00  0.74505805969E-08  0.10566000000E+00  0.10566000000E+00 0.  1.
     999900   -1    0    0    0    0 -0.00000000000E+00 -0.00000000000E+00 -0.74505805969E-08  0.93827000000E+00  0.93827000000E+00 0.  1.
     999902    2    1    2    0    0 -0.12765012833E-01 -0.13885629615E-01 -0.13107143838E-01  0.10209614676E+01  0.10207030738E+01 0.  0.
     999903    2    3    3    0    0 -0.15413757572E-01 -0.12066011245E+00 -0.51466229761E-01  0.13367390116E+00  0.20578930611E-01 0.  0.
         14    1    1    2    0    0  0.12765012833E-01  0.13885629615E-01  0.13107143838E-01  0.22968532430E-01  0.00000000000E+00 0.  1.
     999901    1    3    3    0    0  0.26487447387E-02  0.10677448284E+00  0.38359085923E-01  0.88728756641E+00  0.88000000000E+00 0. -1.
        -11    1    4    4    0    0 -0.10919862258E-01 -0.33144568212E-01 -0.77863072423E-02  0.35758824018E-01  0.51100000000E-03 0.  1.
         11    1    4    4    0    0 -0.44938953139E-02 -0.87515544242E-01 -0.43679922519E-01  0.97915077140E-01  0.51100000000E-03 0. -1.
</event>
<event>
 8    1  0.1114686E+005  0.1043930E+01  0.7957747E-01            NaN
         13   -1    0    0    0    0  0.00000000000E+00  0.00000000000E+00  0.74505805969E-08  0.10566000000E+00  0.10566000000E+00 0. -1.
     999900   -1    0    0    0    0 -0.00000000000E+00 -0.00000000000E+00 -0.74505805969E-08  0.93827000000E+00  0.93827000000E+00 0.  1.
     999902    2    1    2    0    0 -0.61081588486E-02 -0.14055406238E-01  0.18253653793E-01  0.10200959922E+01  0.10198175197E+01 0.  0.
     999903    2    3    3    0    0 -0.41178906887E-01 -0.45643962690E-01  0.11654104972E+00  0.13336705595E+00  0.20636899964E-01 0.  0.
         14    1    1    2    0    0  0.61081588486E-02  0.14055406238E-01 -0.18253653793E-01  0.23834007759E-01  0.00000000000E+00 0.  1.
     999901    1    3    3    0    0  0.35070748038E-01  0.31588556452E-01 -0.98287395923E-01  0.88672893630E+00  0.88000000000E+00 0.  1.
        -11    1    4    4    0    0 -0.34983415839E-01 -0.29097670018E-01  0.96195129880E-01  0.10641559058E+00  0.51100000000E-03 0. -1.
         11    1    4    4    0    0 -0.61954910484E-02 -0.16546292672E-01  0.20345919836E-01  0.26951465369E-01  0.51100000000E-03 0.  1.
</event>
<event>
 8    1  0.1114686E+005  0.1043930E+01  0.7957747E-01            NaN
         13   -1    0    0    0    0  0.00000000000E+00  0.00000000000E+00  0.74505805969E-08  0.10566000000E+00  0.10566000000E+00 0. -1.
     999900   -1    0    0    0    0 -0.00000000000E+00 -0.00000000000E+00 -0.74505805969E-08  0.93827000000E+00  0.93827000000E+00 0.  1.
     999902    2    1    2    0    0  0.13474678031E-01 -0.19556342007E-01 -0.42363242839E-02  0.10198060720E+01  0.10195207014E+01 0.  0.
     999903    2    3    3    0    0  0.53934430825E-01 -0.11257499076E+00 -0.42315109981E-01  0.13316101641E+00  0.18953532265E-01 0.  0.
         14    1    1    2    0    0 -0.13474678031E-01  0.19556342007E-01  0.42363242839E-02  0.24123928042E-01  0.00000000000E+00 0. -1.
     999901    1    3    3    0    0 -0.40459752794E-01  0.93018648751E-01  0.38078785697E-01  0.88664505555E+00  0.88000000000E+00 0.  1.
        -11    1    4    4    0    0  0.24141285570E-01 -0.64268150996E-01 -0.30800087805E-01  0.75246949648E-01  0.51100000000E-03 0.  1.
         11    1    4    4    0    0  0.29793145254E-01 -0.48306839762E-01 -0.11515022176E-01  0.57914066760E-01  0.51100000000E-03 0. -1.
</event>
<event>
 8    1  0.1114686E+005  0.1043930E+01  0.7957747E-01            NaN
         13   -1    0    0    0    0  0.00000000000E+00  0.00000000000E+00  0.74505805969E-08  0.10566000000E+00  0.10566000000E+00 0.  1.
     999900   -1    0    0    0    0 -0.00000000000E+00 -0.00000000000E+00 -0.74505805969E-08  0.93827000000E+00  0.93827000000E+00 0. -1.
     999902    2    1    2    0    0 -0.43203508694E-02 -0.13583851200E-01 -0.16097034045E-01  0.10224288151E+01  0.10222027104E+01 0.  0.
     999903    2    3    3    0    0 -0.43284138050E-01 -0.94320341421E-01  0.79794238633E-01  0.13269194745E+00  0.21683841595E-01 0.  0.
         14    1    1    2    0    0  0.43203508694E-02  0.13583851200E-01  0.16097034045E-01  0.21501184853E-01  0.00000000000E+00 0. -1.
     999901    1    3    3    0    0  0.38963787180E-01  0.80736490221E-01 -0.95891272678E-01  0.88973686770E+00  0.88000000000E+00 0. -1.
        -11    1    4    4    0    0 -0.22217209369E-01 -0.28021369519E-01  0.20108542734E-01  0.41029454710E-01  0.51100000000E-03 0. -1.
         11    1    4    4    0    0 -0.21066928680E-01 -0.66298971902E-01  0.59685695898E-01  0.91662492739E-01  0.51100000000E-03 0.  1.
</event>
<event>
 8    1  0.1114686E+005  0.1043930E+01  0.7957747E-01            NaN
         13   -1    0    0    0    0  0.00000000000E+00  0.00000000000E+00  0.74505805969E-08  0.10566000000E+00  0.10566000000E+00 0. -1.
     999900   -1    0    0    0    0 -0.00000000000E+00 -0.00000000000E+00 -0.74505805969E-08  0.93827000000E+00  0.93827000000E+00 0. -1.
     999902    2    1    2    0    0  0.92604759049E-02 -0.16843335574E-01 -0.14209202397E-01  0.10200269500E+01  0.10197468426E+01 0.  0.
     999903    2    3    3    0    0 -0.41929891403E-01  0.92676029054E-01 -0.78088010832E-01  0.12946788563E+00  0.17811058931E-01 0.  0.
         14    1    1    2    0    0 -0.92604759049E-02  0.16843335574E-01  0.14209202397E-01  0.23903050015E-01  0.00000000000E+00 0. -1.
     999901    1    3    3    0    0  0.51190367308E-01 -0.10951936463E+00  0.63878808435E-01  0.89055906435E+00  0.88000000000E+00 0.  1.
        -11    1    4    4    0    0 -0.15097890860E-01  0.34998257269E-01 -0.18779887139E-01  0.42494347886E-01  0.51100000000E-03 0. -1.
         11    1    4    4    0    0 -0.26832000543E-01  0.57677771785E-01 -0.59308123693E-01  0.86973537747E-01  0.51100000000E-03 0.  1.
</event>
<event>
 8    1  0.1114686E+005  0.1043930E+01  0.7957747E-01            NaN
         13   -1    0    0    0    0  0.00000000000E+00  0.00000000000E+00  0.74505805969E-08  0.10566000000E+00  0.10566000000E+00 0.  1.
     999900   -1    0    0    0    0 -0.00000000000E+00 -0.00000000000E+00 -0.74505805969E-08  0.93827000000E+00  0.93827000000E+00 0. -1.
     999902    2    1    2    0    0  0.22038377872E-01  0.29466561342E-01 -0.69816001957E-02  0.10064772154E+01  0.10057801320E+01 0.  0.
     999903    2    3    3    0    0  0.31081861709E-01  0.95968612407E-01  0.63819171629E-01  0.12108630921E+00  0.20321193741E-01 0.  0.
         14    1    1    2    0    0 -0.22038377872E-01 -0.29466561342E-01  0.69816001957E-02  0.37452784648E-01  0.00000000000E+00 0.  1.
     999901    1    3    3    0    0 -0.90434838366E-02 -0.66502051065E-01 -0.70800771825E-01  0.88539090615E+00  0.88000000000E+00 0. -1.
        -11    1    4    4    0    0  0.19721080068E-01  0.30803524210E-01  0.19387145749E-01  0.41399283134E-01  0.51100000000E-03 0. -1.
         11    1    4    4    0    0  0.11360781641E-01  0.65165088197E-01  0.44432025881E-01  0.79687026072E-01  0.51100000000E-03 0.  1.
</event>
<event>
 8    1  0.1114686E+005  0.1043930E+01  0.7957747E-01            NaN
         13   -1    0    0    0    0  0.00000000000E+00  0.00000000000E+00  0.74505805969E-08  0.10566000000E+00  0.10566000000E+00 0.  1.
     999900   -1    0    0    0    0 -0.00000000000E+00 -0.00000000000E+00 -0.74505805969E-08  0.93827000000E+00  0.93827000000E+00 0. -1.
     999902    2    1    2    0    0  0.15218522019E-01 -0.31410102039E-02 -0.19760510542E-01  0.10187914413E+01  0.10184812486E+01 0.  0.
     999903    2    3    3    0    0 -0.32975118283E-01 -0.58819590263E-02  0.11996494325E+00  0.12646115366E+00  0.21883324921E-01 0.  0.
         14    1    1    2    0    0 -0.15218522019E-01  0.31410102039E-02  0.19760510542E-01  0.25138558718E-01  0.00000000000E+00 0.  1.
     999901    1    3    3    0    0  0.48193640302E-01  0.27409488224E-02 -0.13972545379E+00  0.89233028762E+00  0.88000000000E+00 0. -1.
        -11    1    4    4    0    0 -0.16934970764E-01 -0.24854291501E-02  0.95387079522E-01  0.96911953099E-01  0.51100000000E-03 0. -1.
         11    1    4    4    0    0 -0.16040147519E-01 -0.33965298761E-02  0.24577863726E-01  0.29549200563E-01  0.51100000000E-03 0.  1.
</event>
<event>
 8    1  0.1114686E+005  0.1043930E+01  0.7957747E-01            NaN
         13   -1    0    0    0    0  0.00000000000E+00  0.00000000000E+00  0.74505805969E-08  0.10566000000E+00  0.10566000000E+00 0. -1.
     999900   -1    0    0    0    0 -0.00000000000E+00 -0.00000000000E+00 -0.74505805969E-08  0.93827000000E+00  0.93827000000E+00 0. -1.
     999902    2    1    2    0    0  0.17765727815E-02  0.16983893742E-01  0.16480005201E-01  0.10201981769E+01  0.10199221150E+01 0.  0.
     999903    2    3    3    0    0  0.99168951678E-01 -0.25679054065E-01  0.80040623089E-01  0.13152199584E+00  0.19940893955E-01 0.  0.
         14    1    1    2    0    0 -0.17765727815E-02 -0.16983893742E-01 -0.16480005201E-01  0.23731823126E-01  0.00000000000E+00 0. -1.
     999901    1    3    3    0    0 -0.97392378897E-01  0.42662947807E-01 -0.63560617887E-01  0.88867618103E+00  0.88000000000E+00 0. -1.
        -11    1    4    4    0    0  0.35575901467E-01 -0.15015611384E-01  0.40096759062E-01  0.55669781378E-01  0.51100000000E-03 0.  1.
         11    1    4    4    0    0  0.63593050211E-01 -0.10663442681E-01  0.39943864027E-01  0.75852214466E-01  0.51100000000E-03 0. -1.
</event>
<event>
 8    1  0.1114686E+005  0.1043930E+01  0.7957747E-01            NaN
         13   -1    0    0    0    0  0.00000000000E+00  0.00000000000E+00  0.74505805969E-08  0.10566000000E+00  0.10566000000E+00 0.  1.
     999900   -1    0    0    0    0 -0.00000000000E+00 -0.00000000000E+00 -0.74505805969E-08  0.93827000000E+00  0.93827000000E+00 0.  1.
     999902    2    1    2    0    0 -0.15982040612E-01  0.38314420808E-02 -0.16450100762E-01  0.10206767984E+01  0.10204118852E+01 0.  0.
     999903    2    3    3    0    0 -0.62044875829E-01  0.72594908088E-01  0.87328945179E-01  0.13072158073E+00  0.18498640635E-01 0.  0.
         14    1    1    2    0    0  0.15982040612E-01 -0.38314420808E-02  0.16450100762E-01  0.23253201621E-01  0.00000000000E+00 0.  1.
     999901    1    3    3    0    0  0.46062835217E-01 -0.68763466007E-01 -0.10377904594E+00  0.88995521765E+00  0.88000000000E+00 0.  1.
        -11    1    4    4    0    0 -0.11229849279E-01  0.47199762813E-02  0.14523444967E-01  0.18962575396E-01  0.51100000000E-03 0. -1.
         11    1    4    4    0    0 -0.50815026550E-01  0.67874931807E-01  0.72805500212E-01  0.11175900533E+00  0.51100000000E-03 0.  1.
</event>
<event>
 8    1  0.1114686E+005  0.1043930E+01  0.7957747E-01            NaN
         13   -1    0    0    0    0  0.00000000000E+00  0.00000000000E+00  0.74505805969E-08  0.10566000000E+00  0.10566000000E+00 0.  1.
     999900   -1    0    0    0    0 -0.00000000000E+00 -0.00000000000E+00 -0.74505805969E-08  0.93827000000E+00  0.93827000000E+00 0.  1.
     999902    2    1    2    0    0 -0.11500994750E-02  0.19433255429E-01 -0.13041233107E-01  0.10204982287E+01  0.10202291835E+01 0.  0.
     999903    2    3    3    0    0 -0.11765463855E+00 -0.42075647731E-01 -0.32448797021E-01  0.13047951747E+00  0.18947452240E-01 0.  0.
         14    1    1    2    0    0  0.11500994750E-02 -0.19433255429E-01  0.13041233107E-01  0.23431771302E-01  0.00000000000E+00 0.  1.
     999901    1    3    3    0    0  0.11650453908E+00  0.61508903161E-01  0.19407563914E-01  0.89001871123E+00  0.88000000000E+00 0.  1.
        -11    1    4    4    0    0 -0.88644000923E-01 -0.39584545627E-01 -0.22033259386E-01  0.99551096390E-01  0.51100000000E-03 0.  1.
         11    1    4    4    0    0 -0.29010637631E-01 -0.24911021041E-02 -0.10415537635E-01  0.30928421083E-01  0.51100000000E-03 0. -1.
</event>
<event>
 8    1  0.1114686E+005  0.1043930E+01  0.7957747E-01            NaN
         13   -1    0    0    0    0  0.00000000000E+00  0.00000000000E+00  0.74505805969E-08  0.10566000000E+00  0.10566000000E+00 0. -1.
     999900   -1    0    0    0    0 -0.00000000000E+00 -0.00000000000E+00 -0.74505805969E-08  0.93827000000E+00  0.93827000000E+00 0.  1.
     999902    2    1    2    0    0  0.28776130965E-02 -0.15684436695E-01  0.22066372330E-01  0.10167048829E+01  0.10163403032E+01 0.  0.
     999903    2    3    3    0    0 -0.79794345419E-01  0.71860389675E-01 -0.60267539762E-01  0.12469724707E+00  0.19651308195E-01 0.  0.
         14    1    1    2    0    0 -0.28776130965E-02  0.15684436695E-01 -0.22066372330E-01  0.27225117068E-01  0.00000000000E+00 0.  1.
     999901    1    3    3    0    0  0.82671958515E-01 -0.87544826370E-01  0.82333912092E-01  0.89200763586E+00  0.88000000000E+00 0. -1.
        -11    1    4    4    0    0 -0.14406988994E-01  0.14294994500E-01 -0.32016961846E-02  0.20552863038E-01  0.51100000000E-03 0.  1.
         11    1    4    4    0    0 -0.65387356425E-01  0.57565395175E-01 -0.57065843578E-01  0.10414438404E+00  0.51100000000E-03 0. -1.
</event>
<event>
 8    1  0.1114686E+005  0.1043930E+01  0.7957747E-01            NaN
         13   -1    0    0    0    0  0.00000000000E+00  0.00000000000E+00  0.74505805969E-08  0.10566000000E+00  0.10566000000E+00 0. -1.
     999900   -1    0    0    0    0 -0.00000000000E+00 -0.00000000000E+00 -0.74505805969E-08  0.93827000000E+00  0.93827000000E+00 0. -1.
     999902    2    1    2    0    0  0.74541985170E-02  0.20817953147E-01 -0.68250596165E-02  0.10207883992E+01  0.10205260517E+01 0.  0.
     999903    2    3    3    0    0 -0.30995929137E-01  0.92575923954E-01  0.86689673523E-01  0.13209687566E+00  0.20085709991E-01 0.  0.
         14    1    1    2    0    0 -0.74541985170E-02 -0.20817953147E-01  0.68250596165E-02  0.23141600799E-01  0.00000000000E+00 0.  1.
     999901    1    3    3    0    0  0.38450127654E-01 -0.71757970807E-01 -0.93514733140E-01  0.88869152354E+00  0.88000000000E+00 0. -1.
        -11    1    4    4    0    0 -0.18177956638E-01  0.60925053099E-01  0.68280657198E-01  0.93299568439E-01  0.51100000000E-03 0.  1.
         11    1    4    4    0    0 -0.12817972499E-01  0.31650870855E-01  0.18409016326E-01  0.38797307226E-01  0.51100000000E-03 0. -1.
</event>
<event>
 8    1  0.1114686E+005  0.1043930E+01  0.7957747E-01            NaN
         13   -1    0    0    0    0  0.00000000000E+00  0.00000000000E+00  0.74505805969E-08  0.10566000000E+00  0.10566000000E+00 0.  1.
     999900   -1    0    0    0    0 -0.00000000000E+00 -0.00000000000E+00 -0.74505805969E-08  0.93827000000E+00  0.93827000000E+00 0.  1.
     999902    2    1    2    0    0  0.31706791295E-02 -0.23480754550E-01 -0.13661958665E-02  0.10201967842E+01  0.10199206896E+01 0.  0.
     999903    2    3    3    0    0 -0.12331060579E+00 -0.22536089295E-01 -0.32610022166E-01  0.13060441436E+00  0.16754661562E-01 0.  0.
         14    1    1    2    0    0 -0.31706791295E-02  0.23480754550E-01  0.13661958665E-02  0.23733215785E-01  0.00000000000E+00 0.  1.
     999901    1    3    3    0    0  0.12648128492E+00 -0.94466525441E-03  0.31243826300E-01  0.88959236986E+00  0.88000000000E+00 0.  1.
        -11    1    4    4    0    0 -0.18762012748E-01 -0.64149918425E-02 -0.10833980692E-01  0.22600918153E-01  0.51100000000E-03 0.  1.
         11    1    4    4    0    0 -0.10454859304E+00 -0.16121097453E-01 -0.21776041474E-01  0.10800349620E+00  0.51100000000E-03 0. -1.
</event>
<event>
 8    1  0.1114686E+005  0.1043930E+01  0.7957747E-01            NaN
         13   -1    0    0    0    0  0.00000000000E+00  0.00000000000E+00  0.74505805969E-08  0.10566000000E+00  0.10566000000E+00 0.  1.
     999900   -1    0    0    0    0 -0.00000000000E+00 -0.00000000000E+00 -0.74505805969E-08  0.93827000000E+00  0.93827000000E+00 0. -1.
     999902    2    1    2    0    0  0.20945857356E-01  0.47289412378E-02 -0.44413432283E-02  0.10220024521E+01  0.10217671921E+01 0.  0.
     999903    2    3    3    0    0 -0.62917515497E-01 -0.33223854810E-01  0.10731493181E+00  0.13017122088E+00  0.19121032206E-01 0.  0.
         14    1    1    2    0    0 -0.20945857356E-01 -0.47289412378E-02  0.44413432283E-02  0.21927547863E-01  0.00000000000E+00 0.  1.
     999901    1    3    3    0    0  0.83863372853E-01  0.37952796048E-01 -0.11175627503E+00  0.89183123126E+00  0.88000000000E+00 0. -1.
        -11    1    4    4    0    0 -0.38593842516E-01 -0.10288135912E-01  0.64172009376E-01  0.75588612430E-01  0.51100000000E-03 0. -1.
         11    1    4    4    0    0 -0.24323672980E-01 -0.22935718898E-01  0.43142922429E-01  0.54582608451E-01  0.51100000000E-03 0.  1.
</event>
<event>
 8    1  0.1114686E+005  0.1043930E+01  0.7957747E-01            NaN
         13   -1    0    0    0    0  0.00000000000E+00  0.00000000000E+00  0.74505805969E-08  0.10566000000E+00  0.10566000000E+00 0.  1.
     999900   -1    0    0    0    0 -0.00000000000E+00 -0.00000000000E+00 -0.74505805969E-08  0.93827000000E+00  0.93827000000E+00 0. -1.
     999902    2    1    2    0    0 -0.22542961942E-01  0.88634132150E-03  0.61066534251E-02  0.10205577526E+01  0.10202900883E+01 0.  0.
     999903    2    3    3    0    0  0.10354518852E+00  0.38670682578E-01 -0.61740887153E-01  0.12818497906E+00  0.20060507319E-01 0.  0.
         14    1    1    2    0    0  0.22542961942E-01 -0.88634132150E-03 -0.61066534251E-02  0.23372247434E-01  0.00000000000E+00 0.  1.
     999901    1    3    3    0    0 -0.12608815046E+00 -0.37784341256E-01  0.67847540578E-01  0.89237277351E+00  0.88000000000E+00 0.  1.
        -11    1    4    4    0    0  0.55009349938E-01  0.14069984753E-01 -0.40608008921E-01  0.69808771377E-01  0.51100000000E-03 0. -1.
         11    1    4    4    0    0  0.48535838581E-01  0.24600697825E-01 -0.21132878231E-01  0.58376207684E-01  0.51100000000E-03 0.  1.
</event>
<event>
 8    1  0.1114686E+005  0.1043930E+01  0.7957747E-01            NaN
         13   -1    0    0    0    0  0.00000000000E+00  0.00000000000E+00  0.74505805969E-08  0.10566000000E+00  0.10566000000E+00 0. -1.
     999900   -1    0    0    0    0 -0.00000000000E+00 -0.00000000000E+00 -0.74505805969E-08  0.93827000000E+00  0.93827000000E+00 0.  1.
     999902    2    1    2    0    0  0.10965470252E-01  0.21055075775E-01  0.35949018319E-02  0.10199199797E+01  0.10196373296E+01 0.  0.
     999903    2    3    3    0    0 -0.68093189559E-01 -0.31767166226E-01 -0.10246947283E+00  0.12846604794E+00  0.18912887064E-01 0.  0.
         14    1    1    2    0    0 -0.10965470252E-01 -0.21055075775E-01 -0.35949018319E-02  0.24010020261E-01  0.00000000000E+00 0.  1.
     999901    1    3    3    0    0  0.79058659811E-01  0.52822242000E-01  0.10606437467E+00  0.89145393180E+00  0.88000000000E+00 0. -1.
        -11    1    4    4    0    0 -0.24381763215E-01 -0.21636336197E-01 -0.44028072014E-01  0.54784429063E-01  0.51100000000E-03 0.  1.
         11    1    4    4    0    0 -0.43711426344E-01 -0.10130830029E-01 -0.58441400820E-01  0.73681618881E-01  0.51100000000E-03 0. -1.
</event>
<event>
 8    1  0.1114686E+005  0.1043930E+01  0.7957747E-01            NaN
         13   -1    0    0    0    0  0.00000000000E+00  0.00000000000E+00  0.74505805969E-08  0.10566000000E+00  0.10566000000E+00 0.  1.
     999900   -1    0    0    0    0 -0.00000000000E+00 -0.00000000000E+00 -0.74505805969E-08  0.93827000000E+00  0.93827000000E+00 0.  1.
     999902    2    1    2    0    0  0.20121403305E-01 -0.12625717373E-01  0.36939558169E-02  0.10198899310E+01  0.10196065645E+01 0.  0.
     999903    2    3    3    0    0  0.99014167933E-01  0.47984969443E-01 -0.68818708279E-01  0.13132040069E+00  0.20066646037E-01 0.  0.
         14    1    1    2    0    0 -0.20121403305E-01  0.12625717373E-01 -0.36939558169E-02  0.24040069046E-01  0.00000000000E+00 0. -1.
     999901    1    3    3    0    0 -0.78892764628E-01 -0.60610686817E-01  0.72512664095E-01  0.88856953027E+00  0.88000000000E+00 0. -1.
        -11    1    4    4    0    0  0.31531577569E-01  0.19267262820E-01 -0.33662036660E-01  0.49988615041E-01  0.51100000000E-03 0.  1.
         11    1    4    4    0    0  0.67482590364E-01  0.28717706623E-01 -0.35156671618E-01  0.81331785645E-01  0.51100000000E-03 0. -1.
</event>
<event>
 8    1  0.1114686E+005  0.1043930E+01  0.7957747E-01            NaN
         13   -1    0    0    0    0  0.00000000000E+00  0.00000000000E+00  0.74505805969E-08  0.10566000000E+00  0.10566000000E+00 0.  1.
     999900   -1    0    0    0    0 -0.00000000000E+00 -0.00000000000E+00 -0.74505805969E-08  0.93827000000E+00  0.93827000000E+00 0.  1.
     999902    2    1    2    0    0 -0.95141528552E-02 -0.18322280152E-03 -0.21230658552E-01  0.10206642841E+01  0.10203990823E+01 0.  0.
     999903    2    3    3    0    0  0.12174208516E+00  0.18003124285E-01 -0.37488387516E-01  0.13059504126E+00  0.22459693262E-01 0.  0.
         14    1    1    2    0    0  0.95141528552E-02  0.18322280152E-03  0.21230658552E-01  0.23265715929E-01  0.00000000000E+00 0.  1.
     999901    1    3    3    0    0 -0.13125623801E+00 -0.18186347086E-01  0.16257728964E-01  0.89006924281E+00  0.88000000000E+00 0.  1.
        -11    1    4    4    0    0  0.24136621413E-01  0.28842214977E-02 -0.17145634465E-01  0.29751119796E-01  0.51100000000E-03 0. -1.
         11    1    4    4    0    0  0.97605463746E-01  0.15118902787E-01 -0.20342753051E-01  0.10084392147E+00  0.51100000000E-03 0.  1.
</event>
<event>
 8    1  0.1114686E+005  0.1043930E+01  0.7957747E-01            NaN
         13   -1    0    0    0    0  0.00000000000E+00  0.00000000000E+00  0.74505805969E-08  0.10566000000E+00  0.10566000000E+00 0.  1.
     999900   -1    0    0    0    0 -0.00000000000E+00 -0.00000000000E+00 -0.74505805969E-08  0.93827000000E+00  0.93827000000E+00 0.  1.
     999902    2    1    2    0    0  0.67306909400E-02 -0.17446761471E-01 -0.10020058135E-01  0.10227145987E+01  0.10224945267E+01 0.  0.
     999903    2    3    3    0    0  0.49587556295E-01  0.11929173448E+00  0.67528252660E-02  0.13096605973E+00  0.20422156980E-01 0.  0.
         14    1    1    2    0    0 -0.67306909400E-02  0.17446761471E-01  0.10020058135E-01  0.21215401278E-01  0.00000000000E+00 0. -1.
     999901    1    3    3    0    0 -0.42856865355E-01 -0.13673849595E+00 -0.16772883401E-01  0.89174853900E+00  0.88000000000E+00 0.  1.
        -11    1    4    4    0    0  0.19156648242E-01  0.25188268125E-01 -0.17545896375E-02  0.31698039826E-01  0.51100000000E-03 0. -1.
         11    1    4    4    0    0  0.30430908053E-01  0.94103466359E-01  0.85074149035E-02  0.99268019901E-01  0.51100000000E-03 0.  1.
</event>
<event>
 8    1  0.1114686E+005  0.1043930E+01  0.7957747E-01            NaN
         13   -1    0    0    0    0  0.00000000000E+00  0.00000000000E+00  0.74505805969E-08  0.10566000000E+00  0.10566000000E+00 0. -1.
     999900   -1    0    0    0    0 -0.00000000000E+00 -0.00000000000E+00 -0.74505805969E-08  0.93827000000E+00  0.93827000000E+00 0.  1.
     999902    2    1    2    0    0 -0.11585553622E-01 -0.14423672078E-01 -0.14572420744E-01  0.10203795687E+01  0.10201077597E+01 0.  0.
     999903    2    3    3    0    0  0.58225810526E-01  0.22126423730E-01  0.11016134068E+00  0.12809707569E+00  0.19837242245E-01 0.  0.
         14    1    1    2    0    0  0.11585553622E-01  0.14423672078E-01  0.14572420744E-01  0.23550431319E-01  0.00000000000E+00 0.  1.
     999901    1    3    3    0    0 -0.69811364149E-01 -0.36550095808E-01 -0.12473376143E+00  0.89228249300E+00  0.88000000000E+00 0.  1.
        -11    1    4    4    0    0  0.21543474652E-01  0.16428841968E-01  0.58585189985E-01  0.64548537978E-01  0.51100000000E-03 0. -1.
         11    1    4    4    0    0  0.36682335874E-01  0.56975817627E-02  0.51576150696E-01  0.63548537708E-01  0.51100000000E-03 0.  1.
</event>
<event>
 8    1  0.1114686E+005  0.1043930E+01  0.7957747E-01            NaN
         13   -1    0    0    0    0  0.00000000000E+00  0.00000000000E+00  0.74505805969E-08  0.10566000000E+00  0.10566000000E+00 0.  1.
     999900   -1    0    0    0    0 -0.00000000000E+00 -0.00000000000E+00 -0.74505805969E-08  0.93827000000E+00  0.93827000000E+00 0. -1.
     999902    2    1    2    0    0  0.22250436196E-01 -0.85201788333E-02 -0.37485242301E-02  0.10198109869E+01  0.10195257340E+01 0.  0.
     999903    2    3    3    0    0 -0.59931059860E-02  0.52667429375E-01  0.11605517792E+00  0.12914014529E+00  0.19964903374E-01 0.  0.
         14    1    1    2    0    0 -0.22250436196E-01  0.85201788333E-02  0.37485242301E-02  0.24119013085E-01  0.00000000000E+00 0.  1.
     999901    1    3    3    0    0  0.28243542183E-01 -0.61187608208E-01 -0.11980370215E+00  0.89067084163E+00  0.88000000000E+00 0. -1.
        -11    1    4    4    0    0  0.44570530203E-02  0.17210819102E-01  0.54588840827E-01  0.57413241326E-01  0.51100000000E-03 0.  1.
         11    1    4    4    0    0 -0.10450159006E-01  0.35456610273E-01  0.61466337094E-01  0.71726903963E-01  0.51100000000E-03 0. -1.
</event>
<event>
 8    1  0.1114686E+005  0.1043930E+01  0.7957747E-01            NaN
         13   -1    0    0    0    0  0.00000000000E+00  0.00000000000E+00  0.74505805969E-08  0.10566000000E+00  0.10566000000E+00 0.  1.
     999900   -1    0    0    0    0 -0.00000000000E+00 -0.00000000000E+00 -0.74505805969E-08  0.93827000000E+00  0.93827000000E+00 0.  1.
     999902    2    1    2    0    0  0.15786496905E-01  0.11696259624E-03 -0.17311917076E-01  0.10205007525E+01  0.10202317659E+01 0.  0.
     999903    2    3    3    0    0 -0.55155967502E-01  0.10275251915E+00 -0.55337390742E-01  0.13088688832E+00  0.21653862857E-01 0.  0.
         14    1    1    2    0    0 -0.15786496905E-01 -0.11696259624E-03  0.17311917076E-01  0.23429247483E-01  0.00000000000E+00 0.  1.
     999901    1    3    3    0    0  0.70942464406E-01 -0.10263555656E+00  0.38025473665E-01  0.88961386420E+00  0.88000000000E+00 0. -1.
        -11    1    4    4    0    0 -0.17256227541E-01  0.54866025234E-01 -0.25534038913E-01  0.62930965177E-01  0.51100000000E-03 0. -1.
         11    1    4    4    0    0 -0.37899739961E-01  0.47886493918E-01 -0.29803351829E-01  0.67955923142E-01  0.51100000000E-03 0.  1.
</event>
<event>
 8    1  0.1114686E+005  0.1043930E+01  0.7957747E-01            NaN
         13   -1    0    0    0    0  0.00000000000E+00  0.00000000000E+00  0.74505805969E-08  0.10566000000E+00  0.10566000000E+00 0.  1.
     999900   -1    0    0    0    0 -0.00000000000E+00 -0.00000000000E+00 -0.74505805969E-08  0.93827000000E+00  0.93827000000E+00 0. -1.
     999902    2    1    2    0    0  0.10647591055E-01 -0.17210647105E-01 -0.11229679137E-01  0.10207851677E+01  0.10205227461E+01 0.  0.
     999903    2    3    3    0    0 -0.11331824691E+00 -0.22626704577E-01  0.55152727188E-01  0.12960421719E+00  0.20060831396E-01 0.  0.
         14    1    1    2    0    0 -0.10647591055E-01  0.17210647105E-01  0.11229679137E-01  0.23144832308E-01  0.00000000000E+00 0.  1.
     999901    1    3    3    0    0  0.12396583796E+00  0.54160574720E-02 -0.66382406324E-01  0.89118095050E+00  0.88000000000E+00 0. -1.
        -11    1    4    4    0    0 -0.77683321081E-01 -0.12973771947E-01  0.27314045660E-01  0.83362673565E-01  0.51100000000E-03 0.  1.
         11    1    4    4    0    0 -0.35634925827E-01 -0.96529326299E-02  0.27838681528E-01  0.46241543629E-01  0.51100000000E-03 0. -1.
</event>
<event>
 8    1  0.1114686E+005  0.1043930E+01  0.7957747E-01            NaN
         13   -1    0    0    0    0  0.00000000000E+00  0.00000000000E+00  0.74505805969E-08  0.10566000000E+00  0.10566000000E+00 0.  1.
     999900   -1    0    0    0    0 -0.00000000000E+00 -0.00000000000E+00 -0.74505805969E-08  0.93827000000E+00  0.93827000000E+00 0. -1.
     999902    2    1    2    0    0  0.14253961468E-01 -0.38868962671E-02 -0.16620945918E-01  0.10216917621E+01  0.10214497137E+01 0.  0.
     999903    2    3    3    0    0  0.70434074675E-01 -0.10791979510E+00  0.25030496814E-01  0.13280825355E+00  0.20096402373E-01 0.  0.
         14    1    1    2    0    0 -0.14253961468E-01  0.38868962671E-02  0.16620945918E-01  0.22238237865E-01  0.00000000000E+00 0. -1.
     999901    1    3    3    0    0 -0.56180113207E-01  0.10403289884E+00 -0.41651442732E-01  0.88888350859E+00  0.88000000000E+00 0.  1.
        -11    1    4    4    0    0  0.39268638996E-01 -0.52797077156E-01  0.33936724184E-02  0.65888811632E-01  0.51100000000E-03 0.  1.
         11    1    4    4    0    0  0.31165435679E-01 -0.55122717948E-01  0.21636824395E-01  0.66919441914E-01  0.51100000000E-03 0. -1.
</event>
<event>
 8    1  0.1114686E+005  0.1043930E+01  0.7957747E-01            NaN
         13   -1    0    0    0    0  0.00000000000E+00  0.00000000000E+00  0.74505805969E-08  0.10566000000E+00  0.10566000000E+00 0.  1.
     999900   -1    0    0    0    0 -0.00000000000E+00 -0.00000000000E+00 -0.74505805969E-08  0.93827000000E+00  0.93827000000E+00 0. -1.
     999902    2    1    2    0    0  0.12573054676E-01  0.15153506924E-01 -0.12157417933E-01  0.10207888400E+01  0.10205265026E+01 0.  0.
     999903    2    3    3    0    0 -0.16501308896E-03 -0.87555756636E-01  0.91284933458E-01  0.12870601241E+00  0.23796235101E-01 0.  0.
         14    1    1    2    0    0 -0.12573054676E-01 -0.15153506924E-01  0.12157417933E-01  0.23141160014E-01  0.00000000000E+00 0.  1.
     999901    1    3    3    0    0  0.12738067765E-01  0.10270926356E+00 -0.10344235139E+00  0.89208282757E+00  0.88000000000E+00 0. -1.
        -11    1    4    4    0    0 -0.56853061070E-02 -0.52935533850E-01  0.69032385760E-01  0.87179268489E-01  0.51100000000E-03 0.  1.
         11    1    4    4    0    0  0.55202930180E-02 -0.34620222786E-01  0.22252547698E-01  0.41526743922E-01  0.51100000000E-03 0. -1.
</event>
<event>
 8    1  0.1114686E+005  0.1043930E+01  0.7957747E-01            NaN
         13   -1    0    0    0    0  0.00000000000E+00  0.00000000000E+00  0.74505805969E-08  0.10566000000E+00  0.10566000000E+00 0.  1.
     999900   -1    0    0    0    0 -0.00000000000E+00 -0.00000000000E+00 -0.74505805969E-08  0.93827000000E+00  0.93827000000E+00 0. -1.
     999902    2    1    2    0    0 -0.10927144366E-01 -0.15019882514E-01  0.13343526338E-01  0.10210597344E+01  0.10208035718E+01 0.  0.
     999903    2    3    3    0    0 -0.10438752689E+00 -0.65770379746E-01 -0.44311712097E-01  0.13278354839E+00  0.21105550692E-01 0.  0.
         14    1    1    2    0    0  0.10927144366E-01  0.15019882514E-01 -0.13343526338E-01  0.22870265627E-01  0.00000000000E+00 0. -1.
     999901    1    3    3    0    0  0.93460382529E-01  0.50750497232E-01  0.57655238435E-01  0.88827618599E+00  0.88000000000E+00 0.  1.
        -11    1    4    4    0    0 -0.48904811280E-01 -0.37857555031E-01 -0.12887717858E-01  0.63176177724E-01  0.51100000000E-03 0. -1.
         11    1    4    4    0    0 -0.55482715615E-01 -0.27912824715E-01 -0.31423994240E-01  0.69607370662E-01  0.51100000000E-03 0.  1.
</event>
<event>
 8    1  0.1114686E+005  0.1043930E+01  0.7957747E-01            NaN
         13   -1    0    0    0    0  0.00000000000E+00  0.00000000000E+00  0.74505805969E-08  0.10566000000E+00  0.10566000000E+00 0. -1.
     999900   -1    0    0    0    0 -0.00000000000E+00 -0.00000000000E+00 -0.74505805969E-08  0.93827000000E+00  0.93827000000E+00 0. -1.
     999902    2    1    2    0    0 -0.19857021868E-01  0.17275369583E-01  0.12115631501E-01  0.10149553863E+01  0.10145417231E+01 0.  0.
     999903    2    3    3    0    0  0.39343633992E-01  0.11892659995E+00 -0.44114986227E-02  0.12697405975E+00  0.20285285750E-01 0.  0.
         14    1    1    2    0    0  0.19857021868E-01 -0.17275369583E-01 -0.12115631501E-01  0.28974613688E-01  0.00000000000E+00 0.  1.
     999901    1    3    3    0    0 -0.59200655860E-01 -0.10165123037E+00  0.16527130123E-01  0.88798132656E+00  0.88000000000E+00 0.  1.
        -11    1    4    4    0    0  0.24488281207E-01  0.42865817458E-01 -0.42503698787E-03  0.49372016369E-01  0.51100000000E-03 0. -1.
         11    1    4    4    0    0  0.14855352784E-01  0.76060782493E-01 -0.39864616348E-02  0.77602043383E-01  0.51100000000E-03 0.  1.
</event>
<event>
 8    1  0.1114686E+005  0.1043930E+01  0.7957747E-01            NaN
         13   -1    0    0    0    0  0.00000000000E+00  0.00000000000E+00  0.74505805969E-08  0.10566000000E+00  0.10566000000E+00 0.  1.
     999900   -1    0    0    0    0 -0.00000000000E+00 -0.00000000000E+00 -0.74505805969E-08  0.93827000000E+00  0.93827000000E+00 0. -1.
     999902    2    1    2    0    0  0.64664280719E-02  0.21895479640E-01 -0.75750211675E-02  0.10198757350E+01  0.10195920297E+01 0.  0.
     999903    2    3    3    0    0  0.70910931722E-01 -0.99126927277E-01 -0.36596140195E-01  0.12878553618E+00  0.19797194301E-01 0.  0.
         14    1    1    2    0    0 -0.64664280719E-02 -0.21895479640E-01  0.75750211675E-02  0.24054265035E-01  0.00000000000E+00 0. -1.
     999901    1    3    3    0    0 -0.64444503650E-01  0.12102240692E+00  0.29021119028E-01  0.89109019879E+00  0.88000000000E+00 0.  1.
        -11    1    4    4    0    0  0.26019814446E-01 -0.42156264557E-01 -0.54278955380E-02  0.49838785661E-01  0.51100000000E-03 0. -1.
         11    1    4    4    0    0  0.44891117276E-01 -0.56970662720E-01 -0.31168244657E-01  0.78946750516E-01  0.51100000000E-03 0.  1.
</event>
<event>
 8    1  0.1114686E+005  0.1043930E+01  0.7957747E-01            NaN
         13   -1    0    0    0    0  0.00000000000E+00  0.00000000000E+00  0.74505805969E-08  0.10566000000E+00  0.10566000000E+00 0.  1.
     999900   -1    0    0    0    0 -0.00000000000E+00 -0.00000000000E+00 -0.74505805969E-08  0.93827000000E+00  0.93827000000E+00 0. -1.
     999902    2    1    2    0    0 -0.33464960298E-01  0.85228906234E-03  0.11337380726E-02  0.10104349955E+01  0.10098796784E+01 0.  0.
     999903    2    3    3    0    0  0.37396741709E-01 -0.40362321626E-01 -0.10505111692E+00  0.12026914108E+00  0.20032369626E-01 0.  0.
         14    1    1    2    0    0  0.33464960298E-01 -0.85228906234E-03 -0.11337380726E-02  0.33495004500E-01  0.00000000000E+00 0.  1.
     999901    1    3    3    0    0 -0.70861702008E-01  0.41214610688E-01  0.10618485499E+00  0.89016585442E+00  0.88000000000E+00 0.  1.
        -11    1    4    4    0    0  0.12024388445E-01 -0.11324493036E-01 -0.15041023299E-01  0.22345549062E-01  0.51100000000E-03 0.  1.
         11    1    4    4    0    0  0.25372353265E-01 -0.29037828590E-01 -0.90010093620E-01  0.97923592018E-01  0.51100000000E-03 0. -1.
</event>
<event>
 8    1  0.1114686E+005  0.1043930E+01  0.7957747E-01            NaN
         13   -1    0    0    0    0  0.00000000000E+00  0.00000000000E+00  0.74505805969E-08  0.10566000000E+00  0.10566000000E+00 0.  1.
     999900   -1    0    0    0    0 -0.00000000000E+00 -0.00000000000E+00 -0.74505805969E-08  0.93827000000E+00  0.93827000000E+00 0.  1.
     999902    2    1    2    0    0  0.14796393641E-01 -0.16686835337E-01  0.57988062563E-02  0.10208863481E+01  0.10206262420E+01 0.  0.
     999903    2    3    3    0    0  0.13018425862E-01  0.11656718078E-01  0.12929613673E+00  0.13180923738E+00  0.18730339000E-01 0.  0.
         14    1    1    2    0    0 -0.14796393641E-01  0.16686835337E-01 -0.57988062563E-02  0.23043651888E-01  0.00000000000E+00 0. -1.
     999901    1    3    3    0    0  0.17779677799E-02 -0.28343553415E-01 -0.12349733047E+00  0.88907711073E+00  0.88000000000E+00 0.  1.
        -11    1    4    4    0    0  0.68249778397E-02  0.15476985463E-01  0.67716040976E-01  0.69798572536E-01  0.51100000000E-03 0.  1.
         11    1    4    4    0    0  0.61934480220E-02 -0.38202673849E-02  0.61580095749E-01  0.62010664847E-01  0.51100000000E-03 0. -1.
</event>
<event>
 8    1  0.1114686E+005  0.1043930E+01  0.7957747E-01            NaN
         13   -1    0    0    0    0  0.00000000000E+00  0.00000000000E+00  0.74505805969E-08  0.10566000000E+00  0.10566000000E+00 0.  1.
     999900   -1    0    0    0    0 -0.00000000000E+00 -0.00000000000E+00 -0.74505805969E-08  0.93827000000E+00  0.93827000000E+00 0. -1.
     999902    2    1    2    0    0 -0.16200153242E-01 -0.16669654557E-02 -0.13396847766E-01  0.10228421061E+01  0.10226246989E+01 0.  0.
     999903    2    3    3    0    0  0.57993826984E-01 -0.97829451402E-01  0.64601026438E-01  0.13108225122E+00  0.86820756619E-02 0.  0.
         14    1    1    2    0    0  0.16200153242E-01  0.16669654557E-02  0.13396847766E-01  0.21087893896E-01  0.00000000000E+00 0.  1.
     999901    1    3    3    0    0 -0.74193980225E-01  0.96162485946E-01 -0.77997874205E-01  0.89175985489E+00  0.88000000000E+00 0.  1.
        -11    1    4    4    0    0  0.26910554522E-01 -0.38722809055E-01  0.29666355821E-01  0.55713442493E-01  0.51100000000E-03 0.  1.
         11    1    4    4    0    0  0.31083272462E-01 -0.59106642347E-01  0.34934670617E-01  0.75368808725E-01  0.51100000000E-03 0. -1.
</event>
<event>
 8    1  0.1114686E+005  0.1043930E+01  0.7957747E-01            NaN
         13   -1    0    0    0    0  0.00000000000E+00  0.00000000000E+00  0.74505805969E-08  0.10566000000E+00  0.10566000000E+00 0.  1.
     999900   -1    0    0    0    0 -0.00000000000E+00 -0.00000000000E+00 -0.74505805969E-08  0.93827000000E+00  0.93827000000E+00 0. -1.
     999902    2    1    2    0    0 -0.29453487942E-02  0.23660710749E-01  0.47972694819E-02  0.10196088547E+01  0.10193187424E+01 0.  0.
     999903    2    3    3    0    0 -0.80003943883E-01 -0.92728968330E-01  0.32020895770E-01  0.12819104568E+00  0.20206776624E-01 0.  0.
         14    1    1    2    0    0  0.29453487942E-02 -0.23660710749E-01 -0.47972694819E-02  0.24321145268E-01  0.00000000000E+00 0. -1.
     999901    1    3    3    0    0  0.77058595088E-01  0.11638967908E+00 -0.27223626288E-01  0.89141780906E+00  0.88000000000E+00 0. -1.
        -11    1    4    4    0    0 -0.25415285511E-01 -0.16459098442E-01  0.62601033918E-02  0.30923917517E-01  0.51100000000E-03 0. -1.
         11    1    4    4    0    0 -0.54588658371E-01 -0.76269869887E-01  0.25760792378E-01  0.97267128159E-01  0.51100000000E-03 0.  1.
</event>
<event>
 8    1  0.1114686E+005  0.1043930E+01  0.7957747E-01            NaN
         13   -1    0    0    0    0  0.00000000000E+00  0.00000000000E+00  0.74505805969E-08  0.10566000000E+00  0.10566000000E+00 0.  1.
     999900   -1    0    0    0    0 -0.00000000000E+00 -0.00000000000E+00 -0.74505805969E-08  0.93827000000E+00  0.93827000000E+00 0. -1.
     999902    2    1    2    0    0 -0.23013865992E-01 -0.10638500989E-02 -0.10058695429E-02  0.10208696102E+01  0.10206091218E+01 0.  0.
     999903    2    3    3    0    0 -0.89436055494E-01  0.55460679143E-01  0.78795257167E-01  0.13296468876E+00  0.19905299588E-01 0.  0.
         14    1    1    2    0    0  0.23013865992E-01  0.10638500989E-02  0.10058695429E-02  0.23060389816E-01  0.00000000000E+00 0. -1.
     999901    1    3    3    0    0  0.66422189502E-01 -0.56524529241E-01 -0.79801126710E-01  0.88790492142E+00  0.88000000000E+00 0. -1.
        -11    1    4    4    0    0 -0.62842193909E-01  0.45248245884E-01  0.65927848454E-01  0.10170195383E+00  0.51100000000E-03 0.  1.
         11    1    4    4    0    0 -0.26593861585E-01  0.10212433258E-01  0.12867408714E-01  0.31262734926E-01  0.51100000000E-03 0. -1.
</event>
<event>
 8    1  0.1114686E+005  0.1043930E+01  0.7957747E-01            NaN
         13   -1    0    0    0    0  0.00000000000E+00  0.00000000000E+00  0.74505805969E-08  0.10566000000E+00  0.10566000000E+00 0. -1.
     999900   -1    0    0    0    0 -0.00000000000E+00 -0.00000000000E+00 -0.74505805969E-08  0.93827000000E+00  0.93827000000E+00 0. -1.
     999902    2    1    2    0    0  0.16399053199E-01  0.77248331245E-03  0.17480497449E-01  0.10199488935E+01  0.10196669319E+01 0.  0.
     999903    2    3    3    0    0  0.93091520799E-03  0.35243970041E-01 -0.12157284472E+00  0.12822955503E+00  0.20490441277E-01 0.  0.
         14    1    1    2    0    0 -0.16399053199E-01 -0.77248331245E-03 -0.17480497449E-01  0.23981106466E-01  0.00000000000E+00 0.  1.
     999901    1    3    3    0    0  0.15468137991E-01 -0.34471486728E-01  0.13905334217E+00  0.89171933850E+00  0.88000000000E+00 0.  1.
        -11    1    4    4    0    0 -0.89619691385E-02  0.13818559903E-01 -0.61953070154E-01  0.64107047281E-01  0.51100000000E-03 0.  1.
         11    1    4    4    0    0  0.98928843465E-02  0.21425410137E-01 -0.59619774563E-01  0.64122507751E-01  0.51100000000E-03 0. -1.
</event>
<event>
 8    1  0.1114686E+005  0.1043930E+01  0.7957747E-01            NaN
         13   -1    0    0    0    0  0.00000000000E+00  0.00000000000E+00  0.74505805969E-08  0.10566000000E+00  0.10566000000E+00 0.  1.
     999900   -1    0    0    0    0 -0.00000000000E+00 -0.00000000000E+00 -0.74505805969E-08  0.93827000000E+00  0.93827000000E+00 0.  1.
     999902    2    1    2    0    0  0.72175073035E-02  0.15290645101E-01  0.19252290396E-01  0.10183068284E+01  0.10179844055E+01 0.  0.
     999903    2    3    3    0    0 -0.23747591902E-01 -0.60512883900E-01 -0.10569019494E+00  0.12571754038E+00  0.20216958578E-01 0.  0.
         14    1    1    2    0    0 -0.72175073035E-02 -0.15290645101E-01 -0.19252290396E-01  0.25623171638E-01  0.00000000000E+00 0. -1.
     999901    1    3    3    0    0  0.30965099206E-01  0.75803529001E-01  0.12494248533E+00  0.89258928798E+00  0.88000000000E+00 0. -1.
        -11    1    4    4    0    0 -0.44022259833E-02 -0.12247357842E-01 -0.39203932093E-01  0.41310855477E-01  0.51100000000E-03 0.  1.
         11    1    4    4    0    0 -0.19345365919E-01 -0.48265526058E-01 -0.66486262845E-01  0.84406684903E-01  0.51100000000E-03 0. -1.
</event>
<event>
 8    1  0.1114686E+005  0.1043930E+01  0.7957747E-01            NaN
         13   -1    0    0    0    0  0.00000000000E+00  0.00000000000E+00  0.74505805969E-08  0.10566000000E+00  0.10566000000E+00 0. -1.
     999900   -1    0    0    0    0 -0.00000000000E+00 -0.00000000000E+00 -0.74505805969E-08  0.93827000000E+00  0.93827000000E+00 0.  1.
     999902    2    1    2    0    0  0.11496174600E-01  0.12255769004E-01 -0.15386425621E-01  0.10211460583E+01  0.10208918476E+01 0.  0.
     999903    2    3    3    0    0  0.84163719225E-01  0.10155754160E+00 -0.10145831635E-01  0.13363107680E+00  0.18890762185E-01 0.  0.
         14    1    1    2    0    0 -0.11496174600E-01 -0.12255769004E-01  0.15386425621E-01  0.22783941663E-01  0.00000000000E+00 0. -1.
     999901    1    3    3    0    0 -0.72667544626E-01 -0.89301772600E-01 -0.52405939869E-02  0.88751498154E+00  0.88000000000E+00 0.  1.
        -11    1    4    4    0    0  0.19367142043E-01  0.35647895550E-01 -0.68325196799E-02  0.41143688389E-01  0.51100000000E-03 0.  1.
         11    1    4    4    0    0  0.64796577182E-01  0.65909646054E-01 -0.33133119546E-02  0.92487388409E-01  0.51100000000E-03 0. -1.
</event>
<event>
 8    1  0.1114686E+005  0.1043930E+01  0.7957747E-01            NaN
         13   -1    0    0    0    0  0.00000000000E+00  0.00000000000E+00  0.74505805969E-08  0.10566000000E+00  0.10566000000E+00 0.  1.
     999900   -1    0    0    0    0 -0.00000000000E+00 -0.00000000000E+00 -0.74505805969E-08  0.93827000000E+00  0.93827000000E+00 0.  1.
     999902    2    1    2    0    0 -0.16855375390E-01  0.76828122648E-02  0.15967207516E-01  0.10194743054E+01  0.10191809350E+01 0.  0.
     999903    2    3    3    0    0 -0.95398400017E-01  0.61133066557E-01 -0.62509709072E-01  0.13088859604E+00  0.19653353181E-01 0.  0.
         14    1    1    2    0    0  0.16855375390E-01 -0.76828122648E-02 -0.15967207516E-01  0.24455694627E-01  0.00000000000E+00 0. -1.
     999901    1    3    3    0    0  0.78543024627E-01 -0.53450254293E-01  0.78476916588E-01  0.88858570934E+00  0.88000000000E+00 0.  1.
        -11    1    4    4    0    0 -0.57399544069E-02  0.62201541448E-02  0.17419634728E-03  0.84810883468E-02  0.51100000000E-03 0.  1.
         11    1    4    4    0    0 -0.89658445611E-01  0.54912912413E-01 -0.62683905419E-01  0.12240750769E+00  0.51100000000E-03 0. -1.
</event>
<event>
 8    1  0.1114686E+005  0.1043930E+01  0.7957747E-01            NaN
         13   -1    0    0    0    0  0.00000000000E+00  0.00000000000E+00  0.74505805969E-08  0.10566000000E+00  0.10566000000E+00 0.  1.
     999900   -1    0    0    0    0 -0.00000000000E+00 -0.00000000000E+00 -0.74505805969E-08  0.93827000000E+00  0.93827000000E+00 0.  1.
     999902    2    1    2    0    0 -0.18970839265E-01 -0.56868717674E-02 -0.12909528896E-01  0.10202891627E+01  0.10200152383E+01 0.  0.
     999903    2    3    3    0    0  0.41647752609E-01 -0.12204408799E+00 -0.34782947934E-02  0.13051246956E+00  0.19801804588E-01 0.  0.
         14    1    1    2    0    0  0.18970839265E-01  0.56868717674E-02  0.12909528896E-01  0.23640837321E-01  0.00000000000E+00 0. -1.
     999901    1    3    3    0    0 -0.60618591875E-01  0.11635721622E+00 -0.94312341030E-02  0.88977669312E+00  0.88000000000E+00 0.  1.
        -11    1    4    4    0    0  0.12151686615E-01 -0.28021256609E-01 -0.89123552733E-02  0.31820520220E-01  0.51100000000E-03 0.  1.
         11    1    4    4    0    0  0.29496065994E-01 -0.94022831378E-01  0.54340604800E-02  0.98691949336E-01  0.51100000000E-03 0. -1.
</event>
<event>
 8    1  0.1114686E+005  0.1043930E+01  0.7957747E-01            NaN
         13   -1    0    0    0    0  0.00000000000E+00  0.00000000000E+00  0.74505805969E-08  0.10566000000E+00  0.10566000000E+00 0.  1.
     999900   -1    0    0    0    0 -0.00000000000E+00 -0.00000000000E+00 -0.74505805969E-08  0.93827000000E+00  0.93827000000E+00 0.  1.
     999902    2    1    2    0    0 -0.21894674458E-01  0.71687542550E-02 -0.44532178641E-02  0.10204651549E+01  0.10201953408E+01 0.  0.
     999903    2    3    3    0    0 -0.98882858662E-01 -0.71376427495E-01  0.46851900371E-01  0.13213596970E+00  0.19809083296E-01 0.  0.
         14    1    1    2    0    0  0.21894674458E-01 -0.71687542550E-02  0.44532178641E-02  0.23464845121E-01  0.00000000000E+00 0.  1.
     999901    1    3    3    0    0  0.76988184204E-01  0.78545181750E-01 -0.51305118235E-01  0.88832918518E+00  0.88000000000E+00 0.  1.
        -11    1    4    4    0    0 -0.68829083096E-01 -0.40302310006E-01  0.36300998266E-01  0.87634139853E-01  0.51100000000E-03 0.  1.
         11    1    4    4    0    0 -0.30053775566E-01 -0.31074117489E-01  0.10550902106E-01  0.44501829847E-01  0.51100000000E-03 0. -1.
</event>
<event>
 8    1  0.1114686E+005  0.1043930E+01  0.7957747E-01            NaN
         13   -1    0    0    0    0  0.00000000000E+00  0.00000000000E+00  0.74505805969E-08  0.10566000000E+00  0.10566000000E+00 0. -1.
     999900   -1    0    0    0    0 -0.00000000000E+00 -0.00000000000E+00 -0.74505805969E-08  0.93827000000E+00  0.93827000000E+00 0.  1.
     999902    2    1    2    0    0  0.21881186993E-01  0.40187370707E-02 -0.72078554557E-02  0.10205443255E+01  0.10202763501E+01 0.  0.
     999903    2    3    3    0    0 -0.35413219354E-01  0.11638835393E+00  0.41680532426E-01  0.13020750481E+00  0.20405452462E-01 0.  0.
         14    1    1    2    0    0 -0.21881186993E-01 -0.40187370707E-02  0.72078554557E-02  0.23385674506E-01  0.00000000000E+00 0. -1.
     999901    1    3    3    0    0  0.57294406346E-01 -0.11236961686E+00 -0.48888387882E-01  0.89033682068E+00  0.88000000000E+00 0.  1.
        -11    1    4    4    0    0 -0.19027686899E-01  0.72662954052E-01  0.15589278090E-01  0.76715347048E-01  0.51100000000E-03 0.  1.
         11    1    4    4    0    0 -0.16385532455E-01  0.43725399879E-01  0.26091254336E-01  0.53492157764E-01  0.51100000000E-03 0. -1.
</event>
<event>
 8    1  0.1114686E+005  0.1043930E+01  0.7957747E-01            NaN
         13   -1    0    0    0    0  0.00000000000E+00  0.00000000000E+00  0.74505805969E-08  0.10566000000E+00  0.10566000000E+00 0.  1.
     999900   -1    0    0    0    0 -0.00000000000E+00 -0.00000000000E+00 -0.74505805969E-08  0.93827000000E+00  0.93827000000E+00 0.  1.
     999902    2    1    2    0    0  0.69322878340E-02 -0.18293076721E-01 -0.12570677856E-01  0.10206767161E+01  0.10204118010E+01 0.  0.
     999903    2    3    3    0    0 -0.86315733942E-01 -0.82795719209E-01  0.50304032900E-01  0.13117741103E+00  0.19273826664E-01 0.  0.
         14    1    1    2    0    0 -0.69322878340E-02  0.18293076721E-01  0.12570677856E-01  0.23253283904E-01  0.00000000000E+00 0.  1.
     999901    1    3    3    0    0  0.93248021776E-01  0.64502642487E-01 -0.62874710757E-01  0.88949930506E+00  0.88000000000E+00 0. -1.
        -11    1    4    4    0    0 -0.31654867163E-01 -0.23519742184E-01  0.84728178509E-02  0.40339294130E-01  0.51100000000E-03 0. -1.
         11    1    4    4    0    0 -0.54660866779E-01 -0.59275977025E-01  0.41831215049E-01  0.90838116905E-01  0.51100000000E-03 0.  1.
</event>
<event>
 8    1  0.1114686E+005  0.1043930E+01  0.7957747E-01            NaN
         13   -1    0    0    0    0  0.00000000000E+00  0.00000000000E+00  0.74505805969E-08  0.10566000000E+00  0.10566000000E+00 0. -1.
     999900   -1    0    0    0    0 -0.00000000000E+00 -0.00000000000E+00 -0.74505805969E-08  0.93827000000E+00  0.93827000000E+00 0. -1.
     999902    2    1    2    0    0  0.10336703535E-01  0.24403223500E-02 -0.20473395406E-01  0.10208656870E+01  0.10206051090E+01 0.  0.
     999903    2    3    3    0    0 -0.21193417034E-01 -0.57800106333E-01 -0.11617927651E+00  0.13306915999E+00  0.20488138849E-01 0.  0.
         14    1    1    2    0    0 -0.10336703535E-01 -0.24403223500E-02  0.20473395406E-01  0.23064312967E-01  0.00000000000E+00 0. -1.
     999901    1    3    3    0    0  0.31530120569E-01  0.60240428683E-01  0.95705881100E-01  0.88779652704E+00  0.88000000000E+00 0.  1.
        -11    1    4    4    0    0 -0.17858511815E-01 -0.24030169132E-01 -0.42949607048E-01  0.52357476442E-01  0.51100000000E-03 0. -1.
         11    1    4    4    0    0 -0.33349052184E-02 -0.33769937201E-01 -0.73229669459E-01  0.80711683549E-01  0.51100000000E-03 0.  1.
</event>
<event>
 8    1  0.1114686E+005  0.1043930E+01  0.7957747E-01            NaN
         13   -1    0    0    0    0  0.00000000000E+00  0.00000000000E+00  0.74505805969E-08  0.10566000000E+00  0.10566000000E+00 0. -1.
     999900   -1    0    0    0    0 -0.00000000000E+00 -0.00000000000E+00 -0.74505805969E-08  0.93827000000E+00  0.93827000000E+00 0.  1.
     999902    2    1    2    0    0 -0.17420469625E-01  0.10973251963E-01  0.10772393019E-01  0.10206936175E+01  0.10204290918E+01 0.  0.
     999903    2    3    3    0    0  0.11491910147E+00 -0.53076640426E-01 -0.78482146390E-02  0.12830195582E+00  0.19397622367E-01 0.  0.
         14    1    1    2    0    0  0.17420469625E-01 -0.10973251963E-01 -0.10772393019E-01  0.23236382506E-01  0.00000000000E+00 0.  1.
     999901    1    3    3    0    0 -0.13233957109E+00  0.64049892389E-01  0.18620607658E-01  0.89239166167E+00  0.88000000000E+00 0. -1.
        -11    1    4    4    0    0  0.51724975794E-01 -0.14555477134E-01 -0.77392039715E-02  0.54290804329E-01  0.51100000000E-03 0. -1.
         11    1    4    4    0    0  0.63194125674E-01 -0.38521163292E-01 -0.10901066750E-03  0.74011151494E-01  0.51100000000E-03 0.  1.
</event>
<event>
 8    1  0.1114686E+005  0.1043930E+01  0.7957747E-01            NaN
         13   -1    0    0    0    0  0.00000000000E+00  0.00000000000E+00  0.74505805969E-08  0.10566000000E+00  0.10566000000E+00 0.  1.
     999900   -1    0    0    0    0 -0.00000000000E+00 -0.00000000000E+00 -0.74505805969E-08  0.93827000000E+00  0.93827000000E+00 0.  1.
     999902    2    1    2    0    0 -0.17156501776E-01 -0.35314199171E-02 -0.19448415297E-01  0.10177564000E+01  0.10174197916E+01 0.  0.
     999903    2    3    3    0    0  0.37524291835E-01 -0.42700374287E-01  0.11031046218E+00  0.12570171419E+00  0.20028191202E-01 0.  0.
         14    1    1    2    0    0  0.17156501776E-01  0.35314199171E-02  0.19448415297E-01  0.26173600008E-01  0.00000000000E+00 0.  1.
     999901    1    3    3    0    0 -0.54680793611E-01  0.39168954370E-01 -0.12975887747E+00  0.89205468580E+00  0.88000000000E+00 0.  1.
        -11    1    4    4    0    0  0.43961234630E-02 -0.17474720795E-01  0.41910705013E-01  0.45623021427E-01  0.51100000000E-03 0. -1.
         11    1    4    4    0    0  0.33128168372E-01 -0.25225653492E-01  0.68399757164E-01  0.80078692765E-01  0.51100000000E-03 0.  1.
</event>
<event>
 8    1  0.1114686E+005  0.1043930E+01  0.7957747E-01            NaN
         13   -1    0    0    0    0  0.00000000000E+00  0.00000000000E+00  0.74505805969E-08  0.10566000000E+00  0.10566000000E+00 0. -1.
     999900   -1    0    0    0    0 -0.00000000000E+00 -0.00000000000E+00 -0.74505805969E-08  0.93827000000E+00  0.93827000000E+00 0. -1.
     999902    2    1    2    0    0  0.16724384489E-01 -0.13186178988E-01 -0.94565127954E-02  0.10206275111E+01  0.10203614607E+01 0.  0.
     999903    2    3    3    0    0 -0.74007078703E-02  0.10478369566E-01  0.12735250520E+00  0.12941556197E+00  0.19109170358E-01 0.  0.
         14    1    1    2    0    0 -0.16724384489E-01  0.13186178988E-01  0.94565127954E-02  0.23302488861E-01  0.00000000000E+00 0.  1.
     999901    1    3    3    0    0  0.24125092359E-01 -0.23664548555E-01 -0.13680901800E+00  0.89121194917E+00  0.88000000000E+00 0. -1.
        -11    1    4    4    0    0  0.53753614463E-02  0.76482387050E-02  0.39624909700E-01  0.40715901755E-01  0.51100000000E-03 0.  1.
         11    1    4    4    0    0 -0.12776069317E-01  0.28301308615E-02  0.87727595505E-01  0.88699660213E-01  0.51100000000E-03 0. -1.
</event>
<event>
 8    1  0.1114686E+005  0.1043930E+01  0.7957747E-01            NaN
         13   -1    0    0    0    0  0.00000000000E+00  0.00000000000E+00  0.74505805969E-08  0.10566000000E+00  0.10566000000E+00 0. -1.
     999900   -1    0    0    0    0 -0.00000000000E+00 -0.00000000000E+00 -0.74505805969E-08  0.93827000000E+00  0.93827000000E+00 0. -1.
     999902    2    1    2    0    0  0.18677684792E-01  0.92353472096E-02 -0.12558457688E-01  0.10196017776E+01  0.10193114943E+01 0.  0.
     999903    2    3    3    0    0 -0.53519037299E-02  0.17106534256E-01  0.12565540869E+00  0.12845507272E+00  0.19752153960E-01 0.  0.
         14    1    1    2    0    0 -0.18677684792E-01 -0.92353472096E-02  0.12558457688E-01  0.24328222433E-01  0.00000000000E+00 0.  1.
     999901    1    3    3    0    0  0.24029588522E-01 -0.78711870468E-02 -0.13821386637E+00  0.89114670485E+00  0.88000000000E+00 0. -1.
        -11    1    4    4    0    0 -0.12009459141E-01  0.97835656586E-02  0.94470511492E-01  0.95733400276E-01  0.51100000000E-03 0. -1.
         11    1    4    4    0    0  0.66575554107E-02  0.73229685978E-02  0.31184897195E-01  0.32721672439E-01  0.51100000000E-03 0.  1.
</event>
<event>
 8    1  0.1114686E+005  0.1043930E+01  0.7957747E-01            NaN
         13   -1    0    0    0    0  0.00000000000E+00  0.00000000000E+00  0.74505805969E-08  0.10566000000E+00  0.10566000000E+00 0. -1.
     999900   -1    0    0    0    0 -0.00000000000E+00 -0.00000000000E+00 -0.74505805969E-08  0.93827000000E+00  0.93827000000E+00 0. -1.
     999902    2    1    2    0    0 -0.60275212110E-02  0.15289083456E-01  0.16549928905E-01  0.10206064661E+01  0.10203399294E+01 0.  0.
     999903    2    3    3    0    0 -0.20613894010E-02  0.11805075958E+00 -0.55027052605E-01  0.13173135874E+00  0.19619969252E-01 0.  0.
         14    1    1    2    0    0  0.60275212110E-02 -0.15289083456E-01 -0.16549928905E-01  0.23323533859E-01  0.00000000000E+00 0.  1.
     999901    1    3    3    0    0 -0.39661318100E-02 -0.10276167612E+00  0.71576981511E-01  0.88887510740E+00  0.88000000000E+00 0.  1.
        -11    1    4    4    0    0 -0.13651967063E-02  0.39213457154E-01 -0.28677822209E-01  0.48602855797E-01  0.51100000000E-03 0. -1.
         11    1    4    4    0    0 -0.69619269474E-03  0.78837302423E-01 -0.26349230397E-01  0.83128502940E-01  0.51100000000E-03 0.  1.
</event>
<event>
 8    1  0.1114686E+005  0.1043930E+01  0.7957747E-01            NaN
         13   -1    0    0    0    0  0.00000000000E+00  0.00000000000E+00  0.74505805969E-08  0.10566000000E+00  0.10566000000E+00 0. -1.
     999900   -1    0    0    0    0 -0.00000000000E+00 -0.00000000000E+00 -0.74505805969E-08  0.93827000000E+00  0.93827000000E+00 0.  1.
     999902    2    1    2    0    0  0.19983893972E-02 -0.13773739559E-01 -0.19967404522E-01  0.10195905936E+01  0.10193000401E+01 0.  0.
     999903    2    3    3    0    0  0.75560963306E-01 -0.15659569186E-01 -0.10574411116E+00  0.13236308497E+00  0.19582847954E-01 0.  0.
         14    1    1    2    0    0 -0.19983893972E-02  0.13773739559E-01  0.19967404522E-01  0.24339406422E-01  0.00000000000E+00 0. -1.
     999901    1    3    3    0    0 -0.73562573909E-01  0.18858296267E-02  0.85776706640E-01  0.88722750861E+00  0.88000000000E+00 0. -1.
        -11    1    4    4    0    0  0.28710048111E-01 -0.14654173453E-01 -0.50574980253E-01  0.59975840225E-01  0.51100000000E-03 0. -1.
         11    1    4    4    0    0  0.46850915195E-01 -0.10053957329E-02 -0.55169130909E-01  0.72387244742E-01  0.51100000000E-03 0.  1.
</event>
<event>
 8    1  0.1114686E+005  0.1043930E+01  0.7957747E-01            NaN
         13   -1    0    0    0    0  0.00000000000E+00  0.00000000000E+00  0.74505805969E-08  0.10566000000E+00  0.10566000000E+00 0.  1.
     999900   -1    0    0    0    0 -0.00000000000E+00 -0.00000000000E+00 -0.74505805969E-08  0.93827000000E+00  0.93827000000E+00 0. -1.
     999902    2    1    2    0    0  0.81908511648E-02  0.13067549096E-01 -0.18044211464E-01  0.10201930152E+01  0.10199168318E+01 0.  0.
     999903    2    3    3    0    0  0.12602232783E+00  0.30936956610E-01  0.10191169102E-01  0.13171070845E+00  0.20127801545E-01 0.  0.
         14    1    1    2    0    0 -0.81908511648E-02 -0.13067549096E-01  0.18044211464E-01  0.23736984845E-01  0.00000000000E+00 0.  1.
     999901    1    3    3    0    0 -0.11783147667E+00 -0.17869407514E-01 -0.28235380566E-01  0.88848230671E+00  0.88000000000E+00 0.  1.
        -11    1    4    4    0    0  0.72559234689E-01  0.23145845340E-01  0.14416177138E-01  0.77515546695E-01  0.51100000000E-03 0.  1.
         11    1    4    4    0    0  0.53463093144E-01  0.77911112703E-02 -0.42250080358E-02  0.54195161751E-01  0.51100000000E-03 0. -1.
</event>
<event>
 8    1  0.1114686E+005  0.1043930E+01  0.7957747E-01            NaN
         13   -1    0    0    0    0  0.00000000000E+00  0.00000000000E+00  0.74505805969E-08  0.10566000000E+00  0.10566000000E+00 0. -1.
     999900   -1    0    0    0    0 -0.00000000000E+00 -0.00000000000E+00 -0.74505805969E-08  0.93827000000E+00  0.93827000000E+00 0.  1.
     999902    2    1    2    0    0  0.17348975301E-02 -0.21978574191E-01 -0.86250702538E-02  0.10202559756E+01  0.10199812726E+01 0.  0.
     999903    2    3    3    0    0 -0.95347481019E-01  0.63257281215E-01  0.55097147874E-01  0.12854376850E+00  0.19879108426E-01 0.  0.
         14    1    1    2    0    0 -0.17348975301E-02  0.21978574191E-01  0.86250702538E-02  0.23674024368E-01  0.00000000000E+00 0.  1.
     999901    1    3    3    0    0  0.97082378549E-01 -0.85235855406E-01 -0.63722218128E-01  0.89171220714E+00  0.88000000000E+00 0. -1.
        -11    1    4    4    0    0 -0.67124051886E-01  0.42603918938E-01  0.47947129410E-01  0.92843527454E-01  0.51100000000E-03 0. -1.
         11    1    4    4    0    0 -0.28223429133E-01  0.20653362277E-01  0.71500184637E-02  0.35700241041E-01  0.51100000000E-03 0.  1.
</event>
<event>
 8    1  0.1114686E+005  0.1043930E+01  0.7957747E-01            NaN
         13   -1    0    0    0    0  0.00000000000E+00  0.00000000000E+00  0.74505805969E-08  0.10566000000E+00  0.10566000000E+00 0. -1.
     999900   -1    0    0    0    0 -0.00000000000E+00 -0.00000000000E+00 -0.74505805969E-08  0.93827000000E+00  0.93827000000E+00 0.  1.
     999902    2    1    2    0    0 -0.13615060463E-01  0.10360637315E-02 -0.19057457617E-01  0.10204858112E+01  0.10202164774E+01 0.  0.
     999903    2    3    3    0    0 -0.53445260273E-01  0.35350350957E-01 -0.11542944851E+00  0.13366481696E+00  0.20887377803E-01 0.  0.
         14    1    1    2    0    0  0.13615060463E-01 -0.10360637315E-02  0.19057457617E-01  0.23444188838E-01  0.00000000000E+00 0. -1.
     999901    1    3    3    0    0  0.39830199810E-01 -0.34314287226E-01  0.96371990894E-01  0.88682099420E+00  0.88000000000E+00 0. -1.
        -11    1    4    4    0    0 -0.16263076919E-01  0.19143902249E-01 -0.59383539827E-01  0.64479784333E-01  0.51100000000E-03 0. -1.
         11    1    4    4    0    0 -0.37182183355E-01  0.16206448709E-01 -0.56045908684E-01  0.69185032629E-01  0.51100000000E-03 0.  1.
</event>
<event>
 8    1  0.1114686E+005  0.1043930E+01  0.7957747E-01            NaN
         13   -1    0    0    0    0  0.00000000000E+00  0.00000000000E+00  0.74505805969E-08  0.10566000000E+00  0.10566000000E+00 0. -1.
     999900   -1    0    0    0    0 -0.00000000000E+00 -0.00000000000E+00 -0.74505805969E-08  0.93827000000E+00  0.93827000000E+00 0. -1.
     999902    2    1    2    0    0 -0.39751773474E-03 -0.22943644001E-01  0.47642844196E-02  0.10204935492E+01  0.10202243953E+01 0.  0.
     999903    2    3    3    0    0 -0.73701533621E-01  0.71510397717E-01  0.76792393131E-01  0.12949237457E+00  0.18043014948E-01 0.  0.
         14    1    1    2    0    0  0.39751773474E-03  0.22943644001E-01 -0.47642844196E-02  0.23436450806E-01  0.00000000000E+00 0.  1.
     999901    1    3    3    0    0  0.73304015886E-01 -0.94454041717E-01 -0.72028108712E-01  0.89100117463E+00  0.88000000000E+00 0. -1.
        -11    1    4    4    0    0 -0.59757178074E-01  0.46966160072E-01  0.54723064511E-01  0.93656902755E-01  0.51100000000E-03 0.  1.
         11    1    4    4    0    0 -0.13944355547E-01  0.24544237645E-01  0.22069328621E-01  0.35835471811E-01  0.51100000000E-03 0. -1.
</event>
<event>
 8    1  0.1114686E+005  0.1043930E+01  0.7957747E-01            NaN
         13   -1    0    0    0    0  0.00000000000E+00  0.00000000000E+00  0.74505805969E-08  0.10566000000E+00  0.10566000000E+00 0. -1.
     999900   -1    0    0    0    0 -0.00000000000E+00 -0.00000000000E+00 -0.74505805969E-08  0.93827000000E+00  0.93827000000E+00 0.  1.
     999902    2    1    2    0    0  0.15589457757E-01  0.66761304267E-02  0.16045988702E-01  0.10205831444E+01  0.10203160682E+01 0.  0.
     999903    2    3    3    0    0 -0.64699589463E-02 -0.80184424232E-01 -0.98075147521E-01  0.12870030038E+00  0.21763053495E-01 0.  0.
         14    1    1    2    0    0 -0.15589457757E-01 -0.66761304267E-02 -0.16045988702E-01  0.23346855550E-01  0.00000000000E+00 0.  1.
     999901    1    3    3    0    0  0.22059416704E-01  0.86860554659E-01  0.11412113622E+00  0.89188284407E+00  0.88000000000E+00 0.  1.
        -11    1    4    4    0    0 -0.11725569386E-01 -0.59008650584E-01 -0.81468455187E-01  0.10127625651E+00  0.51100000000E-03 0. -1.
         11    1    4    4    0    0  0.52556104398E-02 -0.21175773647E-01 -0.16606692334E-01  0.27424043866E-01  0.51100000000E-03 0.  1.
</event>
<event>
 8    1  0.1114686E+005  0.1043930E+01  0.7957747E-01            NaN
         13   -1    0    0    0    0  0.00000000000E+00  0.00000000000E+00  0.74505805969E-08  0.10566000000E+00  0.10566000000E+00 0. -1.
     999900   -1    0    0    0    0 -0.00000000000E+00 -0.00000000000E+00 -0.74505805969E-08  0.93827000000E+00  0.93827000000E+00 0. -1.
     999902    2    1    2    0    0 -0.35319156651E-02  0.75496828175E-03  0.22932894846E-01  0.10207144433E+01  0.10204503970E+01 0.  0.
     999903    2    3    3    0    0 -0.11044506586E+00  0.66162539021E-01  0.20810491022E-01  0.13183139332E+00  0.19257351472E-01 0.  0.
         14    1    1    2    0    0  0.35319156651E-02 -0.75496828175E-03 -0.22932894846E-01  0.23215556667E-01  0.00000000000E+00 0.  1.
     999901    1    3    3    0    0  0.10691315020E+00 -0.65407570739E-01  0.21224038231E-02  0.88888305001E+00  0.88000000000E+00 0.  1.
        -11    1    4    4    0    0 -0.71001009841E-01  0.36941312166E-01  0.20970991209E-01  0.82739637033E-01  0.51100000000E-03 0.  1.
         11    1    4    4    0    0 -0.39444056022E-01  0.29221226855E-01 -0.16050018698E-03  0.49091756291E-01  0.51100000000E-03 0. -1.
</event>
<event>
 8    1  0.1114686E+005  0.1043930E+01  0.7957747E-01            NaN
         13   -1    0    0    0    0  0.00000000000E+00  0.00000000000E+00  0.74505805969E-08  0.10566000000E+00  0.10566000000E+00 0. -1.
     999900   -1    0    0    0    0 -0.00000000000E+00 -0.00000000000E+00 -0.74505805969E-08  0.93827000000E+00  0.93827000000E+00 0. -1.
     999902    2    1    2    0    0  0.22448537633E-01 -0.14911194629E-02 -0.67208626147E-02  0.10204495768E+01  0.10201794002E+01 0.  0.
     999903    2    3    3    0    0 -0.81646903306E-01 -0.14696880373E-01 -0.97815755500E-01  0.12954636520E+00  0.18224258534E-01 0.  0.
         14    1    1    2    0    0 -0.22448537633E-01  0.14911194629E-02  0.67208626147E-02  0.23480423195E-01  0.00000000000E+00 0. -1.
     999901    1    3    3    0    0  0.10409544094E+00  0.13205760910E-01  0.91094892886E-01  0.89090321161E+00  0.88000000000E+00 0.  1.
        -11    1    4    4    0    0 -0.36203311433E-01 -0.71623997684E-02 -0.57516946351E-01  0.68340617262E-01  0.51100000000E-03 0.  1.
         11    1    4    4    0    0 -0.45443591873E-01 -0.75344806046E-02 -0.40298809150E-01  0.61205747934E-01  0.51100000000E-03 0. -1.
</event>
<event>
 8    1  0.1114686E+005  0.1043930E+01  0.7957747E-01            NaN
         13   -1    0    0    0    0  0.00000000000E+00  0.00000000000E+00  0.74505805969E-08  0.10566000000E+00  0.10566000000E+00 0.  1.
     999900   -1    0    0    0    0 -0.00000000000E+00 -0.00000000000E+00 -0.74505805969E-08  0.93827000000E+00  0.93827000000E+00 0.  1.
     999902    2    1    2    0    0 -0.10091542186E-01 -0.28115889340E-04  0.22172978080E-01  0.10195685351E+01  0.10192774484E+01 0.  0.
     999903    2    3    3    0    0 -0.10777513842E+00 -0.14518665605E-01  0.73091563488E-01  0.13258219738E+00  0.20233395575E-01 0.  0.
         14    1    1    2    0    0  0.10091542186E-01  0.28115889340E-04 -0.22172978080E-01  0.24361464880E-01  0.00000000000E+00 0. -1.
     999901    1    3    3    0    0  0.97683596230E-01  0.14490549715E-01 -0.50918585409E-01  0.88698633774E+00  0.88000000000E+00 0.  1.
        -11    1    4    4    0    0 -0.75916973308E-01 -0.14672645867E-01  0.41689726855E-01  0.87846273793E-01  0.51100000000E-03 0.  1.
         11    1    4    4    0    0 -0.31858165108E-01  0.15398026243E-03  0.31401836633E-01  0.44735923583E-01  0.51100000000E-03 0. -1.
</event>
<event>
 8    1  0.1114686E+005  0.1043930E+01  0.7957747E-01            NaN
         13   -1    0    0    0    0  0.00000000000E+00  0.00000000000E+00  0.74505805969E-08  0.10566000000E+00  0.10566000000E+00 0. -1.
     999900   -1    0    0    0    0 -0.00000000000E+00 -0.00000000000E+00 -0.74505805969E-08  0.93827000000E+00  0.93827000000E+00 0.  1.
     999902    2    1    2    0    0 -0.12819384603E-01  0.22175520217E-02  0.18535719699E-01  0.10212843147E+01  0.10210332141E+01 0.  0.
     999903    2    3    3    0    0  0.10263396300E-01  0.70196252317E-01  0.11115947854E+00  0.13351571918E+00  0.20908525919E-01 0.  0.
         14    1    1    2    0    0  0.12819384603E-01 -0.22175520217E-02 -0.18535719699E-01  0.22645685314E-01  0.00000000000E+00 0.  1.
     999901    1    3    3    0    0 -0.23082780903E-01 -0.67978700295E-01 -0.92623758838E-01  0.88776859551E+00  0.88000000000E+00 0.  1.
        -11    1    4    4    0    0  0.82346246075E-02  0.43740993692E-01  0.50571830474E-01  0.67371022926E-01  0.51100000000E-03 0.  1.
         11    1    4    4    0    0  0.20287716925E-02  0.26455258625E-01  0.60587648064E-01  0.66144696253E-01  0.51100000000E-03 0. -1.
</event>
<event>
 8    1  0.1114686E+005  0.1043930E+01  0.7957747E-01            NaN
         13   -1    0    0    0    0  0.00000000000E+00  0.00000000000E+00  0.74505805969E-08  0.10566000000E+00  0.10566000000E+00 0. -1.
     999900   -1    0    0    0    0 -0.00000000000E+00 -0.00000000000E+00 -0.74505805969E-08  0.93827000000E+00  0.93827000000E+00 0.  1.
     999902    2    1    2    0    0 -0.17507922805E-01  0.93084966659E-02  0.13570449250E-01  0.10199022543E+01  0.10196191817E+01 0.  0.
     999903    2    3    3    0    0  0.96676803987E-01 -0.81043629574E-01  0.21281684983E-02  0.12786381098E+00  0.20740075550E-01 0.  0.
         14    1    1    2    0    0  0.17507922805E-01 -0.93084966659E-02 -0.13570449250E-01  0.24027745711E-01  0.00000000000E+00 0.  1.
     999901    1    3    3    0    0 -0.11418472679E+00  0.90352126240E-01  0.11442280752E-01  0.89203844331E+00  0.88000000000E+00 0.  1.
        -11    1    4    4    0    0  0.52308258241E-01 -0.31933279680E-01 -0.38474892208E-02  0.61408081924E-01  0.51100000000E-03 0.  1.
         11    1    4    4    0    0  0.44368545747E-01 -0.49110349894E-01  0.59756577191E-02  0.66455729058E-01  0.51100000000E-03 0. -1.
</event>
<event>
 8    1  0.1114686E+005  0.1043930E+01  0.7957747E-01            NaN
         13   -1    0    0    0    0  0.00000000000E+00  0.00000000000E+00  0.74505805969E-08  0.10566000000E+00  0.10566000000E+00 0. -1.
     999900   -1    0    0    0    0 -0.00000000000E+00 -0.00000000000E+00 -0.74505805969E-08  0.93827000000E+00  0.93827000000E+00 0. -1.
     999902    2    1    2    0    0 -0.35188054686E-02 -0.93037265096E-02 -0.20898651327E-01  0.10207849153E+01  0.10205224879E+01 0.  0.
     999903    2    3    3    0    0 -0.39129027944E-01 -0.60753144074E-01  0.10569413088E+00  0.12952689259E+00  0.19594419083E-01 0.  0.
         14    1    1    2    0    0  0.35188054686E-02  0.93037265096E-02  0.20898651327E-01  0.23145084709E-01  0.00000000000E+00 0. -1.
     999901    1    3    3    0    0  0.35610222476E-01  0.51449417564E-01 -0.12659278221E+00  0.89125802270E+00  0.88000000000E+00 0. -1.
        -11    1    4    4    0    0 -0.28701854782E-01 -0.28442864941E-01  0.64868688721E-01  0.76426441310E-01  0.51100000000E-03 0. -1.
         11    1    4    4    0    0 -0.10427173162E-01 -0.32310279133E-01  0.40825442163E-01  0.53100451285E-01  0.51100000000E-03 0.  1.
</event>
<event>
 8    1  0.1114686E+005  0.1043930E+01  0.7957747E-01            NaN
         13   -1    0    0    0    0  0.00000000000E+00  0.00000000000E+00  0.74505805969E-08  0.10566000000E+00  0.10566000000E+00 0.  1.
     999900   -1    0    0    0    0 -0.00000000000E+00 -0.00000000000E+00 -0.74505805969E-08  0.93827000000E+00  0.93827000000E+00 0.  1.
     999902    2    1    2    0    0 -0.12319484621E-01  0.17228330534E-01 -0.56743745702E-02  0.10220032218E+01  0.10217679785E+01 0.  0.
     999903    2    3    3    0    0  0.81625206308E-01  0.97157341495E-01 -0.34361257272E-01  0.13293787609E+00  0.19737263925E-01 0.  0.
         14    1    1    2    0    0  0.12319484621E-01 -0.17228330534E-01  0.56743745702E-02  0.21926778174E-01  0.00000000000E+00 0.  1.
     999901    1    3    3    0    0 -0.93944690929E-01 -0.79929010961E-01  0.28686882702E-01  0.88906534573E+00  0.88000000000E+00 0. -1.
        -11    1    4    4    0    0  0.50788149159E-01  0.47181645635E-01 -0.23621346361E-01  0.73237783314E-01  0.51100000000E-03 0.  1.
         11    1    4    4    0    0  0.30837057149E-01  0.49975695860E-01 -0.10739910911E-01  0.59700092778E-01  0.51100000000E-03 0. -1.
</event>
<event>
 8    1  0.1114686E+005  0.1043930E+01  0.7957747E-01            NaN
         13   -1    0    0    0    0  0.00000000000E+00  0.00000000000E+00  0.74505805969E-08  0.10566000000E+00  0.10566000000E+00 0. -1.
     999900   -1    0    0    0    0 -0.00000000000E+00 -0.00000000000E+00 -0.74505805969E-08  0.93827000000E+00  0.93827000000E+00 0.  1.
     999902    2    1    2    0    0 -0.15683396455E-01  0.71355998790E-02  0.15287589085E-01  0.10208953285E+01  0.10206354274E+01 0.  0.
     999903    2    3    3    0    0 -0.87516716980E-01  0.57897977849E-01 -0.77165370577E-01  0.13169096804E+00  0.19407860701E-01 0.  0.
         14    1    1    2    0    0  0.15683396455E-01 -0.71355998790E-02 -0.15287589085E-01  0.23034671476E-01  0.00000000000E+00 0.  1.
     999901    1    3    3    0    0  0.71833320525E-01 -0.50762377969E-01  0.92452959661E-01  0.88920436048E+00  0.88000000000E+00 0. -1.
        -11    1    4    4    0    0 -0.74400793475E-01  0.50841071477E-01 -0.73642235334E-01  0.11637754321E+00  0.51100000000E-03 0. -1.
         11    1    4    4    0    0 -0.13115923505E-01  0.70569063714E-02 -0.35231352422E-02  0.15313424824E-01  0.51100000000E-03 0.  1.
</event>
<event>
 8    1  0.1114686E+005  0.1043930E+01  0.7957747E-01            NaN
         13   -1    0    0    0    0  0.00000000000E+00  0.00000000000E+00  0.74505805969E-08  0.10566000000E+00  0.10566000000E+00 0. -1.
     999900   -1    0    0    0    0 -0.00000000000E+00 -0.00000000000E+00 -0.74505805969E-08  0.93827000000E+00  0.93827000000E+00 0.  1.
     999902    2    1    2    0    0  0.13778648250E-01 -0.16221909907E-01  0.92311342545E-02  0.10207305313E+01  0.10204668550E+01 0.  0.
     999903    2    3    3    0    0 -0.17253878054E-01  0.11900395626E+00  0.42768626138E-01  0.12922965304E+00  0.20285707504E-01 0.  0.
         14    1    1    2    0    0 -0.13778648250E-01  0.16221909907E-01 -0.92311342545E-02  0.23199468706E-01  0.00000000000E+00 0.  1.
     999901    1    3    3    0    0  0.31032526304E-01 -0.13522586617E+00 -0.33537491883E-01  0.89150087826E+00  0.88000000000E+00 0. -1.
        -11    1    4    4    0    0 -0.15161515882E-01  0.59576623580E-01  0.30004314560E-01  0.68408812695E-01  0.51100000000E-03 0.  1.
         11    1    4    4    0    0 -0.20923621718E-02  0.59427332680E-01  0.12764311577E-01  0.60820840343E-01  0.51100000000E-03 0. -1.
</event>
<event>
 8    1  0.1114686E+005  0.1043930E+01  0.7957747E-01            NaN
         13   -1    0    0    0    0  0.00000000000E+00  0.00000000000E+00  0.74505805969E-08  0.10566000000E+00  0.10566000000E+00 0. -1.
     999900   -1    0    0    0    0 -0.00000000000E+00 -0.00000000000E+00 -0.74505805969E-08  0.93827000000E+00  0.93827000000E+00 0.  1.
     999902    2    1    2    0    0 -0.12530290284E-01  0.75849926951E-02 -0.18370740639E-01  0.10204348005E+01  0.10201642797E+01 0.  0.
     999903    2    3    3    0    0 -0.50193857271E-01 -0.58933127542E-01 -0.10599373053E+00  0.13278566205E+00  0.20120246161E-01 0.  0.
         14    1    1    2    0    0  0.12530290284E-01 -0.75849926951E-02  0.18370740639E-01  0.23495199519E-01  0.00000000000E+00 0. -1.
     999901    1    3    3    0    0  0.37663566987E-01  0.66518120237E-01  0.87622989889E-01  0.88764913843E+00  0.88000000000E+00 0.  1.
        -11    1    4    4    0    0 -0.18665685514E-01 -0.15179953214E-01 -0.20054516617E-01  0.31325445776E-01  0.51100000000E-03 0.  1.
         11    1    4    4    0    0 -0.31528171756E-01 -0.43753174328E-01 -0.85939213911E-01  0.10146021628E+00  0.51100000000E-03 0. -1.
</event>
<event>
 8    1  0.1114686E+005  0.1043930E+01  0.7957747E-01            NaN
         13   -1    0    0    0    0  0.00000000000E+00  0.00000000000E+00  0.74505805969E-08  0.10566000000E+00  0.10566000000E+00 0. -1.
     999900   -1    0    0    0    0 -0.00000000000E+00 -0.00000000000E+00 -0.74505805969E-08  0.93827000000E+00  0.93827000000E+00 0. -1.
     999902    2    1    2    0    0  0.40393941923E-02 -0.89713200239E-02  0.31095924622E-01  0.10113146997E+01  0.10107886346E+01 0.  0.
     999903    2    3    3    0    0  0.14792212987E-01  0.10762568448E+00  0.55057371232E-01  0.12323551653E+00  0.18803746517E-01 0.  0.
         14    1    1    2    0    0 -0.40393941923E-02  0.89713200239E-02 -0.31095924622E-01  0.32615300343E-01  0.00000000000E+00 0.  1.
     999901    1    3    3    0    0 -0.10752818795E-01 -0.11659700451E+00 -0.23961446610E-01  0.88807918312E+00  0.88000000000E+00 0. -1.
        -11    1    4    4    0    0 -0.32721521433E-02  0.35688196724E-01  0.14179815735E-01  0.38544554224E-01  0.51100000000E-03 0. -1.
         11    1    4    4    0    0  0.18064365131E-01  0.71937487758E-01  0.40877555497E-01  0.84690962310E-01  0.51100000000E-03 0.  1.
</event>
<event>
 8    1  0.1114686E+005  0.1043930E+01  0.7957747E-01            NaN
         13   -1    0    0    0    0  0.00000000000E+00  0.00000000000E+00  0.74505805969E-08  0.10566000000E+00  0.10566000000E+00 0. -1.
     999900   -1    0    0    0    0 -0.00000000000E+00 -0.00000000000E+00 -0.74505805969E-08  0.93827000000E+00  0.93827000000E+00 0. -1.
     999902    2    1    2    0    0 -0.16880043810E-01  0.14714661103E-01  0.56889424237E-02  0.10208254291E+01  0.10205639301E+01 0.  0.
     999903    2    3    3    0    0  0.62214020284E-01  0.31064932525E-01  0.11021044101E+00  0.13096704373E+00  0.13054151923E-01 0.  0.
         14    1    1    2    0    0  0.16880043810E-01 -0.14714661103E-01 -0.56889424237E-02  0.23104570897E-01  0.00000000000E+00 0. -1.
     999901    1    3    3    0    0 -0.79094064094E-01 -0.16350271422E-01 -0.10452149859E+00  0.88985838537E+00  0.88000000000E+00 0. -1.
        -11    1    4    4    0    0  0.39069152339E-01  0.26149374772E-01  0.70498656241E-01  0.84737890688E-01  0.51100000000E-03 0. -1.
         11    1    4    4    0    0  0.23144867945E-01  0.49155577532E-02  0.39711784772E-01  0.46229153043E-01  0.51100000000E-03 0.  1.
</event>
<event>
 8    1  0.1114686E+005  0.1043930E+01  0.7957747E-01            NaN
         13   -1    0    0    0    0  0.00000000000E+00  0.00000000000E+00  0.74505805969E-08  0.10566000000E+00  0.10566000000E+00 0.  1.
     999900   -1    0    0    0    0 -0.00000000000E+00 -0.00000000000E+00 -0.74505805969E-08  0.93827000000E+00  0.93827000000E+00 0.  1.
     999902    2    1    2    0    0 -0.13903971014E-02  0.80043213068E-02  0.21283908580E-01  0.10211482721E+01  0.10208941113E+01 0.  0.
     999903    2    3    3    0    0 -0.55750996783E-01 -0.14989302449E-01  0.11897576991E+00  0.13377716519E+00  0.20205030792E-01 0.  0.
         14    1    1    2    0    0  0.13903971014E-02 -0.80043213068E-02 -0.21283908580E-01  0.22781727944E-01  0.00000000000E+00 0. -1.
     999901    1    3    3    0    0  0.54360599682E-01  0.22993623756E-01 -0.97691861333E-01  0.88737110687E+00  0.88000000000E+00 0.  1.
        -11    1    4    4    0    0 -0.26504241543E-01  0.31026045747E-02  0.48605163165E-01  0.55451095410E-01  0.51100000000E-03 0. -1.
         11    1    4    4    0    0 -0.29246755240E-01 -0.18091907024E-01  0.70370606748E-01  0.78326069779E-01  0.51100000000E-03 0.  1.
</event>
<event>
 8    1  0.1114686E+005  0.1043930E+01  0.7957747E-01            NaN
         13   -1    0    0    0    0  0.00000000000E+00  0.00000000000E+00  0.74505805969E-08  0.10566000000E+00  0.10566000000E+00 0. -1.
     999900   -1    0    0    0    0 -0.00000000000E+00 -0.00000000000E+00 -0.74505805969E-08  0.93827000000E+00  0.93827000000E+00 0. -1.
     999902    2    1    2    0    0  0.16724629705E-02  0.13271331890E-02 -0.23343666504E-01  0.10204888998E+01  0.10202196378E+01 0.  0.
     999903    2    3    3    0    0  0.11908105129E+00 -0.41466578764E-01 -0.31913886550E-01  0.13161909654E+00  0.20132473484E-01 0.  0.
         14    1    1    2    0    0 -0.16724629705E-02 -0.13271331890E-02  0.23343666504E-01  0.23441100246E-01  0.00000000000E+00 0. -1.
     999901    1    3    3    0    0 -0.11740858832E+00  0.42793711953E-01  0.85702200455E-02  0.88886980321E+00  0.88000000000E+00 0.  1.
        -11    1    4    4    0    0  0.50507689298E-01 -0.90739738838E-02 -0.70182043011E-02  0.51796524911E-01  0.51100000000E-03 0. -1.
         11    1    4    4    0    0  0.68573361992E-01 -0.32392604881E-01 -0.24895682249E-01  0.79822571629E-01  0.51100000000E-03 0.  1.
</event>
<event>
 8    1  0.1114686E+005  0.1043930E+01  0.7957747E-01            NaN
         13   -1    0    0    0    0  0.00000000000E+00  0.00000000000E+00  0.74505805969E-08  0.10566000000E+00  0.10566000000E+00 0.  1.
     999900   -1    0    0    0    0 -0.00000000000E+00 -0.00000000000E+00 -0.74505805969E-08  0.93827000000E+00  0.93827000000E+00 0.  1.
     999902    2    1    2    0    0 -0.10765608637E-01 -0.11591182021E-02  0.21136172747E-01  0.10201817436E+01  0.10199052948E+01 0.  0.
     999903    2    3    3    0    0  0.69304376445E-01  0.64796345893E-01  0.88742766038E-01  0.13151308924E+00  0.20463408383E-01 0.  0.
         14    1    1    2    0    0  0.10765608637E-01  0.11591182021E-02 -0.21136172747E-01  0.23748256414E-01  0.00000000000E+00 0. -1.
     999901    1    3    3    0    0 -0.80069985082E-01 -0.65955464095E-01 -0.67606593291E-01  0.88866865434E+00  0.88000000000E+00 0.  1.
        -11    1    4    4    0    0  0.51039812222E-01  0.34926250402E-01  0.60622239917E-01  0.86603824929E-01  0.51100000000E-03 0. -1.
         11    1    4    4    0    0  0.18264564223E-01  0.29870095491E-01  0.28120526121E-01  0.44909264314E-01  0.51100000000E-03 0.  1.
</event>
<event>
 8    1  0.1114686E+005  0.1043930E+01  0.7957747E-01            NaN
         13   -1    0    0    0    0  0.00000000000E+00  0.00000000000E+00  0.74505805969E-08  0.10566000000E+00  0.10566000000E+00 0.  1.
     999900   -1    0    0    0    0 -0.00000000000E+00 -0.00000000000E+00 -0.74505805969E-08  0.93827000000E+00  0.93827000000E+00 0.  1.
     999902    2    1    2    0    0  0.84357272987E-02  0.13415558029E-01  0.17452924092E-01  0.10203557927E+01  0.10200834281E+01 0.  0.
     999903    2    3    3    0    0  0.81639982110E-01 -0.47879835193E-01 -0.85572193559E-01  0.12921598151E+00  0.20410886059E-01 0.  0.
         14    1    1    2    0    0 -0.84357272987E-02 -0.13415558029E-01 -0.17452924092E-01  0.23574207339E-01  0.00000000000E+00 0. -1.
     999901    1    3    3    0    0 -0.73204254811E-01  0.61295393223E-01  0.10302511765E+00  0.89113981115E+00  0.88000000000E+00 0. -1.
        -11    1    4    4    0    0  0.22399441618E-01 -0.10551252785E-01 -0.34848044297E-01  0.42751739526E-01  0.51100000000E-03 0.  1.
         11    1    4    4    0    0  0.59240540492E-01 -0.37328582408E-01 -0.50724149262E-01  0.86464241983E-01  0.51100000000E-03 0. -1.
</event>
<event>
 8    1  0.1114686E+005  0.1043930E+01  0.7957747E-01            NaN
         13   -1    0    0    0    0  0.00000000000E+00  0.00000000000E+00  0.74505805969E-08  0.10566000000E+00  0.10566000000E+00 0. -1.
     999900   -1    0    0    0    0 -0.00000000000E+00 -0.00000000000E+00 -0.74505805969E-08  0.93827000000E+00  0.93827000000E+00 0.  1.
     999902    2    1    2    0    0 -0.77965498244E-02  0.20919936739E-01  0.28284078498E-02  0.10214260041E+01  0.10211780706E+01 0.  0.
     999903    2    3    3    0    0 -0.56795911753E-01 -0.22885227085E-01 -0.11440978231E+00  0.13122118320E+00  0.19490803534E-01 0.  0.
         14    1    1    2    0    0  0.77965498244E-02 -0.20919936739E-01 -0.28284078498E-02  0.22503995941E-01  0.00000000000E+00 0. -1.
     999901    1    3    3    0    0  0.48999361929E-01  0.43805163825E-01  0.11723819016E+00  0.89020482086E+00  0.88000000000E+00 0. -1.
        -11    1    4    4    0    0 -0.49413371622E-01 -0.11968045777E-01 -0.95071176887E-01  0.10781328865E+00  0.51100000000E-03 0.  1.
         11    1    4    4    0    0 -0.73825401306E-02 -0.10917181308E-01 -0.19338605421E-01  0.23407894547E-01  0.51100000000E-03 0. -1.
</event>
<event>
 8    1  0.1114686E+005  0.1043930E+01  0.7957747E-01            NaN
         13   -1    0    0    0    0  0.00000000000E+00  0.00000000000E+00  0.74505805969E-08  0.10566000000E+00  0.10566000000E+00 0.  1.
     999900   -1    0    0    0    0 -0.00000000000E+00 -0.00000000000E+00 -0.74505805969E-08  0.93827000000E+00  0.93827000000E+00 0.  1.
     999902    2    1    2    0    0  0.18501564227E-01  0.17224236788E-01 -0.25742766013E-02  0.10185211608E+01  0.10182041769E+01 0.  0.
     999903    2    3    3    0    0  0.56969416243E-01  0.10762894266E+00  0.46339197732E-01  0.13170364037E+00  0.19209996263E-01 0.  0.
         14    1    1    2    0    0 -0.18501564227E-01 -0.17224236788E-01  0.25742766013E-02  0.25408839245E-01  0.00000000000E+00 0. -1.
     999901    1    3    3    0    0 -0.38467852017E-01 -0.90404705872E-01 -0.48913474333E-01  0.88681752038E+00  0.88000000000E+00 0.  1.
        -11    1    4    4    0    0  0.36675944636E-01  0.60289680901E-01  0.35785343403E-01  0.79125359156E-01  0.51100000000E-03 0. -1.
         11    1    4    4    0    0  0.20293471608E-01  0.47339261759E-01  0.10553854328E-01  0.52578281219E-01  0.51100000000E-03 0.  1.
</event>
<event>
 8    1  0.1114686E+005  0.1043930E+01  0.7957747E-01            NaN
         13   -1    0    0    0    0  0.00000000000E+00  0.00000000000E+00  0.74505805969E-08  0.10566000000E+00  0.10566000000E+00 0.  1.
     999900   -1    0    0    0    0 -0.00000000000E+00 -0.00000000000E+00 -0.74505805969E-08  0.93827000000E+00  0.93827000000E+00 0. -1.
     999902    2    1    2    0    0  0.16339919844E-01  0.99517287412E-02  0.13823535537E-01  0.10203266100E+01  0.10200535628E+01 0.  0.
     999903    2    3    3    0    0 -0.66205627751E-01 -0.24768437536E-02 -0.10775509510E+00  0.12805445404E+00  0.19936468586E-01 0.  0.
         14    1    1    2    0    0 -0.16339919844E-01 -0.99517287412E-02 -0.13823535537E-01  0.23603390015E-01  0.00000000000E+00 0. -1.
     999901    1    3    3    0    0  0.82545547595E-01  0.12428572495E-01  0.12157863064E+00  0.89227215594E+00  0.88000000000E+00 0.  1.
        -11    1    4    4    0    0 -0.37109950836E-01 -0.11267661193E-01 -0.60005546685E-01  0.71449530396E-01  0.51100000000E-03 0. -1.
         11    1    4    4    0    0 -0.29095676915E-01  0.87908174399E-02 -0.47749548414E-01  0.56604923648E-01  0.51100000000E-03 0.  1.
</event>
<event>
 8    1  0.1114686E+005  0.1043930E+01  0.7957747E-01            NaN
         13   -1    0    0    0    0  0.00000000000E+00  0.00000000000E+00  0.74505805969E-08  0.10566000000E+00  0.10566000000E+00 0. -1.
     999900   -1    0    0    0    0 -0.00000000000E+00 -0.00000000000E+00 -0.74505805969E-08  0.93827000000E+00  0.93827000000E+00 0. -1.
     999902    2    1    2    0    0 -0.71337750623E-02 -0.14292913217E-01  0.12091809119E-01  0.10238952811E+01  0.10236992511E+01 0.  0.
     999903    2    3    3    0    0 -0.75016063809E-01 -0.10773062257E+00  0.29339860361E-01  0.13618130353E+00  0.21242013926E-01 0.  0.
         14    1    1    2    0    0  0.71337750623E-02  0.14292913217E-01 -0.12091809119E-01  0.20034718931E-01  0.00000000000E+00 0.  1.
     999901    1    3    3    0    0  0.67882288746E-01  0.93437709351E-01 -0.17248051242E-01  0.88771397754E+00  0.88000000000E+00 0. -1.
        -11    1    4    4    0    0 -0.11961468708E-01 -0.10033085796E-01  0.93235315302E-02  0.18191451438E-01  0.51100000000E-03 0. -1.
         11    1    4    4    0    0 -0.63054595101E-01 -0.97697536773E-01  0.20016328831E-01  0.11798985209E+00  0.51100000000E-03 0.  1.
</event>
<event>
 8    1  0.1114686E+005  0.1043930E+01  0.7957747E-01            NaN
         13   -1    0    0    0    0  0.00000000000E+00  0.00000000000E+00  0.74505805969E-08  0.10566000000E+00  0.10566000000E+00 0. -1.
     999900   -1    0    0    0    0 -0.00000000000E+00 -0.00000000000E+00 -0.74505805969E-08  0.93827000000E+00  0.93827000000E+00 0.  1.
     999902    2    1    2    0    0 -0.11820109633E-01  0.48772598018E-02  0.18908243241E-01  0.10211040429E+01  0.10208488831E+01 0.  0.
     999903    2    3    3    0    0  0.48434725406E-01  0.11671294296E+00  0.31924433812E-01  0.13188681051E+00  0.20177404021E-01 0.  0.
         14    1    1    2    0    0  0.11820109633E-01 -0.48772598018E-02 -0.18908243241E-01  0.22825957096E-01  0.00000000000E+00 0.  1.
     999901    1    3    3    0    0 -0.60254835039E-01 -0.11183568315E+00 -0.13016190572E-01  0.88921723240E+00  0.88000000000E+00 0. -1.
        -11    1    4    4    0    0  0.27445148572E-01  0.44099201134E-01  0.77026564429E-02  0.52512548578E-01  0.51100000000E-03 0. -1.
         11    1    4    4    0    0  0.20989576834E-01  0.72613741822E-01  0.24221777369E-01  0.79374261931E-01  0.51100000000E-03 0.  1.
</event>
<event>
 8    1  0.1114686E+005  0.1043930E+01  0.7957747E-01            NaN
         13   -1    0    0    0    0  0.00000000000E+00  0.00000000000E+00  0.74505805969E-08  0.10566000000E+00  0.10566000000E+00 0.  1.
     999900   -1    0    0    0    0 -0.00000000000E+00 -0.00000000000E+00 -0.74505805969E-08  0.93827000000E+00  0.93827000000E+00 0. -1.
     999902    2    1    2    0    0 -0.21492257200E-01 -0.62489249156E-02  0.88051563813E-02  0.10198780362E+01  0.10195943859E+01 0.  0.
     999903    2    3    3    0    0  0.11790663430E-01 -0.12782180780E+00  0.15744153843E-01  0.13086967387E+00  0.20038933795E-01 0.  0.
         14    1    1    2    0    0  0.21492257200E-01  0.62489249156E-02 -0.88051563813E-02  0.24051963767E-01  0.00000000000E+00 0. -1.
     999901    1    3    3    0    0 -0.33282920630E-01  0.12157288288E+00 -0.69389974612E-02  0.88900836236E+00  0.88000000000E+00 0.  1.
        -11    1    4    4    0    0  0.12024078323E-01 -0.93127916936E-01  0.19699771287E-01  0.95946492807E-01  0.51100000000E-03 0. -1.
         11    1    4    4    0    0 -0.23341489227E-03 -0.34693890860E-01 -0.39556174440E-02  0.34923181067E-01  0.51100000000E-03 0.  1.
</event>
<event>
 8    1  0.1114686E+005  0.1043930E+01  0.7957747E-01            NaN
         13   -1    0    0    0    0  0.00000000000E+00  0.00000000000E+00  0.74505805969E-08  0.10566000000E+00  0.10566000000E+00 0. -1.
     999900   -1    0    0    0    0 -0.00000000000E+00 -0.00000000000E+00 -0.74505805969E-08  0.93827000000E+00  0.93827000000E+00 0. -1.
     999902    2    1    2    0    0 -0.14075069440E-01 -0.99654007344E-02  0.16472972546E-01  0.10200809829E+01  0.10198021554E+01 0.  0.
     999903    2    3    3    0    0 -0.79840990516E-01 -0.28669171383E-01  0.10100583138E+00  0.13339006064E+00  0.19855103888E-01 0.  0.
         14    1    1    2    0    0  0.14075069440E-01  0.99654007344E-02 -0.16472972546E-01  0.23849017087E-01  0.00000000000E+00 0. -1.
     999901    1    3    3    0    0  0.65765921076E-01  0.18703770648E-01 -0.84532858839E-01  0.88669092227E+00  0.88000000000E+00 0. -1.
        -11    1    4    4    0    0 -0.54367342947E-01 -0.18224966176E-01  0.53198771405E-01  0.78219740291E-01  0.51100000000E-03 0. -1.
         11    1    4    4    0    0 -0.25473647570E-01 -0.10444205207E-01  0.47807059980E-01  0.55170320353E-01  0.51100000000E-03 0.  1.
</event>
<event>
 8    1  0.1114686E+005  0.1043930E+01  0.7957747E-01            NaN
         13   -1    0    0    0    0  0.00000000000E+00  0.00000000000E+00  0.74505805969E-08  0.10566000000E+00  0.10566000000E+00 0. -1.
     999900   -1    0    0    0    0 -0.00000000000E+00 -0.00000000000E+00 -0.74505805969E-08  0.93827000000E+00  0.93827000000E+00 0.  1.
     999902    2    1    2    0    0  0.10092957930E-01  0.20331553231E-01  0.53991782159E-02  0.10205978123E+01  0.10203310754E+01 0.  0.
     999903    2    3    3    0    0  0.12197757077E+00  0.72930887575E-02  0.46261662303E-01  0.13247737524E+00  0.21872280138E-01 0.  0.
         14    1    1    2    0    0 -0.10092957930E-01 -0.20331553231E-01 -0.53991782159E-02  0.23332187681E-01  0.00000000000E+00 0. -1.
     999901    1    3    3    0    0 -0.11188461284E+00  0.13038464474E-01 -0.40862484087E-01  0.88812043708E+00  0.88000000000E+00 0.  1.
        -11    1    4    4    0    0  0.57213085198E-01  0.31793217957E-03  0.10520580842E-01  0.58175441047E-01  0.51100000000E-03 0. -1.
         11    1    4    4    0    0  0.64764485569E-01  0.69751565780E-02  0.35741081461E-01  0.74301934197E-01  0.51100000000E-03 0.  1.
</event>
<event>
 8    1  0.1114686E+005  0.1043930E+01  0.7957747E-01            NaN
         13   -1    0    0    0    0  0.00000000000E+00  0.00000000000E+00  0.74505805969E-08  0.10566000000E+00  0.10566000000E+00 0.  1.
     999900   -1    0    0    0    0 -0.00000000000E+00 -0.00000000000E+00 -0.74505805969E-08  0.93827000000E+00  0.93827000000E+00 0. -1.
     999902    2    1    2    0    0 -0.18575039343E-01  0.12390109803E-01 -0.14732548386E-02  0.10215532847E+01  0.10213081788E+01 0.  0.
     999903    2    3    3    0    0 -0.89656342268E-01 -0.51798291516E-01  0.80750730368E-01  0.13254626211E+00  0.18069544283E-01 0.  0.
         14    1    1    2    0    0  0.18575039343E-01 -0.12390109803E-01  0.14732548386E-02  0.22376715293E-01  0.00000000000E+00 0. -1.
     999901    1    3    3    0    0  0.71081302925E-01  0.64188401318E-01 -0.82223985206E-01  0.88900702260E+00  0.88000000000E+00 0. -1.
        -11    1    4    4    0    0 -0.36384866358E-01 -0.30720443528E-01  0.40679817030E-01  0.62631563809E-01  0.51100000000E-03 0. -1.
         11    1    4    4    0    0 -0.53271475909E-01 -0.21077847988E-01  0.40070913337E-01  0.69914698298E-01  0.51100000000E-03 0.  1.
</event>
<event>
 8    1  0.1114686E+005  0.1043930E+01  0.7957747E-01            NaN
         13   -1    0    0    0    0  0.00000000000E+00  0.00000000000E+00  0.74505805969E-08  0.10566000000E+00  0.10566000000E+00 0. -1.
     999900   -1    0    0    0    0 -0.00000000000E+00 -0.00000000000E+00 -0.74505805969E-08  0.93827000000E+00  0.93827000000E+00 0. -1.
     999902    2    1    2    0    0 -0.13806656357E-01  0.20216926563E-01 -0.19952136628E-02  0.10193672486E+01  0.10190712726E+01 0.  0.
     999903    2    3    3    0    0 -0.11534043320E+00  0.84624226455E-02  0.59023001947E-01  0.13135232819E+00  0.19866837588E-01 0.  0.
         14    1    1    2    0    0  0.13806656357E-01 -0.20216926563E-01  0.19952136628E-02  0.24562751414E-01  0.00000000000E+00 0.  1.
     999901    1    3    3    0    0  0.10153377684E+00  0.11754503918E-01 -0.61018215610E-01  0.88801492039E+00  0.88000000000E+00 0. -1.
        -11    1    4    4    0    0 -0.19880604318E-01  0.56245421357E-03  0.19095541611E-01  0.27576359680E-01  0.51100000000E-03 0. -1.
         11    1    4    4    0    0 -0.95459828881E-01  0.78999684319E-02  0.39927460336E-01  0.10377596851E+00  0.51100000000E-03 0.  1.
</event>
<event>
 8    1  0.1114686E+005  0.1043930E+01  0.7957747E-01            NaN
         13   -1    0    0    0    0  0.00000000000E+00  0.00000000000E+00  0.74505805969E-08  0.10566000000E+00  0.10566000000E+00 0. -1.
     999900   -1    0    0    0    0 -0.00000000000E+00 -0.00000000000E+00 -0.74505805969E-08  0.93827000000E+00  0.93827000000E+00 0. -1.
     999902    2    1    2    0    0  0.21456710488E-01 -0.81991032257E-02 -0.19578367502E-02  0.10208768257E+01  0.10206165022E+01 0.  0.
     999903    2    3    3    0    0 -0.91615876242E-01 -0.67710673046E-01  0.58482426545E-01  0.12959681237E+00  0.19923241139E-01 0.  0.
         14    1    1    2    0    0 -0.21456710488E-01  0.81991032257E-02  0.19578367502E-02  0.23053174259E-01  0.00000000000E+00 0. -1.
     999901    1    3    3    0    0  0.11307258673E+00  0.59511569820E-01 -0.60440263295E-01  0.89128001337E+00  0.88000000000E+00 0. -1.
        -11    1    4    4    0    0 -0.68116629373E-01 -0.43305343474E-01  0.48936583571E-01  0.94394270499E-01  0.51100000000E-03 0.  1.
         11    1    4    4    0    0 -0.23499246868E-01 -0.24405329572E-01  0.95458429740E-02  0.35202541868E-01  0.51100000000E-03 0. -1.
</event>
<event>
 8    1  0.1114686E+005  0.1043930E+01  0.7957747E-01            NaN
         13   -1    0    0    0    0  0.00000000000E+00  0.00000000000E+00  0.74505805969E-08  0.10566000000E+00  0.10566000000E+00 0. -1.
     999900   -1    0    0    0    0 -0.00000000000E+00 -0.00000000000E+00 -0.74505805969E-08  0.93827000000E+00  0.93827000000E+00 0. -1.
     999902    2    1    2    0    0  0.18630673939E-01  0.13698522053E-01 -0.34509147841E-02  0.10205492316E+01  0.10202813699E+01 0.  0.
     999903    2    3    3    0    0 -0.11184481981E+00  0.47553499691E-01  0.39915333755E-01  0.12922962255E+00  0.18342912099E-01 0.  0.
         14    1    1    2    0    0 -0.18630673939E-01 -0.13698522053E-01  0.34509147841E-02  0.23380768394E-01  0.00000000000E+00 0.  1.
     999901    1    3    3    0    0  0.13047549375E+00 -0.33854977638E-01 -0.43366248540E-01  0.89131960906E+00  0.88000000000E+00 0. -1.
        -11    1    4    4    0    0 -0.52216574498E-01  0.24170307807E-01  0.94882707650E-02  0.58318631971E-01  0.51100000000E-03 0. -1.
         11    1    4    4    0    0 -0.59628245309E-01  0.23383191884E-01  0.30427062990E-01  0.70910990577E-01  0.51100000000E-03 0.  1.
</event>
<event>
 8    1  0.1114686E+005  0.1043930E+01  0.7957747E-01            NaN
         13   -1    0    0    0    0  0.00000000000E+00  0.00000000000E+00  0.74505805969E-08  0.10566000000E+00  0.10566000000E+00 0. -1.
     999900   -1    0    0    0    0 -0.00000000000E+00 -0.00000000000E+00 -0.74505805969E-08  0.93827000000E+00  0.93827000000E+00 0.  1.
     999902    2    1    2    0    0 -0.16900246696E-01  0.50748315611E-02 -0.14177471300E-01  0.10212943435E+01  0.10210434678E+01 0.  0.
     999903    2    3    3    0    0  0.19946237820E-01 -0.10416998628E+00 -0.75182960709E-01  0.13167995320E+00  0.20925918128E-01 0.  0.
         14    1    1    2    0    0  0.16900246696E-01 -0.50748315611E-02  0.14177471300E-01  0.22635656523E-01  0.00000000000E+00 0. -1.
     999901    1    3    3    0    0 -0.36846484516E-01  0.10924481784E+00  0.61005489408E-01  0.88961439028E+00  0.88000000000E+00 0. -1.
        -11    1    4    4    0    0  0.15766701045E-01 -0.79532448836E-01 -0.67585709794E-01  0.10555609205E+00  0.51100000000E-03 0. -1.
         11    1    4    4    0    0  0.41795367752E-02 -0.24637537444E-01 -0.75972509148E-02  0.26123861151E-01  0.51100000000E-03 0.  1.
</event>
<event>
 8    1  0.1114686E+005  0.1043930E+01  0.7957747E-01            NaN
         13   -1    0    0    0    0  0.00000000000E+00  0.00000000000E+00  0.74505805969E-08  0.10566000000E+00  0.10566000000E+00 0.  1.
     999900   -1    0    0    0    0 -0.00000000000E+00 -0.00000000000E+00 -0.74505805969E-08  0.93827000000E+00  0.93827000000E+00 0.  1.
     999902    2    1    2    0    0  0.87891336297E-02  0.37862885564E-02 -0.19301193043E-01  0.10223865345E+01  0.10221595302E+01 0.  0.
     999903    2    3    3    0    0 -0.47009838814E-01  0.11259437980E+00 -0.50231607744E-01  0.13339304942E+00  0.19572222869E-01 0.  0.
         14    1    1    2    0    0 -0.87891336297E-02 -0.37862885564E-02  0.19301193043E-01  0.21543465457E-01  0.00000000000E+00 0.  1.
     999901    1    3    3    0    0  0.55798972444E-01 -0.10880809124E+00  0.30930414701E-01  0.88899348513E+00  0.88000000000E+00 0.  1.
        -11    1    4    4    0    0 -0.31230196165E-01  0.72153872310E-01 -0.22132807234E-01  0.81680038680E-01  0.51100000000E-03 0. -1.
         11    1    4    4    0    0 -0.15779642649E-01  0.40440507490E-01 -0.28098800510E-01  0.51713010735E-01  0.51100000000E-03 0.  1.
</event>
<event>
 8    1  0.1114686E+005  0.1043930E+01  0.7957747E-01            NaN
         13   -1    0    0    0    0  0.00000000000E+00  0.00000000000E+00  0.74505805969E-08  0.10566000000E+00  0.10566000000E+00 0. -1.
     999900   -1    0    0    0    0 -0.00000000000E+00 -0.00000000000E+00 -0.74505805969E-08  0.93827000000E+00  0.93827000000E+00 0. -1.
     999902    2    1    2    0    0 -0.11009053262E-01 -0.20025664229E-01 -0.54233747218E-02  0.10204429935E+01  0.10201726636E+01 0.  0.
     999903    2    3    3    0    0 -0.22467297026E-01 -0.39660534295E-01  0.12122139203E+00  0.13108608177E+00  0.20278006122E-01 0.  0.
         14    1    1    2    0    0  0.11009053262E-01  0.20025664229E-01  0.54233747218E-02  0.23487006512E-01  0.00000000000E+00 0.  1.
     999901    1    3    3    0    0  0.11458243764E-01  0.19634870066E-01 -0.12664476675E+00  0.88935691172E+00  0.88000000000E+00 0. -1.
        -11    1    4    4    0    0 -0.25692789502E-01 -0.36966871538E-01  0.10353414342E+00  0.11289928697E+00  0.51100000000E-03 0.  1.
         11    1    4    4    0    0  0.32254924754E-02 -0.26936627571E-02  0.17687248605E-01  0.18186794797E-01  0.51100000000E-03 0. -1.
</event>
<event>
 7    1  0.1114686E+005  0.1043930E+01  0.7957747E-01            NaN
         13   -1    0    0    0    0  0.00000000000E+00  0.00000000000E+00  0.74505805969E-08  0.10566000000E+00  0.10566000000E+00 0.  1.
     999900   -1    0    0    0    0 -0.00000000000E+00 -0.00000000000E+00 -0.74505805969E-08  0.93827000000E+00  0.93827000000E+00 0.  1.
     999903    2    1    2    0    0 -0.35483795670E-01  0.98283069355E-01  0.34765661733E-01  0.11164180071E+00  0.18346088235E-01 0.  0.
         14    1    1    2    0    0 -0.40985360476E-01  0.67767844068E-02 -0.82372320529E-02  0.42350638391E-01  0.00000000000E+00 0.  1.
     999901    1    1    2    0    0  0.76469156146E-01 -0.10505985376E+00 -0.26528429680E-01  0.88993756090E+00  0.88000000000E+00 0.  1.
        -11    1    3    3    0    0 -0.17285636408E-01  0.24713678593E-01  0.12496233926E-01  0.32649289716E-01  0.51100000000E-03 0.  1.
         11    1    3    3    0    0 -0.18198159262E-01  0.73569390762E-01  0.22269427807E-01  0.78992510996E-01  0.51100000000E-03 0. -1.
</event>
<event>
 8    1  0.1114686E+005  0.1043930E+01  0.7957747E-01            NaN
         13   -1    0    0    0    0  0.00000000000E+00  0.00000000000E+00  0.74505805969E-08  0.10566000000E+00  0.10566000000E+00 0. -1.
     999900   -1    0    0    0    0 -0.00000000000E+00 -0.00000000000E+00 -0.74505805969E-08  0.93827000000E+00  0.93827000000E+00 0. -1.
     999902    2    1    2    0    0 -0.11081426712E-01  0.23603027951E-02 -0.20868640004E-01  0.10201840702E+01  0.10199076762E+01 0.  0.
     999903    2    3    3    0    0 -0.97633885560E-01  0.85477712424E-01 -0.14349084830E-01  0.13201610380E+00  0.19584189929E-01 0.  0.
         14    1    1    2    0    0  0.11081426712E-01 -0.23603027951E-02  0.20868640004E-01  0.23745929817E-01  0.00000000000E+00 0. -1.
     999901    1    3    3    0    0  0.86552458848E-01 -0.83117409629E-01 -0.65195551738E-02  0.88816796639E+00  0.88000000000E+00 0. -1.
        -11    1    4    4    0    0 -0.64327521722E-01  0.64124202374E-01 -0.31101628094E-02  0.90883868836E-01  0.51100000000E-03 0.  1.
         11    1    4    4    0    0 -0.33306363838E-01  0.21353510051E-01 -0.11238922020E-01  0.41132234960E-01  0.51100000000E-03 0. -1.
</event>
<event>
 8    1  0.1114686E+005  0.1043930E+01  0.7957747E-01            NaN
         13   -1    0    0    0    0  0.00000000000E+00  0.00000000000E+00  0.74505805969E-08  0.10566000000E+00  0.10566000000E+00 0. -1.
     999900   -1    0    0    0    0 -0.00000000000E+00 -0.00000000000E+00 -0.74505805969E-08  0.93827000000E+00  0.93827000000E+00 0.  1.
     999902    2    1    2    0    0  0.10587246058E-01  0.16296408884E-01  0.99953482704E-02  0.10220766316E+01  0.10218429778E+01 0.  0.
     999903    2    3    3    0    0  0.64978317278E-01 -0.10667885513E+00  0.36129294295E-01  0.13147891812E+00  0.19463302816E-01 0.  0.
         14    1    1    2    0    0 -0.10587246058E-01 -0.16296408884E-01 -0.99953482704E-02  0.21853368360E-01  0.00000000000E+00 0. -1.
     999901    1    3    3    0    0 -0.54391071220E-01  0.12297526401E+00 -0.26133946024E-01  0.89059771352E+00  0.88000000000E+00 0.  1.
        -11    1    4    4    0    0  0.31945966336E-01 -0.40620035937E-01  0.22534723700E-01  0.56379136015E-01  0.51100000000E-03 0.  1.
         11    1    4    4    0    0  0.33032350942E-01 -0.66058819193E-01  0.13594570595E-01  0.75099782108E-01  0.51100000000E-03 0. -1.
</event>
<event>
 8    1  0.1114686E+005  0.1043930E+01  0.7957747E-01            NaN
         13   -1    0    0    0    0  0.00000000000E+00  0.00000000000E+00  0.74505805969E-08  0.10566000000E+00  0.10566000000E+00 0.  1.
     999900   -1    0    0    0    0 -0.00000000000E+00 -0.00000000000E+00 -0.74505805969E-08  0.93827000000E+00  0.93827000000E+00 0.  1.
     999902    2    1    2    0    0 -0.15456883928E-01  0.12773801003E-01 -0.20283734828E-01  0.10154078130E+01  0.10150071485E+01 0.  0.
     999903    2    3    3    0    0  0.36004851701E-01  0.63180320402E-01 -0.10382505699E+00  0.12852096568E+00  0.21210703164E-01 0.  0.
         14    1    1    2    0    0  0.15456883928E-01 -0.12773801003E-01  0.20283734828E-01  0.28522187002E-01  0.00000000000E+00 0.  1.
     999901    1    3    3    0    0 -0.51461735628E-01 -0.50406519399E-01  0.83541322162E-01  0.88688684732E+00  0.88000000000E+00 0. -1.
        -11    1    4    4    0    0  0.88799952774E-02  0.36235713191E-01 -0.55965364430E-01  0.67262652069E-01  0.51100000000E-03 0.  1.
         11    1    4    4    0    0  0.27124856423E-01  0.26944607212E-01 -0.47859692560E-01  0.61258313613E-01  0.51100000000E-03 0. -1.
</event>
<event>
 8    1  0.1114686E+005  0.1043930E+01  0.7957747E-01            NaN
         13   -1    0    0    0    0  0.00000000000E+00  0.00000000000E+00  0.74505805969E-08  0.10566000000E+00  0.10566000000E+00 0. -1.
     999900   -1    0    0    0    0 -0.00000000000E+00 -0.00000000000E+00 -0.74505805969E-08  0.93827000000E+00  0.93827000000E+00 0.  1.
     999902    2    1    2    0    0 -0.15300461699E-02 -0.83409317291E-02  0.21795040157E-01  0.10205433380E+01  0.10202753397E+01 0.  0.
     999903    2    3    3    0    0  0.98765485933E-01  0.63313600228E-01 -0.49925714847E-01  0.12906286576E+00  0.20035297101E-01 0.  0.
         14    1    1    2    0    0  0.15300461699E-02  0.83409317291E-02 -0.21795040157E-01  0.23386661986E-01  0.00000000000E+00 0.  1.
     999901    1    3    3    0    0 -0.10029553210E+00 -0.71654531957E-01  0.71720755004E-01  0.89148047225E+00  0.88000000000E+00 0.  1.
        -11    1    4    4    0    0  0.55374635386E-01  0.29443323617E-01 -0.17245713034E-01  0.65045640045E-01  0.51100000000E-03 0.  1.
         11    1    4    4    0    0  0.43390850547E-01  0.33870276611E-01 -0.32680001813E-01  0.64017225716E-01  0.51100000000E-03 0. -1.
</event>
<event>
 8    1  0.1114686E+005  0.1043930E+01  0.7957747E-01            NaN
         13   -1    0    0    0    0  0.00000000000E+00  0.00000000000E+00  0.74505805969E-08  0.10566000000E+00  0.10566000000E+00 0. -1.
     999900   -1    0    0    0    0 -0.00000000000E+00 -0.00000000000E+00 -0.74505805969E-08  0.93827000000E+00  0.93827000000E+00 0. -1.
     999902    2    1    2    0    0 -0.74177614159E-02  0.21728078175E-01  0.72893756725E-02  0.10198412565E+01  0.10195567277E+01 0.  0.
     999903    2    3    3    0    0 -0.36980222941E-01 -0.15382146162E-01  0.12321052523E+00  0.13097185057E+00  0.19200125125E-01 0.  0.
         14    1    1    2    0    0  0.74177614159E-02 -0.21728078175E-01 -0.72893756725E-02  0.24088743497E-01  0.00000000000E+00 0.  1.
     999901    1    3    3    0    0  0.29562461525E-01  0.37110224336E-01 -0.11592114956E+00  0.88886940593E+00  0.88000000000E+00 0. -1.
        -11    1    4    4    0    0 -0.18071311082E-01 -0.78946297801E-03  0.75188173243E-01  0.77335102331E-01  0.51100000000E-03 0.  1.
         11    1    4    4    0    0 -0.18908911859E-01 -0.14592683184E-01  0.48022351991E-01  0.53636748242E-01  0.51100000000E-03 0. -1.
</event>
<event>
 8    1  0.1114686E+005  0.1043930E+01  0.7957747E-01            NaN
         13   -1    0    0    0    0  0.00000000000E+00  0.00000000000E+00  0.74505805969E-08  0.10566000000E+00  0.10566000000E+00 0.  1.
     999900   -1    0    0    0    0 -0.00000000000E+00 -0.00000000000E+00 -0.74505805969E-08  0.93827000000E+00  0.93827000000E+00 0. -1.
     999902    2    1    2    0    0  0.22658299579E-01  0.41239147199E-02  0.34741253416E-02  0.10206389124E+01  0.10203731253E+01 0.  0.
     999903    2    3    3    0    0 -0.25881491500E-01  0.99885061748E-01  0.78184887595E-01  0.13097155518E+00  0.19844254949E-01 0.  0.
         14    1    1    2    0    0 -0.22658299579E-01 -0.41239147199E-02 -0.34741253416E-02  0.23291087551E-01  0.00000000000E+00 0.  1.
     999901    1    3    3    0    0  0.48539791079E-01 -0.95761147028E-01 -0.74710762254E-01  0.88966735727E+00  0.88000000000E+00 0.  1.
        -11    1    4    4    0    0 -0.11656811383E-01  0.47476808751E-01  0.24802926350E-01  0.54821299668E-01  0.51100000000E-03 0.  1.
         11    1    4    4    0    0 -0.14224680117E-01  0.52408252997E-01  0.53381961245E-01  0.76150255509E-01  0.51100000000E-03 0. -1.
</event>
<event>
 8    1  0.1114686E+005  0.1043930E+01  0.7957747E-01            NaN
         13   -1    0    0    0    0  0.00000000000E+00  0.00000000000E+00  0.74505805969E-08  0.10566000000E+00  0.10566000000E+00 0. -1.
     999900   -1    0    0    0    0 -0.00000000000E+00 -0.00000000000E+00 -0.74505805969E-08  0.93827000000E+00  0.93827000000E+00 0. -1.
     999902    2    1    2    0    0  0.15135116785E-01 -0.28899002286E-03 -0.20170319994E-01  0.10187110174E+01  0.10183988118E+01 0.  0.
     999903    2    3    3    0    0 -0.27370096110E-01 -0.66187852665E-01 -0.10766517886E+00  0.13090208324E+00  0.20337420093E-01 0.  0.
         14    1    1    2    0    0 -0.15135116785E-01  0.28899002286E-03  0.20170319994E-01  0.25218982612E-01  0.00000000000E+00 0. -1.
     999901    1    3    3    0    0  0.42505212895E-01  0.65898862642E-01  0.87494858869E-01  0.88780893415E+00  0.88000000000E+00 0.  1.
        -11    1    4    4    0    0 -0.78015527271E-02 -0.22694422274E-01 -0.54063000384E-01  0.59152093444E-01  0.51100000000E-03 0. -1.
         11    1    4    4    0    0 -0.19568543383E-01 -0.43493430391E-01 -0.53602178479E-01  0.71749989798E-01  0.51100000000E-03 0.  1.
</event>
<event>
 8    1  0.1114686E+005  0.1043930E+01  0.7957747E-01            NaN
         13   -1    0    0    0    0  0.00000000000E+00  0.00000000000E+00  0.74505805969E-08  0.10566000000E+00  0.10566000000E+00 0. -1.
     999900   -1    0    0    0    0 -0.00000000000E+00 -0.00000000000E+00 -0.74505805969E-08  0.93827000000E+00  0.93827000000E+00 0. -1.
     999902    2    1    2    0    0 -0.44036402243E-02 -0.81549394713E-02  0.21587575749E-01  0.10204370540E+01  0.10201665857E+01 0.  0.
     999903    2    3    3    0    0 -0.10609443624E+00  0.56567438210E-01  0.50108870021E-01  0.13176193429E+00  0.19859607407E-01 0.  0.
         14    1    1    2    0    0  0.44036402243E-02  0.81549394713E-02 -0.21587575749E-01  0.23492946000E-01  0.00000000000E+00 0.  1.
     999901    1    3    3    0    0  0.10169079601E+00 -0.64722377682E-01 -0.28521294271E-01  0.88867511971E+00  0.88000000000E+00 0.  1.
        -11    1    4    4    0    0 -0.73365601796E-01  0.49095857665E-01  0.36981523107E-01  0.95712114902E-01  0.51100000000E-03 0. -1.
         11    1    4    4    0    0 -0.32728834443E-01  0.74715805450E-02  0.13127346914E-01  0.36049819387E-01  0.51100000000E-03 0.  1.
</event>
<event>
 8    1  0.1114686E+005  0.1043930E+01  0.7957747E-01            NaN
         13   -1    0    0    0    0  0.00000000000E+00  0.00000000000E+00  0.74505805969E-08  0.10566000000E+00  0.10566000000E+00 0.  1.
     999900   -1    0    0    0    0 -0.00000000000E+00 -0.00000000000E+00 -0.74505805969E-08  0.93827000000E+00  0.93827000000E+00 0.  1.
     999902    2    1    2    0    0  0.19840647523E-03  0.16246903015E-01  0.17344576251E-01  0.10201637309E+01  0.10198868576E+01 0.  0.
     999903    2    3    3    0    0 -0.23711939562E-01 -0.91256654663E-01 -0.83480096535E-01  0.12758637613E+00  0.20477396294E-01 0.  0.
         14    1    1    2    0    0 -0.19840647523E-03 -0.16246903015E-01 -0.17344576251E-01  0.23766269123E-01  0.00000000000E+00 0. -1.
     999901    1    3    3    0    0  0.23910346037E-01  0.10750355768E+00  0.10082467279E+00  0.89257735474E+00  0.88000000000E+00 0.  1.
        -11    1    4    4    0    0 -0.12823125184E-01 -0.78731697284E-01 -0.66733415522E-01  0.10400347381E+00  0.51100000000E-03 0. -1.
         11    1    4    4    0    0 -0.10888814377E-01 -0.12524957379E-01 -0.16746681013E-01  0.23582902320E-01  0.51100000000E-03 0.  1.
</event>
<event>
 8    1  0.1114686E+005  0.1043930E+01  0.7957747E-01            NaN
         13   -1    0    0    0    0  0.00000000000E+00  0.00000000000E+00  0.74505805969E-08  0.10566000000E+00  0.10566000000E+00 0. -1.
     999900   -1    0    0    0    0 -0.00000000000E+00 -0.00000000000E+00 -0.74505805969E-08  0.93827000000E+00  0.93827000000E+00 0. -1.
     999902    2    1    2    0    0  0.73541196062E-02  0.22629304726E-01  0.50090592314E-02  0.10196141784E+01  0.10193241945E+01 0.  0.
     999903    2    3    3    0    0  0.82783007717E-01  0.80701021294E-01 -0.60532581647E-01  0.13205711084E+00  0.20228837748E-01 0.  0.
         14    1    1    2    0    0 -0.73541196062E-02 -0.22629304726E-01 -0.50090592314E-02  0.24315821639E-01  0.00000000000E+00 0.  1.
     999901    1    3    3    0    0 -0.75428888110E-01 -0.58071716568E-01  0.65541640879E-01  0.88755706753E+00  0.88000000000E+00 0.  1.
        -11    1    4    4    0    0  0.19184559922E-01  0.25833875036E-01 -0.25446606953E-01  0.41027153998E-01  0.51100000000E-03 0. -1.
         11    1    4    4    0    0  0.63598447795E-01  0.54867146258E-01 -0.35085974694E-01  0.91029956837E-01  0.51100000000E-03 0.  1.
</event>
<event>
 8    1  0.1114686E+005  0.1043930E+01  0.7957747E-01            NaN
         13   -1    0    0    0    0  0.00000000000E+00  0.00000000000E+00  0.74505805969E-08  0.10566000000E+00  0.10566000000E+00 0.  1.
     999900   -1    0    0    0    0 -0.00000000000E+00 -0.00000000000E+00 -0.74505805969E-08  0.93827000000E+00  0.93827000000E+00 0.  1.
     999902    2    1    2    0    0  0.17878225258E-01 -0.16740539163E-01  0.17251067745E-02  0.10193769435E+01  0.10190812040E+01 0.  0.
     999903    2    3    3    0    0 -0.12373021442E+00  0.21408242395E-01  0.55096597711E-02  0.12723199869E+00  0.19752122324E-01 0.  0.
         14    1    1    2    0    0 -0.17878225258E-01  0.16740539163E-01 -0.17251067745E-02  0.24553056494E-01  0.00000000000E+00 0.  1.
     999901    1    3    3    0    0  0.14160843968E+00 -0.38148781557E-01 -0.37845529966E-02  0.89214494482E+00  0.88000000000E+00 0.  1.
        -11    1    4    4    0    0 -0.71334039242E-01  0.35812167520E-02 -0.15016118639E-02  0.71441488137E-01  0.51100000000E-03 0. -1.
         11    1    4    4    0    0 -0.52396175179E-01  0.17827025643E-01  0.70112716350E-02  0.55790510551E-01  0.51100000000E-03 0.  1.
</event>
<event>
 8    1  0.1114686E+005  0.1043930E+01  0.7957747E-01            NaN
         13   -1    0    0    0    0  0.00000000000E+00  0.00000000000E+00  0.74505805969E-08  0.10566000000E+00  0.10566000000E+00 0. -1.
     999900   -1    0    0    0    0 -0.00000000000E+00 -0.00000000000E+00 -0.74505805969E-08  0.93827000000E+00  0.93827000000E+00 0. -1.
     999902    2    1    2    0    0  0.47413358802E-02 -0.19227196164E-01 -0.13848526340E-01  0.10197650042E+01  0.10194786495E+01 0.  0.
     999903    2    3    3    0    0 -0.41948915980E-01  0.30066330796E-01 -0.11890827865E+00  0.13091890790E+00  0.18354452174E-01 0.  0.
         14    1    1    2    0    0 -0.47413358802E-02  0.19227196164E-01  0.13848526340E-01  0.24164995759E-01  0.00000000000E+00 0.  1.
     999901    1    3    3    0    0  0.46690251860E-01 -0.49293526960E-01  0.10505975231E+00  0.88884609634E+00  0.88000000000E+00 0.  1.
        -11    1    4    4    0    0 -0.15005257624E-01  0.20646042435E-02 -0.24286649717E-01  0.28627309034E-01  0.51100000000E-03 0. -1.
         11    1    4    4    0    0 -0.26943658356E-01  0.28001726552E-01 -0.94621628937E-01  0.10229159887E+00  0.51100000000E-03 0.  1.
</event>
<event>
 8    1  0.1606828E+005  0.1043930E+01  0.7957747E-01            NaN
         13   -1    0    0    0    0  0.00000000000E+00  0.00000000000E+00  0.74505805969E-08  0.10566000000E+00  0.10566000000E+00 0. -1.
     999900   -1    0    0    0    0 -0.00000000000E+00 -0.00000000000E+00 -0.74505805969E-08  0.93827000000E+00  0.93827000000E+00 0. -1.
     999902    2    1    2    0    0  0.11205996042E-01  0.19287250477E-01  0.19572685951E-01  0.10142540432E+01  0.10138198073E+01 0.  0.
     999903    2    3    3    0    0 -0.90134539014E-01  0.19302557624E-01 -0.78611447081E-01  0.12301331909E+00  0.21346971868E-01 0.  0.
         14    1    1    2    0    0 -0.11205996042E-01 -0.19287250477E-01 -0.19572685951E-01  0.29675956827E-01  0.00000000000E+00 0.  1.
     999901    1    3    3    0    0  0.10134053506E+00 -0.15307147239E-04  0.98184133032E-01  0.89124072408E+00  0.88000000000E+00 0.  1.
        -11    1    4    4    0    0 -0.40257430683E-01  0.11715226380E-01 -0.22616930415E-01  0.47641304733E-01  0.51100000000E-03 0.  1.
         11    1    4    4    0    0 -0.49877108332E-01  0.75873312442E-02 -0.55994516667E-01  0.75372014360E-01  0.51100000000E-03 0. -1.
</event>
<event>
 8    1  0.1114686E+005  0.1043930E+01  0.7957747E-01            NaN
         13   -1    0    0    0    0  0.00000000000E+00  0.00000000000E+00  0.74505805969E-08  0.10566000000E+00  0.10566000000E+00 0. -1.
     999900   -1    0    0    0    0 -0.00000000000E+00 -0.00000000000E+00 -0.74505805969E-08  0.93827000000E+00  0.93827000000E+00 0. -1.
     999902    2    1    2    0    0  0.75030069749E-02  0.17399418630E-01  0.20887715033E-01  0.10157283773E+01  0.10153367939E+01 0.  0.
     999903    2    3    3    0    0 -0.69351383151E-01 -0.39439135338E-01 -0.92019871099E-01  0.12338015969E+00  0.19747085552E-01 0.  0.
         14    1    1    2    0    0 -0.75030069749E-02 -0.17399418630E-01 -0.20887715033E-01  0.28201622677E-01  0.00000000000E+00 0.  1.
     999901    1    3    3    0    0  0.76854390126E-01  0.56838553968E-01  0.11290758613E+00  0.89234821763E+00  0.88000000000E+00 0.  1.
        -11    1    4    4    0    0 -0.30627104069E-01 -0.15511741047E-01 -0.54375709948E-01  0.64308728547E-01  0.51100000000E-03 0. -1.
         11    1    4    4    0    0 -0.38724279082E-01 -0.23927394291E-01 -0.37644161151E-01  0.59071431147E-01  0.51100000000E-03 0.  1.
</event>
<event>
 8    1  0.1114686E+005  0.1043930E+01  0.7957747E-01            NaN
         13   -1    0    0    0    0  0.00000000000E+00  0.00000000000E+00  0.74505805969E-08  0.10566000000E+00  0.10566000000E+00 0. -1.
     999900   -1    0    0    0    0 -0.00000000000E+00 -0.00000000000E+00 -0.74505805969E-08  0.93827000000E+00  0.93827000000E+00 0.  1.
     999902    2    1    2    0    0  0.33624145398E-02  0.21932486559E-01  0.67627468071E-02  0.10207335662E+01  0.10204699597E+01 0.  0.
     999903    2    3    3    0    0 -0.96131078576E-01  0.84352354642E-01 -0.27255808873E-01  0.13227847038E+00  0.19955215012E-01 0.  0.
         14    1    1    2    0    0 -0.33624145398E-02 -0.21932486559E-01 -0.67627468071E-02  0.23196433833E-01  0.00000000000E+00 0.  1.
     999901    1    3    3    0    0  0.99493493116E-01 -0.62419868082E-01  0.34018555680E-01  0.88845509579E+00  0.88000000000E+00 0. -1.
        -11    1    4    4    0    0 -0.51335494318E-01  0.32514002401E-01 -0.16077716725E-01  0.62858948647E-01  0.51100000000E-03 0.  1.
         11    1    4    4    0    0 -0.44795584258E-01  0.51838352241E-01 -0.11178092147E-01  0.69419521730E-01  0.51100000000E-03 0. -1.
</event>
<event>
 8    1  0.1114686E+005  0.1043930E+01  0.7957747E-01            NaN
         13   -1    0    0    0    0  0.00000000000E+00  0.00000000000E+00  0.74505805969E-08  0.10566000000E+00  0.10566000000E+00 0.  1.
     999900   -1    0    0    0    0 -0.00000000000E+00 -0.00000000000E+00 -0.74505805969E-08  0.93827000000E+00  0.93827000000E+00 0. -1.
     999902    2    1    2    0    0 -0.97265013902E-02 -0.91853309879E-02  0.17888709470E-01  0.10215921160E+01  0.10213478695E+01 0.  0.
     999903    2    3    3    0    0  0.29152704559E-01 -0.12524057032E+00  0.27570044390E-01  0.13306854318E+00  0.20298995044E-01 0.  0.
         14    1    1    2    0    0  0.97265013902E-02  0.91853309879E-02 -0.17888709470E-01  0.22337883990E-01  0.00000000000E+00 0. -1.
     999901    1    3    3    0    0 -0.38879205949E-01  0.11605523933E+00 -0.96813349204E-02  0.88852357283E+00  0.88000000000E+00 0. -1.
        -11    1    4    4    0    0  0.23297160550E-01 -0.56192882343E-01  0.11036514416E-01  0.61826074493E-01  0.51100000000E-03 0.  1.
         11    1    4    4    0    0  0.58555440087E-02 -0.69047687973E-01  0.16533529974E-01  0.71242468686E-01  0.51100000000E-03 0. -1.
</event>
<event>
 8    1  0.1114686E+005  0.1043930E+01  0.7957747E-01            NaN
         13   -1    0    0    0    0  0.00000000000E+00  0.00000000000E+00  0.74505805969E-08  0.10566000000E+00  0.10566000000E+00 0.  1.
     999900   -1    0    0    0    0 -0.00000000000E+00 -0.00000000000E+00 -0.74505805969E-08  0.93827000000E+00  0.93827000000E+00 0. -1.
     999902    2    1    2    0    0  0.18065565108E-01 -0.14050573486E-01 -0.15310524239E-02  0.10209925333E+01  0.10207348459E+01 0.  0.
     999903    2    3    3    0    0  0.12715882002E+00 -0.29836214846E-01 -0.21629229522E-01  0.13388799521E+00  0.19965131253E-01 0.  0.
         14    1    1    2    0    0 -0.18065565108E-01  0.14050573486E-01  0.15310524239E-02  0.22937466718E-01  0.00000000000E+00 0.  1.
     999901    1    3    3    0    0 -0.10909325492E+00  0.15785641361E-01  0.20098177098E-01  0.88710453807E+00  0.88000000000E+00 0. -1.
        -11    1    4    4    0    0  0.49507444167E-01 -0.80879937024E-02  0.84598625130E-03  0.50173493837E-01  0.51100000000E-03 0.  1.
         11    1    4    4    0    0  0.77651375856E-01 -0.21748221144E-01 -0.22475215773E-01  0.83714501374E-01  0.51100000000E-03 0. -1.
</event>
<event>
 8    1  0.1114686E+005  0.1043930E+01  0.7957747E-01            NaN
         13   -1    0    0    0    0  0.00000000000E+00  0.00000000000E+00  0.74505805969E-08  0.10566000000E+00  0.10566000000E+00 0. -1.
     999900   -1    0    0    0    0 -0.00000000000E+00 -0.00000000000E+00 -0.74505805969E-08  0.93827000000E+00  0.93827000000E+00 0. -1.
     999902    2    1    2    0    0  0.42509948999E-03 -0.15978114573E-01 -0.18575795526E-01  0.10194240612E+01  0.10191294695E+01 0.  0.
     999903    2    3    3    0    0 -0.12509591101E+00 -0.26095948244E-01 -0.16603622123E-01  0.13045736665E+00  0.20333685824E-01 0.  0.
         14    1    1    2    0    0 -0.42509948999E-03  0.15978114573E-01  0.18575795526E-01  0.24505938757E-01  0.00000000000E+00 0. -1.
     999901    1    3    3    0    0  0.12552101050E+00  0.10117833671E-01 -0.19721734039E-02  0.88896669460E+00  0.88000000000E+00 0.  1.
        -11    1    4    4    0    0 -0.81357517248E-01 -0.23876144930E-01 -0.17821167195E-01  0.86642778295E-01  0.51100000000E-03 0. -1.
         11    1    4    4    0    0 -0.43738393759E-01 -0.22198033140E-02  0.12175450725E-02  0.43814588352E-01  0.51100000000E-03 0.  1.
</event>
<event>
 8    1  0.1114686E+005  0.1043930E+01  0.7957747E-01            NaN
         13   -1    0    0    0    0  0.00000000000E+00  0.00000000000E+00  0.74505805969E-08  0.10566000000E+00  0.10566000000E+00 0.  1.
     999900   -1    0    0    0    0 -0.00000000000E+00 -0.00000000000E+00 -0.74505805969E-08  0.93827000000E+00  0.93827000000E+00 0.  1.
     999902    2    1    2    0    0 -0.25236866475E-01  0.10116507052E-01  0.72922702020E-02  0.10157800382E+01  0.10153899082E+01 0.  0.
     999903    2    3    3    0    0 -0.36083305866E-01  0.51649143465E-01 -0.10887912895E+00  0.12710777065E+00  0.18223107771E-01 0.  0.
         14    1    1    2    0    0  0.25236866475E-01 -0.10116507052E-01 -0.72922702020E-02  0.28149961796E-01  0.00000000000E+00 0. -1.
     999901    1    3    3    0    0  0.10846439391E-01 -0.41532636413E-01  0.11617139915E+00  0.88867226755E+00  0.88000000000E+00 0. -1.
        -11    1    4    4    0    0  0.27349380375E-03  0.70947491830E-02 -0.20166478821E-01  0.21385935889E-01  0.51100000000E-03 0. -1.
         11    1    4    4    0    0 -0.36356799670E-01  0.44554394282E-01 -0.88712650128E-01  0.10572183476E+00  0.51100000000E-03 0.  1.
</event>
<event>
 8    1  0.1114686E+005  0.1043930E+01  0.7957747E-01            NaN
         13   -1    0    0    0    0  0.00000000000E+00  0.00000000000E+00  0.74505805969E-08  0.10566000000E+00  0.10566000000E+00 0.  1.
     999900   -1    0    0    0    0 -0.00000000000E+00 -0.00000000000E+00 -0.74505805969E-08  0.93827000000E+00  0.93827000000E+00 0. -1.
     999902    2    1    2    0    0  0.22599731930E-01  0.21434528230E-02  0.81780053041E-02  0.10198007223E+01  0.10195152236E+01 0.  0.
     999903    2    3    3    0    0 -0.11250484756E+00 -0.36004839904E-01 -0.43056615627E-01  0.12720141349E+00  0.19303839589E-01 0.  0.
         14    1    1    2    0    0 -0.22599731930E-01 -0.21434528230E-02 -0.81780053041E-02  0.24129277736E-01  0.00000000000E+00 0.  1.
     999901    1    3    3    0    0  0.13510457950E+00  0.38148292727E-01  0.51234620931E-01  0.89259930877E+00  0.88000000000E+00 0. -1.
        -11    1    4    4    0    0 -0.28727578381E-01 -0.74869487521E-02 -0.19830540977E-01  0.35704896550E-01  0.51100000000E-03 0.  1.
         11    1    4    4    0    0 -0.83777269184E-01 -0.28517891152E-01 -0.23226074650E-01  0.91496516941E-01  0.51100000000E-03 0. -1.
</event>
<event>
 8    1  0.1114686E+005  0.1043930E+01  0.7957747E-01            NaN
         13   -1    0    0    0    0  0.00000000000E+00  0.00000000000E+00  0.74505805969E-08  0.10566000000E+00  0.10566000000E+00 0.  1.
     999900   -1    0    0    0    0 -0.00000000000E+00 -0.00000000000E+00 -0.74505805969E-08  0.93827000000E+00  0.93827000000E+00 0.  1.
     999902    2    1    2    0    0 -0.20939040640E-01 -0.75886776225E-03 -0.11640137674E-01  0.10199610178E+01  0.10196793445E+01 0.  0.
     999903    2    3    3    0    0  0.77193093522E-01  0.77023945136E-01  0.64377414703E-01  0.12785185967E+00  0.17612060760E-01 0.  0.
         14    1    1    2    0    0  0.20939040640E-01  0.75886776225E-03  0.11640137674E-01  0.23968982212E-01  0.00000000000E+00 0.  1.
     999901    1    3    3    0    0 -0.98132134162E-01 -0.77782812898E-01 -0.76017552377E-01  0.89210915812E+00  0.88000000000E+00 0. -1.
        -11    1    4    4    0    0  0.43244062403E-01  0.31460919959E-01  0.27791674605E-01  0.60270031658E-01  0.51100000000E-03 0.  1.
         11    1    4    4    0    0  0.33949031119E-01  0.45563025177E-01  0.36585740098E-01  0.67581828007E-01  0.51100000000E-03 0. -1.
</event>
<event>
 8    1  0.1114686E+005  0.1043930E+01  0.7957747E-01            NaN
         13   -1    0    0    0    0  0.00000000000E+00  0.00000000000E+00  0.74505805969E-08  0.10566000000E+00  0.10566000000E+00 0. -1.
     999900   -1    0    0    0    0 -0.00000000000E+00 -0.00000000000E+00 -0.74505805969E-08  0.93827000000E+00  0.93827000000E+00 0.  1.
     999902    2    1    2    0    0 -0.13901400366E-01  0.11802676840E-01  0.56254306327E-02  0.10248460386E+01  0.10246683392E+01 0.  0.
     999903    2    3    3    0    0 -0.52040685841E-01  0.10753431371E+00 -0.62071558373E-01  0.13625049860E+00  0.20963263164E-01 0.  0.
         14    1    1    2    0    0  0.13901400366E-01 -0.11802676840E-01 -0.56254306327E-02  0.19083961395E-01  0.00000000000E+00 0. -1.
     999901    1    3    3    0    0  0.38139285475E-01 -0.95731636870E-01  0.67696989006E-01  0.88859554000E+00  0.88000000000E+00 0.  1.
        -11    1    4    4    0    0 -0.21140111020E-02  0.22917378924E-01 -0.12769568370E-01  0.26324860817E-01  0.51100000000E-03 0. -1.
         11    1    4    4    0    0 -0.49926674739E-01  0.84616934785E-01 -0.49301990003E-01  0.10992563778E+00  0.51100000000E-03 0.  1.
</event>
<event>
 8    1  0.1114686E+005  0.1043930E+01  0.7957747E-01            NaN
         13   -1    0    0    0    0  0.00000000000E+00  0.00000000000E+00  0.74505805969E-08  0.10566000000E+00  0.10566000000E+00 0. -1.
     999900   -1    0    0    0    0 -0.00000000000E+00 -0.00000000000E+00 -0.74505805969E-08  0.93827000000E+00  0.93827000000E+00 0.  1.
     999902    2    1    2    0    0 -0.91627696812E-02  0.14175839936E-01  0.16264405341E-01  0.10204898279E+01  0.10202205875E+01 0.  0.
     999903    2    3    3    0    0 -0.13971808952E-01  0.59690096536E-01 -0.11278761894E+00  0.12990064127E+00  0.19874872194E-01 0.  0.
         14    1    1    2    0    0  0.91627696812E-02 -0.14175839936E-01 -0.16264405341E-01  0.23440172082E-01  0.00000000000E+00 0.  1.
     999901    1    3    3    0    0  0.48090392710E-02 -0.45514256600E-01  0.12905202428E+00  0.89058918665E+00  0.88000000000E+00 0. -1.
        -11    1    4    4    0    0 -0.54832063067E-02  0.53183645565E-01 -0.89218711604E-01  0.10401348628E+00  0.51100000000E-03 0.  1.
         11    1    4    4    0    0 -0.84886026454E-02  0.65064509712E-02 -0.23568907337E-01  0.25887154985E-01  0.51100000000E-03 0. -1.
</event>
<event>
 8    1  0.1114686E+005  0.1043930E+01  0.7957747E-01            NaN
         13   -1    0    0    0    0  0.00000000000E+00  0.00000000000E+00  0.74505805969E-08  0.10566000000E+00  0.10566000000E+00 0. -1.
     999900   -1    0    0    0    0 -0.00000000000E+00 -0.00000000000E+00 -0.74505805969E-08  0.93827000000E+00  0.93827000000E+00 0. -1.
     999902    2    1    2    0    0  0.94533030194E-02 -0.18663595609E-01 -0.10448245406E-01  0.10205449498E+01  0.10202769889E+01 0.  0.
     999903    2    3    3    0    0  0.97215020812E-01  0.44357094310E-02  0.85052076174E-01  0.13073822452E+00  0.19702586094E-01 0.  0.
         14    1    1    2    0    0 -0.94533030194E-02  0.18663595609E-01  0.10448245406E-01  0.23385050163E-01  0.00000000000E+00 0. -1.
     999901    1    3    3    0    0 -0.87761717793E-01 -0.23099305040E-01 -0.95500321580E-01  0.88980672532E+00  0.88000000000E+00 0. -1.
        -11    1    4    4    0    0  0.89365589501E-01  0.91260184056E-02  0.74010986024E-01  0.11639321274E+00  0.51100000000E-03 0. -1.
         11    1    4    4    0    0  0.78494313113E-02 -0.46903089746E-02  0.11041090149E-01  0.14345011777E-01  0.51100000000E-03 0.  1.
</event>
<event>
 8    1  0.1114686E+005  0.1043930E+01  0.7957747E-01            NaN
         13   -1    0    0    0    0  0.00000000000E+00  0.00000000000E+00  0.74505805969E-08  0.10566000000E+00  0.10566000000E+00 0. -1.
     999900   -1    0    0    0    0 -0.00000000000E+00 -0.00000000000E+00 -0.74505805969E-08  0.93827000000E+00  0.93827000000E+00 0.  1.
     999902    2    1    2    0    0  0.24692799518E-01  0.16273454218E-01 -0.36847714859E-02  0.10141283692E+01  0.10136903925E+01 0.  0.
     999903    2    3    3    0    0  0.41270913778E-01 -0.10823075805E+00  0.40213849209E-01  0.12412655924E+00  0.19314857749E-01 0.  0.
         14    1    1    2    0    0 -0.24692799518E-01 -0.16273454218E-01  0.36847714859E-02  0.29801630847E-01  0.00000000000E+00 0. -1.
     999901    1    3    3    0    0 -0.16578114260E-01  0.12450421226E+00 -0.43898620694E-01  0.89000180991E+00  0.88000000000E+00 0. -1.
        -11    1    4    4    0    0  0.10210009639E-01 -0.30546452792E-01  0.20461971149E-01  0.38161282201E-01  0.51100000000E-03 0. -1.
         11    1    4    4    0    0  0.31060904139E-01 -0.77684305255E-01  0.19751878060E-01  0.85965277042E-01  0.51100000000E-03 0.  1.
</event>
<event>
 8    1  0.1114686E+005  0.1043930E+01  0.7957747E-01            NaN
         13   -1    0    0    0    0  0.00000000000E+00  0.00000000000E+00  0.74505805969E-08  0.10566000000E+00  0.10566000000E+00 0.  1.
     999900   -1    0    0    0    0 -0.00000000000E+00 -0.00000000000E+00 -0.74505805969E-08  0.93827000000E+00  0.93827000000E+00 0.  1.
     999902    2    1    2    0    0 -0.74956027659E-02 -0.17872950793E-02 -0.22170315707E-01  0.10204587115E+01  0.10201887475E+01 0.  0.
     999903    2    3    3    0    0 -0.91702605190E-02 -0.10352759111E+00  0.74316114108E-01  0.12935629122E+00  0.20201719311E-01 0.  0.
         14    1    1    2    0    0  0.74956027659E-02  0.17872950793E-02  0.22170315707E-01  0.23471288483E-01  0.00000000000E+00 0.  1.
     999901    1    3    3    0    0  0.16746577531E-02  0.10174029603E+00 -0.96486429814E-01  0.89110242029E+00  0.88000000000E+00 0.  1.
        -11    1    4    4    0    0  0.31936327770E-02 -0.71000182935E-01  0.49466185645E-01  0.86593244023E-01  0.51100000000E-03 0.  1.
         11    1    4    4    0    0 -0.12363893296E-01 -0.32527408178E-01  0.24849928463E-01  0.42763047200E-01  0.51100000000E-03 0. -1.
</event>
<event>
 8    1  0.1114686E+005  0.1043930E+01  0.7957747E-01            NaN
         13   -1    0    0    0    0  0.00000000000E+00  0.00000000000E+00  0.74505805969E-08  0.10566000000E+00  0.10566000000E+00 0. -1.
     999900   -1    0    0    0    0 -0.00000000000E+00 -0.00000000000E+00 -0.74505805969E-08  0.93827000000E+00  0.93827000000E+00 0. -1.
     999902    2    1    2    0    0 -0.20236361444E-01  0.73410600526E-02 -0.10205712632E-01  0.10201065230E+01  0.10198282994E+01 0.  0.
     999903    2    3    3    0    0  0.12582827540E+00 -0.68109955032E-04  0.12872223164E-02  0.12796199349E+00  0.23234786568E-01 0.  0.
         14    1    1    2    0    0  0.20236361444E-01 -0.73410600526E-02  0.10205712632E-01  0.23823477024E-01  0.00000000000E+00 0. -1.
     999901    1    3    3    0    0 -0.14606463685E+00  0.74091700077E-02 -0.11492934948E-01  0.89214452949E+00  0.88000000000E+00 0.  1.
        -11    1    4    4    0    0  0.82571342578E-01 -0.84212729426E-02  0.80349268270E-02  0.83389241652E-01  0.51100000000E-03 0. -1.
         11    1    4    4    0    0  0.43256932825E-01  0.83531629876E-02 -0.67477045106E-02  0.44572751839E-01  0.51100000000E-03 0.  1.
</event>
<event>
 8    1  0.1114686E+005  0.1043930E+01  0.7957747E-01            NaN
         13   -1    0    0    0    0  0.00000000000E+00  0.00000000000E+00  0.74505805969E-08  0.10566000000E+00  0.10566000000E+00 0. -1.
     999900   -1    0    0    0    0 -0.00000000000E+00 -0.00000000000E+00 -0.74505805969E-08  0.93827000000E+00  0.93827000000E+00 0. -1.
     999902    2    1    2    0    0 -0.21469563950E-01 -0.10425468916E-01  0.12043707343E-01  0.10171964356E+01  0.10168450743E+01 0.  0.
     999903    2    3    3    0    0 -0.98391273275E-01 -0.82171362010E-01  0.17465859464E-01  0.13091554206E+00  0.20021176656E-01 0.  0.
         14    1    1    2    0    0  0.21469563950E-01  0.10425468916E-01 -0.12043707343E-01  0.26733564388E-01  0.00000000000E+00 0.  1.
     999901    1    3    3    0    0  0.76921709325E-01  0.71745893094E-01 -0.54221521210E-02  0.88628089355E+00  0.88000000000E+00 0. -1.
        -11    1    4    4    0    0 -0.72159788692E-01 -0.51010499623E-01  0.58858284227E-02  0.88566417299E-01  0.51100000000E-03 0.  1.
         11    1    4    4    0    0 -0.26231484584E-01 -0.31160862387E-01  0.11580031041E-01  0.42349124761E-01  0.51100000000E-03 0. -1.
</event>
<event>
 8    1  0.1114686E+005  0.1043930E+01  0.7957747E-01            NaN
         13   -1    0    0    0    0  0.00000000000E+00  0.00000000000E+00  0.74505805969E-08  0.10566000000E+00  0.10566000000E+00 0. -1.
     999900   -1    0    0    0    0 -0.00000000000E+00 -0.00000000000E+00 -0.74505805969E-08  0.93827000000E+00  0.93827000000E+00 0.  1.
     999902    2    1    2    0    0  0.84274240358E-02 -0.22851271094E-01  0.32105340147E-02  0.10193635677E+01  0.10190675020E+01 0.  0.
     999903    2    3    3    0    0 -0.41973758853E-01  0.45636467873E-01  0.11106251082E+00  0.12871049355E+00  0.19672981690E-01 0.  0.
         14    1    1    2    0    0 -0.84274240358E-02  0.22851271094E-01 -0.32105340147E-02  0.24566432283E-01  0.00000000000E+00 0. -1.
     999901    1    3    3    0    0  0.50401182889E-01 -0.68487738967E-01 -0.10785197680E+00  0.89065307417E+00  0.88000000000E+00 0.  1.
        -11    1    4    4    0    0 -0.87915546534E-02  0.11983835612E-01  0.12598783829E-01  0.19490875408E-01  0.51100000000E-03 0. -1.
         11    1    4    4    0    0 -0.33182204200E-01  0.33652632261E-01  0.98463726986E-01  0.10921961814E+00  0.51100000000E-03 0.  1.
</event>
<event>
 8    1  0.1114686E+005  0.1043930E+01  0.7957747E-01            NaN
         13   -1    0    0    0    0  0.00000000000E+00  0.00000000000E+00  0.74505805969E-08  0.10566000000E+00  0.10566000000E+00 0. -1.
     999900   -1    0    0    0    0 -0.00000000000E+00 -0.00000000000E+00 -0.74505805969E-08  0.93827000000E+00  0.93827000000E+00 0.  1.
     999902    2    1    2    0    0 -0.17283468212E-01 -0.61651066677E-02 -0.14602446881E-01  0.10204788109E+01  0.10202093145E+01 0.  0.
     999903    2    3    3    0    0  0.48760954457E-01  0.37290138612E-01  0.11081801777E+00  0.12807726619E+00  0.18840592762E-01 0.  0.
         14    1    1    2    0    0  0.17283468212E-01  0.61651066677E-02  0.14602446881E-01  0.23451189065E-01  0.00000000000E+00 0. -1.
     999901    1    3    3    0    0 -0.66044422669E-01 -0.43455245280E-01 -0.12542046465E+00  0.89240154474E+00  0.88000000000E+00 0.  1.
        -11    1    4    4    0    0  0.11725209964E-01  0.13408866461E-01  0.18003140048E-01  0.25330859067E-01  0.51100000000E-03 0. -1.
         11    1    4    4    0    0  0.37035744493E-01  0.23881272151E-01  0.92814877720E-01  0.10274640712E+00  0.51100000000E-03 0.  1.
</event>
<event>
 8    1  0.1114686E+005  0.1043930E+01  0.7957747E-01            NaN
         13   -1    0    0    0    0  0.00000000000E+00  0.00000000000E+00  0.74505805969E-08  0.10566000000E+00  0.10566000000E+00 0. -1.
     999900   -1    0    0    0    0 -0.00000000000E+00 -0.00000000000E+00 -0.74505805969E-08  0.93827000000E+00  0.93827000000E+00 0. -1.
     999902    2    1    2    0    0 -0.16154278372E-01  0.14856535166E-02 -0.17053774293E-01  0.10203928147E+01  0.10201213149E+01 0.  0.
     999903    2    3    3    0    0 -0.43423601616E-01  0.84432106239E-01 -0.90899311362E-01  0.13299386641E+00  0.20255714143E-01 0.  0.
         14    1    1    2    0    0  0.16154278372E-01 -0.14856535166E-02  0.17053774293E-01  0.23537185340E-01  0.00000000000E+00 0. -1.
     999901    1    3    3    0    0  0.27269323245E-01 -0.82946452723E-01  0.73845537068E-01  0.88739894825E+00  0.88000000000E+00 0.  1.
        -11    1    4    4    0    0 -0.13078314888E-01  0.23645876546E-01 -0.39223626983E-01  0.47633221942E-01  0.51100000000E-03 0.  1.
         11    1    4    4    0    0 -0.30345286729E-01  0.60786229694E-01 -0.51675684379E-01  0.85360644468E-01  0.51100000000E-03 0. -1.
</event>
<event>
 8    1  0.1114686E+005  0.1043930E+01  0.7957747E-01            NaN
         13   -1    0    0    0    0  0.00000000000E+00  0.00000000000E+00  0.74505805969E-08  0.10566000000E+00  0.10566000000E+00 0.  1.
     999900   -1    0    0    0    0 -0.00000000000E+00 -0.00000000000E+00 -0.74505805969E-08  0.93827000000E+00  0.93827000000E+00 0. -1.
     999902    2    1    2    0    0 -0.17163481524E-01 -0.50216401736E-02 -0.15788715655E-01  0.10200744868E+01  0.10197955055E+01 0.  0.
     999903    2    3    3    0    0 -0.11129500612E+00  0.65528554749E-01 -0.19970690795E-01  0.13223690996E+00  0.20179246543E-01 0.  0.
         14    1    1    2    0    0  0.17163481524E-01  0.50216401736E-02  0.15788715655E-01  0.23855513201E-01  0.00000000000E+00 0.  1.
     999901    1    3    3    0    0  0.94131524596E-01 -0.70550194922E-01  0.41819751403E-02  0.88783757684E+00  0.88000000000E+00 0.  1.
        -11    1    4    4    0    0 -0.56165040499E-01  0.44649918315E-01 -0.99783278172E-02  0.72442771391E-01  0.51100000000E-03 0. -1.
         11    1    4    4    0    0 -0.55129965621E-01  0.20878636434E-01 -0.99923629777E-02  0.59794138572E-01  0.51100000000E-03 0.  1.
</event>
<event>
 8    1  0.1114686E+005  0.1043930E+01  0.7957747E-01            NaN
         13   -1    0    0    0    0  0.00000000000E+00  0.00000000000E+00  0.74505805969E-08  0.10566000000E+00  0.10566000000E+00 0. -1.
     999900   -1    0    0    0    0 -0.00000000000E+00 -0.00000000000E+00 -0.74505805969E-08  0.93827000000E+00  0.93827000000E+00 0.  1.
     999902    2    1    2    0    0  0.22443368979E-02 -0.22913200258E-01  0.56985059048E-02  0.10202123955E+01  0.10199366682E+01 0.  0.
     999903    2    3    3    0    0 -0.10827822391E+00 -0.58192244312E-01  0.42966969109E-01  0.13181564530E+00  0.20461985231E-01 0.  0.
         14    1    1    2    0    0 -0.22443368979E-02  0.22913200258E-01 -0.56985059048E-02  0.23717604511E-01  0.00000000000E+00 0. -1.
     999901    1    3    3    0    0  0.11052256081E+00  0.35279044054E-01 -0.37268463204E-01  0.88839675019E+00  0.88000000000E+00 0. -1.
        -11    1    4    4    0    0 -0.89608809008E-01 -0.39719955710E-01  0.37733422841E-01  0.10503088048E+00  0.51100000000E-03 0. -1.
         11    1    4    4    0    0 -0.18669414905E-01 -0.18472288602E-01  0.52335462674E-02  0.26784764823E-01  0.51100000000E-03 0.  1.
</event>
<event>
 8    1  0.1114686E+005  0.1043930E+01  0.7957747E-01            NaN
         13   -1    0    0    0    0  0.00000000000E+00  0.00000000000E+00  0.74505805969E-08  0.10566000000E+00  0.10566000000E+00 0. -1.
     999900   -1    0    0    0    0 -0.00000000000E+00 -0.00000000000E+00 -0.74505805969E-08  0.93827000000E+00  0.93827000000E+00 0.  1.
     999902    2    1    2    0    0 -0.10579151546E-01  0.67852943048E-02 -0.21662333742E-01  0.10188857318E+01  0.10185778905E+01 0.  0.
     999903    2    3    3    0    0  0.83012578430E-01 -0.12794132399E-01 -0.97749698051E-01  0.13044211914E+00  0.20133677668E-01 0.  0.
         14    1    1    2    0    0  0.10579151546E-01 -0.67852943048E-02  0.21662333742E-01  0.25044268194E-01  0.00000000000E+00 0. -1.
     999901    1    3    3    0    0 -0.93591729976E-01  0.19579426703E-01  0.76087364309E-01  0.88844361266E+00  0.88000000000E+00 0. -1.
        -11    1    4    4    0    0  0.34540143336E-01  0.17335403146E-03 -0.52667134371E-01  0.62985234120E-01  0.51100000000E-03 0.  1.
         11    1    4    4    0    0  0.48472435095E-01 -0.12967486430E-01 -0.45082563680E-01  0.67456885025E-01  0.51100000000E-03 0. -1.
</event>
<event>
 8    1  0.1114686E+005  0.1043930E+01  0.7957747E-01            NaN
         13   -1    0    0    0    0  0.00000000000E+00  0.00000000000E+00  0.74505805969E-08  0.10566000000E+00  0.10566000000E+00 0.  1.
     999900   -1    0    0    0    0 -0.00000000000E+00 -0.00000000000E+00 -0.74505805969E-08  0.93827000000E+00  0.93827000000E+00 0.  1.
     999902    2    1    2    0    0  0.34747474117E-02  0.21253721837E-01 -0.10979483685E-01  0.10197567995E+01  0.10194702480E+01 0.  0.
     999903    2    3    3    0    0 -0.29682525225E-01  0.10640211008E+00 -0.71273078230E-01  0.13297330262E+00  0.19989652267E-01 0.  0.
         14    1    1    2    0    0 -0.34747474117E-02 -0.21253721837E-01  0.10979483685E-01  0.24173200522E-01  0.00000000000E+00 0.  1.
     999901    1    3    3    0    0  0.33157272636E-01 -0.85148388240E-01  0.60293594546E-01  0.88678349685E+00  0.88000000000E+00 0. -1.
        -11    1    4    4    0    0 -0.26548467424E-01  0.81772749761E-01 -0.63727689964E-01  0.10701907921E+00  0.51100000000E-03 0. -1.
         11    1    4    4    0    0 -0.31340578004E-02  0.24629360316E-01 -0.75453882664E-02  0.25954223413E-01  0.51100000000E-03 0.  1.
</event>
<event>
 8    1  0.1114686E+005  0.1043930E+01  0.7957747E-01            NaN
         13   -1    0    0    0    0  0.00000000000E+00  0.00000000000E+00  0.74505805969E-08  0.10566000000E+00  0.10566000000E+00 0. -1.
     999900   -1    0    0    0    0 -0.00000000000E+00 -0.00000000000E+00 -0.74505805969E-08  0.93827000000E+00  0.93827000000E+00 0.  1.
     999902    2    1    2    0    0  0.18032797678E-01  0.11647391384E-02 -0.14051050055E-01  0.10210395999E+01  0.10207829809E+01 0.  0.
     999903    2    3    3    0    0 -0.95300724414E-01  0.22691445915E-01 -0.84252980202E-01  0.13073841640E+00  0.19920819724E-01 0.  0.
         14    1    1    2    0    0 -0.18032797678E-01 -0.11647391384E-02  0.14051050055E-01  0.22890400105E-01  0.00000000000E+00 0.  1.
     999901    1    3    3    0    0  0.11333352209E+00 -0.21526706777E-01  0.70201930148E-01  0.89030118349E+00  0.88000000000E+00 0. -1.
        -11    1    4    4    0    0 -0.75329747356E-01  0.16334433102E-01 -0.54758651842E-01  0.94552396131E-01  0.51100000000E-03 0. -1.
         11    1    4    4    0    0 -0.19970977057E-01  0.63570128133E-02 -0.29494328360E-01  0.36186020270E-01  0.51100000000E-03 0.  1.
</event>
<event>
 8    1  0.1114686E+005  0.1043930E+01  0.7957747E-01            NaN
         13   -1    0    0    0    0  0.00000000000E+00  0.00000000000E+00  0.74505805969E-08  0.10566000000E+00  0.10566000000E+00 0.  1.
     999900   -1    0    0    0    0 -0.00000000000E+00 -0.00000000000E+00 -0.74505805969E-08  0.93827000000E+00  0.93827000000E+00 0.  1.
     999902    2    1    2    0    0  0.23066440142E-01  0.51268116955E-02  0.14991058208E-02  0.10202531721E+01  0.10199784032E+01 0.  0.
     999903    2    3    3    0    0 -0.43277354091E-01  0.14592025214E-01 -0.11919112052E+00  0.12949101532E+00  0.21806954411E-01 0.  0.
         14    1    1    2    0    0 -0.23066440142E-01 -0.51268116955E-02 -0.14991058208E-02  0.23676827855E-01  0.00000000000E+00 0.  1.
     999901    1    3    3    0    0  0.66343794234E-01 -0.94652135189E-02  0.12069022634E+00  0.89076215683E+00  0.88000000000E+00 0. -1.
        -11    1    4    4    0    0 -0.33037110576E-01  0.16190450982E-01 -0.68580489602E-01  0.77827540455E-01  0.51100000000E-03 0. -1.
         11    1    4    4    0    0 -0.10240243515E-01 -0.15984257672E-02 -0.50610630917E-01  0.51663474864E-01  0.51100000000E-03 0.  1.
</event>
<event>
 8    1  0.1114686E+005  0.1043930E+01  0.7957747E-01            NaN
         13   -1    0    0    0    0  0.00000000000E+00  0.00000000000E+00  0.74505805969E-08  0.10566000000E+00  0.10566000000E+00 0.  1.
     999900   -1    0    0    0    0 -0.00000000000E+00 -0.00000000000E+00 -0.74505805969E-08  0.93827000000E+00  0.93827000000E+00 0.  1.
     999902    2    1    2    0    0 -0.94328718653E-02 -0.21719069615E-01  0.19590109456E-02  0.10201700593E+01  0.10198933352E+01 0.  0.
     999903    2    3    3    0    0 -0.93770905250E-01 -0.45172020453E-01 -0.78550372938E-01  0.13216966200E+00  0.21567669330E-01 0.  0.
         14    1    1    2    0    0  0.94328718653E-02  0.21719069615E-01 -0.19590109456E-02  0.23759940666E-01  0.00000000000E+00 0. -1.
     999901    1    3    3    0    0  0.84338033385E-01  0.23452950838E-01  0.80509383884E-01  0.88800039734E+00  0.88000000000E+00 0. -1.
        -11    1    4    4    0    0 -0.82136278422E-01 -0.45965485398E-01 -0.65566840158E-01  0.11471035581E+00  0.51100000000E-03 0.  1.
         11    1    4    4    0    0 -0.11634626828E-01  0.79346494450E-03 -0.12983532780E-01  0.17459306186E-01  0.51100000000E-03 0. -1.
</event>
<event>
 8    1  0.1114686E+005  0.1043930E+01  0.7957747E-01            NaN
         13   -1    0    0    0    0  0.00000000000E+00  0.00000000000E+00  0.74505805969E-08  0.10566000000E+00  0.10566000000E+00 0.  1.
     999900   -1    0    0    0    0 -0.00000000000E+00 -0.00000000000E+00 -0.74505805969E-08  0.93827000000E+00  0.93827000000E+00 0.  1.
     999902    2    1    2    0    0 -0.30247430050E-02  0.20072545027E-02  0.22298742826E-01  0.10213376988E+01  0.10210877940E+01 0.  0.
     999903    2    3    3    0    0  0.10233543563E+00 -0.75963869687E-01 -0.20406021917E-01  0.13060543805E+00  0.19958051842E-01 0.  0.
         14    1    1    2    0    0  0.30247430050E-02 -0.20072545027E-02 -0.22298742826E-01  0.22592301178E-01  0.00000000000E+00 0. -1.
     999901    1    3    3    0    0 -0.10536017864E+00  0.77971124190E-01  0.42704764743E-01  0.89073226077E+00  0.88000000000E+00 0. -1.
        -11    1    4    4    0    0  0.56970320226E-01 -0.53128757969E-01 -0.79194969749E-02  0.78302374570E-01  0.51100000000E-03 0.  1.
         11    1    4    4    0    0  0.45365115408E-01 -0.22835111718E-01 -0.12486524942E-01  0.52303063479E-01  0.51100000000E-03 0. -1.
</event>
<event>
 8    1  0.1114686E+005  0.1043930E+01  0.7957747E-01            NaN
         13   -1    0    0    0    0  0.00000000000E+00  0.00000000000E+00  0.74505805969E-08  0.10566000000E+00  0.10566000000E+00 0.  1.
     999900   -1    0    0    0    0 -0.00000000000E+00 -0.00000000000E+00 -0.74505805969E-08  0.93827000000E+00  0.93827000000E+00 0.  1.
     999902    2    1    2    0    0  0.66465459092E-02 -0.13236862015E-01  0.20051933211E-01  0.10190006776E+01  0.10186956905E+01 0.  0.
     999903    2    3    3    0    0 -0.12064541075E+00 -0.39340750767E-01 -0.46496041425E-02  0.12911595409E+00  0.23373082280E-01 0.  0.
         14    1    1    2    0    0 -0.66465459092E-02  0.13236862015E-01 -0.20051933211E-01  0.24929322374E-01  0.00000000000E+00 0. -1.
     999901    1    3    3    0    0  0.12729195666E+00  0.26103888753E-01  0.24701537354E-01  0.88988472354E+00  0.88000000000E+00 0. -1.
        -11    1    4    4    0    0 -0.15589114257E-01 -0.70152797266E-03  0.58804745454E-02  0.16683936187E-01  0.51100000000E-03 0.  1.
         11    1    4    4    0    0 -0.10505629649E+00 -0.38639222795E-01 -0.10530078688E-01  0.11243201790E+00  0.51100000000E-03 0. -1.
</event>
<event>
 8    1  0.1114686E+005  0.1043930E+01  0.7957747E-01            NaN
         13   -1    0    0    0    0  0.00000000000E+00  0.00000000000E+00  0.74505805969E-08  0.10566000000E+00  0.10566000000E+00 0. -1.
     999900   -1    0    0    0    0 -0.00000000000E+00 -0.00000000000E+00 -0.74505805969E-08  0.93827000000E+00  0.93827000000E+00 0. -1.
     999902    2    1    2    0    0 -0.10059895449E-01  0.12999821092E-01  0.16099497040E-01  0.10209215092E+01  0.10206622053E+01 0.  0.
     999903    2    3    3    0    0 -0.89961575474E-01  0.88456325659E-01 -0.34137440130E-01  0.13266382562E+00  0.22731458334E-01 0.  0.
         14    1    1    2    0    0  0.10059895449E-01 -0.12999821092E-01 -0.16099497040E-01  0.23008490819E-01  0.00000000000E+00 0.  1.
     999901    1    3    3    0    0  0.79901680025E-01 -0.75456504567E-01  0.50236937170E-01  0.88825768356E+00  0.88000000000E+00 0.  1.
        -11    1    4    4    0    0 -0.48459441711E-01  0.47444261672E-01 -0.30026468908E-01  0.74169572013E-01  0.51100000000E-03 0.  1.
         11    1    4    4    0    0 -0.41502133763E-01  0.41012063987E-01 -0.41109712224E-02  0.58494253604E-01  0.51100000000E-03 0. -1.
</event>
<event>
 8    1  0.1114686E+005  0.1043930E+01  0.7957747E-01            NaN
         13   -1    0    0    0    0  0.00000000000E+00  0.00000000000E+00  0.74505805969E-08  0.10566000000E+00  0.10566000000E+00 0.  1.
     999900   -1    0    0    0    0 -0.00000000000E+00 -0.00000000000E+00 -0.74505805969E-08  0.93827000000E+00  0.93827000000E+00 0.  1.
     999902    2    1    2    0    0 -0.75109391153E-04  0.22102630923E-02 -0.23288551968E-01  0.10205366771E+01  0.10202685243E+01 0.  0.
     999903    2    3    3    0    0  0.58349616869E-01  0.11562499762E+00  0.10966313144E-02  0.13100253619E+00  0.19663265852E-01 0.  0.
         14    1    1    2    0    0  0.75109391153E-04 -0.22102630923E-02  0.23288551968E-01  0.23393322918E-01  0.00000000000E+00 0.  1.
     999901    1    3    3    0    0 -0.58424726260E-01 -0.11341473453E+00 -0.24385183283E-01  0.88953414089E+00  0.88000000000E+00 0. -1.
        -11    1    4    4    0    0  0.34962520484E-01  0.80849678659E-01  0.82992361667E-02  0.88477041202E-01  0.51100000000E-03 0. -1.
         11    1    4    4    0    0  0.23387096384E-01  0.34775318965E-01 -0.72026048523E-02  0.42525494989E-01  0.51100000000E-03 0.  1.
</event>
<event>
 8    1  0.1114686E+005  0.1043930E+01  0.7957747E-01            NaN
         13   -1    0    0    0    0  0.00000000000E+00  0.00000000000E+00  0.74505805969E-08  0.10566000000E+00  0.10566000000E+00 0.  1.
     999900   -1    0    0    0    0 -0.00000000000E+00 -0.00000000000E+00 -0.74505805969E-08  0.93827000000E+00  0.93827000000E+00 0.  1.
     999902    2    1    2    0    0 -0.21465880705E-01  0.15493650911E-02 -0.36426370426E-02  0.10221021881E+01  0.10218690863E+01 0.  0.
     999903    2    3    3    0    0 -0.51226384974E-01 -0.11359525825E+00 -0.46208710029E-01  0.13308259190E+00  0.69069653346E-02 0.  0.
         14    1    1    2    0    0  0.21465880705E-01 -0.15493650911E-02  0.36426370426E-02  0.21827811875E-01  0.00000000000E+00 0.  1.
     999901    1    3    3    0    0  0.29760504269E-01  0.11514462334E+00  0.42566072986E-01  0.88901959622E+00  0.88000000000E+00 0.  1.
        -11    1    4    4    0    0 -0.34193973785E-01 -0.72476499367E-01 -0.32855044231E-01  0.86612850410E-01  0.51100000000E-03 0. -1.
         11    1    4    4    0    0 -0.17032411190E-01 -0.41118758884E-01 -0.13353665797E-01  0.46469741492E-01  0.51100000000E-03 0.  1.
</event>
<event>
 8    1  0.1114686E+005  0.1043930E+01  0.7957747E-01            NaN
         13   -1    0    0    0    0  0.00000000000E+00  0.00000000000E+00  0.74505805969E-08  0.10566000000E+00  0.10566000000E+00 0. -1.
     999900   -1    0    0    0    0 -0.00000000000E+00 -0.00000000000E+00 -0.74505805969E-08  0.93827000000E+00  0.93827000000E+00 0.  1.
     999902    2    1    2    0    0 -0.19459679793E-01 -0.12326310570E-01  0.62489647832E-02  0.10200623099E+01  0.10197830404E+01 0.  0.
     999903    2    3    3    0    0  0.17079701139E-01 -0.81751514008E-01 -0.98162123859E-01  0.13042380991E+00  0.19988531646E-01 0.  0.
         14    1    1    2    0    0  0.19459679793E-01  0.12326310570E-01 -0.62489647832E-02  0.23867690101E-01  0.00000000000E+00 0. -1.
     999901    1    3    3    0    0 -0.36539380932E-01  0.69425203438E-01  0.10441108864E+00  0.88963849999E+00  0.88000000000E+00 0. -1.
        -11    1    4    4    0    0 -0.16915684504E-02 -0.40623740317E-01 -0.46128917154E-01  0.61492176738E-01  0.51100000000E-03 0.  1.
         11    1    4    4    0    0  0.18771269590E-01 -0.41127773691E-01 -0.52033206705E-01  0.68931633172E-01  0.51100000000E-03 0. -1.
</event>
<event>
 8    1  0.1114686E+005  0.1043930E+01  0.7957747E-01            NaN
         13   -1    0    0    0    0  0.00000000000E+00  0.00000000000E+00  0.74505805969E-08  0.10566000000E+00  0.10566000000E+00 0. -1.
     999900   -1    0    0    0    0 -0.00000000000E+00 -0.00000000000E+00 -0.74505805969E-08  0.93827000000E+00  0.93827000000E+00 0.  1.
     999902    2    1    2    0    0  0.10808761987E-01  0.16802481880E-01 -0.13815258132E-01  0.10196397944E+01  0.10193504285E+01 0.  0.
     999903    2    3    3    0    0 -0.41004706872E-01  0.78126042432E-01  0.92951527935E-01  0.12955869623E+00  0.18984328569E-01 0.  0.
         14    1    1    2    0    0 -0.10808761987E-01 -0.16802481880E-01  0.13815258132E-01  0.24290205645E-01  0.00000000000E+00 0. -1.
     999901    1    3    3    0    0  0.51813468860E-01 -0.61323560552E-01 -0.10676678607E+00  0.89008109813E+00  0.88000000000E+00 0.  1.
        -11    1    4    4    0    0 -0.16286370587E-01  0.48248736364E-01  0.59742817332E-01  0.78502559011E-01  0.51100000000E-03 0. -1.
         11    1    4    4    0    0 -0.24718336285E-01  0.29877306069E-01  0.33208710603E-01  0.51056137217E-01  0.51100000000E-03 0.  1.
</event>
<event>
 8    1  0.1114686E+005  0.1043930E+01  0.7957747E-01            NaN
         13   -1    0    0    0    0  0.00000000000E+00  0.00000000000E+00  0.74505805969E-08  0.10566000000E+00  0.10566000000E+00 0.  1.
     999900   -1    0    0    0    0 -0.00000000000E+00 -0.00000000000E+00 -0.74505805969E-08  0.93827000000E+00  0.93827000000E+00 0.  1.
     999902    2    1    2    0    0  0.22639624204E-01  0.24023901391E-02 -0.92049005993E-02  0.10193728369E+01  0.10190769973E+01 0.  0.
     999903    2    3    3    0    0 -0.11714330076E+00  0.22634768089E-01 -0.40909012774E-01  0.12754675190E+00  0.18966838326E-01 0.  0.
         14    1    1    2    0    0 -0.22639624204E-01 -0.24023901391E-02  0.92049005993E-02  0.24557163060E-01  0.00000000000E+00 0.  1.
     999901    1    3    3    0    0  0.13978292496E+00 -0.20232377950E-01  0.31704112175E-01  0.89182608504E+00  0.88000000000E+00 0. -1.
        -11    1    4    4    0    0 -0.18916904948E-01 -0.30653124266E-02 -0.84531566682E-02  0.20951429826E-01  0.51100000000E-03 0. -1.
         11    1    4    4    0    0 -0.98226395807E-01  0.25700080516E-01 -0.32455856106E-01  0.10659532208E+00  0.51100000000E-03 0.  1.
</event>
<event>
 8    1  0.1114686E+005  0.1043930E+01  0.7957747E-01            NaN
         13   -1    0    0    0    0  0.00000000000E+00  0.00000000000E+00  0.74505805969E-08  0.10566000000E+00  0.10566000000E+00 0.  1.
     999900   -1    0    0    0    0 -0.00000000000E+00 -0.00000000000E+00 -0.74505805969E-08  0.93827000000E+00  0.93827000000E+00 0. -1.
     999902    2    1    2    0    0 -0.14641816930E-01  0.15571842395E-01  0.70740695417E-02  0.10214153928E+01  0.10211672229E+01 0.  0.
     999903    2    3    3    0    0 -0.12068318647E+00 -0.22545746721E-01 -0.46150773306E-01  0.13263498877E+00  0.19733326567E-01 0.  0.
         14    1    1    2    0    0  0.14641816930E-01 -0.15571842395E-01 -0.70740695417E-02  0.22514607224E-01  0.00000000000E+00 0. -1.
     999901    1    3    3    0    0  0.10604136954E+00  0.38117589116E-01  0.53224842847E-01  0.88878040401E+00  0.88000000000E+00 0.  1.
        -11    1    4    4    0    0 -0.31237833706E-01 -0.11583018240E-02 -0.19645281652E-01  0.36923463136E-01  0.51100000000E-03 0.  1.
         11    1    4    4    0    0 -0.89445352761E-01 -0.21387444898E-01 -0.26505491653E-01  0.95711525631E-01  0.51100000000E-03 0. -1.
</event>
<event>
 8    1  0.1114686E+005  0.1043930E+01  0.7957747E-01            NaN
         13   -1    0    0    0    0  0.00000000000E+00  0.00000000000E+00  0.74505805969E-08  0.10566000000E+00  0.10566000000E+00 0.  1.
     999900   -1    0    0    0    0 -0.00000000000E+00 -0.00000000000E+00 -0.74505805969E-08  0.93827000000E+00  0.93827000000E+00 0.  1.
     999902    2    1    2    0    0  0.33540675177E-02  0.88593445148E-04 -0.25706976008E-01  0.10180049883E+01  0.10176748252E+01 0.  0.
     999903    2    3    3    0    0  0.62637596814E-01  0.89991693607E-01  0.61226824666E-01  0.12718817772E+00  0.20152792341E-01 0.  0.
         14    1    1    2    0    0 -0.33540675177E-02 -0.88593445148E-04  0.25706976008E-01  0.25925011730E-01  0.00000000000E+00 0.  1.
     999901    1    3    3    0    0 -0.59283529297E-01 -0.89903100162E-01 -0.86933800675E-01  0.89081681055E+00  0.88000000000E+00 0. -1.
        -11    1    4    4    0    0  0.75711093067E-02  0.56708040874E-02  0.29094627787E-03  0.94776308151E-02  0.51100000000E-03 0.  1.
         11    1    4    4    0    0  0.55066487508E-01  0.84320889520E-01  0.60935878389E-01  0.11771054690E+00  0.51100000000E-03 0. -1.
</event>
<event>
 8    1  0.1114686E+005  0.1043930E+01  0.7957747E-01            NaN
         13   -1    0    0    0    0  0.00000000000E+00  0.00000000000E+00  0.74505805969E-08  0.10566000000E+00  0.10566000000E+00 0.  1.
     999900   -1    0    0    0    0 -0.00000000000E+00 -0.00000000000E+00 -0.74505805969E-08  0.93827000000E+00  0.93827000000E+00 0. -1.
     999902    2    1    2    0    0  0.78887874066E-02  0.21987595209E-01  0.56918850739E-02  0.10198866045E+01  0.10196031587E+01 0.  0.
     999903    2    3    3    0    0 -0.12239145921E+00  0.31072193791E-01  0.23397170118E-01  0.13007260728E+00  0.20647156731E-01 0.  0.
         14    1    1    2    0    0 -0.78887874066E-02 -0.21987595209E-01 -0.56918850739E-02  0.24043395465E-01  0.00000000000E+00 0. -1.
     999901    1    3    3    0    0  0.13028024662E+00 -0.90845985823E-02 -0.17705285044E-01  0.88981399725E+00  0.88000000000E+00 0.  1.
        -11    1    4    4    0    0 -0.28016006518E-01 -0.15708549777E-02  0.61700645762E-02  0.28734909508E-01  0.51100000000E-03 0. -1.
         11    1    4    4    0    0 -0.94375452691E-01  0.32643048769E-01  0.17227105542E-01  0.10133769777E+00  0.51100000000E-03 0.  1.
</event>
<event>
 8    1  0.1114686E+005  0.1043930E+01  0.7957747E-01            NaN
         13   -1    0    0    0    0  0.00000000000E+00  0.00000000000E+00  0.74505805969E-08  0.10566000000E+00  0.10566000000E+00 0. -1.
     999900   -1    0    0    0    0 -0.00000000000E+00 -0.00000000000E+00 -0.74505805969E-08  0.93827000000E+00  0.93827000000E+00 0. -1.
     999902    2    1    2    0    0  0.28716798541E-02  0.18197865730E-01 -0.14949144383E-01  0.10202047860E+01  0.10199288797E+01 0.  0.
     999903    2    3    3    0    0 -0.42777449120E-01  0.16030957179E-01  0.11874052739E+00  0.12893520454E+00  0.20930178777E-01 0.  0.
         14    1    1    2    0    0 -0.28716798541E-02 -0.18197865730E-01  0.14949144383E-01  0.23725214016E-01  0.00000000000E+00 0. -1.
     999901    1    3    3    0    0  0.45649128974E-01  0.21669085511E-02 -0.13368967177E+00  0.89126958144E+00  0.88000000000E+00 0. -1.
        -11    1    4    4    0    0 -0.15576530761E-01 -0.38958708341E-02  0.46862342870E-01  0.49539342147E-01  0.51100000000E-03 0. -1.
         11    1    4    4    0    0 -0.27200918359E-01  0.19926828013E-01  0.71878184520E-01  0.79395862393E-01  0.51100000000E-03 0.  1.
</event>
<event>
 8    1  0.1114686E+005  0.1043930E+01  0.7957747E-01            NaN
         13   -1    0    0    0    0  0.00000000000E+00  0.00000000000E+00  0.74505805969E-08  0.10566000000E+00  0.10566000000E+00 0. -1.
     999900   -1    0    0    0    0 -0.00000000000E+00 -0.00000000000E+00 -0.74505805969E-08  0.93827000000E+00  0.93827000000E+00 0.  1.
     999902    2    1    2    0    0 -0.59879001924E-02 -0.19082657463E-01 -0.13913798310E-01  0.10195661631E+01  0.10192750190E+01 0.  0.
     999903    2    3    3    0    0 -0.30819499551E-01 -0.23385786957E-01  0.12128402640E+00  0.12888463919E+00  0.20117121406E-01 0.  0.
         14    1    1    2    0    0  0.59879001924E-02  0.19082657463E-01  0.13913798310E-01  0.24363836889E-01  0.00000000000E+00 0.  1.
     999901    1    3    3    0    0  0.24831599359E-01  0.43031294948E-02 -0.13519782471E+00  0.89068152392E+00  0.88000000000E+00 0.  1.
        -11    1    4    4    0    0 -0.28524046035E-01 -0.12801155243E-01  0.73301631542E-01  0.79692415482E-01  0.51100000000E-03 0.  1.
         11    1    4    4    0    0 -0.22954535164E-02 -0.10584631715E-01  0.47982394862E-01  0.49192223706E-01  0.51100000000E-03 0. -1.
</event>
<event>
 8    1  0.1114686E+005  0.1043930E+01  0.7957747E-01            NaN
         13   -1    0    0    0    0  0.00000000000E+00  0.00000000000E+00  0.74505805969E-08  0.10566000000E+00  0.10566000000E+00 0.  1.
     999900   -1    0    0    0    0 -0.00000000000E+00 -0.00000000000E+00 -0.74505805969E-08  0.93827000000E+00  0.93827000000E+00 0. -1.
     999902    2    1    2    0    0  0.15662221952E-01 -0.13913195673E-01  0.10165896673E-01  0.10206442175E+01  0.10203785528E+01 0.  0.
     999903    2    3    3    0    0  0.67680966836E-01  0.10967727971E+00 -0.81471576082E-03  0.13041889252E+00  0.19965089743E-01 0.  0.
         14    1    1    2    0    0 -0.15662221952E-01  0.13913195673E-01 -0.10165896673E-01  0.23285782475E-01  0.00000000000E+00 0. -1.
     999901    1    3    3    0    0 -0.52018744884E-01 -0.12359047538E+00  0.10980612434E-01  0.89022532500E+00  0.88000000000E+00 0. -1.
        -11    1    4    4    0    0  0.27389772393E-01  0.56840086432E-01  0.71227054704E-02  0.63497945727E-01  0.51100000000E-03 0.  1.
         11    1    4    4    0    0  0.40291194443E-01  0.52837193279E-01 -0.79374212312E-02  0.66920946796E-01  0.51100000000E-03 0. -1.
</event>
<event>
 8    1  0.1114686E+005  0.1043930E+01  0.7957747E-01            NaN
         13   -1    0    0    0    0  0.00000000000E+00  0.00000000000E+00  0.74505805969E-08  0.10566000000E+00  0.10566000000E+00 0.  1.
     999900   -1    0    0    0    0 -0.00000000000E+00 -0.00000000000E+00 -0.74505805969E-08  0.93827000000E+00  0.93827000000E+00 0.  1.
     999902    2    1    2    0    0 -0.20667185228E-01 -0.10123755663E-01 -0.82723579310E-02  0.10194748394E+01  0.10191814820E+01 0.  0.
     999903    2    3    3    0    0 -0.11289634748E+00 -0.60795253938E-01  0.26920285565E-01  0.13250677839E+00  0.19791320530E-01 0.  0.
         14    1    1    2    0    0  0.20667185228E-01  0.10123755663E-01  0.82723579310E-02  0.24455160595E-01  0.00000000000E+00 0.  1.
     999901    1    3    3    0    0  0.92229162252E-01  0.50671498275E-01 -0.35192643496E-01  0.88696806102E+00  0.88000000000E+00 0.  1.
        -11    1    4    4    0    0 -0.45172530330E-01 -0.18608125276E-01  0.18620252974E-01  0.52285703252E-01  0.51100000000E-03 0.  1.
         11    1    4    4    0    0 -0.67723817150E-01 -0.42187128662E-01  0.83000325907E-02  0.80221075137E-01  0.51100000000E-03 0. -1.
</event>
<event>
 8    1  0.1114686E+005  0.1043930E+01  0.7957747E-01            NaN
         13   -1    0    0    0    0  0.00000000000E+00  0.00000000000E+00  0.74505805969E-08  0.10566000000E+00  0.10566000000E+00 0.  1.
     999900   -1    0    0    0    0 -0.00000000000E+00 -0.00000000000E+00 -0.74505805969E-08  0.93827000000E+00  0.93827000000E+00 0.  1.
     999902    2    1    2    0    0 -0.13906191663E-01  0.17747404248E-01  0.10851660737E-02  0.10213572264E+01  0.10211077581E+01 0.  0.
     999903    2    3    3    0    0  0.44611764274E-01 -0.11782204783E+00  0.18716302748E-01  0.12888073677E+00  0.19690095381E-01 0.  0.
         14    1    1    2    0    0  0.13906191663E-01 -0.17747404248E-01 -0.10851660737E-02  0.22572773633E-01  0.00000000000E+00 0. -1.
     999901    1    3    3    0    0 -0.58517955937E-01  0.13556945207E+00 -0.17631136674E-01  0.89247648960E+00  0.88000000000E+00 0.  1.
        -11    1    4    4    0    0  0.25224658304E-01 -0.90854190186E-01  0.13340410972E-01  0.95231270845E-01  0.51100000000E-03 0. -1.
         11    1    4    4    0    0  0.19387105971E-01 -0.26967857640E-01  0.53758917758E-02  0.33649465925E-01  0.51100000000E-03 0.  1.
</event>
<event>
 8    1  0.1114686E+005  0.1043930E+01  0.7957747E-01            NaN
         13   -1    0    0    0    0  0.00000000000E+00  0.00000000000E+00  0.74505805969E-08  0.10566000000E+00  0.10566000000E+00 0.  1.
     999900   -1    0    0    0    0 -0.00000000000E+00 -0.00000000000E+00 -0.74505805969E-08  0.93827000000E+00  0.93827000000E+00 0.  1.
     999902    2    1    2    0    0 -0.16948496264E-01  0.15950773541E-01  0.26302259139E-02  0.10205078568E+01  0.10202390353E+01 0.  0.
     999903    2    3    3    0    0  0.12631388838E+00 -0.10010726021E-01  0.10193976123E-01  0.12851272196E+00  0.18872984011E-01 0.  0.
         14    1    1    2    0    0  0.16948496264E-01 -0.15950773541E-01 -0.26302259139E-02  0.23422143167E-01  0.00000000000E+00 0.  1.
     999901    1    3    3    0    0 -0.14326238464E+00  0.25961499561E-01 -0.75637502086E-02  0.89199513487E+00  0.88000000000E+00 0.  1.
        -11    1    4    4    0    0  0.50500359428E-01 -0.10517523350E-01 -0.24691145073E-02  0.51645544312E-01  0.51100000000E-03 0.  1.
         11    1    4    4    0    0  0.75813528947E-01  0.50679732935E-03  0.12663090630E-01  0.76867177653E-01  0.51100000000E-03 0. -1.
</event>
<event>
 8    1  0.1114686E+005  0.1043930E+01  0.7957747E-01            NaN
         13   -1    0    0    0    0  0.00000000000E+00  0.00000000000E+00  0.74505805969E-08  0.10566000000E+00  0.10566000000E+00 0. -1.
     999900   -1    0    0    0    0 -0.00000000000E+00 -0.00000000000E+00 -0.74505805969E-08  0.93827000000E+00  0.93827000000E+00 0. -1.
     999902    2    1    2    0    0 -0.21635007994E-01  0.10051017537E-01  0.55002350047E-02  0.10194483924E+01  0.10191543925E+01 0.  0.
     999903    2    3    3    0    0  0.10855867589E+00  0.59823493746E-01  0.27867396510E-01  0.12819759460E+00  0.17152112301E-01 0.  0.
         14    1    1    2    0    0  0.21635007994E-01 -0.10051017537E-01 -0.55002350047E-02  0.24481607576E-01  0.00000000000E+00 0.  1.
     999901    1    3    3    0    0 -0.13019368389E+00 -0.49772476210E-01 -0.22367161505E-01  0.89125079783E+00  0.88000000000E+00 0.  1.
        -11    1    4    4    0    0  0.23841475929E-01  0.86857512153E-02  0.11632904301E-01  0.27918521310E-01  0.51100000000E-03 0. -1.
         11    1    4    4    0    0  0.84717199965E-01  0.51137742531E-01  0.16234492208E-01  0.10027907329E+00  0.51100000000E-03 0.  1.
</event>
<event>
 8    1  0.1114686E+005  0.1043930E+01  0.7957747E-01            NaN
         13   -1    0    0    0    0  0.00000000000E+00  0.00000000000E+00  0.74505805969E-08  0.10566000000E+00  0.10566000000E+00 0. -1.
     999900   -1    0    0    0    0 -0.00000000000E+00 -0.00000000000E+00 -0.74505805969E-08  0.93827000000E+00  0.93827000000E+00 0.  1.
     999902    2    1    2    0    0 -0.20785895457E-01  0.10264149940E-01  0.34005517582E-02  0.10204998917E+01  0.10202308851E+01 0.  0.
     999903    2    3    3    0    0 -0.36483338639E-01  0.12189298324E+00 -0.31188430554E-01  0.13263514756E+00  0.20746826414E-01 0.  0.
         14    1    1    2    0    0  0.20785895457E-01 -0.10264149940E-01 -0.34005517582E-02  0.23430108327E-01  0.00000000000E+00 0. -1.
     999901    1    3    3    0    0  0.15697443182E-01 -0.11162883330E+00  0.34588982312E-01  0.88786474412E+00  0.88000000000E+00 0. -1.
        -11    1    4    4    0    0 -0.27377617447E-01  0.55386225620E-01 -0.15278619384E-01  0.63646408043E-01  0.51100000000E-03 0. -1.
         11    1    4    4    0    0 -0.91057211917E-02  0.66506757619E-01 -0.15909811170E-01  0.68988739515E-01  0.51100000000E-03 0.  1.
</event>
<event>
 8    1  0.1114686E+005  0.1043930E+01  0.7957747E-01            NaN
         13   -1    0    0    0    0  0.00000000000E+00  0.00000000000E+00  0.74505805969E-08  0.10566000000E+00  0.10566000000E+00 0. -1.
     999900   -1    0    0    0    0 -0.00000000000E+00 -0.00000000000E+00 -0.74505805969E-08  0.93827000000E+00  0.93827000000E+00 0.  1.
     999902    2    1    2    0    0  0.21694590845E-01 -0.25532956967E-02  0.96421548160E-02  0.10200522752E+01  0.10197727680E+01 0.  0.
     999903    2    3    3    0    0  0.11685823765E+00  0.59510379509E-01 -0.78663747295E-02  0.13257575832E+00  0.17807831624E-01 0.  0.
         14    1    1    2    0    0 -0.21694590845E-01  0.25532956967E-02 -0.96421548160E-02  0.23877724773E-01  0.00000000000E+00 0.  1.
     999901    1    3    3    0    0 -0.95163646804E-01 -0.62063675205E-01  0.17508529545E-01  0.88747651691E+00  0.88000000000E+00 0.  1.
        -11    1    4    4    0    0  0.93722904541E-01  0.49877212863E-01 -0.13083236554E-01  0.10697266659E+00  0.51100000000E-03 0.  1.
         11    1    4    4    0    0  0.23135333108E-01  0.96331666453E-02  0.52168618242E-02  0.25603091726E-01  0.51100000000E-03 0. -1.
</event>
<event>
 8    1  0.1114686E+005  0.1043930E+01  0.7957747E-01            NaN
         13   -1    0    0    0    0  0.00000000000E+00  0.00000000000E+00  0.74505805969E-08  0.10566000000E+00  0.10566000000E+00 0.  1.
     999900   -1    0    0    0    0 -0.00000000000E+00 -0.00000000000E+00 -0.74505805969E-08  0.93827000000E+00  0.93827000000E+00 0. -1.
     999902    2    1    2    0    0  0.13547402714E-01  0.38395103276E-02 -0.19092224680E-01  0.10202068678E+01  0.10199310104E+01 0.  0.
     999903    2    3    3    0    0 -0.65308515329E-01  0.70138967683E-01 -0.87360071094E-01  0.13157062457E+00  0.22234438766E-01 0.  0.
         14    1    1    2    0    0 -0.13547402714E-01 -0.38395103276E-02  0.19092224680E-01  0.23723132236E-01  0.00000000000E+00 0.  1.
     999901    1    3    3    0    0  0.78855918043E-01 -0.66299457356E-01  0.68267846413E-01  0.88863624319E+00  0.88000000000E+00 0. -1.
        -11    1    4    4    0    0 -0.28227328013E-01  0.40130932203E-01 -0.32421011283E-01  0.58810346537E-01  0.51100000000E-03 0.  1.
         11    1    4    4    0    0 -0.37081187316E-01  0.30008035481E-01 -0.54939059811E-01  0.72760278038E-01  0.51100000000E-03 0. -1.
</event>
<event>
 8    1  0.1348919E+005  0.1043930E+01  0.7957747E-01            NaN
         13   -1    0    0    0    0  0.00000000000E+00  0.00000000000E+00  0.74505805969E-08  0.10566000000E+00  0.10566000000E+00 0.  1.
     999900   -1    0    0    0    0 -0.00000000000E+00 -0.00000000000E+00 -0.74505805969E-08  0.93827000000E+00  0.93827000000E+00 0.  1.
     999902    2    1    2    0    0  0.18199336321E-01  0.21004942785E-02  0.16724028630E-01  0.10191243343E+01  0.10188224024E+01 0.  0.
     999903    2    3    3    0    0 -0.46708564055E-01 -0.11637251033E+00  0.17181643127E-01  0.12881590582E+00  0.23959916838E-01 0.  0.
         14    1    1    2    0    0 -0.18199336321E-01 -0.21004942785E-02 -0.16724028630E-01  0.24805665731E-01  0.00000000000E+00 0. -1.
     999901    1    3    3    0    0  0.64907900376E-01  0.11847300461E+00 -0.45761449682E-03  0.89030842845E+00  0.88000000000E+00 0. -1.
        -11    1    4    4    0    0 -0.30279922062E-01 -0.78846236957E-01  0.22746740759E-01  0.87471584520E-01  0.51100000000E-03 0. -1.
         11    1    4    4    0    0 -0.16428641992E-01 -0.37526273376E-01 -0.55650976322E-02  0.41344321301E-01  0.51100000000E-03 0.  1.
</event>
<event>
 8    1  0.1114686E+005  0.1043930E+01  0.7957747E-01            NaN
         13   -1    0    0    0    0  0.00000000000E+00  0.00000000000E+00  0.74505805969E-08  0.10566000000E+00  0.10566000000E+00 0. -1.
     999900   -1    0    0    0    0 -0.00000000000E+00 -0.00000000000E+00 -0.74505805969E-08  0.93827000000E+00  0.93827000000E+00 0. -1.
     999902    2    1    2    0    0  0.13146459319E-01  0.17274363948E-01  0.84152872172E-02  0.10206480306E+01  0.10203824539E+01 0.  0.
     999903    2    3    3    0    0 -0.11288593947E+00  0.55782967317E-01 -0.27916505145E-01  0.13009366544E+00  0.17031023343E-01 0.  0.
         14    1    1    2    0    0 -0.13146459319E-01 -0.17274363948E-01 -0.84152872172E-02  0.23281969448E-01  0.00000000000E+00 0. -1.
     999901    1    3    3    0    0  0.12603239879E+00 -0.38508603369E-01  0.36331792362E-01  0.89055436511E+00  0.88000000000E+00 0.  1.
        -11    1    4    4    0    0 -0.58274437735E-01  0.25376171903E-01 -0.22189696194E-01  0.67323873418E-01  0.51100000000E-03 0.  1.
         11    1    4    4    0    0 -0.54611501736E-01  0.30406795413E-01 -0.57268089502E-02  0.62769792026E-01  0.51100000000E-03 0. -1.
</event>
<event>
 8    1  0.1114686E+005  0.1043930E+01  0.7957747E-01            NaN
         13   -1    0    0    0    0  0.00000000000E+00  0.00000000000E+00  0.74505805969E-08  0.10566000000E+00  0.10566000000E+00 0.  1.
     999900   -1    0    0    0    0 -0.00000000000E+00 -0.00000000000E+00 -0.74505805969E-08  0.93827000000E+00  0.93827000000E+00 0.  1.
     999902    2    1    2    0    0  0.24638199581E-01  0.27638914506E-02  0.37559487957E-02  0.10188543719E+01  0.10185457496E+01 0.  0.
     999903    2    3    3    0    0 -0.21881178833E-01  0.95139849788E-01 -0.81838600673E-01  0.12867248195E+00  0.18129369730E-01 0.  0.
         14    1    1    2    0    0 -0.24638199581E-01 -0.27638914506E-02 -0.37559487957E-02  0.25075628125E-01  0.00000000000E+00 0. -1.
     999901    1    3    3    0    0  0.46519378414E-01 -0.92375958338E-01  0.85594549469E-01  0.89018188992E+00  0.88000000000E+00 0. -1.
        -11    1    4    4    0    0 -0.22948561257E-01  0.93740317390E-01 -0.82238752575E-01  0.12679651854E+00  0.51100000000E-03 0.  1.
         11    1    4    4    0    0  0.10673824244E-02  0.13995323980E-02  0.40015190210E-03  0.18759634105E-02  0.51100000000E-03 0. -1.
</event>
<event>
 8    1  0.1114686E+005  0.1043930E+01  0.7957747E-01            NaN
         13   -1    0    0    0    0  0.00000000000E+00  0.00000000000E+00  0.74505805969E-08  0.10566000000E+00  0.10566000000E+00 0.  1.
     999900   -1    0    0    0    0 -0.00000000000E+00 -0.00000000000E+00 -0.74505805969E-08  0.93827000000E+00  0.93827000000E+00 0.  1.
     999902    2    1    2    0    0  0.14073530235E-01 -0.42029027333E-02 -0.18472626428E-01  0.10203298608E+01  0.10200568897E+01 0.  0.
     999903    2    3    3    0    0 -0.61712058707E-02 -0.99691505770E-01  0.79813248291E-01  0.12949427783E+00  0.20545882422E-01 0.  0.
         14    1    1    2    0    0 -0.14073530235E-01  0.42029027333E-02  0.18472626428E-01  0.23600139233E-01  0.00000000000E+00 0.  1.
     999901    1    3    3    0    0  0.20244736106E-01  0.95488603037E-01 -0.98285874719E-01  0.89083558293E+00  0.88000000000E+00 0.  1.
        -11    1    4    4    0    0 -0.10497270111E-01 -0.24612466548E-01  0.20339047701E-01  0.33614047239E-01  0.51100000000E-03 0. -1.
         11    1    4    4    0    0  0.43260642404E-02 -0.75079039222E-01  0.59474200590E-01  0.95880230596E-01  0.51100000000E-03 0.  1.
</event>
<event>
 8    1  0.1114686E+005  0.1043930E+01  0.7957747E-01            NaN
         13   -1    0    0    0    0  0.00000000000E+00  0.00000000000E+00  0.74505805969E-08  0.10566000000E+00  0.10566000000E+00 0.  1.
     999900   -1    0    0    0    0 -0.00000000000E+00 -0.00000000000E+00 -0.74505805969E-08  0.93827000000E+00  0.93827000000E+00 0. -1.
     999902    2    1    2    0    0 -0.52571370302E-02  0.10870844528E-01  0.20803351795E-01  0.10198760565E+01  0.10195923590E+01 0.  0.
     999903    2    3    3    0    0 -0.10104868831E+00  0.81528892894E-01  0.68597293588E-02  0.13175275107E+00  0.21305720868E-01 0.  0.
         14    1    1    2    0    0  0.52571370302E-02 -0.10870844528E-01 -0.20803351795E-01  0.24053943469E-01  0.00000000000E+00 0. -1.
     999901    1    3    3    0    0  0.95791551281E-01 -0.70658048366E-01  0.13943622436E-01  0.88812330546E+00  0.88000000000E+00 0.  1.
        -11    1    4    4    0    0 -0.86867713224E-01  0.75177818534E-01  0.11683499092E-01  0.11547497249E+00  0.51100000000E-03 0. -1.
         11    1    4    4    0    0 -0.14180975087E-01  0.63510743606E-02 -0.48237697337E-02  0.16277778577E-01  0.51100000000E-03 0.  1.
</event>
<event>
 8    1  0.1114686E+005  0.1043930E+01  0.7957747E-01            NaN
         13   -1    0    0    0    0  0.00000000000E+00  0.00000000000E+00  0.74505805969E-08  0.10566000000E+00  0.10566000000E+00 0.  1.
     999900   -1    0    0    0    0 -0.00000000000E+00 -0.00000000000E+00 -0.74505805969E-08  0.93827000000E+00  0.93827000000E+00 0. -1.
     999902    2    1    2    0    0 -0.11492398326E-01 -0.19571792613E-01 -0.38511981752E-02  0.10209090962E+01  0.10206495092E+01 0.  0.
     999903    2    3    3    0    0  0.84103220570E-01  0.55077758629E-01  0.78008104606E-01  0.12882612733E+00  0.20099639139E-01 0.  0.
         14    1    1    2    0    0  0.11492398326E-01  0.19571792613E-01  0.38511981752E-02  0.23020903821E-01  0.00000000000E+00 0. -1.
     999901    1    3    3    0    0 -0.95595618896E-01 -0.74649551242E-01 -0.81859302781E-01  0.89208296885E+00  0.88000000000E+00 0. -1.
        -11    1    4    4    0    0  0.23358737198E-01  0.16493580036E-01  0.34176014425E-01  0.44563773055E-01  0.51100000000E-03 0.  1.
         11    1    4    4    0    0  0.60744483372E-01  0.38584178594E-01  0.43832090181E-01  0.84262354278E-01  0.51100000000E-03 0. -1.
</event>
<event>
 8    1  0.1114686E+005  0.1043930E+01  0.7957747E-01            NaN
         13   -1    0    0    0    0  0.00000000000E+00  0.00000000000E+00  0.74505805969E-08  0.10566000000E+00  0.10566000000E+00 0.  1.
     999900   -1    0    0    0    0 -0.00000000000E+00 -0.00000000000E+00 -0.74505805969E-08  0.93827000000E+00  0.93827000000E+00 0.  1.
     999902    2    1    2    0    0  0.42456900949E-02  0.15902565219E-01  0.16820450565E-01  0.10203960878E+01  0.10201246645E+01 0.  0.
     999903    2    3    3    0    0 -0.12782902818E+00 -0.14029268686E-01  0.31420933723E-02  0.12993174641E+00  0.18311339339E-01 0.  0.
         14    1    1    2    0    0 -0.42456900949E-02 -0.15902565219E-01 -0.16820450565E-01  0.23533912173E-01  0.00000000000E+00 0.  1.
     999901    1    3    3    0    0  0.13207471827E+00  0.29931833905E-01  0.13678357193E-01  0.89046434142E+00  0.88000000000E+00 0. -1.
        -11    1    4    4    0    0 -0.83532939806E-01 -0.10921155702E-01 -0.64768761103E-02  0.84493992211E-01  0.51100000000E-03 0.  1.
         11    1    4    4    0    0 -0.44296088372E-01 -0.31081129840E-02  0.96189694825E-02  0.45437754195E-01  0.51100000000E-03 0. -1.
</event>
<event>
 8    1  0.1114686E+005  0.1043930E+01  0.7957747E-01            NaN
         13   -1    0    0    0    0  0.00000000000E+00  0.00000000000E+00  0.74505805969E-08  0.10566000000E+00  0.10566000000E+00 0. -1.
     999900   -1    0    0    0    0 -0.00000000000E+00 -0.00000000000E+00 -0.74505805969E-08  0.93827000000E+00  0.93827000000E+00 0.  1.
     999902    2    1    2    0    0 -0.23044715743E-01 -0.20894500433E-03 -0.33742923963E-02  0.10206386190E+01  0.10203728250E+01 0.  0.
     999903    2    3    3    0    0 -0.25165794330E-01  0.75941219147E-01  0.10197751097E+00  0.13108685040E+00  0.19594990000E-01 0.  0.
         14    1    1    2    0    0  0.23044715743E-01  0.20894500433E-03  0.33742923963E-02  0.23291381042E-01  0.00000000000E+00 0. -1.
     999901    1    3    3    0    0  0.21210785870E-02 -0.76150164151E-01 -0.10535180337E+00  0.88955176856E+00  0.88000000000E+00 0.  1.
        -11    1    4    4    0    0 -0.19873245207E-01  0.69950883408E-01  0.82208771504E-01  0.10975707357E+00  0.51100000000E-03 0. -1.
         11    1    4    4    0    0 -0.52925491229E-02  0.59903357391E-02  0.19768739469E-01  0.21329776831E-01  0.51100000000E-03 0.  1.
</event>
<event>
 8    1  0.1114686E+005  0.1043930E+01  0.7957747E-01            NaN
         13   -1    0    0    0    0  0.00000000000E+00  0.00000000000E+00  0.74505805969E-08  0.10566000000E+00  0.10566000000E+00 0.  1.
     999900   -1    0    0    0    0 -0.00000000000E+00 -0.00000000000E+00 -0.74505805969E-08  0.93827000000E+00  0.93827000000E+00 0. -1.
     999902    2    1    2    0    0 -0.15524770529E-01  0.60655153053E-02 -0.16486354365E-01  0.10204862619E+01  0.10202169386E+01 0.  0.
     999903    2    3    3    0    0 -0.12884411046E+00 -0.20611241292E-01 -0.14152904111E-01  0.13281607138E+00  0.20351315780E-01 0.  0.
         14    1    1    2    0    0  0.15524770529E-01 -0.60655153053E-02  0.16486354365E-01  0.23443738100E-01  0.00000000000E+00 0.  1.
     999901    1    3    3    0    0  0.11331933993E+00  0.26676756597E-01 -0.23334502535E-02  0.88767019052E+00  0.88000000000E+00 0.  1.
        -11    1    4    4    0    0 -0.36464329396E-01 -0.10120375032E-01 -0.12396022972E-01  0.39824512748E-01  0.51100000000E-03 0. -1.
         11    1    4    4    0    0 -0.92379781066E-01 -0.10490866260E-01 -0.17568811395E-02  0.92991558633E-01  0.51100000000E-03 0.  1.
</event>
<event>
 7    1  0.1391188E+005  0.1043930E+01  0.7957747E-01            NaN
         13   -1    0    0    0    0  0.00000000000E+00  0.00000000000E+00  0.74505805969E-08  0.10566000000E+00  0.10566000000E+00 0. -1.
     999900   -1    0    0    0    0 -0.00000000000E+00 -0.00000000000E+00 -0.74505805969E-08  0.93827000000E+00  0.93827000000E+00 0.  1.
     999903    2    1    2    0    0 -0.50643491009E-01  0.88354450294E-01  0.40974311749E-01  0.11158143349E+00  0.20006249222E-01 0.  0.
         14    1    1    2    0    0 -0.31019624305E-01  0.11431231812E-01  0.23588753029E-01  0.40611813825E-01  0.00000000000E+00 0. -1.
     999901    1    1    2    0    0  0.81663115313E-01 -0.99785682106E-01 -0.64563064778E-01  0.89173675269E+00  0.88000000000E+00 0.  1.
        -11    1    3    3    0    0 -0.20668126177E-01  0.39039260461E-01  0.28392217539E-01  0.52512993009E-01  0.51100000000E-03 0.  1.
         11    1    3    3    0    0 -0.29975364831E-01  0.49315189833E-01  0.12582094211E-01  0.59068440480E-01  0.51100000000E-03 0. -1.
</event>
<event>
 8    1  0.1114686E+005  0.1043930E+01  0.7957747E-01            NaN
         13   -1    0    0    0    0  0.00000000000E+00  0.00000000000E+00  0.74505805969E-08  0.10566000000E+00  0.10566000000E+00 0.  1.
     999900   -1    0    0    0    0 -0.00000000000E+00 -0.00000000000E+00 -0.74505805969E-08  0.93827000000E+00  0.93827000000E+00 0. -1.
     999902    2    1    2    0    0 -0.15127152740E-01  0.96400831784E-02 -0.17275203515E-01  0.10190262932E+01  0.10187219403E+01 0.  0.
     999903    2    3    3    0    0 -0.12770711933E+00  0.77484546804E-02  0.21474677504E-01  0.13100637206E+00  0.18230767093E-01 0.  0.
         14    1    1    2    0    0  0.15127152740E-01 -0.96400831784E-02  0.17275203515E-01  0.24903706756E-01  0.00000000000E+00 0.  1.
     999901    1    3    3    0    0  0.11257996659E+00  0.18916284980E-02 -0.38749881020E-01  0.88801992118E+00  0.88000000000E+00 0.  1.
        -11    1    4    4    0    0 -0.11256152344E+00  0.36805492006E-02  0.23895781646E-01  0.11512998091E+00  0.51100000000E-03 0.  1.
         11    1    4    4    0    0 -0.15145595890E-01  0.40679054798E-02 -0.24211041413E-02  0.15876391156E-01  0.51100000000E-03 0. -1.
</event>
<event>
 8    1  0.1114686E+005  0.1043930E+01  0.7957747E-01            NaN
         13   -1    0    0    0    0  0.00000000000E+00  0.00000000000E+00  0.74505805969E-08  0.10566000000E+00  0.10566000000E+00 0.  1.
     999900   -1    0    0    0    0 -0.00000000000E+00 -0.00000000000E+00 -0.74505805969E-08  0.93827000000E+00  0.93827000000E+00 0.  1.
     999902    2    1    2    0    0 -0.17976220474E-01 -0.34242415745E-02 -0.15237170526E-01  0.10201173710E+01  0.10198394037E+01 0.  0.
     999903    2    3    3    0    0  0.96514317662E-01  0.11974610786E-01  0.79983221874E-01  0.12747403178E+00  0.19847120191E-01 0.  0.
         14    1    1    2    0    0  0.17976220474E-01  0.34242415745E-02  0.15237170526E-01  0.23812628971E-01  0.00000000000E+00 0.  1.
     999901    1    3    3    0    0 -0.11449053814E+00 -0.15398852360E-01 -0.95220392399E-01  0.89264333925E+00  0.88000000000E+00 0.  1.
        -11    1    4    4    0    0  0.25737189919E-01 -0.53881069738E-02  0.18964251964E-01  0.32424352195E-01  0.51100000000E-03 0.  1.
         11    1    4    4    0    0  0.70777127743E-01  0.17362717759E-01  0.61018969910E-01  0.95049679586E-01  0.51100000000E-03 0. -1.
</event>
<event>
 8    1  0.1114686E+005  0.1043930E+01  0.7957747E-01            NaN
         13   -1    0    0    0    0  0.00000000000E+00  0.00000000000E+00  0.74505805969E-08  0.10566000000E+00  0.10566000000E+00 0. -1.
     999900   -1    0    0    0    0 -0.00000000000E+00 -0.00000000000E+00 -0.74505805969E-08  0.93827000000E+00  0.93827000000E+00 0.  1.
     999902    2    1    2    0    0  0.17874828675E-01  0.12750533186E-01 -0.11627355647E-01  0.10190848597E+01  0.10187819542E+01 0.  0.
     999903    2    3    3    0    0  0.63911675642E-01  0.10309679610E+00  0.46403200993E-01  0.13136340339E+00  0.19734108547E-01 0.  0.
         14    1    1    2    0    0 -0.17874828675E-01 -0.12750533186E-01  0.11627355647E-01  0.24845140290E-01  0.00000000000E+00 0. -1.
     999901    1    3    3    0    0 -0.46036846967E-01 -0.90346262910E-01 -0.58030556640E-01  0.88772145632E+00  0.88000000000E+00 0.  1.
        -11    1    4    4    0    0  0.42007745945E-01  0.49854330709E-01  0.27600174817E-01  0.70796439040E-01  0.51100000000E-03 0. -1.
         11    1    4    4    0    0  0.21903929697E-01  0.53242465387E-01  0.18803026177E-01  0.60566964354E-01  0.51100000000E-03 0.  1.
</event>
<event>
 8    1  0.1114686E+005  0.1043930E+01  0.7957747E-01            NaN
         13   -1    0    0    0    0  0.00000000000E+00  0.00000000000E+00  0.74505805969E-08  0.10566000000E+00  0.10566000000E+00 0.  1.
     999900   -1    0    0    0    0 -0.00000000000E+00 -0.00000000000E+00 -0.74505805969E-08  0.93827000000E+00  0.93827000000E+00 0. -1.
     999902    2    1    2    0    0 -0.38611387559E-02  0.19506424534E-01  0.12534463979E-01  0.10204242182E+01  0.10201534509E+01 0.  0.
     999903    2    3    3    0    0  0.12087499128E+00  0.46435349311E-01 -0.69079997173E-02  0.13100739887E+00  0.18660463944E-01 0.  0.
         14    1    1    2    0    0  0.38611387559E-02 -0.19506424534E-01 -0.12534463979E-01  0.23505781796E-01  0.00000000000E+00 0. -1.
     999901    1    3    3    0    0 -0.12473613004E+00 -0.26928924777E-01  0.19442463697E-01  0.88941681934E+00  0.88000000000E+00 0.  1.
        -11    1    4    4    0    0  0.71884277720E-01  0.27525438355E-01 -0.13257001852E-01  0.78108951849E-01  0.51100000000E-03 0.  1.
         11    1    4    4    0    0  0.48990713563E-01  0.18909910956E-01  0.63490021345E-02  0.52898447017E-01  0.51100000000E-03 0. -1.
</event>
<event>
 8    1  0.1114686E+005  0.1043930E+01  0.7957747E-01            NaN
         13   -1    0    0    0    0  0.00000000000E+00  0.00000000000E+00  0.74505805969E-08  0.10566000000E+00  0.10566000000E+00 0. -1.
     999900   -1    0    0    0    0 -0.00000000000E+00 -0.00000000000E+00 -0.74505805969E-08  0.93827000000E+00  0.93827000000E+00 0. -1.
     999902    2    1    2    0    0  0.10630897366E-01 -0.19956318158E-01  0.57371536385E-02  0.10206022152E+01  0.10203355801E+01 0.  0.
     999903    2    3    3    0    0 -0.12482761190E-01 -0.10172517724E+00  0.83373562018E-01  0.13310697606E+00  0.16201395715E-01 0.  0.
         14    1    1    2    0    0 -0.10630897366E-01  0.19956318158E-01 -0.57371536385E-02  0.23327784831E-01  0.00000000000E+00 0.  1.
     999901    1    3    3    0    0  0.23113658556E-01  0.81768859077E-01 -0.77636408379E-01  0.88749523910E+00  0.88000000000E+00 0. -1.
        -11    1    4    4    0    0 -0.11520715193E-01 -0.32028170625E-01  0.28398266529E-01  0.44331177009E-01  0.51100000000E-03 0.  1.
         11    1    4    4    0    0 -0.96204599694E-03 -0.69697006610E-01  0.54975295489E-01  0.88775799055E-01  0.51100000000E-03 0. -1.
</event>
<event>
 8    1  0.1114686E+005  0.1043930E+01  0.7957747E-01            NaN
         13   -1    0    0    0    0  0.00000000000E+00  0.00000000000E+00  0.74505805969E-08  0.10566000000E+00  0.10566000000E+00 0.  1.
     999900   -1    0    0    0    0 -0.00000000000E+00 -0.00000000000E+00 -0.74505805969E-08  0.93827000000E+00  0.93827000000E+00 0.  1.
     999902    2    1    2    0    0  0.12992579871E-01  0.93972110072E-02 -0.22571418498E-01  0.10162427531E+01  0.10158655175E+01 0.  0.
     999903    2    3    3    0    0 -0.35228764939E-01 -0.13434232117E-01  0.11582445105E+00  0.12383029826E+00  0.22295623656E-01 0.  0.
         14    1    1    2    0    0 -0.12992579871E-01 -0.93972110072E-02  0.22571418498E-01  0.27687246873E-01  0.00000000000E+00 0.  1.
     999901    1    3    3    0    0  0.48221344810E-01  0.22831443124E-01 -0.13839586955E+00  0.89241245487E+00  0.88000000000E+00 0.  1.
        -11    1    4    4    0    0 -0.39780092518E-03 -0.33689970025E-02  0.35921385319E-01  0.36084836575E-01  0.51100000000E-03 0.  1.
         11    1    4    4    0    0 -0.34830964014E-01 -0.10065235115E-01  0.79903065733E-01  0.87745461687E-01  0.51100000000E-03 0. -1.
</event>
<event>
 8    1  0.1114686E+005  0.1043930E+01  0.7957747E-01            NaN
         13   -1    0    0    0    0  0.00000000000E+00  0.00000000000E+00  0.74505805969E-08  0.10566000000E+00  0.10566000000E+00 0.  1.
     999900   -1    0    0    0    0 -0.00000000000E+00 -0.00000000000E+00 -0.74505805969E-08  0.93827000000E+00  0.93827000000E+00 0. -1.
     999902    2    1    2    0    0 -0.16076448938E-01 -0.10791686702E-01 -0.12808960076E-01  0.10207140105E+01  0.10204499542E+01 0.  0.
     999903    2    3    3    0    0  0.11700593795E+00  0.46845695575E-01 -0.18786926446E-01  0.12882347591E+00  0.18911124503E-01 0.  0.
         14    1    1    2    0    0  0.16076448938E-01  0.10791686702E-01  0.12808960076E-01  0.23215989545E-01  0.00000000000E+00 0.  1.
     999901    1    3    3    0    0 -0.13308238689E+00 -0.57637382276E-01  0.59779663699E-02  0.89189053455E+00  0.88000000000E+00 0. -1.
        -11    1    4    4    0    0  0.76031830218E-01  0.26014362620E-01 -0.37118766953E-02  0.80446413334E-01  0.51100000000E-03 0.  1.
         11    1    4    4    0    0  0.40974107732E-01  0.20831332955E-01 -0.15075049751E-01  0.48377062572E-01  0.51100000000E-03 0. -1.
</event>
<event>
 8    1  0.1114686E+005  0.1043930E+01  0.7957747E-01            NaN
         13   -1    0    0    0    0  0.00000000000E+00  0.00000000000E+00  0.74505805969E-08  0.10566000000E+00  0.10566000000E+00 0.  1.
     999900   -1    0    0    0    0 -0.00000000000E+00 -0.00000000000E+00 -0.74505805969E-08  0.93827000000E+00  0.93827000000E+00 0.  1.
     999902    2    1    2    0    0 -0.21717636419E-01 -0.11965714895E-01  0.99608395097E-03  0.10191141533E+01  0.10188119705E+01 0.  0.
     999903    2    3    3    0    0 -0.12141671999E+00  0.23445005138E-01  0.40339242471E-01  0.13190408207E+00  0.21903064277E-01 0.  0.
         14    1    1    2    0    0  0.21717636419E-01  0.11965714895E-01 -0.99608395097E-03  0.24815846707E-01  0.00000000000E+00 0. -1.
     999901    1    3    3    0    0  0.99699083570E-01 -0.35410720032E-01 -0.39343158520E-01  0.88721007122E+00  0.88000000000E+00 0.  1.
        -11    1    4    4    0    0 -0.45855260375E-01  0.87361455730E-03  0.22321969656E-01  0.51009798635E-01  0.51100000000E-03 0. -1.
         11    1    4    4    0    0 -0.75561459613E-01  0.22571390580E-01  0.18017272815E-01  0.80894283434E-01  0.51100000000E-03 0.  1.
</event>
<event>
 8    1  0.1114686E+005  0.1043930E+01  0.7957747E-01            NaN
         13   -1    0    0    0    0  0.00000000000E+00  0.00000000000E+00  0.74505805969E-08  0.10566000000E+00  0.10566000000E+00 0.  1.
     999900   -1    0    0    0    0 -0.00000000000E+00 -0.00000000000E+00 -0.74505805969E-08  0.93827000000E+00  0.93827000000E+00 0.  1.
     999902    2    1    2    0    0  0.60433562301E-02 -0.22602195437E-01 -0.76080751044E-04  0.10205336930E+01  0.10202654710E+01 0.  0.
     999903    2    3    3    0    0 -0.93765803417E-01 -0.87518452288E-01  0.23879991744E-01  0.13219260864E+00  0.21286765632E-01 0.  0.
         14    1    1    2    0    0 -0.60433562301E-02  0.22602195437E-01  0.76080751044E-04  0.23396307003E-01  0.00000000000E+00 0. -1.
     999901    1    3    3    0    0  0.99809159647E-01  0.64916256851E-01 -0.23956072495E-01  0.88834108436E+00  0.88000000000E+00 0.  1.
        -11    1    4    4    0    0 -0.44904620676E-01 -0.38946150805E-01  0.53061072718E-03  0.59445523712E-01  0.51100000000E-03 0. -1.
         11    1    4    4    0    0 -0.48861182741E-01 -0.48572301483E-01  0.23349381017E-01  0.72747084925E-01  0.51100000000E-03 0.  1.
</event>
<event>
 8    1  0.1117459E+005  0.1043930E+01  0.7957747E-01            NaN
         13   -1    0    0    0    0  0.00000000000E+00  0.00000000000E+00  0.74505805969E-08  0.10566000000E+00  0.10566000000E+00 0. -1.
     999900   -1    0    0    0    0 -0.00000000000E+00 -0.00000000000E+00 -0.74505805969E-08  0.93827000000E+00  0.93827000000E+00 0.  1.
     999902    2    1    2    0    0  0.82384706277E-02  0.13873792349E-01 -0.16909473330E-01  0.10205572637E+01  0.10202895882E+01 0.  0.
     999903    2    3    3    0    0  0.21744054400E-01  0.78478060249E-01 -0.10373667990E+00  0.13382445390E+00  0.22717303184E-01 0.  0.
         14    1    1    2    0    0 -0.82384706277E-02 -0.13873792349E-01  0.16909473330E-01  0.23372736269E-01  0.00000000000E+00 0.  1.
     999901    1    3    3    0    0 -0.13505583772E-01 -0.64604267901E-01  0.86827206568E-01  0.88673280983E+00  0.88000000000E+00 0. -1.
        -11    1    4    4    0    0 -0.19820724825E-02  0.34492193211E-01 -0.41313214351E-01  0.53857987382E-01  0.51100000000E-03 0.  1.
         11    1    4    4    0    0  0.23726126882E-01  0.43985867038E-01 -0.62423465547E-01  0.79966466521E-01  0.51100000000E-03 0. -1.
</event>
<event>
 8    1  0.1114686E+005  0.1043930E+01  0.7957747E-01            NaN
         13   -1    0    0    0    0  0.00000000000E+00  0.00000000000E+00  0.74505805969E-08  0.10566000000E+00  0.10566000000E+00 0. -1.
     999900   -1    0    0    0    0 -0.00000000000E+00 -0.00000000000E+00 -0.74505805969E-08  0.93827000000E+00  0.93827000000E+00 0.  1.
     999902    2    1    2    0    0 -0.18625972788E-01  0.10362422976E-01 -0.81643618478E-02  0.10211053757E+01  0.10208502460E+01 0.  0.
     999903    2    3    3    0    0 -0.89545731381E-01 -0.78619432693E-01  0.52540366342E-01  0.13170532684E+00  0.19655783322E-01 0.  0.
         14    1    1    2    0    0  0.18625972788E-01 -0.10362422976E-01  0.81643618478E-02  0.22824624348E-01  0.00000000000E+00 0.  1.
     999901    1    3    3    0    0  0.70919758592E-01  0.88981855669E-01 -0.60704728190E-01  0.88940004881E+00  0.88000000000E+00 0.  1.
        -11    1    4    4    0    0 -0.79947544819E-01 -0.69627099941E-01  0.53015059424E-01  0.11853438579E+00  0.51100000000E-03 0. -1.
         11    1    4    4    0    0 -0.95981865618E-02 -0.89923327527E-02 -0.47469308212E-03  0.13170941050E-01  0.51100000000E-03 0.  1.
</event>
<event>
 8    1  0.1114686E+005  0.1043930E+01  0.7957747E-01            NaN
         13   -1    0    0    0    0  0.00000000000E+00  0.00000000000E+00  0.74505805969E-08  0.10566000000E+00  0.10566000000E+00 0.  1.
     999900   -1    0    0    0    0 -0.00000000000E+00 -0.00000000000E+00 -0.74505805969E-08  0.93827000000E+00  0.93827000000E+00 0.  1.
     999902    2    1    2    0    0 -0.20757547291E-01  0.72716350377E-02  0.97402004174E-02  0.10198753965E+01  0.10195916832E+01 0.  0.
     999903    2    3    3    0    0  0.45052783805E-02  0.10306297878E+00  0.79132201284E-01  0.13160210427E+00  0.20369915069E-01 0.  0.
         14    1    1    2    0    0  0.20757547291E-01 -0.72716350377E-02 -0.97402004174E-02  0.24054603506E-01  0.00000000000E+00 0. -1.
     999901    1    3    3    0    0 -0.25262825672E-01 -0.95791343740E-01 -0.69392000867E-01  0.88827329223E+00  0.88000000000E+00 0.  1.
        -11    1    4    4    0    0 -0.81553387358E-02  0.42617544147E-01  0.32777072611E-01  0.54381635034E-01  0.51100000000E-03 0. -1.
         11    1    4    4    0    0  0.12660617116E-01  0.60445434631E-01  0.46355128673E-01  0.77220469234E-01  0.51100000000E-03 0.  1.
</event>
<event>
 7    1  0.1273938E+005  0.1043930E+01  0.7957747E-01            NaN
         13   -1    0    0    0    0  0.00000000000E+00  0.00000000000E+00  0.74505805969E-08  0.10566000000E+00  0.10566000000E+00 0.  1.
     999900   -1    0    0    0    0 -0.00000000000E+00 -0.00000000000E+00 -0.74505805969E-08  0.93827000000E+00  0.93827000000E+00 0. -1.
     999903    2    1    2    0    0 -0.49869209814E-01  0.15817604922E-01 -0.86998033924E-01  0.10353827605E+00  0.20356374638E-01 0.  0.
         14    1    1    2    0    0 -0.93995975540E-02  0.48317005760E-01  0.21295624461E-01  0.53631978343E-01  0.00000000000E+00 0.  1.
     999901    1    1    2    0    0  0.59268807368E-01 -0.64134610682E-01  0.65702409462E-01  0.88675974560E+00  0.88000000000E+00 0.  1.
        -11    1    3    3    0    0 -0.33646129768E-01  0.17486123340E-01 -0.47349100323E-01  0.60663209446E-01  0.51100000000E-03 0. -1.
         11    1    3    3    0    0 -0.16223080046E-01 -0.16685184183E-02 -0.39648933601E-01  0.42875066607E-01  0.51100000000E-03 0.  1.
</event>
<event>
 8    1  0.1114686E+005  0.1043930E+01  0.7957747E-01            NaN
         13   -1    0    0    0    0  0.00000000000E+00  0.00000000000E+00  0.74505805969E-08  0.10566000000E+00  0.10566000000E+00 0. -1.
     999900   -1    0    0    0    0 -0.00000000000E+00 -0.00000000000E+00 -0.74505805969E-08  0.93827000000E+00  0.93827000000E+00 0.  1.
     999902    2    1    2    0    0 -0.48136982867E-02 -0.20791647152E-01  0.85442339188E-02  0.10209415634E+01  0.10206827165E+01 0.  0.
     999903    2    3    3    0    0  0.27422652208E-01 -0.10132418569E+00  0.80448488606E-01  0.13375787676E+00  0.20015439479E-01 0.  0.
         14    1    1    2    0    0  0.48136982867E-02  0.20791647152E-01 -0.85442339188E-02  0.22988436566E-01  0.00000000000E+00 0.  1.
     999901    1    3    3    0    0 -0.32236350494E-01  0.80532538535E-01 -0.71904254687E-01  0.88718368667E+00  0.88000000000E+00 0.  1.
        -11    1    4    4    0    0  0.62752065618E-02 -0.45433169196E-01  0.25010089445E-01  0.52242863394E-01  0.51100000000E-03 0.  1.
         11    1    4    4    0    0  0.21147445646E-01 -0.55891016491E-01  0.55438399161E-01  0.81515013367E-01  0.51100000000E-03 0. -1.
</event>
<event>
 8    1  0.1114686E+005  0.1043930E+01  0.7957747E-01            NaN
         13   -1    0    0    0    0  0.00000000000E+00  0.00000000000E+00  0.74505805969E-08  0.10566000000E+00  0.10566000000E+00 0. -1.
     999900   -1    0    0    0    0 -0.00000000000E+00 -0.00000000000E+00 -0.74505805969E-08  0.93827000000E+00  0.93827000000E+00 0.  1.
     999902    2    1    2    0    0 -0.41797501919E-02 -0.70958311484E-02 -0.20583993988E-01  0.10217597059E+01  0.10215191504E+01 0.  0.
     999903    2    3    3    0    0  0.29369056146E-01 -0.12083653316E+00 -0.43170484015E-01  0.13351839904E+00  0.22348668575E-01 0.  0.
         14    1    1    2    0    0  0.41797501919E-02  0.70958311484E-02  0.20583993988E-01  0.22170294086E-01  0.00000000000E+00 0. -1.
     999901    1    3    3    0    0 -0.33548806338E-01  0.11374070201E+00  0.22586490027E-01  0.88824130687E+00  0.88000000000E+00 0. -1.
        -11    1    4    4    0    0  0.56370494674E-02 -0.36789841679E-02 -0.14153876706E-02  0.68975136436E-02  0.51100000000E-03 0. -1.
         11    1    4    4    0    0  0.23732006679E-01 -0.11715754899E+00 -0.41755096344E-01  0.12662088540E+00  0.51100000000E-03 0.  1.
</event>
<event>
 8    1  0.1114686E+005  0.1043930E+01  0.7957747E-01            NaN
         13   -1    0    0    0    0  0.00000000000E+00  0.00000000000E+00  0.74505805969E-08  0.10566000000E+00  0.10566000000E+00 0. -1.
     999900   -1    0    0    0    0 -0.00000000000E+00 -0.00000000000E+00 -0.74505805969E-08  0.93827000000E+00  0.93827000000E+00 0. -1.
     999902    2    1    2    0    0 -0.15983180855E-01 -0.57332442508E-02 -0.16682160500E-01  0.10201260793E+01  0.10198483177E+01 0.  0.
     999903    2    3    3    0    0 -0.52351948700E-01 -0.90898744644E-01  0.75082987468E-01  0.13052128387E+00  0.19875669214E-01 0.  0.
         14    1    1    2    0    0  0.15983180855E-01  0.57332442508E-02  0.16682160500E-01  0.23803920661E-01  0.00000000000E+00 0.  1.
     999901    1    3    3    0    0  0.36368767845E-01  0.85165500393E-01 -0.91765147967E-01  0.88960479546E+00  0.88000000000E+00 0. -1.
        -11    1    4    4    0    0 -0.16143696756E-01 -0.14098862802E-01  0.19930011198E-01  0.29272228214E-01  0.51100000000E-03 0. -1.
         11    1    4    4    0    0 -0.36208251944E-01 -0.76799881842E-01  0.55152976270E-01  0.10124905566E+00  0.51100000000E-03 0.  1.
</event>
<event>
 8    1  0.1114686E+005  0.1043930E+01  0.7957747E-01            NaN
         13   -1    0    0    0    0  0.00000000000E+00  0.00000000000E+00  0.74505805969E-08  0.10566000000E+00  0.10566000000E+00 0. -1.
     999900   -1    0    0    0    0 -0.00000000000E+00 -0.00000000000E+00 -0.74505805969E-08  0.93827000000E+00  0.93827000000E+00 0. -1.
     999902    2    1    2    0    0 -0.77143720705E-02  0.73427254695E-02  0.20938665885E-01  0.10204384083E+01  0.10201679715E+01 0.  0.
     999903    2    3    3    0    0  0.10699245384E+00 -0.48065399790E-02  0.73101708643E-01  0.13137921810E+00  0.21122290092E-01 0.  0.
         14    1    1    2    0    0  0.77143720705E-02 -0.73427254695E-02 -0.20938665885E-01  0.23491591747E-01  0.00000000000E+00 0.  1.
     999901    1    3    3    0    0 -0.11470682591E+00  0.12149265448E-01 -0.52163042758E-01  0.88905919015E+00  0.88000000000E+00 0. -1.
        -11    1    4    4    0    0  0.41523687021E-01  0.37766701604E-02  0.18164586332E-01  0.45482888419E-01  0.51100000000E-03 0. -1.
         11    1    4    4    0    0  0.65468766814E-01 -0.85832101394E-02  0.54937122311E-01  0.85896329684E-01  0.51100000000E-03 0.  1.
</event>
<event>
 8    1  0.1114686E+005  0.1043930E+01  0.7957747E-01            NaN
         13   -1    0    0    0    0  0.00000000000E+00  0.00000000000E+00  0.74505805969E-08  0.10566000000E+00  0.10566000000E+00 0. -1.
     999900   -1    0    0    0    0 -0.00000000000E+00 -0.00000000000E+00 -0.74505805969E-08  0.93827000000E+00  0.93827000000E+00 0. -1.
     999902    2    1    2    0    0 -0.23307661448E-01 -0.51046959601E-02  0.40529219141E-02  0.10197281162E+01  0.10194408761E+01 0.  0.
     999903    2    3    3    0    0  0.70277839301E-01 -0.55454247384E-01  0.90890174816E-01  0.12909124757E+00  0.19732665112E-01 0.  0.
         14    1    1    2    0    0  0.23307661448E-01  0.51046959601E-02 -0.40529219141E-02  0.24201883792E-01  0.00000000000E+00 0.  1.
     999901    1    3    3    0    0 -0.93585500749E-01  0.50349551424E-01 -0.86837252902E-01  0.89063686863E+00  0.88000000000E+00 0.  1.
        -11    1    4    4    0    0  0.24074069508E-01 -0.78461741049E-02  0.24870627618E-01  0.35495528026E-01  0.51100000000E-03 0.  1.
         11    1    4    4    0    0  0.46203769793E-01 -0.47608073279E-01  0.66019547198E-01  0.93595719548E-01  0.51100000000E-03 0. -1.
</event>
<event>
 8    1  0.1114686E+005  0.1043930E+01  0.7957747E-01            NaN
         13   -1    0    0    0    0  0.00000000000E+00  0.00000000000E+00  0.74505805969E-08  0.10566000000E+00  0.10566000000E+00 0.  1.
     999900   -1    0    0    0    0 -0.00000000000E+00 -0.00000000000E+00 -0.74505805969E-08  0.93827000000E+00  0.93827000000E+00 0. -1.
     999902    2    1    2    0    0 -0.23696777126E-01  0.49556278288E-02 -0.82165922839E-02  0.10183642440E+01  0.10180432827E+01 0.  0.
     999903    2    3    3    0    0 -0.40045728054E-01  0.11383415536E+00 -0.45907822763E-01  0.13070301871E+00  0.20343933900E-01 0.  0.
         14    1    1    2    0    0  0.23696777126E-01 -0.49556278288E-02  0.82165922839E-02  0.25565756044E-01  0.00000000000E+00 0.  1.
     999901    1    3    3    0    0  0.16348950928E-01 -0.10887852753E+00  0.37691230479E-01  0.88766122525E+00  0.88000000000E+00 0.  1.
        -11    1    4    4    0    0 -0.19734529761E-01  0.58354362885E-01 -0.34238669730E-01  0.70478585106E-01  0.51100000000E-03 0. -1.
         11    1    4    4    0    0 -0.20311198293E-01  0.55479792476E-01 -0.11669153033E-01  0.60224433602E-01  0.51100000000E-03 0.  1.
</event>
<event>
 8    1  0.1114686E+005  0.1043930E+01  0.7957747E-01            NaN
         13   -1    0    0    0    0  0.00000000000E+00  0.00000000000E+00  0.74505805969E-08  0.10566000000E+00  0.10566000000E+00 0. -1.
     999900   -1    0    0    0    0 -0.00000000000E+00 -0.00000000000E+00 -0.74505805969E-08  0.93827000000E+00  0.93827000000E+00 0.  1.
     999902    2    1    2    0    0 -0.99377396028E-02  0.10628680127E-01  0.18097071899E-01  0.10207086408E+01  0.10204444610E+01 0.  0.
     999903    2    3    3    0    0 -0.11557674106E+00  0.62015696675E-01 -0.18388879502E-02  0.13267842368E+00  0.19906101952E-01 0.  0.
         14    1    1    2    0    0  0.99377396028E-02 -0.10628680127E-01 -0.18097071899E-01  0.23221359155E-01  0.00000000000E+00 0.  1.
     999901    1    3    3    0    0  0.10563900145E+00 -0.51387016548E-01  0.19935959850E-01  0.88803021716E+00  0.88000000000E+00 0.  1.
        -11    1    4    4    0    0 -0.44031746840E-01  0.20149830626E-01 -0.97785630546E-02  0.49403358393E-01  0.51100000000E-03 0.  1.
         11    1    4    4    0    0 -0.71544994216E-01  0.41865866048E-01  0.79396751044E-02  0.83275065290E-01  0.51100000000E-03 0. -1.
</event>
<event>
 8    1  0.1114686E+005  0.1043930E+01  0.7957747E-01            NaN
         13   -1    0    0    0    0  0.00000000000E+00  0.00000000000E+00  0.74505805969E-08  0.10566000000E+00  0.10566000000E+00 0.  1.
     999900   -1    0    0    0    0 -0.00000000000E+00 -0.00000000000E+00 -0.74505805969E-08  0.93827000000E+00  0.93827000000E+00 0. -1.
     999902    2    1    2    0    0 -0.98595675878E-02  0.25516376059E-02 -0.21265220408E-01  0.10203517998E+01  0.10200793419E+01 0.  0.
     999903    2    3    3    0    0  0.97822397402E-01 -0.46142012749E-01  0.65905971835E-01  0.12818292902E+00  0.19722053486E-01 0.  0.
         14    1    1    2    0    0  0.98595675878E-02 -0.25516376059E-02  0.21265220408E-01  0.23578200239E-01  0.00000000000E+00 0.  1.
     999901    1    3    3    0    0 -0.10768196499E+00  0.48693650355E-01 -0.87171192243E-01  0.89216887074E+00  0.88000000000E+00 0. -1.
        -11    1    4    4    0    0  0.55109456438E-01 -0.26441160778E-01  0.25729882697E-01  0.66321000873E-01  0.51100000000E-03 0.  1.
         11    1    4    4    0    0  0.42712940964E-01 -0.19700851971E-01  0.40176089139E-01  0.61861928143E-01  0.51100000000E-03 0. -1.
</event>
<event>
 8    1  0.1116399E+005  0.1043930E+01  0.7957747E-01            NaN
         13   -1    0    0    0    0  0.00000000000E+00  0.00000000000E+00  0.74505805969E-08  0.10566000000E+00  0.10566000000E+00 0.  1.
     999900   -1    0    0    0    0 -0.00000000000E+00 -0.00000000000E+00 -0.74505805969E-08  0.93827000000E+00  0.93827000000E+00 0. -1.
     999902    2    1    2    0    0 -0.11401476546E-01 -0.21158697137E-01 -0.13083662339E-02  0.10198593549E+01  0.10195752586E+01 0.  0.
     999903    2    3    3    0    0 -0.96851605024E-01 -0.75517841907E-01  0.46372138967E-01  0.13276856383E+00  0.19847882169E-01 0.  0.
         14    1    1    2    0    0  0.11401476546E-01  0.21158697137E-01  0.13083662339E-02  0.24070645072E-01  0.00000000000E+00 0. -1.
     999901    1    3    3    0    0  0.85450128479E-01  0.54359144770E-01 -0.47680505201E-01  0.88709079110E+00  0.88000000000E+00 0. -1.
        -11    1    4    4    0    0 -0.66477293361E-01 -0.58349504641E-01  0.40882698690E-01  0.97445119927E-01  0.51100000000E-03 0. -1.
         11    1    4    4    0    0 -0.30374311663E-01 -0.17168337267E-01  0.54894402777E-02  0.35323443902E-01  0.51100000000E-03 0.  1.
</event>
<event>
 8    1  0.1114686E+005  0.1043930E+01  0.7957747E-01            NaN
         13   -1    0    0    0    0  0.00000000000E+00  0.00000000000E+00  0.74505805969E-08  0.10566000000E+00  0.10566000000E+00 0.  1.
     999900   -1    0    0    0    0 -0.00000000000E+00 -0.00000000000E+00 -0.74505805969E-08  0.93827000000E+00  0.93827000000E+00 0.  1.
     999902    2    1    2    0    0  0.19260855823E-01  0.14422881718E-02 -0.17239726244E-01  0.10180404476E+01  0.10177111987E+01 0.  0.
     999903    2    3    3    0    0  0.83206003676E-01  0.93046827834E-01  0.29385841097E-01  0.12975315334E+00  0.19783880493E-01 0.  0.
         14    1    1    2    0    0 -0.19260855823E-01 -0.14422881718E-02  0.17239726244E-01  0.25889552394E-01  0.00000000000E+00 0.  1.
     999901    1    3    3    0    0 -0.63945147853E-01 -0.91604539663E-01 -0.46625567341E-01  0.88828729426E+00  0.88000000000E+00 0.  1.
        -11    1    4    4    0    0  0.55483915606E-01  0.48112253173E-01  0.14070068383E-01  0.74776211067E-01  0.51100000000E-03 0.  1.
         11    1    4    4    0    0  0.27722088071E-01  0.44934574662E-01  0.15315772714E-01  0.54976942275E-01  0.51100000000E-03 0. -1.
</event>
<event>
 8    1  0.1114686E+005  0.1043930E+01  0.7957747E-01            NaN
         13   -1    0    0    0    0  0.00000000000E+00  0.00000000000E+00  0.74505805969E-08  0.10566000000E+00  0.10566000000E+00 0. -1.
     999900   -1    0    0    0    0 -0.00000000000E+00 -0.00000000000E+00 -0.74505805969E-08  0.93827000000E+00  0.93827000000E+00 0. -1.
     999902    2    1    2    0    0  0.71966940141E-02  0.19042761367E-01 -0.95233853014E-02  0.10214552579E+01  0.10212079758E+01 0.  0.
     999903    2    3    3    0    0  0.87298005522E-01  0.92574374159E-01  0.35079116878E-01  0.13364193214E+00  0.20944332542E-01 0.  0.
         14    1    1    2    0    0 -0.71966940141E-02 -0.19042761367E-01  0.95233853014E-02  0.22474742108E-01  0.00000000000E+00 0. -1.
     999901    1    3    3    0    0 -0.80101311508E-01 -0.73531612793E-01 -0.44602502180E-01  0.88781332575E+00  0.88000000000E+00 0.  1.
        -11    1    4    4    0    0  0.25768555343E-01  0.28416489946E-01  0.20697437181E-01  0.43590828992E-01  0.51100000000E-03 0.  1.
         11    1    4    4    0    0  0.61529450180E-01  0.64157884213E-01  0.14381679697E-01  0.90051103147E-01  0.51100000000E-03 0. -1.
</event>
<event>
 8    1  0.1114686E+005  0.1043930E+01  0.7957747E-01            NaN
         13   -1    0    0    0    0  0.00000000000E+00  0.00000000000E+00  0.74505805969E-08  0.10566000000E+00  0.10566000000E+00 0. -1.
     999900   -1    0    0    0    0 -0.00000000000E+00 -0.00000000000E+00 -0.74505805969E-08  0.93827000000E+00  0.93827000000E+00 0.  1.
     999902    2    1    2    0    0  0.21215613485E-01 -0.94333425786E-02 -0.57792179560E-02  0.10200032458E+01  0.10197225759E+01 0.  0.
     999903    2    3    3    0    0 -0.26439222959E-01 -0.41490959454E-01  0.11806337978E+00  0.12947774740E+00  0.20124442843E-01 0.  0.
         14    1    1    2    0    0 -0.21215613485E-01  0.94333425786E-02  0.57792179560E-02  0.23926754229E-01  0.00000000000E+00 0. -1.
     999901    1    3    3    0    0  0.47654836444E-01  0.32057616875E-01 -0.12384259773E+00  0.89052549837E+00  0.88000000000E+00 0.  1.
        -11    1    4    4    0    0 -0.54717132233E-02 -0.66373844516E-02  0.45333744769E-01  0.46145466232E-01  0.51100000000E-03 0.  1.
         11    1    4    4    0    0 -0.20967509736E-01 -0.34853575002E-01  0.72729635009E-01  0.83332281167E-01  0.51100000000E-03 0. -1.
</event>
<event>
 8    1  0.1114686E+005  0.1043930E+01  0.7957747E-01            NaN
         13   -1    0    0    0    0  0.00000000000E+00  0.00000000000E+00  0.74505805969E-08  0.10566000000E+00  0.10566000000E+00 0.  1.
     999900   -1    0    0    0    0 -0.00000000000E+00 -0.00000000000E+00 -0.74505805969E-08  0.93827000000E+00  0.93827000000E+00 0.  1.
     999902    2    1    2    0    0  0.13820786227E-01  0.17421344669E-01  0.68352278846E-03  0.10216817510E+01  0.10214394821E+01 0.  0.
     999903    2    3    3    0    0 -0.24480926280E-01 -0.25042843173E-01  0.12479734432E+00  0.13113446466E+00  0.19884942253E-01 0.  0.
         14    1    1    2    0    0 -0.13820786227E-01 -0.17421344669E-01 -0.68352278846E-03  0.22248249042E-01  0.00000000000E+00 0. -1.
     999901    1    3    3    0    0  0.38301712507E-01  0.42464187842E-01 -0.12411382153E+00  0.89054728629E+00  0.88000000000E+00 0.  1.
        -11    1    4    4    0    0 -0.17803557465E-01 -0.26380501218E-01  0.85181354875E-01  0.90934162130E-01  0.51100000000E-03 0.  1.
         11    1    4    4    0    0 -0.66773688149E-02  0.13376580459E-02  0.39615989443E-01  0.40200302535E-01  0.51100000000E-03 0. -1.
</event>
<event>
 8    1  0.1114686E+005  0.1043930E+01  0.7957747E-01            NaN
         13   -1    0    0    0    0  0.00000000000E+00  0.00000000000E+00  0.74505805969E-08  0.10566000000E+00  0.10566000000E+00 0. -1.
     999900   -1    0    0    0    0 -0.00000000000E+00 -0.00000000000E+00 -0.74505805969E-08  0.93827000000E+00  0.93827000000E+00 0.  1.
     999902    2    1    2    0    0  0.21362736583E-01  0.11409233961E-01  0.30352010207E-03  0.10197095694E+01  0.10194218836E+01 0.  0.
     999903    2    3    3    0    0 -0.25514087443E-01 -0.80086825095E-01 -0.95277226504E-01  0.12858407623E+00  0.19779953453E-01 0.  0.
         14    1    1    2    0    0 -0.21362736583E-01 -0.11409233961E-01 -0.30352010207E-03  0.24220430598E-01  0.00000000000E+00 0. -1.
     999901    1    3    3    0    0  0.46876824026E-01  0.91496059056E-01  0.95580746606E-01  0.89112549317E+00  0.88000000000E+00 0. -1.
        -11    1    4    4    0    0 -0.28559254856E-01 -0.65961242046E-01 -0.78606969139E-01  0.10651682125E+00  0.51100000000E-03 0. -1.
         11    1    4    4    0    0  0.30451674127E-02 -0.14125583049E-01 -0.16670257365E-01  0.22067254988E-01  0.51100000000E-03 0.  1.
</event>
<event>
 8    1  0.1114686E+005  0.1043930E+01  0.7957747E-01            NaN
         13   -1    0    0    0    0  0.00000000000E+00  0.00000000000E+00  0.74505805969E-08  0.10566000000E+00  0.10566000000E+00 0. -1.
     999900   -1    0    0    0    0 -0.00000000000E+00 -0.00000000000E+00 -0.74505805969E-08  0.93827000000E+00  0.93827000000E+00 0.  1.
     999902    2    1    2    0    0 -0.11118135285E-01 -0.16848538338E-01 -0.12746775902E-01  0.10200560294E+01  0.10197766111E+01 0.  0.
     999903    2    3    3    0    0 -0.92368419543E-02 -0.72235695480E-01  0.10666046602E+00  0.13026427519E+00  0.17000336133E-01 0.  0.
         14    1    1    2    0    0  0.11118135285E-01  0.16848538338E-01  0.12746775902E-01  0.23873970600E-01  0.00000000000E+00 0. -1.
     999901    1    3    3    0    0 -0.18812933305E-02  0.55387157143E-01 -0.11940724192E+00  0.88979175421E+00  0.88000000000E+00 0.  1.
        -11    1    4    4    0    0 -0.77034640762E-02 -0.72691157830E-01  0.10442382404E+00  0.12746742303E+00  0.51100000000E-03 0.  1.
         11    1    4    4    0    0 -0.15333778781E-02  0.45546235023E-03  0.22366419774E-02  0.27968521599E-02  0.51100000000E-03 0. -1.
</event>
<event>
 8    1  0.1114686E+005  0.1043930E+01  0.7957747E-01            NaN
         13   -1    0    0    0    0  0.00000000000E+00  0.00000000000E+00  0.74505805969E-08  0.10566000000E+00  0.10566000000E+00 0. -1.
     999900   -1    0    0    0    0 -0.00000000000E+00 -0.00000000000E+00 -0.74505805969E-08  0.93827000000E+00  0.93827000000E+00 0. -1.
     999902    2    1    2    0    0  0.54307226288E-02  0.18598473657E-01 -0.14718891014E-01  0.10195980925E+01  0.10193077202E+01 0.  0.
     999903    2    3    3    0    0  0.46140330462E-01  0.58784457243E-01 -0.10797095096E+00  0.13282408964E+00  0.19999250693E-01 0.  0.
         14    1    1    2    0    0 -0.54307226288E-02 -0.18598473657E-01  0.14718891014E-01  0.24331907514E-01  0.00000000000E+00 0. -1.
     999901    1    3    3    0    0 -0.40709607834E-01 -0.40185983586E-01  0.93252059944E-01  0.88677400285E+00  0.88000000000E+00 0.  1.
        -11    1    4    4    0    0  0.28631962107E-01  0.34467521984E-01 -0.80689344620E-01  0.92297512329E-01  0.51100000000E-03 0.  1.
         11    1    4    4    0    0  0.17508368355E-01  0.24316935259E-01 -0.27281606337E-01  0.40526577307E-01  0.51100000000E-03 0. -1.
</event>
<event>
 8    1  0.1114686E+005  0.1043930E+01  0.7957747E-01            NaN
         13   -1    0    0    0    0  0.00000000000E+00  0.00000000000E+00  0.74505805969E-08  0.10566000000E+00  0.10566000000E+00 0.  1.
     999900   -1    0    0    0    0 -0.00000000000E+00 -0.00000000000E+00 -0.74505805969E-08  0.93827000000E+00  0.93827000000E+00 0.  1.
     999902    2    1    2    0    0 -0.13424233983E-02  0.21363006908E-01 -0.95446852834E-02  0.10204932515E+01  0.10202240906E+01 0.  0.
     999903    2    3    3    0    0 -0.96303099034E-01  0.36209993499E-01 -0.80874853830E-01  0.13239080474E+00  0.20028297131E-01 0.  0.
         14    1    1    2    0    0  0.13424233983E-02 -0.21363006908E-01  0.95446852834E-02  0.23436748535E-01  0.00000000000E+00 0. -1.
     999901    1    3    3    0    0  0.94960675635E-01 -0.14846986591E-01  0.71330168547E-01  0.88810244672E+00  0.88000000000E+00 0. -1.
        -11    1    4    4    0    0 -0.47978880200E-01  0.86225147577E-02 -0.43694278392E-01  0.65465806275E-01  0.51100000000E-03 0. -1.
         11    1    4    4    0    0 -0.48324218833E-01  0.27587478741E-01 -0.37180575438E-01  0.66924998469E-01  0.51100000000E-03 0.  1.
</event>
<event>
 8    1  0.1114686E+005  0.1043930E+01  0.7957747E-01            NaN
         13   -1    0    0    0    0  0.00000000000E+00  0.00000000000E+00  0.74505805969E-08  0.10566000000E+00  0.10566000000E+00 0. -1.
     999900   -1    0    0    0    0 -0.00000000000E+00 -0.00000000000E+00 -0.74505805969E-08  0.93827000000E+00  0.93827000000E+00 0.  1.
     999902    2    1    2    0    0 -0.14039467296E-01  0.19380996698E-01 -0.41770020743E-02  0.10196364407E+01  0.10193469940E+01 0.  0.
     999903    2    3    3    0    0  0.60140592253E-02 -0.14250151355E-01  0.12534398759E+00  0.12929443634E+00  0.27689353960E-01 0.  0.
         14    1    1    2    0    0  0.14039467296E-01 -0.19380996698E-01  0.41770020743E-02  0.24293559255E-01  0.00000000000E+00 0.  1.
     999901    1    3    3    0    0 -0.20053526521E-01  0.33631148053E-01 -0.12952098966E+00  0.89034200440E+00  0.88000000000E+00 0.  1.
        -11    1    4    4    0    0  0.70072004817E-02 -0.79200236398E-02  0.12995485475E-01  0.16762201430E-01  0.51100000000E-03 0.  1.
         11    1    4    4    0    0 -0.99314125645E-03 -0.63301277155E-02  0.11234850211E+00  0.11253223491E+00  0.51100000000E-03 0. -1.
</event>
<event>
 8    1  0.1114686E+005  0.1043930E+01  0.7957747E-01            NaN
         13   -1    0    0    0    0  0.00000000000E+00  0.00000000000E+00  0.74505805969E-08  0.10566000000E+00  0.10566000000E+00 0. -1.
     999900   -1    0    0    0    0 -0.00000000000E+00 -0.00000000000E+00 -0.74505805969E-08  0.93827000000E+00  0.93827000000E+00 0. -1.
     999902    2    1    2    0    0  0.23353527376E-01  0.31175871516E-02  0.63828753312E-02  0.10195200084E+01  0.10192277468E+01 0.  0.
     999903    2    3    3    0    0  0.36163415020E-01 -0.28241472272E-02  0.12473550918E+00  0.13148468067E+00  0.20334837260E-01 0.  0.
         14    1    1    2    0    0 -0.23353527376E-01 -0.31175871516E-02 -0.63828753312E-02  0.24409991561E-01  0.00000000000E+00 0.  1.
     999901    1    3    3    0    0 -0.12809887644E-01  0.59417343788E-02 -0.11835263385E+00  0.88803532777E+00  0.88000000000E+00 0. -1.
        -11    1    4    4    0    0  0.31335792060E-01 -0.90048497795E-02  0.11065256692E+00  0.11535714486E+00  0.51100000000E-03 0.  1.
         11    1    4    4    0    0  0.48276229601E-02  0.61807025523E-02  0.14082942261E-01  0.16127535807E-01  0.51100000000E-03 0. -1.
</event>
<event>
 8    1  0.1114686E+005  0.1043930E+01  0.7957747E-01            NaN
         13   -1    0    0    0    0  0.00000000000E+00  0.00000000000E+00  0.74505805969E-08  0.10566000000E+00  0.10566000000E+00 0. -1.
     999900   -1    0    0    0    0 -0.00000000000E+00 -0.00000000000E+00 -0.74505805969E-08  0.93827000000E+00  0.93827000000E+00 0. -1.
     999902    2    1    2    0    0 -0.18266268641E-01  0.83315321250E-02 -0.12386105162E-01  0.10203400318E+01  0.10200672987E+01 0.  0.
     999903    2    3    3    0    0  0.27008808193E-01  0.11419971317E+00  0.52909150199E-01  0.13044038876E+00  0.21077633609E-01 0.  0.
         14    1    1    2    0    0  0.18266268641E-01 -0.83315321250E-02  0.12386105162E-01  0.23589968179E-01  0.00000000000E+00 0. -1.
     999901    1    3    3    0    0 -0.45275076834E-01 -0.10586818104E+00 -0.65295255361E-01  0.88989964306E+00  0.88000000000E+00 0. -1.
        -11    1    4    4    0    0  0.15184730046E-02  0.33358615505E-01  0.73101532007E-02  0.34187752917E-01  0.51100000000E-03 0.  1.
         11    1    4    4    0    0  0.25490335189E-01  0.80841097663E-01  0.45598996998E-01  0.96252635848E-01  0.51100000000E-03 0. -1.
</event>
<event>
 8    1  0.1114686E+005  0.1043930E+01  0.7957747E-01            NaN
         13   -1    0    0    0    0  0.00000000000E+00  0.00000000000E+00  0.74505805969E-08  0.10566000000E+00  0.10566000000E+00 0.  1.
     999900   -1    0    0    0    0 -0.00000000000E+00 -0.00000000000E+00 -0.74505805969E-08  0.93827000000E+00  0.93827000000E+00 0.  1.
     999902    2    1    2    0    0 -0.90859860141E-02  0.99126000811E-02 -0.12082889835E-01  0.10258520850E+01  0.10256927851E+01 0.  0.
     999903    2    3    3    0    0 -0.43040156954E-03  0.68649952169E-01  0.11444227990E+00  0.13482256015E+00  0.19159491591E-01 0.  0.
         14    1    1    2    0    0  0.90859860141E-02 -0.99126000811E-02  0.12082889835E-01  0.18077914951E-01  0.00000000000E+00 0.  1.
     999901    1    3    3    0    0 -0.86555844446E-02 -0.58737352088E-01 -0.12652516973E+00  0.89102952490E+00  0.88000000000E+00 0.  1.
        -11    1    4    4    0    0 -0.68254331993E-02  0.59357363867E-01  0.92012793269E-01  0.10971097680E+00  0.51100000000E-03 0.  1.
         11    1    4    4    0    0  0.63950316297E-02  0.92925883015E-02  0.22429486629E-01  0.25111583350E-01  0.51100000000E-03 0. -1.
</event>
<event>
 8    1  0.1114686E+005  0.1043930E+01  0.7957747E-01            NaN
         13   -1    0    0    0    0  0.00000000000E+00  0.00000000000E+00  0.74505805969E-08  0.10566000000E+00  0.10566000000E+00 0.  1.
     999900   -1    0    0    0    0 -0.00000000000E+00 -0.00000000000E+00 -0.74505805969E-08  0.93827000000E+00  0.93827000000E+00 0. -1.
     999902    2    1    2    0    0  0.18909773380E-02  0.21293548466E-01  0.10961691092E-01  0.10199060604E+01  0.10196230786E+01 0.  0.
     999903    2    3    3    0    0 -0.27339028841E-01 -0.88351154090E-01 -0.85281702374E-01  0.12741564319E+00  0.20209612607E-01 0.  0.
         14    1    1    2    0    0 -0.18909773380E-02 -0.21293548466E-01 -0.10961691092E-01  0.24023939585E-01  0.00000000000E+00 0. -1.
     999901    1    3    3    0    0  0.29230006179E-01  0.10964470256E+00  0.96243393466E-01  0.89249041723E+00  0.88000000000E+00 0. -1.
        -11    1    4    4    0    0 -0.51114992795E-02 -0.15147733807E-01 -0.55875956874E-02  0.16942951660E-01  0.51100000000E-03 0.  1.
         11    1    4    4    0    0 -0.22227529561E-01 -0.73203420283E-01 -0.79694106687E-01  0.11047269153E+00  0.51100000000E-03 0. -1.
</event>
<event>
 8    1  0.1114686E+005  0.1043930E+01  0.7957747E-01            NaN
         13   -1    0    0    0    0  0.00000000000E+00  0.00000000000E+00  0.74505805969E-08  0.10566000000E+00  0.10566000000E+00 0. -1.
     999900   -1    0    0    0    0 -0.00000000000E+00 -0.00000000000E+00 -0.74505805969E-08  0.93827000000E+00  0.93827000000E+00 0. -1.
     999902    2    1    2    0    0  0.74463737456E-02 -0.19468913482E-01  0.51925159237E-02  0.10224486291E+01  0.10222229453E+01 0.  0.
     999903    2    3    3    0    0 -0.74609244637E-01  0.20647687391E-02 -0.10625589214E+00  0.13137199287E+00  0.19936981754E-01 0.  0.
         14    1    1    2    0    0 -0.74463737456E-02  0.19468913482E-01 -0.51925159237E-02  0.21481370900E-01  0.00000000000E+00 0.  1.
     999901    1    3    3    0    0  0.82055618382E-01 -0.21533682221E-01  0.11144840806E+00  0.89107663623E+00  0.88000000000E+00 0.  1.
        -11    1    4    4    0    0 -0.42840798917E-01  0.10541419940E-01 -0.66046802748E-01  0.79428564512E-01  0.51100000000E-03 0.  1.
         11    1    4    4    0    0 -0.31768445720E-01 -0.84766512008E-02 -0.40209089388E-01  0.51943428357E-01  0.51100000000E-03 0. -1.
</event>
<event>
 8    1  0.1114686E+005  0.1043930E+01  0.7957747E-01            NaN
         13   -1    0    0    0    0  0.00000000000E+00  0.00000000000E+00  0.74505805969E-08  0.10566000000E+00  0.10566000000E+00 0. -1.
     999900   -1    0    0    0    0 -0.00000000000E+00 -0.00000000000E+00 -0.74505805969E-08  0.93827000000E+00  0.93827000000E+00 0. -1.
     999902    2    1    2    0    0  0.12203079727E-01 -0.18900449883E-01 -0.80925124026E-02  0.10200211958E+01  0.10197409519E+01 0.  0.
     999903    2    3    3    0    0 -0.10916108530E+00  0.28539111659E-01  0.57130869510E-01  0.12803808942E+00  0.19979806084E-01 0.  0.
         14    1    1    2    0    0 -0.12203079727E-01  0.18900449883E-01  0.80925124026E-02  0.23908804186E-01  0.00000000000E+00 0.  1.
     999901    1    3    3    0    0  0.12136416503E+00 -0.47439561542E-01 -0.65223381913E-01  0.89198310640E+00  0.88000000000E+00 0. -1.
        -11    1    4    4    0    0 -0.55608583565E-01  0.42362045578E-02  0.27418884663E-01  0.62147536977E-01  0.51100000000E-03 0.  1.
         11    1    4    4    0    0 -0.53552501739E-01  0.24302907101E-01  0.29711984847E-01  0.65890552438E-01  0.51100000000E-03 0. -1.
</event>
<event>
 8    1  0.1114686E+005  0.1043930E+01  0.7957747E-01            NaN
         13   -1    0    0    0    0  0.00000000000E+00  0.00000000000E+00  0.74505805969E-08  0.10566000000E+00  0.10566000000E+00 0.  1.
     999900   -1    0    0    0    0 -0.00000000000E+00 -0.00000000000E+00 -0.74505805969E-08  0.93827000000E+00  0.93827000000E+00 0. -1.
     999902    2    1    2    0    0 -0.50646957946E-02  0.50178586861E-02  0.23066815816E-01  0.10197865114E+01  0.10195006723E+01 0.  0.
     999903    2    3    3    0    0  0.11612100802E+00  0.52860953529E-01 -0.10113587367E-01  0.12957537034E+00  0.20226790110E-01 0.  0.
         14    1    1    2    0    0  0.50646957946E-02 -0.50178586861E-02 -0.23066815816E-01  0.24143488587E-01  0.00000000000E+00 0. -1.
     999901    1    3    3    0    0 -0.12118570381E+00 -0.47843094843E-01  0.33180403182E-01  0.89021114107E+00  0.88000000000E+00 0. -1.
        -11    1    4    4    0    0  0.56287731687E-01  0.23615440448E-01  0.51127411083E-02  0.61256828261E-01  0.51100000000E-03 0.  1.
         11    1    4    4    0    0  0.59833276332E-01  0.29245513082E-01 -0.15226328475E-01  0.68318542080E-01  0.51100000000E-03 0. -1.
</event>
<event>
 8    1  0.1114686E+005  0.1043930E+01  0.7957747E-01            NaN
         13   -1    0    0    0    0  0.00000000000E+00  0.00000000000E+00  0.74505805969E-08  0.10566000000E+00  0.10566000000E+00 0.  1.
     999900   -1    0    0    0    0 -0.00000000000E+00 -0.00000000000E+00 -0.74505805969E-08  0.93827000000E+00  0.93827000000E+00 0.  1.
     999902    2    1    2    0    0  0.16791392495E-01 -0.13005454488E-02  0.16164216370E-01  0.10205863891E+01  0.10203193879E+01 0.  0.
     999903    2    3    3    0    0 -0.82571786120E-01 -0.54341855056E-01  0.83012885664E-01  0.13089252803E+00  0.21692801413E-01 0.  0.
         14    1    1    2    0    0 -0.16791392495E-01  0.13005454488E-02 -0.16164216370E-01  0.23343610930E-01  0.00000000000E+00 0.  1.
     999901    1    3    3    0    0  0.99363178615E-01  0.53041309608E-01 -0.66848669294E-01  0.88969386104E+00  0.88000000000E+00 0. -1.
        -11    1    4    4    0    0 -0.67248900460E-01 -0.46259671406E-01  0.56703787190E-01  0.99387888671E-01  0.51100000000E-03 0.  1.
         11    1    4    4    0    0 -0.15322885660E-01 -0.80821836506E-02  0.26309098474E-01  0.31504639357E-01  0.51100000000E-03 0. -1.
</event>
<event>
 8    1  0.1114686E+005  0.1043930E+01  0.7957747E-01            NaN
         13   -1    0    0    0    0  0.00000000000E+00  0.00000000000E+00  0.74505805969E-08  0.10566000000E+00  0.10566000000E+00 0. -1.
     999900   -1    0    0    0    0 -0.00000000000E+00 -0.00000000000E+00 -0.74505805969E-08  0.93827000000E+00  0.93827000000E+00 0. -1.
     999902    2    1    2    0    0 -0.14616765526E-01  0.33550440990E-02  0.17462045918E-01  0.10209119809E+01  0.10206524597E+01 0.  0.
     999903    2    3    3    0    0 -0.96462710780E-02 -0.92438996123E-01 -0.87952123244E-01  0.12944501516E+00  0.19555495817E-01 0.  0.
         14    1    1    2    0    0  0.14616765526E-01 -0.33550440990E-02 -0.17462045918E-01  0.23018019094E-01  0.00000000000E+00 0.  1.
     999901    1    3    3    0    0 -0.49704944478E-02  0.95794040222E-01  0.10541416916E+00  0.89146696575E+00  0.88000000000E+00 0.  1.
        -11    1    4    4    0    0 -0.12528407291E-01 -0.71508129105E-01 -0.58724277728E-01  0.93376525064E-01  0.51100000000E-03 0. -1.
         11    1    4    4    0    0  0.28821362129E-02 -0.20930867018E-01 -0.29227845517E-01  0.36068490096E-01  0.51100000000E-03 0.  1.
</event>
<event>
 8    1  0.1114686E+005  0.1043930E+01  0.7957747E-01            NaN
         13   -1    0    0    0    0  0.00000000000E+00  0.00000000000E+00  0.74505805969E-08  0.10566000000E+00  0.10566000000E+00 0.  1.
     999900   -1    0    0    0    0 -0.00000000000E+00 -0.00000000000E+00 -0.74505805969E-08  0.93827000000E+00  0.93827000000E+00 0.  1.
     999902    2    1    2    0    0 -0.14050760009E-02  0.13362114483E-01  0.19508463946E-01  0.10202424398E+01  0.10199674188E+01 0.  0.
     999903    2    3    3    0    0  0.79467333550E-01  0.10257670130E+00 -0.99099690671E-02  0.13155518699E+00  0.19274931575E-01 0.  0.
         14    1    1    2    0    0  0.14050760009E-02 -0.13362114483E-01 -0.19508463946E-01  0.23687560186E-01  0.00000000000E+00 0.  1.
     999901    1    3    3    0    0 -0.80872409551E-01 -0.89214586814E-01  0.29418433013E-01  0.88868725282E+00  0.88000000000E+00 0. -1.
        -11    1    4    4    0    0  0.30648508219E-01  0.26461792417E-01  0.75401280435E-03  0.40501693425E-01  0.51100000000E-03 0. -1.
         11    1    4    4    0    0  0.48818825331E-01  0.76114908880E-01 -0.10663981871E-01  0.91053493568E-01  0.51100000000E-03 0.  1.
</event>
<event>
 8    1  0.1114686E+005  0.1043930E+01  0.7957747E-01            NaN
         13   -1    0    0    0    0  0.00000000000E+00  0.00000000000E+00  0.74505805969E-08  0.10566000000E+00  0.10566000000E+00 0.  1.
     999900   -1    0    0    0    0 -0.00000000000E+00 -0.00000000000E+00 -0.74505805969E-08  0.93827000000E+00  0.93827000000E+00 0.  1.
     999902    2    1    2    0    0 -0.23098733304E-01  0.18584434542E-02 -0.60016613554E-02  0.10199920546E+01  0.10197111190E+01 0.  0.
     999903    2    3    3    0    0 -0.71104633280E-01 -0.10455706282E+00 -0.32017155947E-01  0.13190105002E+00  0.19614802137E-01 0.  0.
         14    1    1    2    0    0  0.23098733304E-01 -0.18584434542E-02  0.60016613554E-02  0.23937945429E-01  0.00000000000E+00 0.  1.
     999901    1    3    3    0    0  0.48005899976E-01  0.10641550627E+00  0.26015494592E-01  0.88809100455E+00  0.88000000000E+00 0. -1.
        -11    1    4    4    0    0 -0.86856644526E-02 -0.93240560352E-02  0.23349163291E-02  0.12965019984E-01  0.51100000000E-03 0. -1.
         11    1    4    4    0    0 -0.62418968827E-01 -0.95233006780E-01 -0.34352072276E-01  0.11893603003E+00  0.51100000000E-03 0.  1.
</event>
<event>
 8    1  0.1114686E+005  0.1043930E+01  0.7957747E-01            NaN
         13   -1    0    0    0    0  0.00000000000E+00  0.00000000000E+00  0.74505805969E-08  0.10566000000E+00  0.10566000000E+00 0. -1.
     999900   -1    0    0    0    0 -0.00000000000E+00 -0.00000000000E+00 -0.74505805969E-08  0.93827000000E+00  0.93827000000E+00 0.  1.
     999902    2    1    2    0    0  0.23132708211E-01  0.46203743260E-02 -0.69741726776E-02  0.10193310339E+01  0.10190341739E+01 0.  0.
     999903    2    3    3    0    0  0.66073603769E-01 -0.87309096298E-01 -0.69577047042E-01  0.13129158211E+00  0.20196896933E-01 0.  0.
         14    1    1    2    0    0 -0.23132708211E-01 -0.46203743260E-02  0.69741726776E-02  0.24598966089E-01  0.00000000000E+00 0. -1.
     999901    1    3    3    0    0 -0.42940895558E-01  0.91929470624E-01  0.62602874364E-01  0.88803945180E+00  0.88000000000E+00 0.  1.
        -11    1    4    4    0    0  0.60874429531E-01 -0.72417727100E-01 -0.65258378416E-01  0.11493015463E+00  0.51100000000E-03 0. -1.
         11    1    4    4    0    0  0.51991742381E-02 -0.14891369198E-01 -0.43186686259E-02  0.16361427476E-01  0.51100000000E-03 0.  1.
</event>
<event>
 8    1  0.1114686E+005  0.1043930E+01  0.7957747E-01            NaN
         13   -1    0    0    0    0  0.00000000000E+00  0.00000000000E+00  0.74505805969E-08  0.10566000000E+00  0.10566000000E+00 0.  1.
     999900   -1    0    0    0    0 -0.00000000000E+00 -0.00000000000E+00 -0.74505805969E-08  0.93827000000E+00  0.93827000000E+00 0. -1.
     999902    2    1    2    0    0 -0.66095952475E-03  0.88651720298E-02  0.30352342656E-01  0.10123025934E+01  0.10118084047E+01 0.  0.
     999903    2    3    3    0    0  0.17176844525E-03 -0.11852522943E+00  0.28474684957E-01  0.12312739503E+00  0.17357655613E-01 0.  0.
         14    1    1    2    0    0  0.66095952475E-03 -0.88651720298E-02 -0.30352342656E-01  0.31627406586E-01  0.00000000000E+00 0. -1.
     999901    1    3    3    0    0 -0.83272797000E-03  0.12739040146E+00  0.18776576990E-02  0.88917519838E+00  0.88000000000E+00 0.  1.
        -11    1    4    4    0    0 -0.91913382848E-03 -0.98252789888E-01  0.16744685068E-01  0.99674977435E-01  0.51100000000E-03 0.  1.
         11    1    4    4    0    0  0.10909022737E-02 -0.20272439541E-01  0.11729999889E-01  0.23452417597E-01  0.51100000000E-03 0. -1.
</event>
<event>
 8    1  0.1114686E+005  0.1043930E+01  0.7957747E-01            NaN
         13   -1    0    0    0    0  0.00000000000E+00  0.00000000000E+00  0.74505805969E-08  0.10566000000E+00  0.10566000000E+00 0.  1.
     999900   -1    0    0    0    0 -0.00000000000E+00 -0.00000000000E+00 -0.74505805969E-08  0.93827000000E+00  0.93827000000E+00 0. -1.
     999902    2    1    2    0    0 -0.21848250678E-01 -0.14948646774E-02  0.71063487704E-02  0.10209065148E+01  0.10206468689E+01 0.  0.
     999903    2    3    3    0    0 -0.23056184811E-01  0.50731185518E-01  0.11845607920E+00  0.13235275621E+00  0.19497911040E-01 0.  0.
         14    1    1    2    0    0  0.21848250678E-01  0.14948646774E-02 -0.71063487704E-02  0.23023485204E-01  0.00000000000E+00 0. -1.
     999901    1    3    3    0    0  0.12079341330E-02 -0.52226050195E-01 -0.11134973043E+00  0.88855375858E+00  0.88000000000E+00 0. -1.
        -11    1    4    4    0    0 -0.20397357540E-01  0.38672296413E-01  0.10663143882E+00  0.11524809574E+00  0.51100000000E-03 0. -1.
         11    1    4    4    0    0 -0.26588272707E-02  0.12058889105E-01  0.11824640381E-01  0.17104660477E-01  0.51100000000E-03 0.  1.
</event>
<event>
 8    1  0.1114686E+005  0.1043930E+01  0.7957747E-01            NaN
         13   -1    0    0    0    0  0.00000000000E+00  0.00000000000E+00  0.74505805969E-08  0.10566000000E+00  0.10566000000E+00 0. -1.
     999900   -1    0    0    0    0 -0.00000000000E+00 -0.00000000000E+00 -0.74505805969E-08  0.93827000000E+00  0.93827000000E+00 0. -1.
     999902    2    1    2    0    0 -0.54953229625E-02  0.10032899772E-01  0.16634172216E-01  0.10237420497E+01  0.10235429795E+01 0.  0.
     999903    2    3    3    0    0 -0.41990452307E-02  0.63509106493E-01 -0.11442903558E+00  0.13242900174E+00  0.19809031516E-01 0.  0.
         14    1    1    2    0    0  0.54953229625E-02 -0.10032899772E-01 -0.16634172216E-01  0.20187950307E-01  0.00000000000E+00 0.  1.
     999901    1    3    3    0    0 -0.12962777318E-02 -0.53476206721E-01  0.13106320779E+00  0.89131304796E+00  0.88000000000E+00 0.  1.
        -11    1    4    4    0    0 -0.55130089909E-02  0.59457701977E-01 -0.92614717078E-01  0.11019690800E+00  0.51100000000E-03 0.  1.
         11    1    4    4    0    0  0.13139637601E-02  0.40514045155E-02 -0.21814318498E-01  0.22232093735E-01  0.51100000000E-03 0. -1.
</event>
<event>
 8    1  0.1114686E+005  0.1043930E+01  0.7957747E-01            NaN
         13   -1    0    0    0    0  0.00000000000E+00  0.00000000000E+00  0.74505805969E-08  0.10566000000E+00  0.10566000000E+00 0. -1.
     999900   -1    0    0    0    0 -0.00000000000E+00 -0.00000000000E+00 -0.74505805969E-08  0.93827000000E+00  0.93827000000E+00 0.  1.
     999902    2    1    2    0    0 -0.34344298431E-02  0.11155148682E-02  0.23017679976E-01  0.10206307881E+01  0.10203648134E+01 0.  0.
     999903    2    3    3    0    0  0.20905827926E-01 -0.81168252664E-01  0.10133520561E+00  0.13299533292E+00  0.19839248965E-01 0.  0.
         14    1    1    2    0    0  0.34344298431E-02 -0.11155148682E-02 -0.23017679976E-01  0.23299211858E-01  0.00000000000E+00 0.  1.
     999901    1    3    3    0    0 -0.24340257769E-01  0.82283767532E-01 -0.78317525638E-01  0.88763545522E+00  0.88000000000E+00 0.  1.
        -11    1    4    4    0    0  0.10967339733E-01 -0.12059307524E-01  0.18765509543E-01  0.24861916825E-01  0.51100000000E-03 0. -1.
         11    1    4    4    0    0  0.99384881933E-02 -0.69108945140E-01  0.82569696071E-01  0.10813341609E+00  0.51100000000E-03 0.  1.
</event>
<event>
 8    1  0.1114686E+005  0.1043930E+01  0.7957747E-01            NaN
         13   -1    0    0    0    0  0.00000000000E+00  0.00000000000E+00  0.74505805969E-08  0.10566000000E+00  0.10566000000E+00 0. -1.
     999900   -1    0    0    0    0 -0.00000000000E+00 -0.00000000000E+00 -0.74505805969E-08  0.93827000000E+00  0.93827000000E+00 0. -1.
     999902    2    1    2    0    0 -0.90737571261E-02 -0.74504925100E-02 -0.20071224457E-01  0.10206771086E+01  0.10204122025E+01 0.  0.
     999903    2    3    3    0    0 -0.94889860310E-01 -0.35383731047E-01 -0.84919976090E-01  0.13368780203E+00  0.20122923778E-01 0.  0.
         14    1    1    2    0    0  0.90737571261E-02  0.74504925100E-02  0.20071224457E-01  0.23252891395E-01  0.00000000000E+00 0. -1.
     999901    1    3    3    0    0  0.85816103184E-01  0.27933238537E-01  0.64848751632E-01  0.88698930657E+00  0.88000000000E+00 0.  1.
        -11    1    4    4    0    0 -0.37760143479E-01 -0.42018325843E-02 -0.27658022483E-01  0.46996927147E-01  0.51100000000E-03 0. -1.
         11    1    4    4    0    0 -0.57129716831E-01 -0.31181898462E-01 -0.57261953607E-01  0.86690874888E-01  0.51100000000E-03 0.  1.
</event>
<event>
 8    1  0.1114686E+005  0.1043930E+01  0.7957747E-01            NaN
         13   -1    0    0    0    0  0.00000000000E+00  0.00000000000E+00  0.74505805969E-08  0.10566000000E+00  0.10566000000E+00 0.  1.
     999900   -1    0    0    0    0 -0.00000000000E+00 -0.00000000000E+00 -0.74505805969E-08  0.93827000000E+00  0.93827000000E+00 0. -1.
     999902    2    1    2    0    0  0.10650073077E-01  0.20176407198E-01  0.61011832970E-02  0.10203135671E+01  0.10200402146E+01 0.  0.
     999903    2    3    3    0    0 -0.10243263841E+00 -0.36514239929E-01  0.66790501516E-01  0.12919925210E+00  0.20143001760E-01 0.  0.
         14    1    1    2    0    0 -0.10650073077E-01 -0.20176407198E-01 -0.61011832970E-02  0.23616432872E-01  0.00000000000E+00 0. -1.
     999901    1    3    3    0    0  0.11308271149E+00  0.56690647127E-01 -0.60689318219E-01  0.89111431503E+00  0.88000000000E+00 0.  1.
        -11    1    4    4    0    0 -0.69754980682E-01 -0.21991652186E-01  0.33916126699E-01  0.80622297580E-01  0.51100000000E-03 0.  1.
         11    1    4    4    0    0 -0.32677657729E-01 -0.14522587744E-01  0.32874374817E-01  0.48576954516E-01  0.51100000000E-03 0. -1.
</event>
<event>
 8    1  0.1114686E+005  0.1043930E+01  0.7957747E-01            NaN
         13   -1    0    0    0    0  0.00000000000E+00  0.00000000000E+00  0.74505805969E-08  0.10566000000E+00  0.10566000000E+00 0.  1.
     999900   -1    0    0    0    0 -0.00000000000E+00 -0.00000000000E+00 -0.74505805969E-08  0.93827000000E+00  0.93827000000E+00 0. -1.
     999902    2    1    2    0    0  0.30063843145E-02 -0.21167195946E-01 -0.38330414957E-02  0.10222094858E+01  0.10219786945E+01 0.  0.
     999903    2    3    3    0    0  0.97325166164E-01 -0.88830160621E-01  0.18493434773E-01  0.13430589814E+00  0.18250527144E-01 0.  0.
         14    1    1    2    0    0 -0.30063843145E-02  0.21167195946E-01  0.38330414957E-02  0.21720514220E-01  0.00000000000E+00 0. -1.
     999901    1    3    3    0    0 -0.94318781850E-01  0.67662964675E-01 -0.22326476269E-01  0.88790358764E+00  0.88000000000E+00 0. -1.
        -11    1    4    4    0    0  0.21498274730E-01 -0.29092267936E-01  0.93639418429E-03  0.36189415926E-01  0.51100000000E-03 0.  1.
         11    1    4    4    0    0  0.75826891434E-01 -0.59737892686E-01  0.17557040589E-01  0.98116482216E-01  0.51100000000E-03 0. -1.
</event>
<event>
 8    1  0.1114686E+005  0.1043930E+01  0.7957747E-01            NaN
         13   -1    0    0    0    0  0.00000000000E+00  0.00000000000E+00  0.74505805969E-08  0.10566000000E+00  0.10566000000E+00 0.  1.
     999900   -1    0    0    0    0 -0.00000000000E+00 -0.00000000000E+00 -0.74505805969E-08  0.93827000000E+00  0.93827000000E+00 0.  1.
     999902    2    1    2    0    0 -0.13716323578E-01  0.12555142380E-01 -0.14603818111E-01  0.10202859598E+01  0.10200119603E+01 0.  0.
     999903    2    3    3    0    0 -0.11195925755E+00 -0.54664893635E-01  0.34640868994E-01  0.13090682440E+00  0.20334230262E-01 0.  0.
         14    1    1    2    0    0  0.13716323578E-01 -0.12555142380E-01  0.14603818111E-01  0.23644040181E-01  0.00000000000E+00 0.  1.
     999901    1    3    3    0    0  0.98242933976E-01  0.67220036015E-01 -0.49244687105E-01  0.88937913542E+00  0.88000000000E+00 0.  1.
        -11    1    4    4    0    0 -0.25854091167E-01 -0.19191820290E-01  0.21504186046E-02  0.32274532023E-01  0.51100000000E-03 0. -1.
         11    1    4    4    0    0 -0.86105166388E-01 -0.35473073345E-01  0.32490450390E-01  0.98632292373E-01  0.51100000000E-03 0.  1.
</event>
<event>
 8    1  0.1114686E+005  0.1043930E+01  0.7957747E-01            NaN
         13   -1    0    0    0    0  0.00000000000E+00  0.00000000000E+00  0.74505805969E-08  0.10566000000E+00  0.10566000000E+00 0.  1.
     999900   -1    0    0    0    0 -0.00000000000E+00 -0.00000000000E+00 -0.74505805969E-08  0.93827000000E+00  0.93827000000E+00 0. -1.
     999902    2    1    2    0    0 -0.61385798792E-02 -0.10359710498E-01 -0.20188989428E-01  0.10204225319E+01  0.10201517252E+01 0.  0.
     999903    2    3    3    0    0  0.90599750798E-01 -0.84558664020E-01  0.35334434792E-01  0.13028398086E+00  0.19154917943E-01 0.  0.
         14    1    1    2    0    0  0.61385798792E-02  0.10359710498E-01  0.20188989428E-01  0.23507468147E-01  0.00000000000E+00 0.  1.
     999901    1    3    3    0    0 -0.96738330677E-01  0.74198953521E-01 -0.55523424220E-01  0.89013855099E+00  0.88000000000E+00 0. -1.
        -11    1    4    4    0    0  0.59707356134E-01 -0.44377036605E-01  0.16435861708E-01  0.76188505862E-01  0.51100000000E-03 0.  1.
         11    1    4    4    0    0  0.30892394664E-01 -0.40181627415E-01  0.18898573084E-01  0.54095474999E-01  0.51100000000E-03 0. -1.
</event>
<event>
 8    1  0.1126314E+005  0.1043930E+01  0.7957747E-01            NaN
         13   -1    0    0    0    0  0.00000000000E+00  0.00000000000E+00  0.74505805969E-08  0.10566000000E+00  0.10566000000E+00 0. -1.
     999900   -1    0    0    0    0 -0.00000000000E+00 -0.00000000000E+00 -0.74505805969E-08  0.93827000000E+00  0.93827000000E+00 0. -1.
     999902    2    1    2    0    0  0.11628555182E-01 -0.18647025639E-01 -0.75085431819E-02  0.10207068848E+01  0.10204426645E+01 0.  0.
     999903    2    3    3    0    0 -0.31003485626E-01  0.11303382064E+00  0.47669838949E-01  0.12818126046E+00  0.20497835431E-01 0.  0.
         14    1    1    2    0    0 -0.11628555182E-01  0.18647025639E-01  0.75085431819E-02  0.23223115241E-01  0.00000000000E+00 0. -1.
     999901    1    3    3    0    0  0.42632040807E-01 -0.13168084628E+00 -0.55178382131E-01  0.89252562430E+00  0.88000000000E+00 0.  1.
        -11    1    4    4    0    0 -0.13073086835E-01  0.49624219429E-01  0.31887658490E-01  0.60419803362E-01  0.51100000000E-03 0.  1.
         11    1    4    4    0    0 -0.17930398791E-01  0.63409601211E-01  0.15782180460E-01  0.67761457095E-01  0.51100000000E-03 0. -1.
</event>
<event>
 8    1  0.1114686E+005  0.1043930E+01  0.7957747E-01            NaN
         13   -1    0    0    0    0  0.00000000000E+00  0.00000000000E+00  0.74505805969E-08  0.10566000000E+00  0.10566000000E+00 0.  1.
     999900   -1    0    0    0    0 -0.00000000000E+00 -0.00000000000E+00 -0.74505805969E-08  0.93827000000E+00  0.93827000000E+00 0.  1.
     999902    2    1    2    0    0  0.21115365539E-01 -0.85922403054E-03 -0.96904647352E-02  0.10206813004E+01  0.10204164909E+01 0.  0.
     999903    2    3    3    0    0  0.92326905519E-01  0.34137259566E-02 -0.94790767020E-01  0.13370249398E+00  0.18845593048E-01 0.  0.
         14    1    1    2    0    0 -0.21115365539E-01  0.85922403054E-03  0.96904647352E-02  0.23248699632E-01  0.00000000000E+00 0.  1.
     999901    1    3    3    0    0 -0.71211539980E-01 -0.42729499872E-02  0.85100302284E-01  0.88697880639E+00  0.88000000000E+00 0. -1.
        -11    1    4    4    0    0  0.56810366886E-01  0.70233412816E-02 -0.69019063238E-01  0.89669600868E-01  0.51100000000E-03 0. -1.
         11    1    4    4    0    0  0.35516538633E-01 -0.36096153249E-02 -0.25771703782E-01  0.44032893115E-01  0.51100000000E-03 0.  1.
</event>
<event>
 8    1  0.1114686E+005  0.1043930E+01  0.7957747E-01            NaN
         13   -1    0    0    0    0  0.00000000000E+00  0.00000000000E+00  0.74505805969E-08  0.10566000000E+00  0.10566000000E+00 0.  1.
     999900   -1    0    0    0    0 -0.00000000000E+00 -0.00000000000E+00 -0.74505805969E-08  0.93827000000E+00  0.93827000000E+00 0. -1.
     999902    2    1    2    0    0  0.70150626076E-02 -0.10772567516E-01 -0.20123465595E-01  0.10200508630E+01  0.10197713224E+01 0.  0.
     999903    2    3    3    0    0  0.54894101303E-01  0.11078568027E+00 -0.36088865223E-01  0.13026229044E+00  0.19468662184E-01 0.  0.
         14    1    1    2    0    0 -0.70150626076E-02  0.10772567516E-01  0.20123465595E-01  0.23879136957E-01  0.00000000000E+00 0.  1.
     999901    1    3    3    0    0 -0.47879038695E-01 -0.12155824778E+00  0.15965399628E-01  0.88978857260E+00  0.88000000000E+00 0.  1.
        -11    1    4    4    0    0  0.12601348725E-01  0.11682803161E-01 -0.23425251455E-02  0.17350228369E-01  0.51100000000E-03 0. -1.
         11    1    4    4    0    0  0.42292752577E-01  0.99102877106E-01 -0.33746340078E-01  0.11291206207E+00  0.51100000000E-03 0.  1.
</event>
<event>
 8    1  0.1114686E+005  0.1043930E+01  0.7957747E-01            NaN
         13   -1    0    0    0    0  0.00000000000E+00  0.00000000000E+00  0.74505805969E-08  0.10566000000E+00  0.10566000000E+00 0.  1.
     999900   -1    0    0    0    0 -0.00000000000E+00 -0.00000000000E+00 -0.74505805969E-08  0.93827000000E+00  0.93827000000E+00 0.  1.
     999902    2    1    2    0    0  0.96783053140E-02  0.16577836545E-01 -0.14104827640E-01  0.10201089920E+01  0.10198308267E+01 0.  0.
     999903    2    3    3    0    0  0.40693489706E-02  0.95831816805E-01  0.86771048609E-01  0.13078981637E+00  0.19402692491E-01 0.  0.
         14    1    1    2    0    0 -0.96783053140E-02 -0.16577836545E-01  0.14104827640E-01  0.23821007976E-01  0.00000000000E+00 0. -1.
     999901    1    3    3    0    0  0.56089563434E-02 -0.79253980259E-01 -0.10087587625E+00  0.88931917565E+00  0.88000000000E+00 0.  1.
        -11    1    4    4    0    0  0.35276627508E-02  0.92957480845E-01  0.77576330128E-01  0.12112755990E+00  0.51100000000E-03 0. -1.
         11    1    4    4    0    0  0.54168621972E-03  0.28743359592E-02  0.91947184811E-02  0.96622564712E-02  0.51100000000E-03 0.  1.
</event>
<event>
 8    1  0.1114686E+005  0.1043930E+01  0.7957747E-01            NaN
         13   -1    0    0    0    0  0.00000000000E+00  0.00000000000E+00  0.74505805969E-08  0.10566000000E+00  0.10566000000E+00 0. -1.
     999900   -1    0    0    0    0 -0.00000000000E+00 -0.00000000000E+00 -0.74505805969E-08  0.93827000000E+00  0.93827000000E+00 0. -1.
     999902    2    1    2    0    0  0.22669241254E-01 -0.15827278816E-02  0.10080309934E-03  0.10212053507E+01  0.10209524761E+01 0.  0.
     999903    2    3    3    0    0  0.32261584193E-01  0.11229285813E+00  0.57595169260E-01  0.13195551834E+00  0.21084579610E-01 0.  0.
         14    1    1    2    0    0 -0.22669241254E-01  0.15827278816E-02 -0.10080309934E-03  0.22724649345E-01  0.00000000000E+00 0.  1.
     999901    1    3    3    0    0 -0.95923429385E-02 -0.11387558601E+00 -0.57494366160E-01  0.88924983231E+00  0.88000000000E+00 0. -1.
        -11    1    4    4    0    0  0.22114006126E-01  0.78554302911E-01  0.29107785651E-01  0.86644861817E-01  0.51100000000E-03 0. -1.
         11    1    4    4    0    0  0.10147578067E-01  0.33738555216E-01  0.28487383608E-01  0.45310656523E-01  0.51100000000E-03 0.  1.
</event>
<event>
 8    1  0.1114686E+005  0.1043930E+01  0.7957747E-01            NaN
         13   -1    0    0    0    0  0.00000000000E+00  0.00000000000E+00  0.74505805969E-08  0.10566000000E+00  0.10566000000E+00 0. -1.
     999900   -1    0    0    0    0 -0.00000000000E+00 -0.00000000000E+00 -0.74505805969E-08  0.93827000000E+00  0.93827000000E+00 0.  1.
     999902    2    1    2    0    0  0.17791745801E-01  0.24779471677E-02  0.15442429162E-01  0.10202412884E+01  0.10199662403E+01 0.  0.
     999903    2    3    3    0    0 -0.27909872124E-01 -0.24248607312E-01  0.12530904840E+00  0.13183056093E+00  0.17606341625E-01 0.  0.
         14    1    1    2    0    0 -0.17791745801E-01 -0.24779471677E-02 -0.15442429162E-01  0.23688711641E-01  0.00000000000E+00 0. -1.
     999901    1    3    3    0    0  0.45701617925E-01  0.26726554479E-01 -0.10986661923E+00  0.88841072743E+00  0.88000000000E+00 0.  1.
        -11    1    4    4    0    0 -0.81360250238E-02 -0.17011781676E-01  0.73999043568E-01  0.76365667606E-01  0.51100000000E-03 0. -1.
         11    1    4    4    0    0 -0.19773847101E-01 -0.72368256357E-02  0.51310004829E-01  0.55464893320E-01  0.51100000000E-03 0.  1.
</event>
<event>
 8    1  0.1114686E+005  0.1043930E+01  0.7957747E-01            NaN
         13   -1    0    0    0    0  0.00000000000E+00  0.00000000000E+00  0.74505805969E-08  0.10566000000E+00  0.10566000000E+00 0. -1.
     999900   -1    0    0    0    0 -0.00000000000E+00 -0.00000000000E+00 -0.74505805969E-08  0.93827000000E+00  0.93827000000E+00 0. -1.
     999902    2    1    2    0    0 -0.21437583175E-01 -0.57692496710E-03  0.51916475999E-02  0.10218651859E+01  0.10216269389E+01 0.  0.
     999903    2    3    3    0    0  0.44485226520E-01  0.29983750440E-01  0.11866470883E+00  0.13160909506E+00  0.19017889266E-01 0.  0.
         14    1    1    2    0    0  0.21437583175E-01  0.57692496710E-03 -0.51916475999E-02  0.22064814062E-01  0.00000000000E+00 0.  1.
     999901    1    3    3    0    0 -0.65922809694E-01 -0.30560675407E-01 -0.11347306123E+00  0.89025609088E+00  0.88000000000E+00 0. -1.
        -11    1    4    4    0    0  0.39182126409E-01  0.29782773034E-01  0.91220150321E-01  0.10365148115E+00  0.51100000000E-03 0. -1.
         11    1    4    4    0    0  0.53031001105E-02  0.20097740561E-03  0.27444558509E-01  0.27957613908E-01  0.51100000000E-03 0.  1.
</event>
<event>
 8    1  0.1114686E+005  0.1043930E+01  0.7957747E-01            NaN
         13   -1    0    0    0    0  0.00000000000E+00  0.00000000000E+00  0.74505805969E-08  0.10566000000E+00  0.10566000000E+00 0. -1.
     999900   -1    0    0    0    0 -0.00000000000E+00 -0.00000000000E+00 -0.74505805969E-08  0.93827000000E+00  0.93827000000E+00 0.  1.
     999902    2    1    2    0    0  0.49614408870E-02  0.56194220405E-02  0.21978035578E-01  0.10207087199E+01  0.10204445419E+01 0.  0.
     999903    2    3    3    0    0  0.10025641999E+00  0.81592848791E-01 -0.73163767977E-02  0.13182669334E+00  0.24819447727E-01 0.  0.
         14    1    1    2    0    0 -0.49614408870E-02 -0.56194220405E-02 -0.21978035578E-01  0.23221280059E-01  0.00000000000E+00 0.  1.
     999901    1    3    3    0    0 -0.95294979100E-01 -0.75973426751E-01  0.29294412375E-01  0.88888202660E+00  0.88000000000E+00 0. -1.
        -11    1    4    4    0    0  0.41275398983E-01  0.36195239039E-01  0.89879717798E-02  0.55630914499E-01  0.51100000000E-03 0. -1.
         11    1    4    4    0    0  0.58981021004E-01  0.45397609752E-01 -0.16304348577E-01  0.76195778843E-01  0.51100000000E-03 0.  1.
</event>
<event>
 8    1  0.1114686E+005  0.1043930E+01  0.7957747E-01            NaN
         13   -1    0    0    0    0  0.00000000000E+00  0.00000000000E+00  0.74505805969E-08  0.10566000000E+00  0.10566000000E+00 0. -1.
     999900   -1    0    0    0    0 -0.00000000000E+00 -0.00000000000E+00 -0.74505805969E-08  0.93827000000E+00  0.93827000000E+00 0. -1.
     999902    2    1    2    0    0  0.32325784271E-02  0.94265131460E-02 -0.21273416678E-01  0.10204381510E+01  0.10201677083E+01 0.  0.
     999903    2    3    3    0    0  0.59032198859E-01  0.72412168796E-01 -0.93589038669E-01  0.13347121831E+00  0.18092409088E-01 0.  0.
         14    1    1    2    0    0 -0.32325784271E-02 -0.94265131460E-02  0.21273416678E-01  0.23491849023E-01  0.00000000000E+00 0. -1.
     999901    1    3    3    0    0 -0.55799620432E-01 -0.62985655650E-01  0.72315621991E-01  0.88696693267E+00  0.88000000000E+00 0.  1.
        -11    1    4    4    0    0  0.34772292178E-01  0.44227871805E-01 -0.43673448579E-01  0.71223929824E-01  0.51100000000E-03 0. -1.
         11    1    4    4    0    0  0.24259906681E-01  0.28184296991E-01 -0.49915590090E-01  0.62247288487E-01  0.51100000000E-03 0.  1.
</event>
<event>
 8    1  0.1114686E+005  0.1043930E+01  0.7957747E-01            NaN
         13   -1    0    0    0    0  0.00000000000E+00  0.00000000000E+00  0.74505805969E-08  0.10566000000E+00  0.10566000000E+00 0. -1.
     999900   -1    0    0    0    0 -0.00000000000E+00 -0.00000000000E+00 -0.74505805969E-08  0.93827000000E+00  0.93827000000E+00 0.  1.
     999902    2    1    2    0    0 -0.55527381778E-02  0.21967614908E-01 -0.51534245486E-02  0.10206928145E+01  0.10204282703E+01 0.  0.
     999903    2    3    3    0    0  0.78071010207E-01 -0.80807092279E-01 -0.56572840967E-01  0.12928969125E+00  0.29840729402E-01 0.  0.
         14    1    1    2    0    0  0.55527381778E-02 -0.21967614908E-01  0.51534245486E-02  0.23237185513E-01  0.00000000000E+00 0.  1.
     999901    1    3    3    0    0 -0.83623748385E-01  0.10277470719E+00  0.51419416418E-01  0.89140312324E+00  0.88000000000E+00 0. -1.
        -11    1    4    4    0    0  0.13592066565E-01 -0.11204477516E-02 -0.84163866359E-02  0.16034224698E-01  0.51100000000E-03 0. -1.
         11    1    4    4    0    0  0.64478943642E-01 -0.79686644527E-01 -0.48156454331E-01  0.11325546655E+00  0.51100000000E-03 0.  1.
</event>
<event>
 8    1  0.1114686E+005  0.1043930E+01  0.7957747E-01            NaN
         13   -1    0    0    0    0  0.00000000000E+00  0.00000000000E+00  0.74505805969E-08  0.10566000000E+00  0.10566000000E+00 0. -1.
     999900   -1    0    0    0    0 -0.00000000000E+00 -0.00000000000E+00 -0.74505805969E-08  0.93827000000E+00  0.93827000000E+00 0.  1.
     999902    2    1    2    0    0  0.21925058814E-02  0.16753912366E-01  0.16602274643E-01  0.10202416867E+01  0.10199666481E+01 0.  0.
     999903    2    3    3    0    0  0.72281564358E-01  0.91554365859E-01  0.61219554084E-01  0.13316881173E+00  0.19474911078E-01 0.  0.
         14    1    1    2    0    0 -0.21925058814E-02 -0.16753912366E-01 -0.16602274643E-01  0.23688313256E-01  0.00000000000E+00 0.  1.
     999901    1    3    3    0    0 -0.70089058477E-01 -0.74800453493E-01 -0.44617279440E-01  0.88707287501E+00  0.88000000000E+00 0. -1.
        -11    1    4    4    0    0  0.26122781612E-01  0.48075588073E-01  0.31502280800E-01  0.63137284582E-01  0.51100000000E-03 0.  1.
         11    1    4    4    0    0  0.46158782746E-01  0.43478777786E-01  0.29717273284E-01  0.70031527148E-01  0.51100000000E-03 0. -1.
</event>
<event>
 8    1  0.1114686E+005  0.1043930E+01  0.7957747E-01            NaN
         13   -1    0    0    0    0  0.00000000000E+00  0.00000000000E+00  0.74505805969E-08  0.10566000000E+00  0.10566000000E+00 0.  1.
     999900   -1    0    0    0    0 -0.00000000000E+00 -0.00000000000E+00 -0.74505805969E-08  0.93827000000E+00  0.93827000000E+00 0.  1.
     999902    2    1    2    0    0 -0.14971244641E-01  0.16792464734E-01 -0.10994852845E-01  0.10188897958E+01  0.10185820557E+01 0.  0.
     999903    2    3    3    0    0  0.10714162178E+00  0.20517808775E-01  0.62770244508E-01  0.12739289735E+00  0.19711395311E-01 0.  0.
         14    1    1    2    0    0  0.14971244641E-01 -0.16792464734E-01  0.10994852845E-01  0.25040204212E-01  0.00000000000E+00 0.  1.
     999901    1    3    3    0    0 -0.12211286642E+00 -0.37253440414E-02 -0.73765097353E-01  0.89149689844E+00  0.88000000000E+00 0.  1.
        -11    1    4    4    0    0  0.21338798118E-01 -0.33531865526E-02  0.93966738566E-02  0.23561552702E-01  0.51100000000E-03 0. -1.
         11    1    4    4    0    0  0.85802823664E-01  0.23870995328E-01  0.53373570651E-01  0.10383134465E+00  0.51100000000E-03 0.  1.
</event>
<event>
 8    1  0.1114686E+005  0.1043930E+01  0.7957747E-01            NaN
         13   -1    0    0    0    0  0.00000000000E+00  0.00000000000E+00  0.74505805969E-08  0.10566000000E+00  0.10566000000E+00 0. -1.
     999900   -1    0    0    0    0 -0.00000000000E+00 -0.00000000000E+00 -0.74505805969E-08  0.93827000000E+00  0.93827000000E+00 0. -1.
     999902    2    1    2    0    0 -0.41963949932E-02  0.16182821207E-01  0.17229400353E-01  0.10199227996E+01  0.10196402167E+01 0.  0.
     999903    2    3    3    0    0  0.86620167663E-01  0.35672070393E-01  0.90966053796E-01  0.13196752319E+00  0.19106391153E-01 0.  0.
         14    1    1    2    0    0  0.41963949932E-02 -0.16182821207E-01 -0.17229400353E-01  0.24007200371E-01  0.00000000000E+00 0.  1.
     999901    1    3    3    0    0 -0.90816562656E-01 -0.19489249186E-01 -0.73736653443E-01  0.88795527643E+00  0.88000000000E+00 0. -1.
        -11    1    4    4    0    0  0.60771159867E-01  0.22033171502E-01  0.73636599423E-01  0.97985735766E-01  0.51100000000E-03 0. -1.
         11    1    4    4    0    0  0.25849007796E-01  0.13638898891E-01  0.17329454373E-01  0.33981787428E-01  0.51100000000E-03 0.  1.
</event>
<event>
 8    1  0.1114686E+005  0.1043930E+01  0.7957747E-01            NaN
         13   -1    0    0    0    0  0.00000000000E+00  0.00000000000E+00  0.74505805969E-08  0.10566000000E+00  0.10566000000E+00 0.  1.
     999900   -1    0    0    0    0 -0.00000000000E+00 -0.00000000000E+00 -0.74505805969E-08  0.93827000000E+00  0.93827000000E+00 0. -1.
     999902    2    1    2    0    0 -0.22302789833E-01  0.56339568375E-02  0.12533778254E-02  0.10208924902E+01  0.10206325243E+01 0.  0.
     999903    2    3    3    0    0 -0.11439568896E+00  0.66600403094E-01  0.54385892249E-02  0.13397900754E+00  0.19970199440E-01 0.  0.
         14    1    1    2    0    0  0.22302789833E-01 -0.56339568375E-02 -0.12533778254E-02  0.23037509847E-01  0.00000000000E+00 0. -1.
     999901    1    3    3    0    0  0.92092899123E-01 -0.60966446256E-01 -0.41852113995E-02  0.88691348261E+00  0.88000000000E+00 0. -1.
        -11    1    4    4    0    0 -0.10857255345E+00  0.60395343022E-01  0.73635554384E-03  0.12424331033E+00  0.51100000000E-03 0.  1.
         11    1    4    4    0    0 -0.58231355020E-02  0.62050600718E-02  0.47022336811E-02  0.97356972098E-02  0.51100000000E-03 0. -1.
</event>
<event>
 8    1  0.1114686E+005  0.1043930E+01  0.7957747E-01            NaN
         13   -1    0    0    0    0  0.00000000000E+00  0.00000000000E+00  0.74505805969E-08  0.10566000000E+00  0.10566000000E+00 0. -1.
     999900   -1    0    0    0    0 -0.00000000000E+00 -0.00000000000E+00 -0.74505805969E-08  0.93827000000E+00  0.93827000000E+00 0. -1.
     999902    2    1    2    0    0  0.32948660890E-02 -0.97775167205E-02  0.20429959129E-01  0.10210424661E+01  0.10207859122E+01 0.  0.
     999903    2    3    3    0    0  0.86229446884E-01 -0.97689253679E-01  0.15474276886E-01  0.13276819715E+00  0.20229511464E-01 0.  0.
         14    1    1    2    0    0 -0.32948660890E-02  0.97775167205E-02 -0.20429959129E-01  0.22887533850E-01  0.00000000000E+00 0.  1.
     999901    1    3    3    0    0 -0.82934580795E-01  0.87911736959E-01  0.49556822425E-02  0.88827426900E+00  0.88000000000E+00 0.  1.
        -11    1    4    4    0    0  0.64824200156E-01 -0.78822528131E-01  0.19638376014E-01  0.10392831568E+00  0.51100000000E-03 0.  1.
         11    1    4    4    0    0  0.21405246727E-01 -0.18866725548E-01 -0.41640991280E-02  0.28839881465E-01  0.51100000000E-03 0. -1.
</event>
<event>
 8    1  0.1114686E+005  0.1043930E+01  0.7957747E-01            NaN
         13   -1    0    0    0    0  0.00000000000E+00  0.00000000000E+00  0.74505805969E-08  0.10566000000E+00  0.10566000000E+00 0. -1.
     999900   -1    0    0    0    0 -0.00000000000E+00 -0.00000000000E+00 -0.74505805969E-08  0.93827000000E+00  0.93827000000E+00 0.  1.
     999902    2    1    2    0    0 -0.21685122741E-01  0.92526381825E-02 -0.33025433385E-02  0.10201232225E+01  0.10198453934E+01 0.  0.
     999903    2    3    3    0    0  0.59842763742E-01  0.80393915086E-01  0.78773961737E-01  0.12970510150E+00  0.23952835983E-01 0.  0.
         14    1    1    2    0    0  0.21685122741E-01 -0.92526381825E-02  0.33025433385E-02  0.23806777483E-01  0.00000000000E+00 0. -1.
     999901    1    3    3    0    0 -0.81527886483E-01 -0.71141276904E-01 -0.82076505076E-01  0.89041812102E+00  0.88000000000E+00 0.  1.
        -11    1    4    4    0    0  0.16828203819E-01  0.36221578248E-01  0.20630846529E-01  0.44956469213E-01  0.51100000000E-03 0.  1.
         11    1    4    4    0    0  0.43014559923E-01  0.44172336838E-01  0.58143115208E-01  0.84748632285E-01  0.51100000000E-03 0. -1.
</event>
<event>
 8    1  0.1114686E+005  0.1043930E+01  0.7957747E-01            NaN
         13   -1    0    0    0    0  0.00000000000E+00  0.00000000000E+00  0.74505805969E-08  0.10566000000E+00  0.10566000000E+00 0.  1.
     999900   -1    0    0    0    0 -0.00000000000E+00 -0.00000000000E+00 -0.74505805969E-08  0.93827000000E+00  0.93827000000E+00 0. -1.
     999902    2    1    2    0    0  0.35117514921E-03 -0.47539905098E-02  0.22663555930E-01  0.10207705415E+01  0.10205077843E+01 0.  0.
     999903    2    3    3    0    0 -0.83468696785E-01 -0.51182113038E-01 -0.82013706080E-01  0.12940155469E+00  0.20781778890E-01 0.  0.
         14    1    1    2    0    0 -0.35117514921E-03  0.47539905098E-02 -0.22663555930E-01  0.23159458482E-01  0.00000000000E+00 0. -1.
     999901    1    3    3    0    0  0.83819871935E-01  0.46428122528E-01  0.10467726201E+00  0.89136898683E+00  0.88000000000E+00 0.  1.
        -11    1    4    4    0    0 -0.47767370484E-01 -0.17725776844E-01 -0.46016508936E-01  0.68656427691E-01  0.51100000000E-03 0.  1.
         11    1    4    4    0    0 -0.35701326302E-01 -0.33456336194E-01 -0.35997197144E-01  0.60745127001E-01  0.51100000000E-03 0. -1.
</event>
<event>
 8    1  0.1114686E+005  0.1043930E+01  0.7957747E-01            NaN
         13   -1    0    0    0    0  0.00000000000E+00  0.00000000000E+00  0.74505805969E-08  0.10566000000E+00  0.10566000000E+00 0. -1.
     999900   -1    0    0    0    0 -0.00000000000E+00 -0.00000000000E+00 -0.74505805969E-08  0.93827000000E+00  0.93827000000E+00 0.  1.
     999902    2    1    2    0    0  0.45142474345E-02  0.74352277525E-03  0.23533333277E-01  0.10199560760E+01  0.10196742852E+01 0.  0.
     999903    2    3    3    0    0  0.23854032327E-01 -0.75450623083E-01  0.10480108653E+00  0.13272215936E+00  0.19237787468E-01 0.  0.
         14    1    1    2    0    0 -0.45142474345E-02 -0.74352277525E-03 -0.23533333277E-01  0.23973923983E-01  0.00000000000E+00 0.  1.
     999901    1    3    3    0    0 -0.19339784892E-01  0.76194145858E-01 -0.81267753251E-01  0.88723391665E+00  0.88000000000E+00 0. -1.
        -11    1    4    4    0    0  0.19516908415E-01 -0.30109823638E-01  0.45994621843E-01  0.58337616964E-01  0.51100000000E-03 0.  1.
         11    1    4    4    0    0  0.43371239124E-02 -0.45340799445E-01  0.58806464685E-01  0.74384542399E-01  0.51100000000E-03 0. -1.
</event>
<event>
 8    1  0.1114686E+005  0.1043930E+01  0.7957747E-01            NaN
         13   -1    0    0    0    0  0.00000000000E+00  0.00000000000E+00  0.74505805969E-08  0.10566000000E+00  0.10566000000E+00 0.  1.
     999900   -1    0    0    0    0 -0.00000000000E+00 -0.00000000000E+00 -0.74505805969E-08  0.93827000000E+00  0.93827000000E+00 0. -1.
     999902    2    1    2    0    0 -0.57295667717E-02 -0.23230566152E-02 -0.22504465682E-01  0.10205917159E+01  0.10203248380E+01 0.  0.
     999903    2    3    3    0    0 -0.99242452334E-01  0.11528739617E-03 -0.86637784698E-01  0.13331290525E+00  0.20424184970E-01 0.  0.
         14    1    1    2    0    0  0.57295667717E-02  0.23230566152E-02  0.22504465682E-01  0.23338284064E-01  0.00000000000E+00 0.  1.
     999901    1    3    3    0    0  0.93512885563E-01 -0.24383440114E-02  0.64133319017E-01  0.88727881069E+00  0.88000000000E+00 0. -1.
        -11    1    4    4    0    0 -0.75106878433E-01 -0.70232816708E-02 -0.57808404698E-01  0.95039162707E-01  0.51100000000E-03 0. -1.
         11    1    4    4    0    0 -0.24135573902E-01  0.71385690670E-02 -0.28829380000E-01  0.38273742541E-01  0.51100000000E-03 0.  1.
</event>
<event>
 8    1  0.1114686E+005  0.1043930E+01  0.7957747E-01            NaN
         13   -1    0    0    0    0  0.00000000000E+00  0.00000000000E+00  0.74505805969E-08  0.10566000000E+00  0.10566000000E+00 0.  1.
     999900   -1    0    0    0    0 -0.00000000000E+00 -0.00000000000E+00 -0.74505805969E-08  0.93827000000E+00  0.93827000000E+00 0.  1.
     999902    2    1    2    0    0  0.10567753003E-02 -0.85705085830E-03  0.23568201112E-01  0.10203225560E+01  0.10200494139E+01 0.  0.
     999903    2    3    3    0    0 -0.69687374129E-01 -0.87609191094E-01 -0.61400311011E-01  0.12917143715E+00  0.19584726338E-01 0.  0.
         14    1    1    2    0    0 -0.10567753003E-02  0.85705085830E-03 -0.23568201112E-01  0.23607444035E-01  0.00000000000E+00 0. -1.
     999901    1    3    3    0    0  0.70744149429E-01  0.86752140236E-01  0.84968512123E-01  0.89115111882E+00  0.88000000000E+00 0. -1.
        -11    1    4    4    0    0 -0.48507741358E-01 -0.72862572570E-01 -0.43402150501E-01  0.97703445396E-01  0.51100000000E-03 0.  1.
         11    1    4    4    0    0 -0.21179632771E-01 -0.14746618524E-01 -0.17998160511E-01  0.31467991754E-01  0.51100000000E-03 0. -1.
</event>
<event>
 8    1  0.1114686E+005  0.1043930E+01  0.7957747E-01            NaN
         13   -1    0    0    0    0  0.00000000000E+00  0.00000000000E+00  0.74505805969E-08  0.10566000000E+00  0.10566000000E+00 0.  1.
     999900   -1    0    0    0    0 -0.00000000000E+00 -0.00000000000E+00 -0.74505805969E-08  0.93827000000E+00  0.93827000000E+00 0.  1.
     999902    2    1    2    0    0  0.12191882198E-01 -0.99254591535E-02  0.14506981744E-01  0.10225381967E+01  0.10223144107E+01 0.  0.
     999903    2    3    3    0    0 -0.12135764899E-01  0.49957454659E-01  0.12168043341E+00  0.13368278292E+00  0.20541044505E-01 0.  0.
         14    1    1    2    0    0 -0.12191882198E-01  0.99254591535E-02 -0.14506981744E-01  0.21391803343E-01  0.00000000000E+00 0. -1.
     999901    1    3    3    0    0  0.24327647097E-01 -0.59882913812E-01 -0.10717345167E+00  0.88885541373E+00  0.88000000000E+00 0.  1.
        -11    1    4    4    0    0 -0.29985361656E-02  0.25864568169E-01  0.37578677141E-01  0.45720730554E-01  0.51100000000E-03 0. -1.
         11    1    4    4    0    0 -0.91372287336E-02  0.24092886489E-01  0.84101756271E-01  0.87962052370E-01  0.51100000000E-03 0.  1.
</event>
<event>
 8    1  0.1114686E+005  0.1043930E+01  0.7957747E-01            NaN
         13   -1    0    0    0    0  0.00000000000E+00  0.00000000000E+00  0.74505805969E-08  0.10566000000E+00  0.10566000000E+00 0. -1.
     999900   -1    0    0    0    0 -0.00000000000E+00 -0.00000000000E+00 -0.74505805969E-08  0.93827000000E+00  0.93827000000E+00 0. -1.
     999902    2    1    2    0    0 -0.15941405929E-01 -0.10892546679E-01  0.13746051663E-01  0.10202291576E+01  0.10199538244E+01 0.  0.
     999903    2    3    3    0    0 -0.68373512198E-02  0.69749431592E-01 -0.10596454762E+00  0.12842388730E+00  0.18774368129E-01 0.  0.
         14    1    1    2    0    0  0.15941405929E-01  0.10892546679E-01 -0.13746051663E-01  0.23700842442E-01  0.00000000000E+00 0.  1.
     999901    1    3    3    0    0 -0.91040547092E-02 -0.80641978271E-01  0.11971059928E+00  0.89180527025E+00  0.88000000000E+00 0.  1.
        -11    1    4    4    0    0 -0.11896113476E-01  0.59699129766E-01 -0.94016594545E-01  0.11200394985E+00  0.51100000000E-03 0.  1.
         11    1    4    4    0    0  0.50587622565E-02  0.10050301826E-01 -0.11947953076E-01  0.16419937456E-01  0.51100000000E-03 0. -1.
</event>
<event>
 8    1  0.1114686E+005  0.1043930E+01  0.7957747E-01            NaN
         13   -1    0    0    0    0  0.00000000000E+00  0.00000000000E+00  0.74505805969E-08  0.10566000000E+00  0.10566000000E+00 0.  1.
     999900   -1    0    0    0    0 -0.00000000000E+00 -0.00000000000E+00 -0.74505805969E-08  0.93827000000E+00  0.93827000000E+00 0. -1.
     999902    2    1    2    0    0  0.73918094580E-02 -0.22193721043E-01 -0.58850443980E-03  0.10205302898E+01  0.10202619889E+01 0.  0.
     999903    2    3    3    0    0  0.11302483760E+00  0.61165787044E-01 -0.89681326691E-03  0.13030153307E+00  0.21489947109E-01 0.  0.
         14    1    1    2    0    0 -0.73918094580E-02  0.22193721043E-01  0.58850443980E-03  0.23399710217E-01  0.00000000000E+00 0. -1.
     999901    1    3    3    0    0 -0.10563302814E+00 -0.83359508087E-01  0.30830882711E-03  0.89022875671E+00  0.88000000000E+00 0.  1.
        -11    1    4    4    0    0  0.68373199593E-01  0.40518450736E-01  0.94176273228E-02  0.80034942981E-01  0.51100000000E-03 0.  1.
         11    1    4    4    0    0  0.44651638009E-01  0.20647336309E-01 -0.10314440590E-01  0.50266590089E-01  0.51100000000E-03 0. -1.
</event>
<event>
 8    1  0.1114686E+005  0.1043930E+01  0.7957747E-01            NaN
         13   -1    0    0    0    0  0.00000000000E+00  0.00000000000E+00  0.74505805969E-08  0.10566000000E+00  0.10566000000E+00 0.  1.
     999900   -1    0    0    0    0 -0.00000000000E+00 -0.00000000000E+00 -0.74505805969E-08  0.93827000000E+00  0.93827000000E+00 0.  1.
     999902    2    1    2    0    0 -0.48374594506E-02 -0.16818301412E-01  0.14506206965E-01  0.10211992649E+01  0.10209462534E+01 0.  0.
     999903    2    3    3    0    0 -0.94865749860E-01  0.52576663086E-01 -0.68756049819E-01  0.12999033456E+00  0.20156306552E-01 0.  0.
         14    1    1    2    0    0  0.48374594506E-02  0.16818301412E-01 -0.14506206965E-01  0.22730735070E-01  0.00000000000E+00 0. -1.
     999901    1    3    3    0    0  0.90028290409E-01 -0.69394964498E-01  0.83262256784E-01  0.89120893037E+00  0.88000000000E+00 0. -1.
        -11    1    4    4    0    0 -0.50530489815E-01  0.37897107844E-01 -0.45274576891E-01  0.77714667969E-01  0.51100000000E-03 0. -1.
         11    1    4    4    0    0 -0.44335260045E-01  0.14679555242E-01 -0.23481472928E-01  0.52275666588E-01  0.51100000000E-03 0.  1.
</event>
<event>
 8    1  0.1114686E+005  0.1043930E+01  0.7957747E-01            NaN
         13   -1    0    0    0    0  0.00000000000E+00  0.00000000000E+00  0.74505805969E-08  0.10566000000E+00  0.10566000000E+00 0.  1.
     999900   -1    0    0    0    0 -0.00000000000E+00 -0.00000000000E+00 -0.74505805969E-08  0.93827000000E+00  0.93827000000E+00 0.  1.
     999902    2    1    2    0    0 -0.12510066956E-01 -0.72052883107E-02 -0.19829724551E-01  0.10194017320E+01  0.10191065966E+01 0.  0.
     999903    2    3    3    0    0 -0.79799583990E-01  0.94394135052E-01  0.32920996629E-01  0.12943939544E+00  0.19812590317E-01 0.  0.
         14    1    1    2    0    0  0.12510066956E-01  0.72052883107E-02  0.19829724551E-01  0.24528267991E-01  0.00000000000E+00 0.  1.
     999901    1    3    3    0    0  0.67289517034E-01 -0.10159942336E+00 -0.52750721180E-01  0.88996233657E+00  0.88000000000E+00 0.  1.
        -11    1    4    4    0    0 -0.26365693900E-01  0.29227018579E-01  0.20084235208E-01  0.44192828092E-01  0.51100000000E-03 0. -1.
         11    1    4    4    0    0 -0.53433890090E-01  0.65167116473E-01  0.12836761421E-01  0.85246567346E-01  0.51100000000E-03 0.  1.
</event>
<event>
 8    1  0.1114686E+005  0.1043930E+01  0.7957747E-01            NaN
         13   -1    0    0    0    0  0.00000000000E+00  0.00000000000E+00  0.74505805969E-08  0.10566000000E+00  0.10566000000E+00 0.  1.
     999900   -1    0    0    0    0 -0.00000000000E+00 -0.00000000000E+00 -0.74505805969E-08  0.93827000000E+00  0.93827000000E+00 0.  1.
     999902    2    1    2    0    0  0.11960903983E-01  0.20615335783E-01  0.24219012218E-02  0.10199733538E+01  0.10196919738E+01 0.  0.
     999903    2    3    3    0    0  0.64972574882E-02  0.12287609880E+00 -0.45441192238E-01  0.13274283648E+00  0.20371761665E-01 0.  0.
         14    1    1    2    0    0 -0.11960903983E-01 -0.20615335783E-01 -0.24219012218E-02  0.23956646240E-01  0.00000000000E+00 0. -1.
     999901    1    3    3    0    0  0.54636464951E-02 -0.10226076301E+00  0.47863093460E-01  0.88723051728E+00  0.88000000000E+00 0.  1.
        -11    1    4    4    0    0 -0.64455465756E-02  0.34730823293E-01 -0.87764117923E-02  0.36401396707E-01  0.51100000000E-03 0. -1.
         11    1    4    4    0    0  0.12942804064E-01  0.88145275504E-01 -0.36664780446E-01  0.96341439769E-01  0.51100000000E-03 0.  1.
</event>
<event>
 8    1  0.1114686E+005  0.1043930E+01  0.7957747E-01            NaN
         13   -1    0    0    0    0  0.00000000000E+00  0.00000000000E+00  0.74505805969E-08  0.10566000000E+00  0.10566000000E+00 0. -1.
     999900   -1    0    0    0    0 -0.00000000000E+00 -0.00000000000E+00 -0.74505805969E-08  0.93827000000E+00  0.93827000000E+00 0. -1.
     999902    2    1    2    0    0 -0.24217341033E-01 -0.18807306681E-02 -0.40606077844E-02  0.10193026719E+01  0.10190051185E+01 0.  0.
     999903    2    3    3    0    0  0.87953196314E-01  0.58830908760E-03  0.89834118060E-01  0.12722389445E+00  0.19484345051E-01 0.  0.
         14    1    1    2    0    0  0.24217341033E-01  0.18807306681E-02  0.40606077844E-02  0.24627328116E-01  0.00000000000E+00 0. -1.
     999901    1    3    3    0    0 -0.11217053735E+00 -0.24690397557E-02 -0.93894725845E-01  0.89207877743E+00  0.88000000000E+00 0.  1.
        -11    1    4    4    0    0  0.61210585920E-01 -0.84575003759E-02  0.63747874361E-01  0.88782418010E-01  0.51100000000E-03 0. -1.
         11    1    4    4    0    0  0.26742610394E-01  0.90458094635E-02  0.26086243700E-01  0.38441476440E-01  0.51100000000E-03 0.  1.
</event>
<event>
 8    1  0.1114686E+005  0.1043930E+01  0.7957747E-01            NaN
         13   -1    0    0    0    0  0.00000000000E+00  0.00000000000E+00  0.74505805969E-08  0.10566000000E+00  0.10566000000E+00 0.  1.
     999900   -1    0    0    0    0 -0.00000000000E+00 -0.00000000000E+00 -0.74505805969E-08  0.93827000000E+00  0.93827000000E+00 0.  1.
     999902    2    1    2    0    0 -0.18883315841E-01 -0.60685312447E-02 -0.12095102476E-01  0.10206985947E+01  0.10204341836E+01 0.  0.
     999903    2    3    3    0    0 -0.94195882219E-01  0.35681174909E-01 -0.85306263608E-01  0.13346982220E+00  0.19774335858E-01 0.  0.
         14    1    1    2    0    0  0.18883315841E-01  0.60685312447E-02  0.12095102476E-01  0.23231405307E-01  0.00000000000E+00 0. -1.
     999901    1    3    3    0    0  0.75312566378E-01 -0.41749706154E-01  0.73211161131E-01  0.88722877249E+00  0.88000000000E+00 0.  1.
        -11    1    4    4    0    0 -0.75497499627E-01  0.35618843893E-01 -0.64523754746E-01  0.10550900690E+00  0.51100000000E-03 0. -1.
         11    1    4    4    0    0 -0.18698382591E-01  0.62331016287E-04 -0.20782508861E-01  0.27960815300E-01  0.51100000000E-03 0.  1.
</event>
<event>
 8    1  0.1114686E+005  0.1043930E+01  0.7957747E-01            NaN
         13   -1    0    0    0    0  0.00000000000E+00  0.00000000000E+00  0.74505805969E-08  0.10566000000E+00  0.10566000000E+00 0.  1.
     999900   -1    0    0    0    0 -0.00000000000E+00 -0.00000000000E+00 -0.74505805969E-08  0.93827000000E+00  0.93827000000E+00 0.  1.
     999902    2    1    2    0    0  0.18770210294E-01  0.67284589023E-02  0.70779367293E-02  0.10227713105E+01  0.10225524257E+01 0.  0.
     999903    2    3    3    0    0 -0.31433850838E-01 -0.42866203593E-01 -0.11822377549E+00  0.13109838985E+00  0.19604293948E-01 0.  0.
         14    1    1    2    0    0 -0.18770210294E-01 -0.67284589023E-02 -0.70779367293E-02  0.21158689516E-01  0.00000000000E+00 0. -1.
     999901    1    3    3    0    0  0.50204061132E-01  0.49594662496E-01  0.12530171222E+00  0.89167292063E+00  0.88000000000E+00 0. -1.
        -11    1    4    4    0    0  0.18963522462E-02 -0.79594324074E-02 -0.21256888820E-01  0.22783001545E-01  0.51100000000E-03 0. -1.
         11    1    4    4    0    0 -0.33330203084E-01 -0.34906771186E-01 -0.96966886672E-01  0.10831538831E+00  0.51100000000E-03 0.  1.
</event>
<event>
 8    1  0.1114686E+005  0.1043930E+01  0.7957747E-01            NaN
         13   -1    0    0    0    0  0.00000000000E+00  0.00000000000E+00  0.74505805969E-08  0.10566000000E+00  0.10566000000E+00 0.  1.
     999900   -1    0    0    0    0 -0.00000000000E+00 -0.00000000000E+00 -0.74505805969E-08  0.93827000000E+00  0.93827000000E+00 0.  1.
     999902    2    1    2    0    0  0.16881424155E-01 -0.14675424673E-01 -0.27510408202E-02  0.10213929461E+01  0.10211442756E+01 0.  0.
     999903    2    3    3    0    0 -0.28727519898E-01 -0.12749284293E+00  0.93841212883E-02  0.13293630241E+00  0.22456699858E-01 0.  0.
         14    1    1    2    0    0 -0.16881424155E-01  0.14675424673E-01  0.27510408202E-02  0.22537053854E-01  0.00000000000E+00 0.  1.
     999901    1    3    3    0    0  0.45608944052E-01  0.11281741826E+00 -0.12135162108E-01  0.88845664374E+00  0.88000000000E+00 0. -1.
        -11    1    4    4    0    0 -0.12731119796E-02 -0.39704458495E-01 -0.42257038084E-02  0.39952253155E-01  0.51100000000E-03 0. -1.
         11    1    4    4    0    0 -0.27454407918E-01 -0.87788384434E-01  0.13609825097E-01  0.92984049255E-01  0.51100000000E-03 0.  1.
</event>
<event>
 8    1  0.1114686E+005  0.1043930E+01  0.7957747E-01            NaN
         13   -1    0    0    0    0  0.00000000000E+00  0.00000000000E+00  0.74505805969E-08  0.10566000000E+00  0.10566000000E+00 0.  1.
     999900   -1    0    0    0    0 -0.00000000000E+00 -0.00000000000E+00 -0.74505805969E-08  0.93827000000E+00  0.93827000000E+00 0. -1.
     999902    2    1    2    0    0 -0.10863916647E-01  0.18130683586E-01  0.10807210157E-01  0.10201909570E+01  0.10199147251E+01 0.  0.
     999903    2    3    3    0    0  0.10271364791E+00 -0.48588365337E-01  0.60462056032E-01  0.12900248175E+00  0.86635653540E-02 0.  0.
         14    1    1    2    0    0  0.10863916647E-01 -0.18130683586E-01 -0.10807210157E-01  0.23739043022E-01  0.00000000000E+00 0.  1.
     999901    1    3    3    0    0 -0.11357756456E+00  0.66719048923E-01 -0.49654845875E-01  0.89118847523E+00  0.88000000000E+00 0. -1.
        -11    1    4    4    0    0  0.23949947303E-01 -0.14689333045E-01  0.12561420639E-01  0.30780300366E-01  0.51100000000E-03 0. -1.
         11    1    4    4    0    0  0.78763700608E-01 -0.33899032292E-01  0.47900635393E-01  0.98222181384E-01  0.51100000000E-03 0.  1.
</event>
<event>
 8    1  0.1114686E+005  0.1043930E+01  0.7957747E-01            NaN
         13   -1    0    0    0    0  0.00000000000E+00  0.00000000000E+00  0.74505805969E-08  0.10566000000E+00  0.10566000000E+00 0. -1.
     999900   -1    0    0    0    0 -0.00000000000E+00 -0.00000000000E+00 -0.74505805969E-08  0.93827000000E+00  0.93827000000E+00 0. -1.
     999902    2    1    2    0    0  0.87737175710E-02  0.33192474175E-02 -0.21548105574E-01  0.10204285878E+01  0.10201579223E+01 0.  0.
     999903    2    3    3    0    0  0.99947298596E-01  0.13521102986E-01  0.79488701597E-01  0.12990900003E+00  0.19637002921E-01 0.  0.
         14    1    1    2    0    0 -0.87737175710E-02 -0.33192474175E-02  0.21548105574E-01  0.23501412240E-01  0.00000000000E+00 0. -1.
     999901    1    3    3    0    0 -0.91173581025E-01 -0.10201855568E-01 -0.10103680717E+00  0.89051958773E+00  0.88000000000E+00 0. -1.
        -11    1    4    4    0    0  0.32886652187E-01  0.42989515624E-02  0.14963590595E-01  0.36389325923E-01  0.51100000000E-03 0. -1.
         11    1    4    4    0    0  0.67060646409E-01  0.92221514234E-02  0.64525111002E-01  0.93519674104E-01  0.51100000000E-03 0.  1.
</event>
<event>
 8    1  0.1114686E+005  0.1043930E+01  0.7957747E-01            NaN
         13   -1    0    0    0    0  0.00000000000E+00  0.00000000000E+00  0.74505805969E-08  0.10566000000E+00  0.10566000000E+00 0. -1.
     999900   -1    0    0    0    0 -0.00000000000E+00 -0.00000000000E+00 -0.74505805969E-08  0.93827000000E+00  0.93827000000E+00 0. -1.
     999902    2    1    2    0    0 -0.84279058206E-02 -0.93386212113E-02  0.19910917093E-01  0.10203782684E+01  0.10201064290E+01 0.  0.
     999903    2    3    3    0    0  0.55024080754E-01 -0.10489981115E+00 -0.50179645378E-01  0.13016998794E+00  0.19864770525E-01 0.  0.
         14    1    1    2    0    0  0.84279058206E-02  0.93386212113E-02 -0.19910917093E-01  0.23551731616E-01  0.00000000000E+00 0.  1.
     999901    1    3    3    0    0 -0.63451986575E-01  0.95561189938E-01  0.70090562471E-01  0.89020828044E+00  0.88000000000E+00 0.  1.
        -11    1    4    4    0    0  0.51841278139E-01 -0.83991304686E-01 -0.44463452996E-01  0.10825579502E+00  0.51100000000E-03 0.  1.
         11    1    4    4    0    0  0.31828026153E-02 -0.20908506464E-01 -0.57161923819E-02  0.21914192921E-01  0.51100000000E-03 0. -1.
</event>
<event>
 8    1  0.1219463E+005  0.1043930E+01  0.7957747E-01            NaN
         13   -1    0    0    0    0  0.00000000000E+00  0.00000000000E+00  0.74505805969E-08  0.10566000000E+00  0.10566000000E+00 0. -1.
     999900   -1    0    0    0    0 -0.00000000000E+00 -0.00000000000E+00 -0.74505805969E-08  0.93827000000E+00  0.93827000000E+00 0.  1.
     999902    2    1    2    0    0  0.82958665785E-02  0.21970542280E-01  0.22483478015E-02  0.10203380268E+01  0.10200652468E+01 0.  0.
     999903    2    3    3    0    0 -0.57547504942E-01 -0.42088809430E-01 -0.10560265184E+00  0.12900711844E+00  0.20192407715E-01 0.  0.
         14    1    1    2    0    0 -0.82958665785E-02 -0.21970542280E-01 -0.22483478015E-02  0.23591973173E-01  0.00000000000E+00 0.  1.
     999901    1    3    3    0    0  0.65843371521E-01  0.64059351709E-01  0.10785099964E+00  0.89133090838E+00  0.88000000000E+00 0. -1.
        -11    1    4    4    0    0 -0.30110043570E-01 -0.33481219009E-01 -0.58612326012E-01  0.73913954242E-01  0.51100000000E-03 0.  1.
         11    1    4    4    0    0 -0.27437461372E-01 -0.86075904207E-02 -0.46990325828E-01  0.55093164203E-01  0.51100000000E-03 0. -1.
</event>
<event>
 8    1  0.1114686E+005  0.1043930E+01  0.7957747E-01            NaN
         13   -1    0    0    0    0  0.00000000000E+00  0.00000000000E+00  0.74505805969E-08  0.10566000000E+00  0.10566000000E+00 0.  1.
     999900   -1    0    0    0    0 -0.00000000000E+00 -0.00000000000E+00 -0.74505805969E-08  0.93827000000E+00  0.93827000000E+00 0.  1.
     999902    2    1    2    0    0  0.23649324837E-02  0.18346951343E-01 -0.14356646210E-01  0.10205138342E+01  0.10202451514E+01 0.  0.
     999903    2    3    3    0    0  0.98535743771E-01 -0.81284221832E-01  0.64937762685E-02  0.12944148266E+00  0.19912578510E-01 0.  0.
         14    1    1    2    0    0 -0.23649324837E-02 -0.18346951343E-01  0.14356646210E-01  0.23416165775E-01  0.00000000000E+00 0.  1.
     999901    1    3    3    0    0 -0.96170811287E-01  0.99631173174E-01 -0.20850422478E-01  0.89107235157E+00  0.88000000000E+00 0.  1.
        -11    1    4    4    0    0  0.60267123278E-01 -0.59851073462E-01 -0.98201613330E-03  0.84944114684E-01  0.51100000000E-03 0.  1.
         11    1    4    4    0    0  0.38268620493E-01 -0.21433148369E-01  0.74757924018E-02  0.44497367972E-01  0.51100000000E-03 0. -1.
</event>
<event>
 7    1  0.1114686E+005  0.1043930E+01  0.7957747E-01            NaN
         13   -1    0    0    0    0  0.00000000000E+00  0.00000000000E+00  0.74505805969E-08  0.10566000000E+00  0.10566000000E+00 0.  1.
     999900   -1    0    0    0    0 -0.00000000000E+00 -0.00000000000E+00 -0.74505805969E-08  0.93827000000E+00  0.93827000000E+00 0.  1.
     999902    2    1    2    0    0  0.84565510653E-02  0.17781913156E-01  0.12747434873E-01  0.10204735129E+01  0.10202038932E+01 0.  0.
         14    1    1    2    0    0 -0.84565510653E-02 -0.17781913156E-01 -0.12747434873E-01  0.23456487104E-01  0.00000000000E+00 0. -1.
     999901    1    3    3    0    0 -0.31715237486E-01  0.10617850131E+00 -0.60690400295E-01  0.88902365273E+00  0.88000000000E+00 0. -1.
        -11    1    3    3    0    0  0.12583534565E-01 -0.40483031489E-01  0.38510368043E-02  0.42571267143E-01  0.51100000000E-03 0. -1.
         11    1    3    3    0    0  0.27588253986E-01 -0.47913556662E-01  0.69586798364E-01  0.88878593022E-01  0.51100000000E-03 0.  1.
</event>
<event>
 8    1  0.1114686E+005  0.1043930E+01  0.7957747E-01            NaN
         13   -1    0    0    0    0  0.00000000000E+00  0.00000000000E+00  0.74505805969E-08  0.10566000000E+00  0.10566000000E+00 0.  1.
     999900   -1    0    0    0    0 -0.00000000000E+00 -0.00000000000E+00 -0.74505805969E-08  0.93827000000E+00  0.93827000000E+00 0.  1.
     999902    2    1    2    0    0 -0.13383391169E-01  0.80692274240E-03 -0.19883936716E-01  0.10199479813E+01  0.10196659979E+01 0.  0.
     999903    2    3    3    0    0  0.36040712736E-01 -0.34155485982E-01  0.11567233020E+00  0.12751276592E+00  0.20344220346E-01 0.  0.
         14    1    1    2    0    0  0.13383391169E-01 -0.80692274240E-03  0.19883936716E-01  0.23982018739E-01  0.00000000000E+00 0.  1.
     999901    1    3    3    0    0 -0.49424103905E-01  0.34962408724E-01 -0.13555626692E+00  0.89243521534E+00  0.88000000000E+00 0.  1.
        -11    1    4    4    0    0  0.27697861482E-02 -0.20735439843E-02  0.29678294318E-01  0.29883667355E-01  0.51100000000E-03 0. -1.
         11    1    4    4    0    0  0.33270926588E-01 -0.32081941997E-01  0.85994035887E-01  0.97629098570E-01  0.51100000000E-03 0.  1.
</event>
<event>
 8    1  0.1114686E+005  0.1043930E+01  0.7957747E-01            NaN
         13   -1    0    0    0    0  0.00000000000E+00  0.00000000000E+00  0.74505805969E-08  0.10566000000E+00  0.10566000000E+00 0. -1.
     999900   -1    0    0    0    0 -0.00000000000E+00 -0.00000000000E+00 -0.74505805969E-08  0.93827000000E+00  0.93827000000E+00 0. -1.
     999902    2    1    2    0    0 -0.15401150376E-01 -0.16624256998E-01  0.28793913884E-02  0.10210859144E+01  0.10208303445E+01 0.  0.
     999903    2    3    3    0    0 -0.10124827938E+00 -0.16747098309E-01  0.82909202451E-01  0.13329398193E+00  0.19017633608E-01 0.  0.
         14    1    1    2    0    0  0.15401150376E-01  0.16624256998E-01 -0.28793913884E-02  0.22844085633E-01  0.00000000000E+00 0. -1.
     999901    1    3    3    0    0  0.85847129001E-01  0.12284131132E-03 -0.80029811063E-01  0.88779193244E+00  0.88000000000E+00 0. -1.
        -11    1    4    4    0    0 -0.54421613809E-01 -0.63919901729E-02  0.55773118612E-01  0.78188691437E-01  0.51100000000E-03 0. -1.
         11    1    4    4    0    0 -0.46826665568E-01 -0.10355108136E-01  0.27136083839E-01  0.55105290489E-01  0.51100000000E-03 0.  1.
</event>
<event>
 8    1  0.1114686E+005  0.1043930E+01  0.7957747E-01            NaN
         13   -1    0    0    0    0  0.00000000000E+00  0.00000000000E+00  0.74505805969E-08  0.10566000000E+00  0.10566000000E+00 0.  1.
     999900   -1    0    0    0    0 -0.00000000000E+00 -0.00000000000E+00 -0.74505805969E-08  0.93827000000E+00  0.93827000000E+00 0. -1.
     999902    2    1    2    0    0 -0.14293595673E-01 -0.42871821398E-02  0.19005523056E-01  0.10197660451E+01  0.10194797154E+01 0.  0.
     999903    2    3    3    0    0 -0.10131671955E+00 -0.38122881341E-01  0.74524725434E-01  0.13308670036E+00  0.20969105086E-01 0.  0.
         14    1    1    2    0    0  0.14293595673E-01  0.42871821398E-02 -0.19005523056E-01  0.24163954863E-01  0.00000000000E+00 0. -1.
     999901    1    3    3    0    0  0.87023123878E-01  0.33835699201E-01 -0.55519202378E-01  0.88667934478E+00  0.88000000000E+00 0. -1.
        -11    1    4    4    0    0 -0.70693102271E-01 -0.35565714173E-01  0.48522350671E-01  0.92828413587E-01  0.51100000000E-03 0. -1.
         11    1    4    4    0    0 -0.30623617280E-01 -0.25571671678E-02  0.26002374763E-01  0.40258286769E-01  0.51100000000E-03 0.  1.
</event>
<event>
 8    1  0.1114686E+005  0.1043930E+01  0.7957747E-01            NaN
         13   -1    0    0    0    0  0.00000000000E+00  0.00000000000E+00  0.74505805969E-08  0.10566000000E+00  0.10566000000E+00 0. -1.
     999900   -1    0    0    0    0 -0.00000000000E+00 -0.00000000000E+00 -0.74505805969E-08  0.93827000000E+00  0.93827000000E+00 0.  1.
     999902    2    1    2    0    0  0.11637417187E-01  0.21106316392E-02  0.22813321208E-01  0.10182330767E+01  0.10179087712E+01 0.  0.
     999903    2    3    3    0    0 -0.44610668272E-01  0.11313705160E+00  0.40132317956E-01  0.12930638638E+00  0.17872729095E-01 0.  0.
         14    1    1    2    0    0 -0.11637417187E-01 -0.21106316392E-02 -0.22813321208E-01  0.25696923342E-01  0.00000000000E+00 0.  1.
     999901    1    3    3    0    0  0.56248085459E-01 -0.11102641996E+00 -0.17318996748E-01  0.88892669028E+00  0.88000000000E+00 0. -1.
        -11    1    4    4    0    0 -0.41422390011E-01  0.87640124682E-01  0.35240748875E-01  0.10314444896E+00  0.51100000000E-03 0. -1.
         11    1    4    4    0    0 -0.31882782606E-02  0.25496926916E-01  0.48915690804E-02  0.26161937419E-01  0.51100000000E-03 0.  1.
</event>
<event>
 8    1  0.1114686E+005  0.1043930E+01  0.7957747E-01            NaN
         13   -1    0    0    0    0  0.00000000000E+00  0.00000000000E+00  0.74505805969E-08  0.10566000000E+00  0.10566000000E+00 0. -1.
     999900   -1    0    0    0    0 -0.00000000000E+00 -0.00000000000E+00 -0.74505805969E-08  0.93827000000E+00  0.93827000000E+00 0. -1.
     999902    2    1    2    0    0 -0.12375157645E-01 -0.17851179329E-01  0.11244164078E-01  0.10194710475E+01  0.10191775981E+01 0.  0.
     999903    2    3    3    0    0 -0.84075426486E-01  0.60189874114E-01 -0.74464744047E-01  0.12897828983E+00  0.19972552614E-01 0.  0.
         14    1    1    2    0    0  0.12375157645E-01  0.17851179329E-01 -0.11244164078E-01  0.24458952471E-01  0.00000000000E+00 0.  1.
     999901    1    3    3    0    0  0.71700268841E-01 -0.78041053443E-01  0.85708908125E-01  0.89049275769E+00  0.88000000000E+00 0. -1.
        -11    1    4    4    0    0 -0.42835894011E-01  0.22831233182E-01 -0.25386690697E-01  0.54780691944E-01  0.51100000000E-03 0.  1.
         11    1    4    4    0    0 -0.41239532475E-01  0.37358640931E-01 -0.49078053350E-01  0.74197597890E-01  0.51100000000E-03 0. -1.
</event>
<event>
 8    1  0.1114686E+005  0.1043930E+01  0.7957747E-01            NaN
         13   -1    0    0    0    0  0.00000000000E+00  0.00000000000E+00  0.74505805969E-08  0.10566000000E+00  0.10566000000E+00 0. -1.
     999900   -1    0    0    0    0 -0.00000000000E+00 -0.00000000000E+00 -0.74505805969E-08  0.93827000000E+00  0.93827000000E+00 0. -1.
     999902    2    1    2    0    0 -0.16493468181E-01 -0.82760761990E-02 -0.11668977103E-01  0.10220967007E+01  0.10218634805E+01 0.  0.
     999903    2    3    3    0    0 -0.33117890134E-01  0.57712963257E-01 -0.11404887508E+00  0.13355150311E+00  0.20031907062E-01 0.  0.
         14    1    1    2    0    0  0.16493468181E-01  0.82760761990E-02  0.11668977103E-01  0.21833299258E-01  0.00000000000E+00 0. -1.
     999901    1    3    3    0    0  0.16624421953E-01 -0.65989039456E-01  0.10237989797E+00  0.88854519764E+00  0.88000000000E+00 0.  1.
        -11    1    4    4    0    0 -0.29203911217E-01  0.31811567637E-01 -0.74461915757E-01  0.86079511413E-01  0.51100000000E-03 0.  1.
         11    1    4    4    0    0 -0.39139789166E-02  0.25901395620E-01 -0.39586959320E-01  0.47471991692E-01  0.51100000000E-03 0. -1.
</event>
<event>
 8    1  0.1114686E+005  0.1043930E+01  0.7957747E-01            NaN
         13   -1    0    0    0    0  0.00000000000E+00  0.00000000000E+00  0.74505805969E-08  0.10566000000E+00  0.10566000000E+00 0.  1.
     999900   -1    0    0    0    0 -0.00000000000E+00 -0.00000000000E+00 -0.74505805969E-08  0.93827000000E+00  0.93827000000E+00 0.  1.
     999902    2    1    2    0    0  0.12664551520E-01 -0.83990168849E-02 -0.18170650929E-01  0.10202423048E+01  0.10199672806E+01 0.  0.
     999903    2    3    3    0    0  0.87403138882E-01 -0.81652520653E-01  0.50564419129E-01  0.13137986204E+00  0.19936520553E-01 0.  0.
         14    1    1    2    0    0 -0.12664551520E-01  0.83990168849E-02  0.18170650929E-01  0.23687695224E-01  0.00000000000E+00 0.  1.
     999901    1    3    3    0    0 -0.74738587361E-01  0.73253503768E-01 -0.68735070058E-01  0.88886244274E+00  0.88000000000E+00 0.  1.
        -11    1    4    4    0    0  0.11054218791E-01 -0.45108397234E-02  0.97489768869E-02  0.15422292288E-01  0.51100000000E-03 0.  1.
         11    1    4    4    0    0  0.76348920091E-01 -0.77141680930E-01  0.40815442242E-01  0.11595756975E+00  0.51100000000E-03 0. -1.
</event>
<event>
 8    1  0.1114686E+005  0.1043930E+01  0.7957747E-01            NaN
         13   -1    0    0    0    0  0.00000000000E+00  0.00000000000E+00  0.74505805969E-08  0.10566000000E+00  0.10566000000E+00 0.  1.
     999900   -1    0    0    0    0 -0.00000000000E+00 -0.00000000000E+00 -0.74505805969E-08  0.93827000000E+00  0.93827000000E+00 0. -1.
     999902    2    1    2    0    0  0.12355519054E-01  0.13260165074E-01  0.15894635555E-01  0.10198233563E+01  0.10195383994E+01 0.  0.
     999903    2    3    3    0    0 -0.60451383742E-01  0.70600732352E-01  0.91132685563E-01  0.13176392707E+00  0.20438514986E-01 0.  0.
         14    1    1    2    0    0 -0.12355519054E-01 -0.13260165074E-01 -0.15894635555E-01  0.24106643655E-01  0.00000000000E+00 0. -1.
     999901    1    3    3    0    0  0.72806902796E-01 -0.57340567277E-01 -0.75238050008E-01  0.88805942927E+00  0.88000000000E+00 0.  1.
        -11    1    4    4    0    0 -0.53986727256E-01  0.65337636884E-01  0.73238193270E-01  0.11201637196E+00  0.51100000000E-03 0. -1.
         11    1    4    4    0    0 -0.64646564863E-02  0.52630954676E-02  0.17894492292E-01  0.19747555109E-01  0.51100000000E-03 0.  1.
</event>
<event>
 8    1  0.1114686E+005  0.1043930E+01  0.7957747E-01            NaN
         13   -1    0    0    0    0  0.00000000000E+00  0.00000000000E+00  0.74505805969E-08  0.10566000000E+00  0.10566000000E+00 0. -1.
     999900   -1    0    0    0    0 -0.00000000000E+00 -0.00000000000E+00 -0.74505805969E-08  0.93827000000E+00  0.93827000000E+00 0. -1.
     999902    2    1    2    0    0  0.11551159815E-01 -0.25693413261E-01  0.21101703586E-01  0.10087325189E+01  0.10081182630E+01 0.  0.
     999903    2    3    3    0    0 -0.99133685403E-01 -0.28867039692E-03  0.65298379981E-01  0.12033515171E+00  0.19725602543E-01 0.  0.
         14    1    1    2    0    0 -0.11551159815E-01  0.25693413261E-01 -0.21101703586E-01  0.35197481051E-01  0.00000000000E+00 0.  1.
     999901    1    3    3    0    0  0.11068484522E+00 -0.25404742865E-01 -0.44196676396E-01  0.88839736724E+00  0.88000000000E+00 0. -1.
        -11    1    4    4    0    0 -0.51095995040E-01  0.37857291808E-02  0.22866661422E-01  0.56109515950E-01  0.51100000000E-03 0.  1.
         11    1    4    4    0    0 -0.48037690363E-01 -0.40743995778E-02  0.42431718559E-01  0.64225635756E-01  0.51100000000E-03 0. -1.
</event>
<event>
 8    1  0.1114686E+005  0.1043930E+01  0.7957747E-01            NaN
         13   -1    0    0    0    0  0.00000000000E+00  0.00000000000E+00  0.74505805969E-08  0.10566000000E+00  0.10566000000E+00 0.  1.
     999900   -1    0    0    0    0 -0.00000000000E+00 -0.00000000000E+00 -0.74505805969E-08  0.93827000000E+00  0.93827000000E+00 0. -1.
     999902    2    1    2    0    0  0.22921620100E-01  0.58082364313E-02 -0.20768070454E-02  0.10201929108E+01  0.10199167249E+01 0.  0.
     999903    2    3    3    0    0 -0.18104911537E-01 -0.10767226779E+00 -0.67473112489E-01  0.12955399520E+00  0.17621341901E-01 0.  0.
         14    1    1    2    0    0 -0.22921620100E-01 -0.58082364313E-02  0.20768070454E-02  0.23737089248E-01  0.00000000000E+00 0. -1.
     999901    1    3    3    0    0  0.41026531637E-01  0.11348050422E+00  0.65396305443E-01  0.89063891556E+00  0.88000000000E+00 0.  1.
        -11    1    4    4    0    0 -0.17644258175E-02 -0.59846220339E-01 -0.40250750392E-01  0.72146152465E-01  0.51100000000E-03 0.  1.
         11    1    4    4    0    0 -0.16340485719E-01 -0.47826047448E-01 -0.27222362096E-01  0.57407842732E-01  0.51100000000E-03 0. -1.
</event>
<event>
 8    1  0.1114686E+005  0.1043930E+01  0.7957747E-01            NaN
         13   -1    0    0    0    0  0.00000000000E+00  0.00000000000E+00  0.74505805969E-08  0.10566000000E+00  0.10566000000E+00 0. -1.
     999900   -1    0    0    0    0 -0.00000000000E+00 -0.00000000000E+00 -0.74505805969E-08  0.93827000000E+00  0.93827000000E+00 0. -1.
     999902    2    1    2    0    0  0.22810499631E-01  0.54496168094E-02  0.79887281884E-03  0.10204639519E+01  0.10201941098E+01 0.  0.
     999903    2    3    3    0    0 -0.12533225827E+00  0.14579163682E-01 -0.77450309357E-02  0.12799399516E+00  0.20043710124E-01 0.  0.
         14    1    1    2    0    0 -0.22810499631E-01 -0.54496168094E-02 -0.79887281884E-03  0.23466048124E-01  0.00000000000E+00 0.  1.
     999901    1    3    3    0    0  0.14814275791E+00 -0.91295468729E-02  0.85439037546E-02  0.89246995671E+00  0.88000000000E+00 0.  1.
        -11    1    4    4    0    0 -0.67010591244E-01  0.14436804469E-01 -0.11677416296E-01  0.69537499484E-01  0.51100000000E-03 0. -1.
         11    1    4    4    0    0 -0.58321667030E-01  0.14235921366E-03  0.39323853603E-02  0.58456495678E-01  0.51100000000E-03 0.  1.
</event>
<event>
 8    1  0.1114686E+005  0.1043930E+01  0.7957747E-01            NaN
         13   -1    0    0    0    0  0.00000000000E+00  0.00000000000E+00  0.74505805969E-08  0.10566000000E+00  0.10566000000E+00 0.  1.
     999900   -1    0    0    0    0 -0.00000000000E+00 -0.00000000000E+00 -0.74505805969E-08  0.93827000000E+00  0.93827000000E+00 0.  1.
     999902    2    1    2    0    0 -0.93708685261E-02 -0.51273871806E-02 -0.20736479841E-01  0.10206039443E+01  0.10203373493E+01 0.  0.
     999903    2    3    3    0    0  0.63134346307E-02  0.10570403261E+00 -0.75812587498E-01  0.13180532902E+00  0.20295180895E-01 0.  0.
         14    1    1    2    0    0  0.93708685261E-02  0.51273871806E-02  0.20736479841E-01  0.23326055655E-01  0.00000000000E+00 0.  1.
     999901    1    3    3    0    0 -0.15684303157E-01 -0.11083141979E+00  0.55076107657E-01  0.88879861533E+00  0.88000000000E+00 0.  1.
        -11    1    4    4    0    0 -0.52590837195E-02  0.50787153395E-01 -0.43260204815E-01  0.66923085353E-01  0.51100000000E-03 0. -1.
         11    1    4    4    0    0  0.11572518350E-01  0.54916879212E-01 -0.32552382683E-01  0.64882243663E-01  0.51100000000E-03 0.  1.
</event>
<event>
 8    1  0.1114686E+005  0.1043930E+01  0.7957747E-01            NaN
         13   -1    0    0    0    0  0.00000000000E+00  0.00000000000E+00  0.74505805969E-08  0.10566000000E+00  0.10566000000E+00 0.  1.
     999900   -1    0    0    0    0 -0.00000000000E+00 -0.00000000000E+00 -0.74505805969E-08  0.93827000000E+00  0.93827000000E+00 0.  1.
     999902    2    1    2    0    0 -0.14232266439E-01  0.58752901119E-02  0.21401436406E-01  0.10175652902E+01  0.10172236833E+01 0.  0.
     999903    2    3    3    0    0 -0.87824795387E-01  0.54770551017E-01  0.78492008789E-01  0.13130012656E+00  0.19123803141E-01 0.  0.
         14    1    1    2    0    0  0.14232266439E-01 -0.58752901119E-02 -0.21401436406E-01  0.26364709787E-01  0.00000000000E+00 0. -1.
     999901    1    3    3    0    0  0.73592528948E-01 -0.48895260905E-01 -0.57090572383E-01  0.88626516366E+00  0.88000000000E+00 0.  1.
        -11    1    4    4    0    0 -0.40952489950E-01  0.27583544323E-01  0.49181175246E-01  0.69692233929E-01  0.51100000000E-03 0.  1.
         11    1    4    4    0    0 -0.46872305438E-01  0.27187006694E-01  0.29310833543E-01  0.61607892628E-01  0.51100000000E-03 0. -1.
</event>
<event>
 8    1  0.1114686E+005  0.1043930E+01  0.7957747E-01            NaN
         13   -1    0    0    0    0  0.00000000000E+00  0.00000000000E+00  0.74505805969E-08  0.10566000000E+00  0.10566000000E+00 0.  1.
     999900   -1    0    0    0    0 -0.00000000000E+00 -0.00000000000E+00 -0.74505805969E-08  0.93827000000E+00  0.93827000000E+00 0. -1.
     999902    2    1    2    0    0  0.17916302582E-01 -0.39777028473E-02 -0.13609967260E-01  0.10210816472E+01  0.10208259807E+01 0.  0.
     999903    2    3    3    0    0  0.71282621820E-01  0.98315375338E-01  0.46019899832E-01  0.13154943363E+00  0.20983257785E-01 0.  0.
         14    1    1    2    0    0 -0.17916302582E-01  0.39777028473E-02  0.13609967260E-01  0.22848352828E-01  0.00000000000E+00 0. -1.
     999901    1    3    3    0    0 -0.53366319238E-01 -0.10229307819E+00 -0.59629867092E-01  0.88953221354E+00  0.88000000000E+00 0.  1.
        -11    1    4    4    0    0  0.14393845756E-01  0.36436516002E-01  0.14771542131E-01  0.41871972392E-01  0.51100000000E-03 0. -1.
         11    1    4    4    0    0  0.56888776064E-01  0.61878859335E-01  0.31248357700E-01  0.89677461241E-01  0.51100000000E-03 0.  1.
</event>
<event>
 8    1  0.1114686E+005  0.1043930E+01  0.7957747E-01            NaN
         13   -1    0    0    0    0  0.00000000000E+00  0.00000000000E+00  0.74505805969E-08  0.10566000000E+00  0.10566000000E+00 0. -1.
     999900   -1    0    0    0    0 -0.00000000000E+00 -0.00000000000E+00 -0.74505805969E-08  0.93827000000E+00  0.93827000000E+00 0. -1.
     999902    2    1    2    0    0 -0.49768039425E-02 -0.18114654607E-01  0.13854360540E-01  0.10205879222E+01  0.10203209566E+01 0.  0.
     999903    2    3    3    0    0  0.83130340440E-01  0.90078017650E-01  0.37736384285E-01  0.12927491644E+00  0.16225490928E-01 0.  0.
         14    1    1    2    0    0  0.49768039425E-02  0.18114654607E-01 -0.13854360540E-01  0.23342077778E-01  0.00000000000E+00 0.  1.
     999901    1    3    3    0    0 -0.88107144383E-01 -0.10819267226E+00 -0.23882023745E-01  0.89131300578E+00  0.88000000000E+00 0. -1.
        -11    1    4    4    0    0  0.46321335859E-01  0.61169981517E-01  0.20824367618E-01  0.79506906633E-01  0.51100000000E-03 0. -1.
         11    1    4    4    0    0  0.36809004581E-01  0.28908036132E-01  0.16912016667E-01  0.49768009806E-01  0.51100000000E-03 0.  1.
</event>
<event>
 7    1  0.1114686E+005  0.1043930E+01  0.7957747E-01            NaN
         13   -1    0    0    0    0  0.00000000000E+00  0.00000000000E+00  0.74505805969E-08  0.10566000000E+00  0.10566000000E+00 0. -1.
     999900   -1    0    0    0    0 -0.00000000000E+00 -0.00000000000E+00 -0.74505805969E-08  0.93827000000E+00  0.93827000000E+00 0.  1.
     999902    2    1    2    0    0 -0.26259873013E-02 -0.14926209931E-01  0.18460979769E-01  0.10200449560E+01  0.10197652754E+01 0.  0.
         14    1    1    2    0    0  0.26259873013E-02  0.14926209931E-01 -0.18460979769E-01  0.23885043987E-01  0.00000000000E+00 0. -1.
     999901    1    3    3    0    0  0.56572145154E-01 -0.11474798358E+00 -0.24244781447E-01  0.88958154026E+00  0.88000000000E+00 0.  1.
        -11    1    3    3    0    0 -0.58271071938E-01  0.61408600034E-01  0.32713798189E-01  0.90757851979E-01  0.51100000000E-03 0.  1.
         11    1    3    3    0    0 -0.92706051763E-03  0.38413173617E-01  0.99919630275E-02  0.39705563774E-01  0.51100000000E-03 0. -1.
</event>
<event>
 8    1  0.1114686E+005  0.1043930E+01  0.7957747E-01            NaN
         13   -1    0    0    0    0  0.00000000000E+00  0.00000000000E+00  0.74505805969E-08  0.10566000000E+00  0.10566000000E+00 0. -1.
     999900   -1    0    0    0    0 -0.00000000000E+00 -0.00000000000E+00 -0.74505805969E-08  0.93827000000E+00  0.93827000000E+00 0. -1.
     999902    2    1    2    0    0 -0.17166023972E-01  0.11986713225E-01  0.84246787686E-02  0.10213616840E+01  0.10211123154E+01 0.  0.
     999903    2    3    3    0    0 -0.91101915774E-01 -0.93398319877E-01  0.10516433576E-02  0.13196476311E+00  0.19768346834E-01 0.  0.
         14    1    1    2    0    0  0.17166023972E-01 -0.11986713225E-01 -0.84246787686E-02  0.22568315961E-01  0.00000000000E+00 0. -1.
     999901    1    3    3    0    0  0.73935891803E-01  0.10538503310E+00  0.73730354110E-02  0.88939692092E+00  0.88000000000E+00 0.  1.
        -11    1    4    4    0    0 -0.58726367689E-01 -0.46572144956E-01 -0.16244008951E-02  0.74970999373E-01  0.51100000000E-03 0. -1.
         11    1    4    4    0    0 -0.32375548085E-01 -0.46826174922E-01  0.26760442527E-02  0.56993763742E-01  0.51100000000E-03 0.  1.
</event>
<event>
 8    1  0.1114686E+005  0.1043930E+01  0.7957747E-01            NaN
         13   -1    0    0    0    0  0.00000000000E+00  0.00000000000E+00  0.74505805969E-08  0.10566000000E+00  0.10566000000E+00 0. -1.
     999900   -1    0    0    0    0 -0.00000000000E+00 -0.00000000000E+00 -0.74505805969E-08  0.93827000000E+00  0.93827000000E+00 0.  1.
     999902    2    1    2    0    0 -0.13506634903E-02  0.64971651225E-02  0.23300705950E-01  0.10197027355E+01  0.10194148854E+01 0.  0.
     999903    2    3    3    0    0 -0.36978763886E-01 -0.12298043665E-01  0.12541684588E+00  0.13288238875E+00  0.20240384205E-01 0.  0.
         14    1    1    2    0    0  0.13506634903E-02 -0.64971651225E-02 -0.23300705950E-01  0.24227264481E-01  0.00000000000E+00 0.  1.
     999901    1    3    3    0    0  0.35628100395E-01  0.18795208788E-01 -0.10211613993E+00  0.88682034677E+00  0.88000000000E+00 0.  1.
        -11    1    4    4    0    0 -0.15782555603E-01 -0.14570067295E-01  0.48133364839E-01  0.52711079045E-01  0.51100000000E-03 0. -1.
         11    1    4    4    0    0 -0.21196208283E-01  0.22720236300E-02  0.77283481040E-01  0.80171309704E-01  0.51100000000E-03 0.  1.
</event>
<event>
 8    1  0.1114686E+005  0.1043930E+01  0.7957747E-01            NaN
         13   -1    0    0    0    0  0.00000000000E+00  0.00000000000E+00  0.74505805969E-08  0.10566000000E+00  0.10566000000E+00 0. -1.
     999900   -1    0    0    0    0 -0.00000000000E+00 -0.00000000000E+00 -0.74505805969E-08  0.93827000000E+00  0.93827000000E+00 0. -1.
     999902    2    1    2    0    0  0.15318425653E-01 -0.18334588284E-01 -0.91766649359E-03  0.10200207256E+01  0.10197404705E+01 0.  0.
     999903    2    3    3    0    0  0.32225434311E-01 -0.80994524436E-01 -0.97604921211E-01  0.13234931127E+00  0.19774426506E-01 0.  0.
         14    1    1    2    0    0 -0.15318425653E-01  0.18334588284E-01  0.91766649359E-03  0.23909274431E-01  0.00000000000E+00 0. -1.
     999901    1    3    3    0    0 -0.16907008658E-01  0.62659936152E-01  0.96687254718E-01  0.88767141430E+00  0.88000000000E+00 0.  1.
        -11    1    4    4    0    0  0.18706538538E-01 -0.65822089474E-01 -0.68291295655E-01  0.96677009832E-01  0.51100000000E-03 0. -1.
         11    1    4    4    0    0  0.13518895772E-01 -0.15172434962E-01 -0.29313625557E-01  0.35672301437E-01  0.51100000000E-03 0.  1.
</event>
<event>
 8    1  0.1114686E+005  0.1043930E+01  0.7957747E-01            NaN
         13   -1    0    0    0    0  0.00000000000E+00  0.00000000000E+00  0.74505805969E-08  0.10566000000E+00  0.10566000000E+00 0. -1.
     999900   -1    0    0    0    0 -0.00000000000E+00 -0.00000000000E+00 -0.74505805969E-08  0.93827000000E+00  0.93827000000E+00 0. -1.
     999902    2    1    2    0    0  0.15627404482E-01 -0.24694880239E-02  0.17796648966E-01  0.10201175063E+01  0.10198395422E+01 0.  0.
     999903    2    3    3    0    0 -0.54217861747E-01  0.10803358914E+00 -0.40294649205E-01  0.12856611114E+00  0.17168379794E-01 0.  0.
         14    1    1    2    0    0 -0.15627404482E-01  0.24694880239E-02 -0.17796648966E-01  0.23812493704E-01  0.00000000000E+00 0.  1.
     999901    1    3    3    0    0  0.69845266229E-01 -0.11050307716E+00  0.58091298171E-01  0.89155139515E+00  0.88000000000E+00 0.  1.
        -11    1    4    4    0    0 -0.14381007904E-01  0.16470703108E-01 -0.35097415487E-02  0.22151226963E-01  0.51100000000E-03 0. -1.
         11    1    4    4    0    0 -0.39836853842E-01  0.91562886033E-01 -0.36784907656E-01  0.10641488418E+00  0.51100000000E-03 0.  1.
</event>
<event>
 8    1  0.1114686E+005  0.1043930E+01  0.7957747E-01            NaN
         13   -1    0    0    0    0  0.00000000000E+00  0.00000000000E+00  0.74505805969E-08  0.10566000000E+00  0.10566000000E+00 0.  1.
     999900   -1    0    0    0    0 -0.00000000000E+00 -0.00000000000E+00 -0.74505805969E-08  0.93827000000E+00  0.93827000000E+00 0. -1.
     999902    2    1    2    0    0  0.75515577541E-02  0.19392268496E-01 -0.99290442938E-02  0.10208719857E+01  0.10206115516E+01 0.  0.
     999903    2    3    3    0    0 -0.35190981246E-01 -0.90301413961E-01 -0.84281565856E-01  0.12992421729E+00  0.19600239043E-01 0.  0.
         14    1    1    2    0    0 -0.75515577541E-02 -0.19392268496E-01  0.99290442938E-02  0.23058014279E-01  0.00000000000E+00 0.  1.
     999901    1    3    3    0    0  0.42742539000E-01  0.10969368246E+00  0.74352521562E-01  0.89094776843E+00  0.88000000000E+00 0.  1.
        -11    1    4    4    0    0 -0.20953395110E-01 -0.35199166577E-01 -0.26330529169E-01  0.48698911503E-01  0.51100000000E-03 0. -1.
         11    1    4    4    0    0 -0.14237586137E-01 -0.55102247385E-01 -0.57951036687E-01  0.81225305786E-01  0.51100000000E-03 0.  1.
</event>
<event>
 8    1  0.1114686E+005  0.1043930E+01  0.7957747E-01            NaN
         13   -1    0    0    0    0  0.00000000000E+00  0.00000000000E+00  0.74505805969E-08  0.10566000000E+00  0.10566000000E+00 0.  1.
     999900   -1    0    0    0    0 -0.00000000000E+00 -0.00000000000E+00 -0.74505805969E-08  0.93827000000E+00  0.93827000000E+00 0. -1.
     999902    2    1    2    0    0  0.51017181567E-02 -0.43724363940E-02  0.24103032522E-01  0.10189079716E+01  0.10186006836E+01 0.  0.
     999903    2    3    3    0    0  0.36899014559E-01  0.15914123763E-01  0.12454507929E+00  0.13239163372E+00  0.20031757115E-01 0.  0.
         14    1    1    2    0    0 -0.51017181567E-02  0.43724363940E-02 -0.24103032522E-01  0.25022028394E-01  0.00000000000E+00 0. -1.
     999901    1    3    3    0    0 -0.31797296402E-01 -0.20286560157E-01 -0.10044204677E+00  0.88651633789E+00  0.88000000000E+00 0. -1.
        -11    1    4    4    0    0  0.12676656268E-01  0.16308449893E-01  0.56114377228E-01  0.59797555173E-01  0.51100000000E-03 0.  1.
         11    1    4    4    0    0  0.24222358291E-01 -0.39432613075E-03  0.68430702062E-01  0.72594078546E-01  0.51100000000E-03 0. -1.
</event>
<event>
 8    1  0.1114686E+005  0.1043930E+01  0.7957747E-01            NaN
         13   -1    0    0    0    0  0.00000000000E+00  0.00000000000E+00  0.74505805969E-08  0.10566000000E+00  0.10566000000E+00 0.  1.
     999900   -1    0    0    0    0 -0.00000000000E+00 -0.00000000000E+00 -0.74505805969E-08  0.93827000000E+00  0.93827000000E+00 0. -1.
     999902    2    1    2    0    0  0.20473538690E-01  0.93668853293E-02  0.63469929566E-02  0.10205379362E+01  0.10202698127E+01 0.  0.
     999903    2    3    3    0    0  0.40686162524E-01 -0.11631778082E+00 -0.38850374186E-01  0.13023013134E+00  0.16289431556E-01 0.  0.
         14    1    1    2    0    0 -0.20473538690E-01 -0.93668853293E-02 -0.63469929566E-02  0.23392063758E-01  0.00000000000E+00 0.  1.
     999901    1    3    3    0    0 -0.20212623834E-01  0.12568466615E+00  0.45197367143E-01  0.89030780490E+00  0.88000000000E+00 0.  1.
        -11    1    4    4    0    0  0.13645474377E-01 -0.27660678182E-01 -0.35749601860E-02  0.31054042407E-01  0.51100000000E-03 0.  1.
         11    1    4    4    0    0  0.27040688147E-01 -0.88657102634E-01 -0.35275414000E-01  0.99176088937E-01  0.51100000000E-03 0. -1.
</event>
<event>
 8    1  0.1114686E+005  0.1043930E+01  0.7957747E-01            NaN
         13   -1    0    0    0    0  0.00000000000E+00  0.00000000000E+00  0.74505805969E-08  0.10566000000E+00  0.10566000000E+00 0.  1.
     999900   -1    0    0    0    0 -0.00000000000E+00 -0.00000000000E+00 -0.74505805969E-08  0.93827000000E+00  0.93827000000E+00 0.  1.
     999902    2    1    2    0    0 -0.10748156765E-01  0.10984991334E-01 -0.18623598721E-01  0.10197839581E+01  0.10194980578E+01 0.  0.
     999903    2    3    3    0    0 -0.17655433222E-01  0.12848569733E+00 -0.12449712883E-01  0.13192572438E+00  0.20715034703E-01 0.  0.
         14    1    1    2    0    0  0.10748156765E-01 -0.10984991334E-01  0.18623598721E-01  0.24146041865E-01  0.00000000000E+00 0.  1.
     999901    1    3    3    0    0  0.69072764569E-02 -0.11750070599E+00 -0.61738858376E-02  0.88785823375E+00  0.88000000000E+00 0.  1.
        -11    1    4    4    0    0 -0.45410940172E-02  0.93970609393E-01 -0.13129309220E-01  0.94993351589E-01  0.51100000000E-03 0.  1.
         11    1    4    4    0    0 -0.13114339205E-01  0.34515087935E-01  0.67959633623E-03  0.36932372793E-01  0.51100000000E-03 0. -1.
</event>
<event>
 8    1  0.1114686E+005  0.1043930E+01  0.7957747E-01            NaN
         13   -1    0    0    0    0  0.00000000000E+00  0.00000000000E+00  0.74505805969E-08  0.10566000000E+00  0.10566000000E+00 0. -1.
     999900   -1    0    0    0    0 -0.00000000000E+00 -0.00000000000E+00 -0.74505805969E-08  0.93827000000E+00  0.93827000000E+00 0. -1.
     999902    2    1    2    0    0  0.17813867634E-01  0.14590762589E-01 -0.51974552371E-02  0.10203241157E+01  0.10200510101E+01 0.  0.
     999903    2    3    3    0    0  0.10652620408E+00 -0.45507000714E-01  0.59233061198E-01  0.13148616013E+00  0.19008826846E-01 0.  0.
         14    1    1    2    0    0 -0.17813867634E-01 -0.14590762589E-01  0.51974552371E-02  0.23605884307E-01  0.00000000000E+00 0. -1.
     999901    1    3    3    0    0 -0.88712336448E-01  0.60097763303E-01 -0.64430516435E-01  0.88883795556E+00  0.88000000000E+00 0. -1.
        -11    1    4    4    0    0  0.70579746970E-01 -0.32363488916E-01  0.29676478794E-01  0.83125511198E-01  0.51100000000E-03 0. -1.
         11    1    4    4    0    0  0.35946457111E-01 -0.13143511798E-01  0.29556582404E-01  0.48360648937E-01  0.51100000000E-03 0.  1.
</event>
<event>
 8    1  0.1114686E+005  0.1043930E+01  0.7957747E-01            NaN
         13   -1    0    0    0    0  0.00000000000E+00  0.00000000000E+00  0.74505805969E-08  0.10566000000E+00  0.10566000000E+00 0.  1.
     999900   -1    0    0    0    0 -0.00000000000E+00 -0.00000000000E+00 -0.74505805969E-08  0.93827000000E+00  0.93827000000E+00 0.  1.
     999902    2    1    2    0    0 -0.19434461111E-01  0.13486474632E-01 -0.29893363236E-02  0.10200863550E+01  0.10198076545E+01 0.  0.
     999903    2    3    3    0    0 -0.10551916954E+00  0.79012976480E-01  0.32405288149E-02  0.13343923763E+00  0.20449535892E-01 0.  0.
         14    1    1    2    0    0  0.19434461111E-01 -0.13486474632E-01  0.29893363236E-02  0.23843645031E-01  0.00000000000E+00 0. -1.
     999901    1    3    3    0    0  0.86084708433E-01 -0.65526501848E-01 -0.62298651384E-02  0.88664711734E+00  0.88000000000E+00 0.  1.
        -11    1    4    4    0    0 -0.67397171143E-01  0.60587531835E-01  0.71785249456E-02  0.90912155586E-01  0.51100000000E-03 0. -1.
         11    1    4    4    0    0 -0.38121998401E-01  0.18425444645E-01 -0.39379961308E-02  0.42527082042E-01  0.51100000000E-03 0.  1.
</event>
<event>
 8    1  0.1114686E+005  0.1043930E+01  0.7957747E-01            NaN
         13   -1    0    0    0    0  0.00000000000E+00  0.00000000000E+00  0.74505805969E-08  0.10566000000E+00  0.10566000000E+00 0.  1.
     999900   -1    0    0    0    0 -0.00000000000E+00 -0.00000000000E+00 -0.74505805969E-08  0.93827000000E+00  0.93827000000E+00 0. -1.
     999902    2    1    2    0    0  0.70658868072E-03  0.23041109066E-01  0.10975129906E-01  0.10183987358E+01  0.10180786510E+01 0.  0.
     999903    2    3    3    0    0 -0.28569350370E-01  0.15396345879E-01 -0.12213844840E+00  0.12787375147E+00  0.19510009968E-01 0.  0.
         14    1    1    2    0    0 -0.70658868072E-03 -0.23041109066E-01 -0.10975129906E-01  0.25531264188E-01  0.00000000000E+00 0.  1.
     999901    1    3    3    0    0  0.29275939051E-01  0.76447631876E-02  0.13311357831E+00  0.89052498434E+00  0.88000000000E+00 0.  1.
        -11    1    4    4    0    0 -0.22750171384E-01  0.88558643205E-02 -0.11122345108E+00  0.11387235758E+00  0.51100000000E-03 0.  1.
         11    1    4    4    0    0 -0.58191789859E-02  0.65404815582E-02 -0.10914997325E-01  0.14001393884E-01  0.51100000000E-03 0. -1.
</event>
<event>
 8    1  0.1195090E+005  0.1043930E+01  0.7957747E-01            NaN
         13   -1    0    0    0    0  0.00000000000E+00  0.00000000000E+00  0.74505805969E-08  0.10566000000E+00  0.10566000000E+00 0.  1.
     999900   -1    0    0    0    0 -0.00000000000E+00 -0.00000000000E+00 -0.74505805969E-08  0.93827000000E+00  0.93827000000E+00 0. -1.
     999902    2    1    2    0    0 -0.22004020283E-01  0.61890982942E-03  0.17403596004E-01  0.10158685476E+01  0.10154809013E+01 0.  0.
     999903    2    3    3    0    0 -0.37026270304E-02 -0.61672465047E-01 -0.10657916992E+00  0.12480913170E+00  0.20024922072E-01 0.  0.
         14    1    1    2    0    0  0.22004020283E-01 -0.61890982942E-03 -0.17403596004E-01  0.28061452420E-01  0.00000000000E+00 0. -1.
     999901    1    3    3    0    0 -0.18301393253E-01  0.62291374877E-01  0.12398276592E+00  0.89105941588E+00  0.88000000000E+00 0.  1.
        -11    1    4    4    0    0 -0.11583743665E-01 -0.26983198405E-01 -0.48652195914E-01  0.56829335749E-01  0.51100000000E-03 0.  1.
         11    1    4    4    0    0  0.78811166344E-02 -0.34689266643E-01 -0.57926974004E-01  0.67979795954E-01  0.51100000000E-03 0. -1.
</event>
<event>
 8    1  0.1114686E+005  0.1043930E+01  0.7957747E-01            NaN
         13   -1    0    0    0    0  0.00000000000E+00  0.00000000000E+00  0.74505805969E-08  0.10566000000E+00  0.10566000000E+00 0. -1.
     999900   -1    0    0    0    0 -0.00000000000E+00 -0.00000000000E+00 -0.74505805969E-08  0.93827000000E+00  0.93827000000E+00 0.  1.
     999902    2    1    2    0    0  0.30833402191E-01  0.39749469281E-02 -0.12139691978E-01  0.10105552938E+01  0.10100040251E+01 0.  0.
     999903    2    3    3    0    0  0.94306492986E-01 -0.34343266461E-01  0.68900043384E-01  0.12372692401E+00  0.22089843262E-01 0.  0.
         14    1    1    2    0    0 -0.30833402191E-01 -0.39749469281E-02  0.12139691978E-01  0.33374706217E-01  0.00000000000E+00 0. -1.
     999901    1    3    3    0    0 -0.63473090795E-01  0.38318213389E-01 -0.81039735362E-01  0.88682836978E+00  0.88000000000E+00 0.  1.
        -11    1    4    4    0    0  0.57952937097E-01 -0.15946488018E-01  0.29155586932E-01  0.66806756908E-01  0.51100000000E-03 0. -1.
         11    1    4    4    0    0  0.36353555889E-01 -0.18396778443E-01  0.39744456452E-01  0.56920167098E-01  0.51100000000E-03 0.  1.
</event>
<event>
 8    1  0.1114686E+005  0.1043930E+01  0.7957747E-01            NaN
         13   -1    0    0    0    0  0.00000000000E+00  0.00000000000E+00  0.74505805969E-08  0.10566000000E+00  0.10566000000E+00 0. -1.
     999900   -1    0    0    0    0 -0.00000000000E+00 -0.00000000000E+00 -0.74505805969E-08  0.93827000000E+00  0.93827000000E+00 0. -1.
     999902    2    1    2    0    0  0.18300934372E-01  0.12414650322E-01  0.79521047335E-02  0.10204292828E+01  0.10201586334E+01 0.  0.
     999903    2    3    3    0    0  0.89661896911E-01  0.37235175086E-02 -0.94859197973E-01  0.13153216456E+00  0.15789950397E-01 0.  0.
         14    1    1    2    0    0 -0.18300934372E-01 -0.12414650322E-01 -0.79521047335E-02  0.23500717249E-01  0.00000000000E+00 0. -1.
     999901    1    3    3    0    0 -0.71360962539E-01  0.86911328135E-02  0.10281130271E+00  0.88889711819E+00  0.88000000000E+00 0.  1.
        -11    1    4    4    0    0  0.37223855949E-01  0.32933605046E-03 -0.28499592310E-01  0.46885091412E-01  0.51100000000E-03 0.  1.
         11    1    4    4    0    0  0.52438040962E-01  0.33941814582E-02 -0.66359605663E-01  0.84647073148E-01  0.51100000000E-03 0. -1.
</event>
<event>
 8    1  0.1114686E+005  0.1043930E+01  0.7957747E-01            NaN
         13   -1    0    0    0    0  0.00000000000E+00  0.00000000000E+00  0.74505805969E-08  0.10566000000E+00  0.10566000000E+00 0.  1.
     999900   -1    0    0    0    0 -0.00000000000E+00 -0.00000000000E+00 -0.74505805969E-08  0.93827000000E+00  0.93827000000E+00 0. -1.
     999902    2    1    2    0    0 -0.24904257193E-01  0.84515246073E-03  0.43143186401E-02  0.10186406810E+01  0.10183267095E+01 0.  0.
     999903    2    3    3    0    0  0.34590304611E-01 -0.23695742144E-02  0.12239115059E+00  0.12875750015E+00  0.19919740126E-01 0.  0.
         14    1    1    2    0    0  0.24904257193E-01 -0.84515246073E-03 -0.43143186401E-02  0.25289318977E-01  0.00000000000E+00 0. -1.
     999901    1    3    3    0    0 -0.59494561804E-01  0.32147266752E-02 -0.11807683195E+00  0.88988318087E+00  0.88000000000E+00 0. -1.
        -11    1    4    4    0    0  0.22564487044E-01  0.28319640658E-02  0.10206314063E+00  0.10456730795E+00  0.51100000000E-03 0.  1.
         11    1    4    4    0    0  0.12025817566E-01 -0.52015382802E-02  0.20328009969E-01  0.24190192205E-01  0.51100000000E-03 0. -1.
</event>
<event>
 8    1  0.1114686E+005  0.1043930E+01  0.7957747E-01            NaN
         13   -1    0    0    0    0  0.00000000000E+00  0.00000000000E+00  0.74505805969E-08  0.10566000000E+00  0.10566000000E+00 0.  1.
     999900   -1    0    0    0    0 -0.00000000000E+00 -0.00000000000E+00 -0.74505805969E-08  0.93827000000E+00  0.93827000000E+00 0.  1.
     999902    2    1    2    0    0  0.17309597860E-01  0.16460690961E-01 -0.10674821708E-02  0.10200194157E+01  0.10197391295E+01 0.  0.
     999903    2    3    3    0    0  0.12418623221E+00 -0.39131278093E-01 -0.32618798377E-02  0.13180891282E+00  0.20235425411E-01 0.  0.
         14    1    1    2    0    0 -0.17309597860E-01 -0.16460690961E-01  0.10674821708E-02  0.23910584334E-01  0.00000000000E+00 0. -1.
     999901    1    3    3    0    0 -0.10687663435E+00  0.55591969055E-01  0.21943976669E-02  0.88821050285E+00  0.88000000000E+00 0.  1.
        -11    1    4    4    0    0  0.72305367620E-01 -0.16538504476E-01 -0.98986432587E-02  0.74832029081E-01  0.51100000000E-03 0.  1.
         11    1    4    4    0    0  0.51880864590E-01 -0.22592773617E-01  0.66367634209E-02  0.56976883734E-01  0.51100000000E-03 0. -1.
</event>
<event>
 8    1  0.1114686E+005  0.1043930E+01  0.7957747E-01            NaN
         13   -1    0    0    0    0  0.00000000000E+00  0.00000000000E+00  0.74505805969E-08  0.10566000000E+00  0.10566000000E+00 0.  1.
     999900   -1    0    0    0    0 -0.00000000000E+00 -0.00000000000E+00 -0.74505805969E-08  0.93827000000E+00  0.93827000000E+00 0.  1.
     999902    2    1    2    0    0  0.24709002793E-01  0.38607685755E-02 -0.70021895959E-02  0.10179594203E+01  0.10176280805E+01 0.  0.
     999903    2    3    3    0    0 -0.59663939786E-01 -0.84171783249E-01  0.69759423874E-01  0.12624148900E+00  0.20636412480E-01 0.  0.
         14    1    1    2    0    0 -0.24709002793E-01 -0.38607685755E-02  0.70021895959E-02  0.25970579743E-01  0.00000000000E+00 0. -1.
     999901    1    3    3    0    0  0.84372942579E-01  0.88032551824E-01 -0.76761613470E-01  0.89171793126E+00  0.88000000000E+00 0.  1.
        -11    1    4    4    0    0 -0.66871073869E-02 -0.85189797136E-02  0.59993912787E-03  0.10858704735E-01  0.51100000000E-03 0.  1.
         11    1    4    4    0    0 -0.52976832399E-01 -0.75652803535E-01  0.69159484747E-01  0.11538278427E+00  0.51100000000E-03 0. -1.
</event>
<event>
 8    1  0.1114686E+005  0.1043930E+01  0.7957747E-01            NaN
         13   -1    0    0    0    0  0.00000000000E+00  0.00000000000E+00  0.74505805969E-08  0.10566000000E+00  0.10566000000E+00 0. -1.
     999900   -1    0    0    0    0 -0.00000000000E+00 -0.00000000000E+00 -0.74505805969E-08  0.93827000000E+00  0.93827000000E+00 0. -1.
     999902    2    1    2    0    0 -0.23573081738E-01 -0.93951967334E-02 -0.91135521238E-02  0.10169667521E+01  0.10166092456E+01 0.  0.
     999903    2    3    3    0    0 -0.47502485918E-01  0.89310069019E-01  0.74667048502E-01  0.12717209327E+00  0.19099700970E-01 0.  0.
         14    1    1    2    0    0  0.23573081738E-01  0.93951967334E-02  0.91135521238E-02  0.26963247887E-01  0.00000000000E+00 0. -1.
     999901    1    3    3    0    0  0.23929404180E-01 -0.98705265752E-01 -0.83780600626E-01  0.88979465885E+00  0.88000000000E+00 0. -1.
        -11    1    4    4    0    0 -0.45549649354E-01  0.74960718734E-01  0.58358371800E-01  0.10535578100E+00  0.51100000000E-03 0.  1.
         11    1    4    4    0    0 -0.19528365639E-02  0.14349350285E-01  0.16308676702E-01  0.21816312269E-01  0.51100000000E-03 0. -1.
</event>
<event>
 8    1  0.1114686E+005  0.1043930E+01  0.7957747E-01            NaN
         13   -1    0    0    0    0  0.00000000000E+00  0.00000000000E+00  0.74505805969E-08  0.10566000000E+00  0.10566000000E+00 0. -1.
     999900   -1    0    0    0    0 -0.00000000000E+00 -0.00000000000E+00 -0.74505805969E-08  0.93827000000E+00  0.93827000000E+00 0.  1.
     999902    2    1    2    0    0  0.16933885676E-01  0.16279667725E-01 -0.86411831285E-03  0.10204240270E+01  0.10201532552E+01 0.  0.
     999903    2    3    3    0    0 -0.82117936673E-01 -0.93944089675E-01 -0.18831346742E-01  0.12785281893E+00  0.20563953431E-01 0.  0.
         14    1    1    2    0    0 -0.16933885676E-01 -0.16279667725E-01  0.86411831285E-03  0.23505972981E-01  0.00000000000E+00 0. -1.
     999901    1    3    3    0    0  0.99051822349E-01  0.11022375740E+00  0.17967228430E-01  0.89257120809E+00  0.88000000000E+00 0. -1.
        -11    1    4    4    0    0 -0.31373548071E-01 -0.45229717644E-01 -0.64768913835E-04  0.55048089819E-01  0.51100000000E-03 0.  1.
         11    1    4    4    0    0 -0.50744388603E-01 -0.48714372031E-01 -0.18766577829E-01  0.72804729115E-01  0.51100000000E-03 0. -1.
</event>
<event>
 8    1  0.1114686E+005  0.1043930E+01  0.7957747E-01            NaN
         13   -1    0    0    0    0  0.00000000000E+00  0.00000000000E+00  0.74505805969E-08  0.10566000000E+00  0.10566000000E+00 0. -1.
     999900   -1    0    0    0    0 -0.00000000000E+00 -0.00000000000E+00 -0.74505805969E-08  0.93827000000E+00  0.93827000000E+00 0. -1.
     999902    2    1    2    0    0  0.13772900157E-01 -0.69433676312E-02 -0.17882653250E-01  0.10203144877E+01  0.10200411567E+01 0.  0.
     999903    2    3    3    0    0  0.14752774751E-03  0.10361965426E+00  0.73307424863E-01  0.12861640938E+00  0.20764096625E-01 0.  0.
         14    1    1    2    0    0 -0.13772900157E-01  0.69433676312E-02  0.17882653250E-01  0.23615512276E-01  0.00000000000E+00 0. -1.
     999901    1    3    3    0    0  0.13625372409E-01 -0.11056302189E+00 -0.91190078113E-01  0.89169807835E+00  0.88000000000E+00 0. -1.
        -11    1    4    4    0    0 -0.79893639835E-02  0.36369265645E-01  0.33203668814E-01  0.49892866867E-01  0.51100000000E-03 0.  1.
         11    1    4    4    0    0  0.81368917310E-02  0.67250388610E-01  0.40103756049E-01  0.78723542510E-01  0.51100000000E-03 0. -1.
</event>
<event>
 8    1  0.1114686E+005  0.1043930E+01  0.7957747E-01            NaN
         13   -1    0    0    0    0  0.00000000000E+00  0.00000000000E+00  0.74505805969E-08  0.10566000000E+00  0.10566000000E+00 0.  1.
     999900   -1    0    0    0    0 -0.00000000000E+00 -0.00000000000E+00 -0.74505805969E-08  0.93827000000E+00  0.93827000000E+00 0.  1.
     999902    2    1    2    0    0 -0.11843549461E-01  0.18974581216E-01  0.72308421528E-02  0.10204227782E+01  0.10201519774E+01 0.  0.
     999903    2    3    3    0    0 -0.61077428477E-02  0.12843344126E+00 -0.26732570662E-01  0.13297269237E+00  0.20848338645E-01 0.  0.
         14    1    1    2    0    0  0.11843549461E-01 -0.18974581216E-01 -0.72308421528E-02  0.23507221750E-01  0.00000000000E+00 0. -1.
     999901    1    3    3    0    0 -0.57358066137E-02 -0.10945886005E+00  0.33963412815E-01  0.88745008588E+00  0.88000000000E+00 0.  1.
        -11    1    4    4    0    0 -0.11702959157E-01  0.42374968793E-01 -0.72550967043E-02  0.44558891172E-01  0.51100000000E-03 0. -1.
         11    1    4    4    0    0  0.55952163090E-02  0.86058472469E-01 -0.19477473958E-01  0.88413801197E-01  0.51100000000E-03 0.  1.
</event>
<event>
 8    1  0.1114686E+005  0.1043930E+01  0.7957747E-01            NaN
         13   -1    0    0    0    0  0.00000000000E+00  0.00000000000E+00  0.74505805969E-08  0.10566000000E+00  0.10566000000E+00 0.  1.
     999900   -1    0    0    0    0 -0.00000000000E+00 -0.00000000000E+00 -0.74505805969E-08  0.93827000000E+00  0.93827000000E+00 0.  1.
     999902    2    1    2    0    0  0.46643729655E-02  0.10579231269E-01  0.19743950386E-01  0.10210498757E+01  0.10207934897E+01 0.  0.
     999903    2    3    3    0    0  0.24692577171E-01  0.12397312332E+00  0.37584452169E-01  0.13336885914E+00  0.19889768022E-01 0.  0.
         14    1    1    2    0    0 -0.46643729655E-02 -0.10579231269E-01 -0.19743950386E-01  0.22880124262E-01  0.00000000000E+00 0. -1.
     999901    1    3    3    0    0 -0.20028204205E-01 -0.11339389205E+00 -0.17840501784E-01  0.88768101659E+00  0.88000000000E+00 0. -1.
        -11    1    4    4    0    0  0.17359986351E-01  0.52752639557E-01  0.23956857742E-01  0.60484727496E-01  0.51100000000E-03 0. -1.
         11    1    4    4    0    0  0.73325908200E-02  0.71220483761E-01  0.13627594427E-01  0.72884131648E-01  0.51100000000E-03 0.  1.
</event>
<event>
 8    1  0.1458222E+005  0.1043930E+01  0.7957747E-01            NaN
         13   -1    0    0    0    0  0.00000000000E+00  0.00000000000E+00  0.74505805969E-08  0.10566000000E+00  0.10566000000E+00 0.  1.
     999900   -1    0    0    0    0 -0.00000000000E+00 -0.00000000000E+00 -0.74505805969E-08  0.93827000000E+00  0.93827000000E+00 0.  1.
     999902    2    1    2    0    0 -0.23320628255E-01 -0.24535731830E-02  0.74268922419E-03  0.10204688979E+01  0.10201991709E+01 0.  0.
     999903    2    3    3    0    0 -0.81045845820E-01 -0.82621420055E-01 -0.56075784120E-01  0.13312036249E+00  0.34377451449E-01 0.  0.
         14    1    1    2    0    0  0.23320628255E-01  0.24535731830E-02 -0.74268922419E-03  0.23461102081E-01  0.00000000000E+00 0.  1.
     999901    1    3    3    0    0  0.57725217566E-01  0.80167846872E-01  0.56818473344E-01  0.88734853543E+00  0.88000000000E+00 0. -1.
        -11    1    4    4    0    0 -0.31696118361E-01 -0.52127311219E-01 -0.17563006553E-01  0.63487170470E-01  0.51100000000E-03 0.  1.
         11    1    4    4    0    0 -0.49349727459E-01 -0.30494108836E-01 -0.38512777567E-01  0.69633192020E-01  0.51100000000E-03 0. -1.
</event>
<event>
 8    1  0.1114686E+005  0.1043930E+01  0.7957747E-01            NaN
         13   -1    0    0    0    0  0.00000000000E+00  0.00000000000E+00  0.74505805969E-08  0.10566000000E+00  0.10566000000E+00 0. -1.
     999900   -1    0    0    0    0 -0.00000000000E+00 -0.00000000000E+00 -0.74505805969E-08  0.93827000000E+00  0.93827000000E+00 0.  1.
     999902    2    1    2    0    0  0.23607143853E-01  0.66215595990E-03  0.32389958020E-02  0.10200924921E+01  0.10198139367E+01 0.  0.
     999903    2    3    3    0    0  0.23639133191E-02 -0.69055359121E-01 -0.10842668543E+00  0.13004697012E+00  0.19535547414E-01 0.  0.
         14    1    1    2    0    0 -0.23607143853E-01 -0.66215595990E-03 -0.32389958020E-02  0.23837507949E-01  0.00000000000E+00 0.  1.
     999901    1    3    3    0    0  0.21243230534E-01  0.69717515081E-01  0.11166568123E+00  0.89004552194E+00  0.88000000000E+00 0. -1.
        -11    1    4    4    0    0 -0.65501038418E-02 -0.22133809570E-01 -0.25917026270E-01  0.34709692567E-01  0.51100000000E-03 0.  1.
         11    1    4    4    0    0  0.89140171609E-02 -0.46921549551E-01 -0.82509659162E-01  0.95337277548E-01  0.51100000000E-03 0. -1.
</event>
<event>
 8    1  0.1114686E+005  0.1043930E+01  0.7957747E-01            NaN
         13   -1    0    0    0    0  0.00000000000E+00  0.00000000000E+00  0.74505805969E-08  0.10566000000E+00  0.10566000000E+00 0.  1.
     999900   -1    0    0    0    0 -0.00000000000E+00 -0.00000000000E+00 -0.74505805969E-08  0.93827000000E+00  0.93827000000E+00 0. -1.
     999902    2    1    2    0    0 -0.15708871712E-01 -0.62273206445E-02 -0.18908165567E-01  0.10185712363E+01  0.10182555163E+01 0.  0.
     999903    2    3    3    0    0 -0.10229503351E+00 -0.72615724465E-01  0.29663259570E-01  0.13050380250E+00  0.20347387501E-01 0.  0.
         14    1    1    2    0    0  0.15708871712E-01  0.62273206445E-02  0.18908165567E-01  0.25358763731E-01  0.00000000000E+00 0.  1.
     999901    1    3    3    0    0  0.86586161801E-01  0.66388403820E-01 -0.48571425137E-01  0.88806743377E+00  0.88000000000E+00 0. -1.
        -11    1    4    4    0    0 -0.18631096873E-01 -0.23333149422E-01  0.45547752176E-02  0.30208620142E-01  0.51100000000E-03 0. -1.
         11    1    4    4    0    0 -0.83663936641E-01 -0.49282575043E-01  0.25108484352E-01  0.10029518236E+00  0.51100000000E-03 0.  1.
</event>
<event>
 8    1  0.1114686E+005  0.1043930E+01  0.7957747E-01            NaN
         13   -1    0    0    0    0  0.00000000000E+00  0.00000000000E+00  0.74505805969E-08  0.10566000000E+00  0.10566000000E+00 0.  1.
     999900   -1    0    0    0    0 -0.00000000000E+00 -0.00000000000E+00 -0.74505805969E-08  0.93827000000E+00  0.93827000000E+00 0. -1.
     999902    2    1    2    0    0 -0.52156456281E-02 -0.22507410077E-01 -0.71343630480E-03  0.10208151680E+01  0.10205534340E+01 0.  0.
     999903    2    3    3    0    0 -0.84020776786E-01 -0.98098325684E-01  0.27555349703E-01  0.13361543879E+00  0.20273523438E-01 0.  0.
         14    1    1    2    0    0  0.52156456281E-02  0.22507410077E-01  0.71343630480E-03  0.23114832014E-01  0.00000000000E+00 0. -1.
     999901    1    3    3    0    0  0.78805131157E-01  0.75590915607E-01 -0.28268786008E-01  0.88719972919E+00  0.88000000000E+00 0. -1.
        -11    1    4    4    0    0 -0.54788268146E-01 -0.61487338888E-01  0.76566064232E-02  0.82712344380E-01  0.51100000000E-03 0. -1.
         11    1    4    4    0    0 -0.29232508639E-01 -0.36610986796E-01  0.19898743280E-01  0.50903094412E-01  0.51100000000E-03 0.  1.
</event>
<event>
 8    1  0.1114686E+005  0.1043930E+01  0.7957747E-01            NaN
         13   -1    0    0    0    0  0.00000000000E+00  0.00000000000E+00  0.74505805969E-08  0.10566000000E+00  0.10566000000E+00 0.  1.
     999900   -1    0    0    0    0 -0.00000000000E+00 -0.00000000000E+00 -0.74505805969E-08  0.93827000000E+00  0.93827000000E+00 0.  1.
     999902    2    1    2    0    0 -0.23544491069E-01  0.11590138869E-01 -0.96801095559E-02  0.10159589632E+01  0.10155738457E+01 0.  0.
     999903    2    3    3    0    0 -0.11378203125E+00 -0.41580973604E-01 -0.40334293244E-01  0.12921793007E+00  0.19876876982E-01 0.  0.
         14    1    1    2    0    0  0.23544491069E-01 -0.11590138869E-01  0.96801095559E-02  0.27971036801E-01  0.00000000000E+00 0. -1.
     999901    1    3    3    0    0  0.90237540180E-01  0.53171112472E-01  0.30654183688E-01  0.88674103313E+00  0.88000000000E+00 0. -1.
        -11    1    4    4    0    0 -0.81281211336E-01 -0.23427932831E-01 -0.20527543806E-01  0.87046795051E-01  0.51100000000E-03 0.  1.
         11    1    4    4    0    0 -0.32500819914E-01 -0.18153040773E-01 -0.19806749438E-01  0.42171135018E-01  0.51100000000E-03 0. -1.
</event>
<event>
 8    1  0.1114686E+005  0.1043930E+01  0.7957747E-01            NaN
         13   -1    0    0    0    0  0.00000000000E+00  0.00000000000E+00  0.74505805969E-08  0.10566000000E+00  0.10566000000E+00 0. -1.
     999900   -1    0    0    0    0 -0.00000000000E+00 -0.00000000000E+00 -0.74505805969E-08  0.93827000000E+00  0.93827000000E+00 0. -1.
     999902    2    1    2    0    0  0.19784046088E-01 -0.31171347513E-02  0.13067019933E-01  0.10200161542E+01  0.10197357907E+01 0.  0.
     999903    2    3    3    0    0 -0.32261490043E-01  0.73920049470E-01  0.10092111680E+00  0.13076826535E+00  0.20255615319E-01 0.  0.
         14    1    1    2    0    0 -0.19784046088E-01  0.31171347513E-02 -0.13067019933E-01  0.23913845751E-01  0.00000000000E+00 0.  1.
     999901    1    3    3    0    0  0.52045536131E-01 -0.77037184221E-01 -0.87854096866E-01  0.88924788890E+00  0.88000000000E+00 0. -1.
        -11    1    4    4    0    0 -0.12106975949E-01  0.50446837120E-01  0.68776516895E-01  0.86150639228E-01  0.51100000000E-03 0.  1.
         11    1    4    4    0    0 -0.20154514094E-01  0.23473212350E-01  0.32144599904E-01  0.44617626117E-01  0.51100000000E-03 0. -1.
</event>
<event>
 8    1  0.1114686E+005  0.1043930E+01  0.7957747E-01            NaN
         13   -1    0    0    0    0  0.00000000000E+00  0.00000000000E+00  0.74505805969E-08  0.10566000000E+00  0.10566000000E+00 0. -1.
     999900   -1    0    0    0    0 -0.00000000000E+00 -0.00000000000E+00 -0.74505805969E-08  0.93827000000E+00  0.93827000000E+00 0.  1.
     999902    2    1    2    0    0  0.20370118668E-01 -0.80271392217E-02 -0.84441803687E-02  0.10204634093E+01  0.10201935546E+01 0.  0.
     999903    2    3    3    0    0  0.90837749139E-01  0.90612970854E-01 -0.27157277658E-01  0.13195581882E+00  0.14581263189E-01 0.  0.
         14    1    1    2    0    0 -0.20370118668E-01  0.80271392217E-02  0.84441803687E-02  0.23466590735E-01  0.00000000000E+00 0.  1.
     999901    1    3    3    0    0 -0.70467630471E-01 -0.98640110075E-01  0.18713097290E-01  0.88850759044E+00  0.88000000000E+00 0.  1.
        -11    1    4    4    0    0  0.35573186048E-01  0.25935096648E-01 -0.10611080445E-01  0.45287271423E-01  0.51100000000E-03 0.  1.
         11    1    4    4    0    0  0.55264563091E-01  0.64677874205E-01 -0.16546197213E-01  0.86668547401E-01  0.51100000000E-03 0. -1.
</event>
<event>
 8    1  0.1114686E+005  0.1043930E+01  0.7957747E-01            NaN
         13   -1    0    0    0    0  0.00000000000E+00  0.00000000000E+00  0.74505805969E-08  0.10566000000E+00  0.10566000000E+00 0.  1.
     999900   -1    0    0    0    0 -0.00000000000E+00 -0.00000000000E+00 -0.74505805969E-08  0.93827000000E+00  0.93827000000E+00 0. -1.
     999902    2    1    2    0    0  0.78369450363E-02 -0.63434296413E-02 -0.19799929249E-01  0.10217107740E+01  0.10214691438E+01 0.  0.
     999903    2    3    3    0    0 -0.58108636360E-01 -0.87564005858E-01 -0.79361066421E-01  0.13351421308E+00  0.21995397036E-01 0.  0.
         14    1    1    2    0    0 -0.78369450363E-02  0.63434296413E-02  0.19799929249E-01  0.22219226030E-01  0.00000000000E+00 0.  1.
     999901    1    3    3    0    0  0.65945581396E-01  0.81220576216E-01  0.59561137172E-01  0.88819656088E+00  0.88000000000E+00 0. -1.
        -11    1    4    4    0    0 -0.34367530738E-01 -0.45474288942E-01 -0.29920744336E-01  0.64378180981E-01  0.51100000000E-03 0.  1.
         11    1    4    4    0    0 -0.23741105622E-01 -0.42089716916E-01 -0.49440322085E-01  0.69136032104E-01  0.51100000000E-03 0. -1.
</event>
<event>
 8    1  0.1114686E+005  0.1043930E+01  0.7957747E-01            NaN
         13   -1    0    0    0    0  0.00000000000E+00  0.00000000000E+00  0.74505805969E-08  0.10566000000E+00  0.10566000000E+00 0. -1.
     999900   -1    0    0    0    0 -0.00000000000E+00 -0.00000000000E+00 -0.74505805969E-08  0.93827000000E+00  0.93827000000E+00 0.  1.
     999902    2    1    2    0    0 -0.68372559284E-02 -0.16225422638E-02  0.25277962248E-01  0.10176934589E+01  0.10173552085E+01 0.  0.
     999903    2    3    3    0    0 -0.89323066951E-01 -0.57211960414E-01  0.73839408267E-01  0.13075924126E+00  0.19846970996E-01 0.  0.
         14    1    1    2    0    0  0.68372559284E-02  0.16225422638E-02 -0.25277962248E-01  0.26236541073E-01  0.00000000000E+00 0.  1.
     999901    1    3    3    0    0  0.82485811023E-01  0.55589418150E-01 -0.48561446018E-01  0.88693421767E+00  0.88000000000E+00 0.  1.
        -11    1    4    4    0    0 -0.54654271273E-01 -0.37607300471E-01  0.34512546283E-01  0.74784860694E-01  0.51100000000E-03 0. -1.
         11    1    4    4    0    0 -0.34668795678E-01 -0.19604659943E-01  0.39326861983E-01  0.55974380566E-01  0.51100000000E-03 0.  1.
</event>
<event>
 8    1  0.1114686E+005  0.1043930E+01  0.7957747E-01            NaN
         13   -1    0    0    0    0  0.00000000000E+00  0.00000000000E+00  0.74505805969E-08  0.10566000000E+00  0.10566000000E+00 0. -1.
     999900   -1    0    0    0    0 -0.00000000000E+00 -0.00000000000E+00 -0.74505805969E-08  0.93827000000E+00  0.93827000000E+00 0. -1.
     999902    2    1    2    0    0 -0.13127388953E-03  0.64118592141E-02  0.22527067396E-01  0.10205078324E+01  0.10202390102E+01 0.  0.
     999903    2    3    3    0    0  0.29612583486E-01  0.11498833022E+00  0.55794859212E-01  0.13271264591E+00  0.20008970073E-01 0.  0.
         14    1    1    2    0    0  0.13127388953E-03 -0.64118592141E-02 -0.22527067396E-01  0.23422167638E-01  0.00000000000E+00 0.  1.
     999901    1    3    3    0    0 -0.29743857376E-01 -0.10857647101E+00 -0.33267791816E-01  0.88779518645E+00  0.88000000000E+00 0.  1.
        -11    1    4    4    0    0  0.62304345749E-02  0.25857464741E-01  0.22142382740E-01  0.34611747027E-01  0.51100000000E-03 0.  1.
         11    1    4    4    0    0  0.23382148911E-01  0.89130865479E-01  0.33652476472E-01  0.98100898887E-01  0.51100000000E-03 0. -1.
</event>
<event>
 8    1  0.1114686E+005  0.1043930E+01  0.7957747E-01            NaN
         13   -1    0    0    0    0  0.00000000000E+00  0.00000000000E+00  0.74505805969E-08  0.10566000000E+00  0.10566000000E+00 0. -1.
     999900   -1    0    0    0    0 -0.00000000000E+00 -0.00000000000E+00 -0.74505805969E-08  0.93827000000E+00  0.93827000000E+00 0.  1.
     999902    2    1    2    0    0 -0.15383644721E-01 -0.13913043380E-01  0.12575679019E-01  0.10196735163E+01  0.10193849630E+01 0.  0.
     999903    2    3    3    0    0  0.46911821471E-01 -0.99795371049E-01  0.68338217539E-01  0.13154854756E+00  0.21796176547E-01 0.  0.
         14    1    1    2    0    0  0.15383644721E-01  0.13913043380E-01 -0.12575679019E-01  0.24256483747E-01  0.00000000000E+00 0. -1.
     999901    1    3    3    0    0 -0.62295466192E-01  0.85882327669E-01 -0.55762538521E-01  0.88812496869E+00  0.88000000000E+00 0.  1.
        -11    1    4    4    0    0  0.10361287951E-01 -0.23094620100E-01  0.27159810195E-01  0.37129963323E-01  0.51100000000E-03 0. -1.
         11    1    4    4    0    0  0.36550533520E-01 -0.76700750949E-01  0.41178407344E-01  0.94418584236E-01  0.51100000000E-03 0.  1.
</event>
<event>
 8    1  0.1114686E+005  0.1043930E+01  0.7957747E-01            NaN
         13   -1    0    0    0    0  0.00000000000E+00  0.00000000000E+00  0.74505805969E-08  0.10566000000E+00  0.10566000000E+00 0.  1.
     999900   -1    0    0    0    0 -0.00000000000E+00 -0.00000000000E+00 -0.74505805969E-08  0.93827000000E+00  0.93827000000E+00 0.  1.
     999902    2    1    2    0    0 -0.16335021414E-02  0.22414971542E-01  0.49969025857E-02  0.10209067875E+01  0.10206471479E+01 0.  0.
     999903    2    3    3    0    0  0.84431938628E-01  0.16593149461E-01  0.97814341452E-01  0.13183073301E+00  0.20189400750E-01 0.  0.
         14    1    1    2    0    0  0.16335021414E-02 -0.22414971542E-01 -0.49969025857E-02  0.23023212502E-01  0.00000000000E+00 0. -1.
     999901    1    3    3    0    0 -0.86065440769E-01  0.58218220815E-02 -0.92817438866E-01  0.88907605449E+00  0.88000000000E+00 0. -1.
        -11    1    4    4    0    0  0.27894298058E-01 -0.28510233682E-02  0.38299252974E-01  0.47469085706E-01  0.51100000000E-03 0.  1.
         11    1    4    4    0    0  0.56537640570E-01  0.19444172829E-01  0.59515088477E-01  0.84361647303E-01  0.51100000000E-03 0. -1.
</event>
