<event>
 8    1  0.1041149E+005  0.1043930E+01  0.7957747E-01            NaN
         13   -1    0    0    0    0  0.00000000000E+00  0.00000000000E+00  0.74505805969E-08  0.10566000000E+00  0.10566000000E+00 0.  1.
     999900   -1    0    0    0    0 -0.00000000000E+00 -0.00000000000E+00 -0.74505805969E-08  0.93827000000E+00  0.93827000000E+00 0.  1.
     999902    2    1    2    0    0  0.10772845014E-01 -0.76723773636E-02  0.19128929183E-01  0.10206741299E+01  0.10204091551E+01 0.  0.
     999903    2    3    3    0    0 -0.78542405164E-01  0.69912146867E-01 -0.70596395995E-01  0.12823522087E+00  0.20094851444E-01 0.  0.
         14    1    1    2    0    0 -0.10772845014E-01  0.76723773636E-02 -0.19128929183E-01  0.23255870136E-01  0.00000000000E+00 0. -1.
     999901    1    3    3    0    0  0.89315250178E-01 -0.77584524231E-01  0.89725325178E-01  0.89243890900E+00  0.88000000000E+00 0. -1.
        -11    1    4    4    0    0 -0.70011725887E-01  0.52157092345E-01 -0.56168968133E-01  0.10381338134E+00  0.51100000000E-03 0.  1.
         11    1    4    4    0    0 -0.85306792772E-02  0.17755054523E-01 -0.14427427861E-01  0.24421839524E-01  0.51100000000E-03 0. -1.
</event>
<event>
 8    1  0.1041149E+005  0.1043930E+01  0.7957747E-01            NaN
         13   -1    0    0    0    0  0.00000000000E+00  0.00000000000E+00  0.74505805969E-08  0.10566000000E+00  0.10566000000E+00 0.  1.
     999900   -1    0    0    0    0 -0.00000000000E+00 -0.00000000000E+00 -0.74505805969E-08  0.93827000000E+00  0.93827000000E+00 0.  1.
     999902    2    1    2    0    0  0.26522797128E-02  0.20514737964E-01  0.12885612076E-01  0.10195593607E+01  0.10192680520E+01 0.  0.
     999903    2    3    3    0    0 -0.10787143621E-01 -0.95625173003E-01 -0.80308806005E-01  0.12694841713E+00  0.20145970072E-01 0.  0.
         14    1    1    2    0    0 -0.26522797128E-02 -0.20514737964E-01 -0.12885612076E-01  0.24370639301E-01  0.00000000000E+00 0. -1.
     999901    1    3    3    0    0  0.13439423334E-01  0.11613991097E+00  0.93194418081E-01  0.89261094357E+00  0.88000000000E+00 0. -1.
        -11    1    4    4    0    0 -0.92918053154E-02 -0.48792373116E-01 -0.29241799667E-01  0.57640066699E-01  0.51100000000E-03 0. -1.
         11    1    4    4    0    0 -0.14953383057E-02 -0.46832799886E-01 -0.51067006339E-01  0.69308350429E-01  0.51100000000E-03 0.  1.
</event>
<event>
 8    1  0.1041149E+005  0.1043930E+01  0.7957747E-01            NaN
         13   -1    0    0    0    0  0.00000000000E+00  0.00000000000E+00  0.74505805969E-08  0.10566000000E+00  0.10566000000E+00 0. -1.
     999900   -1    0    0    0    0 -0.00000000000E+00 -0.00000000000E+00 -0.74505805969E-08  0.93827000000E+00  0.93827000000E+00 0.  1.
     999902    2    1    2    0    0  0.23483572750E-01  0.22747780324E-02 -0.93431721053E-02  0.10185538760E+01  0.10182377181E+01 0.  0.
     999903    2    3    3    0    0 -0.76608761498E-01  0.14032908956E-01  0.97469999613E-01  0.12638473135E+00  0.20171133372E-01 0.  0.
         14    1    1    2    0    0 -0.23483572750E-01 -0.22747780324E-02  0.93431721053E-02  0.25376123999E-01  0.00000000000E+00 0. -1.
     999901    1    3    3    0    0  0.10009233425E+00 -0.11758130924E-01 -0.10681317172E+00  0.89216914465E+00  0.88000000000E+00 0. -1.
        -11    1    4    4    0    0 -0.68423428547E-01  0.11728296422E-01  0.94711789190E-01  0.11743041618E+00  0.51100000000E-03 0.  1.
         11    1    4    4    0    0 -0.81853329505E-02  0.23046125346E-02  0.27582104233E-02  0.89543151712E-02  0.51100000000E-03 0. -1.
</event>
<event>
 8    1  0.1041149E+005  0.1043930E+01  0.7957747E-01            NaN
         13   -1    0    0    0    0  0.00000000000E+00  0.00000000000E+00  0.74505805969E-08  0.10566000000E+00  0.10566000000E+00 0. -1.
     999900   -1    0    0    0    0 -0.00000000000E+00 -0.00000000000E+00 -0.74505805969E-08  0.93827000000E+00  0.93827000000E+00 0. -1.
     999902    2    1    2    0    0 -0.19492397575E-01  0.13866943787E-01 -0.45468408809E-02  0.10195800625E+01  0.10192892545E+01 0.  0.
     999903    2    3    3    0    0  0.98128836342E-01  0.70257572444E-01  0.40400103139E-01  0.12883044257E+00  0.19992988555E-01 0.  0.
         14    1    1    2    0    0  0.19492397575E-01 -0.13866943787E-01  0.45468408809E-02  0.24349937479E-01  0.00000000000E+00 0. -1.
     999901    1    3    3    0    0 -0.11762123392E+00 -0.56390628657E-01 -0.44946944020E-01  0.89074961995E+00  0.88000000000E+00 0. -1.
        -11    1    4    4    0    0  0.76108272222E-01  0.63630629220E-01  0.30488985104E-01  0.10378422524E+00  0.51100000000E-03 0. -1.
         11    1    4    4    0    0  0.22020564120E-01  0.66269432238E-02  0.99111180349E-02  0.25046217326E-01  0.51100000000E-03 0.  1.
</event>
<event>
 8    1  0.1041149E+005  0.1043930E+01  0.7957747E-01            NaN
         13   -1    0    0    0    0  0.00000000000E+00  0.00000000000E+00  0.74505805969E-08  0.10566000000E+00  0.10566000000E+00 0.  1.
     999900   -1    0    0    0    0 -0.00000000000E+00 -0.00000000000E+00 -0.74505805969E-08  0.93827000000E+00  0.93827000000E+00 0. -1.
     999902    2    1    2    0    0 -0.19292664781E-01 -0.10478515651E-01 -0.90974086447E-02  0.10201651299E+01  0.10198882896E+01 0.  0.
     999903    2    3    3    0    0 -0.63291549050E-01 -0.10272279264E-01 -0.11444121909E+00  0.13279076546E+00  0.20621708542E-01 0.  0.
         14    1    1    2    0    0  0.19292664781E-01  0.10478515651E-01  0.90974086447E-02  0.23764870053E-01  0.00000000000E+00 0. -1.
     999901    1    3    3    0    0  0.43998884269E-01 -0.20623638687E-03  0.10534381044E+00  0.88737436449E+00  0.88000000000E+00 0.  1.
        -11    1    4    4    0    0 -0.24023599541E-01 -0.85560139592E-04 -0.61958780817E-01  0.66455190142E-01  0.51100000000E-03 0. -1.
         11    1    4    4    0    0 -0.39267949509E-01 -0.10186719125E-01 -0.52482438268E-01  0.66335575318E-01  0.51100000000E-03 0.  1.
</event>
<event>
 8    1  0.1041149E+005  0.1043930E+01  0.7957747E-01            NaN
         13   -1    0    0    0    0  0.00000000000E+00  0.00000000000E+00  0.74505805969E-08  0.10566000000E+00  0.10566000000E+00 0.  1.
     999900   -1    0    0    0    0 -0.00000000000E+00 -0.00000000000E+00 -0.74505805969E-08  0.93827000000E+00  0.93827000000E+00 0.  1.
     999902    2    1    2    0    0 -0.19098137654E-01  0.13411465968E-01 -0.48943406901E-02  0.10200854859E+01  0.10198067649E+01 0.  0.
     999903    2    3    3    0    0  0.25073531863E-01  0.71504076435E-01 -0.10533362945E+00  0.13137071811E+00  0.20532343682E-01 0.  0.
         14    1    1    2    0    0  0.19098137654E-01 -0.13411465968E-01  0.48943406901E-02  0.23844514088E-01  0.00000000000E+00 0. -1.
     999901    1    3    3    0    0 -0.44171669517E-01 -0.58092610467E-01  0.10043928876E+00  0.88871476780E+00  0.88000000000E+00 0. -1.
        -11    1    4    4    0    0  0.50543452288E-02  0.20231252637E-01 -0.45587975870E-01  0.50133568134E-01  0.51100000000E-03 0. -1.
         11    1    4    4    0    0  0.20019186634E-01  0.51272823798E-01 -0.59745653582E-01  0.81237149979E-01  0.51100000000E-03 0.  1.
</event>
<event>
 8    1  0.1041149E+005  0.1043930E+01  0.7957747E-01            NaN
         13   -1    0    0    0    0  0.00000000000E+00  0.00000000000E+00  0.74505805969E-08  0.10566000000E+00  0.10566000000E+00 0.  1.
     999900   -1    0    0    0    0 -0.00000000000E+00 -0.00000000000E+00 -0.74505805969E-08  0.93827000000E+00  0.93827000000E+00 0. -1.
     999902    2    1    2    0    0  0.70446463186E-02 -0.10632519187E-02 -0.26294558780E-01  0.10166873612E+01  0.10163223057E+01 0.  0.
     999903    2    3    3    0    0  0.81838794871E-01  0.96348364572E-01  0.86451729004E-02  0.12747199218E+00  0.13920275641E-01 0.  0.
         14    1    1    2    0    0 -0.70446463186E-02  0.10632519187E-02  0.26294558780E-01  0.27242638782E-01  0.00000000000E+00 0.  1.
     999901    1    3    3    0    0 -0.74794148552E-01 -0.97411616491E-01 -0.34939731680E-01  0.88921536904E+00  0.88000000000E+00 0.  1.
        -11    1    4    4    0    0  0.60805996233E-01  0.80203336700E-01  0.74828087838E-02  0.10092669589E+00  0.51100000000E-03 0.  1.
         11    1    4    4    0    0  0.21032798638E-01  0.16145027872E-01  0.11623641166E-02  0.26545296285E-01  0.51100000000E-03 0. -1.
</event>
<event>
 8    1  0.1041149E+005  0.1043930E+01  0.7957747E-01            NaN
         13   -1    0    0    0    0  0.00000000000E+00  0.00000000000E+00  0.74505805969E-08  0.10566000000E+00  0.10566000000E+00 0. -1.
     999900   -1    0    0    0    0 -0.00000000000E+00 -0.00000000000E+00 -0.74505805969E-08  0.93827000000E+00  0.93827000000E+00 0. -1.
     999902    2    1    2    0    0 -0.13974901948E-01  0.11139673465E-01  0.16499722533E-01  0.10196065329E+01  0.10193163644E+01 0.  0.
     999903    2    3    3    0    0  0.10324606931E+00 -0.34833490021E-01 -0.62284343930E-01  0.12715977424E+00  0.20424148244E-01 0.  0.
         14    1    1    2    0    0  0.13974901948E-01 -0.11139673465E-01 -0.16499722533E-01  0.24323467125E-01  0.00000000000E+00 0.  1.
     999901    1    3    3    0    0 -0.11722097126E+00  0.45973163486E-01  0.78784066463E-01  0.89244675863E+00  0.88000000000E+00 0.  1.
        -11    1    4    4    0    0  0.72089165925E-01 -0.18645769035E-01 -0.33049428310E-01  0.81468020593E-01  0.51100000000E-03 0.  1.
         11    1    4    4    0    0  0.31156903386E-01 -0.16187720986E-01 -0.29234915620E-01  0.45691753650E-01  0.51100000000E-03 0. -1.
</event>
<event>
 8    1  0.1041149E+005  0.1043930E+01  0.7957747E-01            NaN
         13   -1    0    0    0    0  0.00000000000E+00  0.00000000000E+00  0.74505805969E-08  0.10566000000E+00  0.10566000000E+00 0. -1.
     999900   -1    0    0    0    0 -0.00000000000E+00 -0.00000000000E+00 -0.74505805969E-08  0.93827000000E+00  0.93827000000E+00 0.  1.
     999902    2    1    2    0    0 -0.17496663434E-01 -0.15575526309E-01  0.70186437897E-02  0.10194761330E+01  0.10191828070E+01 0.  0.
     999903    2    3    3    0    0 -0.67517168621E-01 -0.94390622317E-01  0.61587933137E-01  0.13285802036E+00  0.19748985455E-01 0.  0.
         14    1    1    2    0    0  0.17496663434E-01  0.15575526309E-01 -0.70186437897E-02  0.24453867011E-01  0.00000000000E+00 0.  1.
     999901    1    3    3    0    0  0.50020505187E-01  0.78815096008E-01 -0.54569289347E-01  0.88661811263E+00  0.88000000000E+00 0.  1.
        -11    1    4    4    0    0 -0.45255970420E-01 -0.51163651479E-01  0.43469034088E-01  0.80966907665E-01  0.51100000000E-03 0.  1.
         11    1    4    4    0    0 -0.22261198201E-01 -0.43226970839E-01  0.18118899049E-01  0.51891112697E-01  0.51100000000E-03 0. -1.
</event>
<event>
 8    1  0.1041149E+005  0.1043930E+01  0.7957747E-01            NaN
         13   -1    0    0    0    0  0.00000000000E+00  0.00000000000E+00  0.74505805969E-08  0.10566000000E+00  0.10566000000E+00 0. -1.
     999900   -1    0    0    0    0 -0.00000000000E+00 -0.00000000000E+00 -0.74505805969E-08  0.93827000000E+00  0.93827000000E+00 0.  1.
     999902    2    1    2    0    0  0.39290952723E-02  0.56322624764E-02 -0.22266628746E-01  0.10206284351E+01  0.10203624060E+01 0.  0.
     999903    2    3    3    0    0 -0.74189938550E-01  0.85346056113E-01  0.60279981758E-01  0.12974639172E+00  0.20306493727E-01 0.  0.
         14    1    1    2    0    0 -0.39290952723E-02 -0.56322624764E-02  0.22266628746E-01  0.23301564883E-01  0.00000000000E+00 0. -1.
     999901    1    3    3    0    0  0.78119033822E-01 -0.79713793637E-01 -0.82546610504E-01  0.89088204340E+00  0.88000000000E+00 0.  1.
        -11    1    4    4    0    0 -0.24019828651E-01  0.27822554391E-01  0.30670442085E-01  0.47874668040E-01  0.51100000000E-03 0.  1.
         11    1    4    4    0    0 -0.50170109899E-01  0.57523501722E-01  0.29609539673E-01  0.81871723680E-01  0.51100000000E-03 0. -1.
</event>
<event>
 8    1  0.1041149E+005  0.1043930E+01  0.7957747E-01            NaN
         13   -1    0    0    0    0  0.00000000000E+00  0.00000000000E+00  0.74505805969E-08  0.10566000000E+00  0.10566000000E+00 0. -1.
     999900   -1    0    0    0    0 -0.00000000000E+00 -0.00000000000E+00 -0.74505805969E-08  0.93827000000E+00  0.93827000000E+00 0. -1.
     999902    2    1    2    0    0  0.19316468958E-01  0.91030061957E-02 -0.10805726587E-01  0.10199977117E+01  0.10197169105E+01 0.  0.
     999903    2    3    3    0    0  0.11627120572E+00  0.61790489611E-01 -0.40150575417E-02  0.13308040720E+00  0.18900164210E-01 0.  0.
         14    1    1    2    0    0 -0.19316468958E-01 -0.91030061957E-02  0.10805726587E-01  0.23932288271E-01  0.00000000000E+00 0. -1.
     999901    1    3    3    0    0 -0.96954736762E-01 -0.52687483416E-01 -0.67906690454E-02  0.88691730453E+00  0.88000000000E+00 0.  1.
        -11    1    4    4    0    0  0.58973236901E-01  0.28660166975E-01 -0.11136967811E-01  0.66509706168E-01  0.51100000000E-03 0.  1.
         11    1    4    4    0    0  0.57297968819E-01  0.33130322636E-01  0.71219102695E-02  0.66570701030E-01  0.51100000000E-03 0. -1.
</event>
<event>
 8    1  0.1041149E+005  0.1043930E+01  0.7957747E-01            NaN
         13   -1    0    0    0    0  0.00000000000E+00  0.00000000000E+00  0.74505805969E-08  0.10566000000E+00  0.10566000000E+00 0. -1.
     999900   -1    0    0    0    0 -0.00000000000E+00 -0.00000000000E+00 -0.74505805969E-08  0.93827000000E+00  0.93827000000E+00 0.  1.
     999902    2    1    2    0    0  0.69900772569E-02 -0.15116768832E-01 -0.91373795792E-02  0.10249334323E+01  0.10247573718E+01 0.  0.
     999903    2    3    3    0    0 -0.12797340512E-01  0.70340946560E-01  0.10981556146E+00  0.13260817475E+00  0.20343298267E-01 0.  0.
         14    1    1    2    0    0 -0.69900772569E-02  0.15116768832E-01  0.91373795792E-02  0.18996567730E-01  0.00000000000E+00 0. -1.
     999901    1    3    3    0    0  0.19787417769E-01 -0.85457715392E-01 -0.11895294104E+00  0.89232525752E+00  0.88000000000E+00 0.  1.
        -11    1    4    4    0    0 -0.64126768244E-02  0.98649056693E-02  0.30259443817E-01  0.32470507373E-01  0.51100000000E-03 0. -1.
         11    1    4    4    0    0 -0.63846636876E-02  0.60476040891E-01  0.79556117646E-01  0.10013766738E+00  0.51100000000E-03 0.  1.
</event>
<event>
 8    1  0.1041149E+005  0.1043930E+01  0.7957747E-01            NaN
         13   -1    0    0    0    0  0.00000000000E+00  0.00000000000E+00  0.74505805969E-08  0.10566000000E+00  0.10566000000E+00 0.  1.
     999900   -1    0    0    0    0 -0.00000000000E+00 -0.00000000000E+00 -0.74505805969E-08  0.93827000000E+00  0.93827000000E+00 0. -1.
     999902    2    1    2    0    0  0.23951169487E-01  0.19267119521E-02 -0.49903660702E-02  0.10193887186E+01  0.10190932662E+01 0.  0.
     999903    2    3    3    0    0  0.12178799470E+00  0.46462025410E-01 -0.15664946925E-01  0.13278317769E+00  0.19873254851E-01 0.  0.
         14    1    1    2    0    0 -0.23951169487E-01 -0.19267119521E-02  0.49903660702E-02  0.24541281390E-01  0.00000000000E+00 0.  1.
     999901    1    3    3    0    0 -0.97836825209E-01 -0.44535313458E-01  0.10674580855E-01  0.88660554092E+00  0.88000000000E+00 0.  1.
        -11    1    4    4    0    0  0.36544550292E-01  0.21158379137E-01  0.13332494240E-02  0.42251861956E-01  0.51100000000E-03 0. -1.
         11    1    4    4    0    0  0.85243444404E-01  0.25303646272E-01 -0.16998196349E-01  0.90531315735E-01  0.51100000000E-03 0.  1.
</event>
<event>
 8    1  0.1041149E+005  0.1043930E+01  0.7957747E-01            NaN
         13   -1    0    0    0    0  0.00000000000E+00  0.00000000000E+00  0.74505805969E-08  0.10566000000E+00  0.10566000000E+00 0. -1.
     999900   -1    0    0    0    0 -0.00000000000E+00 -0.00000000000E+00 -0.74505805969E-08  0.93827000000E+00  0.93827000000E+00 0.  1.
     999902    2    1    2    0    0 -0.13968989741E-01  0.13652512433E-01  0.21067723840E-01  0.10152006986E+01  0.10147941100E+01 0.  0.
     999903    2    3    3    0    0  0.12284011987E+00  0.21967959726E-02  0.56457407420E-03  0.12432004159E+00  0.18990340542E-01 0.  0.
         14    1    1    2    0    0  0.13968989741E-01 -0.13652512433E-01 -0.21067723840E-01  0.28729301382E-01  0.00000000000E+00 0.  1.
     999901    1    3    3    0    0 -0.13680910962E+00  0.11455716460E-01  0.20503149766E-01  0.89088065703E+00  0.88000000000E+00 0.  1.
        -11    1    4    4    0    0  0.41610733623E-01 -0.57543134643E-02 -0.60050813246E-02  0.42436863678E-01  0.51100000000E-03 0. -1.
         11    1    4    4    0    0  0.81229386252E-01  0.79511094369E-02  0.65696553988E-02  0.81883177913E-01  0.51100000000E-03 0.  1.
</event>
<event>
 8    1  0.1041149E+005  0.1043930E+01  0.7957747E-01            NaN
         13   -1    0    0    0    0  0.00000000000E+00  0.00000000000E+00  0.74505805969E-08  0.10566000000E+00  0.10566000000E+00 0.  1.
     999900   -1    0    0    0    0 -0.00000000000E+00 -0.00000000000E+00 -0.74505805969E-08  0.93827000000E+00  0.93827000000E+00 0.  1.
     999902    2    1    2    0    0  0.29457332888E-02  0.24721020498E-01 -0.56408666066E-02  0.10184030422E+01  0.10180830667E+01 0.  0.
     999903    2    3    3    0    0 -0.10765671260E+00  0.26624492204E-01  0.62644805678E-01  0.12885289898E+00  0.19490165336E-01 0.  0.
         14    1    1    2    0    0 -0.29457332888E-02 -0.24721020498E-01  0.56408666066E-02  0.25526957812E-01  0.00000000000E+00 0. -1.
     999901    1    3    3    0    0  0.11060244589E+00 -0.19034717060E-02 -0.68285672284E-01  0.88955014321E+00  0.88000000000E+00 0.  1.
        -11    1    4    4    0    0 -0.47838357321E-01  0.21437037283E-01  0.26113515589E-01  0.58568180919E-01  0.51100000000E-03 0.  1.
         11    1    4    4    0    0 -0.59818355276E-01  0.51874549210E-02  0.36531290089E-01  0.70284718062E-01  0.51100000000E-03 0. -1.
</event>
<event>
 8    1  0.1041149E+005  0.1043930E+01  0.7957747E-01            NaN
         13   -1    0    0    0    0  0.00000000000E+00  0.00000000000E+00  0.74505805969E-08  0.10566000000E+00  0.10566000000E+00 0.  1.
     999900   -1    0    0    0    0 -0.00000000000E+00 -0.00000000000E+00 -0.74505805969E-08  0.93827000000E+00  0.93827000000E+00 0. -1.
     999902    2    1    2    0    0 -0.20163714775E-02 -0.16204874365E-01  0.17120966483E-01  0.10202700930E+01  0.10199957213E+01 0.  0.
     999903    2    3    3    0    0 -0.39962400514E-01 -0.60430251583E-01  0.11023664934E+00  0.13344073199E+00  0.20137063749E-01 0.  0.
         14    1    1    2    0    0  0.20163714775E-02  0.16204874365E-01 -0.17120966483E-01  0.23659907025E-01  0.00000000000E+00 0.  1.
     999901    1    3    3    0    0  0.37946029036E-01  0.44225377218E-01 -0.93115682852E-01  0.88682936098E+00  0.88000000000E+00 0. -1.
        -11    1    4    4    0    0 -0.14994416789E-01 -0.18949320467E-01  0.54446789562E-01  0.59570322272E-01  0.51100000000E-03 0. -1.
         11    1    4    4    0    0 -0.24967983725E-01 -0.41480931116E-01  0.55789859774E-01  0.73870409719E-01  0.51100000000E-03 0.  1.
</event>
<event>
 8    1  0.1041149E+005  0.1043930E+01  0.7957747E-01            NaN
         13   -1    0    0    0    0  0.00000000000E+00  0.00000000000E+00  0.74505805969E-08  0.10566000000E+00  0.10566000000E+00 0. -1.
     999900   -1    0    0    0    0 -0.00000000000E+00 -0.00000000000E+00 -0.74505805969E-08  0.93827000000E+00  0.93827000000E+00 0. -1.
     999902    2    1    2    0    0 -0.19269024659E-01 -0.14655653875E-01 -0.13424366645E-02  0.10196836469E+01  0.10193953375E+01 0.  0.
     999903    2    3    3    0    0  0.93750519442E-01  0.15615471451E-01 -0.83597142628E-01  0.12813690387E+00  0.19939434132E-01 0.  0.
         14    1    1    2    0    0  0.19269024659E-01  0.14655653875E-01  0.13424366645E-02  0.24246353087E-01  0.00000000000E+00 0. -1.
     999901    1    3    3    0    0 -0.11301954410E+00 -0.30271125326E-01  0.82254705964E-01  0.89154674304E+00  0.88000000000E+00 0.  1.
        -11    1    4    4    0    0  0.71900903316E-01  0.13929754495E-01 -0.74291737203E-01  0.10432306215E+00  0.51100000000E-03 0.  1.
         11    1    4    4    0    0  0.21849616126E-01  0.16857169556E-02 -0.93054054254E-02  0.23813841724E-01  0.51100000000E-03 0. -1.
</event>
<event>
 8    1  0.1041149E+005  0.1043930E+01  0.7957747E-01            NaN
         13   -1    0    0    0    0  0.00000000000E+00  0.00000000000E+00  0.74505805969E-08  0.10566000000E+00  0.10566000000E+00 0.  1.
     999900   -1    0    0    0    0 -0.00000000000E+00 -0.00000000000E+00 -0.74505805969E-08  0.93827000000E+00  0.93827000000E+00 0. -1.
     999902    2    1    2    0    0  0.10171513145E-01  0.21004662351E-01  0.97541621126E-02  0.10186357477E+01  0.10183216522E+01 0.  0.
     999903    2    3    3    0    0 -0.58045355505E-01  0.48297816411E-01  0.10453721025E+00  0.13050158913E+00  0.20017344337E-01 0.  0.
         14    1    1    2    0    0 -0.10171513145E-01 -0.21004662351E-01 -0.97541621126E-02  0.25294252285E-01  0.00000000000E+00 0. -1.
     999901    1    3    3    0    0  0.68216868650E-01 -0.27293154060E-01 -0.94783048134E-01  0.88813415858E+00  0.88000000000E+00 0. -1.
        -11    1    4    4    0    0 -0.29019171109E-01  0.36825600299E-01  0.64045487882E-01  0.79374572555E-01  0.51100000000E-03 0.  1.
         11    1    4    4    0    0 -0.29026184396E-01  0.11472216112E-01  0.40491722364E-01  0.51127016577E-01  0.51100000000E-03 0. -1.
</event>
<event>
 8    1  0.1041149E+005  0.1043930E+01  0.7957747E-01            NaN
         13   -1    0    0    0    0  0.00000000000E+00  0.00000000000E+00  0.74505805969E-08  0.10566000000E+00  0.10566000000E+00 0. -1.
     999900   -1    0    0    0    0 -0.00000000000E+00 -0.00000000000E+00 -0.74505805969E-08  0.93827000000E+00  0.93827000000E+00 0. -1.
     999902    2    1    2    0    0  0.83708077183E-02 -0.40562456500E-02  0.21828365250E-01  0.10202023562E+01  0.10199263927E+01 0.  0.
     999903    2    3    3    0    0  0.12232045251E+00 -0.18438402159E-01 -0.36504327030E-01  0.13082388167E+00  0.21910142579E-01 0.  0.
         14    1    1    2    0    0 -0.83708077183E-02  0.40562456500E-02 -0.21828365250E-01  0.23727643796E-01  0.00000000000E+00 0.  1.
     999901    1    3    3    0    0 -0.11394964479E+00  0.14382156509E-01  0.58332692279E-01  0.88937847453E+00  0.88000000000E+00 0. -1.
        -11    1    4    4    0    0  0.50089713655E-01 -0.49169922377E-02 -0.25803043086E-01  0.56561598105E-01  0.51100000000E-03 0.  1.
         11    1    4    4    0    0  0.72230738852E-01 -0.13521409921E-01 -0.10701283944E-01  0.74262283566E-01  0.51100000000E-03 0. -1.
</event>
<event>
 8    1  0.1041149E+005  0.1043930E+01  0.7957747E-01            NaN
         13   -1    0    0    0    0  0.00000000000E+00  0.00000000000E+00  0.74505805969E-08  0.10566000000E+00  0.10566000000E+00 0.  1.
     999900   -1    0    0    0    0 -0.00000000000E+00 -0.00000000000E+00 -0.74505805969E-08  0.93827000000E+00  0.93827000000E+00 0.  1.
     999902    2    1    2    0    0  0.10396861146E-01  0.16163491597E-01 -0.13866248469E-01  0.10202313496E+01  0.10199560681E+01 0.  0.
     999903    2    3    3    0    0 -0.12253927463E-01 -0.46519407369E-01  0.11692964376E+00  0.12807117934E+00  0.20383115229E-01 0.  0.
         14    1    1    2    0    0 -0.10396861146E-01 -0.16163491597E-01  0.13866248469E-01  0.23698650360E-01  0.00000000000E+00 0.  1.
     999901    1    3    3    0    0  0.22650788609E-01  0.62682898966E-01 -0.13079589223E+00  0.89216017030E+00  0.88000000000E+00 0.  1.
        -11    1    4    4    0    0 -0.27801388836E-03 -0.33940305917E-01  0.88057138112E-01  0.94373419727E-01  0.51100000000E-03 0. -1.
         11    1    4    4    0    0 -0.11975913575E-01 -0.12579101452E-01  0.28872505651E-01  0.33697759612E-01  0.51100000000E-03 0.  1.
</event>
<event>
 8    1  0.1041149E+005  0.1043930E+01  0.7957747E-01            NaN
         13   -1    0    0    0    0  0.00000000000E+00  0.00000000000E+00  0.74505805969E-08  0.10566000000E+00  0.10566000000E+00 0.  1.
     999900   -1    0    0    0    0 -0.00000000000E+00 -0.00000000000E+00 -0.74505805969E-08  0.93827000000E+00  0.93827000000E+00 0.  1.
     999902    2    1    2    0    0 -0.96194586794E-02  0.43102747629E-02  0.20468347607E-01  0.10209068441E+01  0.10206472058E+01 0.  0.
     999903    2    3    3    0    0 -0.38832847131E-01 -0.26879292462E-01 -0.11842265217E+00  0.12898929130E+00  0.19591486521E-01 0.  0.
         14    1    1    2    0    0  0.96194586794E-02 -0.43102747629E-02 -0.20468347607E-01  0.23023155899E-01  0.00000000000E+00 0. -1.
     999901    1    3    3    0    0  0.29213388451E-01  0.31189567225E-01  0.13889099978E+00  0.89191755280E+00  0.88000000000E+00 0. -1.
        -11    1    4    4    0    0 -0.40396471360E-01 -0.27698983482E-01 -0.11073744592E+00  0.12108737190E+00  0.51100000000E-03 0. -1.
         11    1    4    4    0    0  0.15636242294E-02  0.81969101980E-03 -0.76852062502E-02  0.79019194002E-02  0.51100000000E-03 0.  1.
</event>
<event>
 8    1  0.1041149E+005  0.1043930E+01  0.7957747E-01            NaN
         13   -1    0    0    0    0  0.00000000000E+00  0.00000000000E+00  0.74505805969E-08  0.10566000000E+00  0.10566000000E+00 0. -1.
     999900   -1    0    0    0    0 -0.00000000000E+00 -0.00000000000E+00 -0.74505805969E-08  0.93827000000E+00  0.93827000000E+00 0. -1.
     999902    2    1    2    0    0 -0.10227784060E-02 -0.11614509343E-01 -0.17285865535E-01  0.10230794832E+01  0.10228669928E+01 0.  0.
     999903    2    3    3    0    0 -0.12537026779E+00  0.12470242129E-01 -0.39655330565E-01  0.13372985212E+00  0.20926469356E-01 0.  0.
         14    1    1    2    0    0  0.10227784060E-02  0.11614509343E-01  0.17285865535E-01  0.20850516786E-01  0.00000000000E+00 0. -1.
     999901    1    3    3    0    0  0.12434748939E+00 -0.24084751471E-01  0.22369465029E-01  0.88934963110E+00  0.88000000000E+00 0.  1.
        -11    1    4    4    0    0 -0.98984719198E-01  0.79994488669E-02 -0.39735413294E-01  0.10696321801E+00  0.51100000000E-03 0. -1.
         11    1    4    4    0    0 -0.26385548593E-01  0.44707932620E-02  0.80082728717E-04  0.26766634103E-01  0.51100000000E-03 0.  1.
</event>
<event>
 8    1  0.1041149E+005  0.1043930E+01  0.7957747E-01            NaN
         13   -1    0    0    0    0  0.00000000000E+00  0.00000000000E+00  0.74505805969E-08  0.10566000000E+00  0.10566000000E+00 0. -1.
     999900   -1    0    0    0    0 -0.00000000000E+00 -0.00000000000E+00 -0.74505805969E-08  0.93827000000E+00  0.93827000000E+00 0. -1.
     999902    2    1    2    0    0 -0.22664103725E-01 -0.32606241072E-02 -0.32163346553E-03  0.10210302901E+01  0.10207734599E+01 0.  0.
     999903    2    3    3    0    0  0.20164756822E-01  0.93612874436E-01  0.86312101792E-01  0.13045508824E+00  0.19969062413E-01 0.  0.
         14    1    1    2    0    0  0.22664103725E-01  0.32606241072E-02  0.32163346553E-03  0.22899709940E-01  0.00000000000E+00 0. -1.
     999901    1    3    3    0    0 -0.42828860547E-01 -0.96873498543E-01 -0.86633735257E-01  0.89057520182E+00  0.88000000000E+00 0. -1.
        -11    1    4    4    0    0  0.93388682215E-02  0.15152944547E-01  0.22805955603E-01  0.28934389920E-01  0.51100000000E-03 0. -1.
         11    1    4    4    0    0  0.10825888601E-01  0.78459929889E-01  0.63506146189E-01  0.10152069832E+00  0.51100000000E-03 0.  1.
</event>
<event>
 8    1  0.1053059E+005  0.1043930E+01  0.7957747E-01            NaN
         13   -1    0    0    0    0  0.00000000000E+00  0.00000000000E+00  0.74505805969E-08  0.10566000000E+00  0.10566000000E+00 0. -1.
     999900   -1    0    0    0    0 -0.00000000000E+00 -0.00000000000E+00 -0.74505805969E-08  0.93827000000E+00  0.93827000000E+00 0. -1.
     999902    2    1    2    0    0  0.21154443755E-01 -0.66962149035E-02  0.76583708219E-02  0.10204566017E+01  0.10201865886E+01 0.  0.
     999903    2    3    3    0    0 -0.11920846515E+00  0.38304986913E-01 -0.16985023310E-01  0.12785694270E+00  0.19518621707E-01 0.  0.
         14    1    1    2    0    0 -0.21154443755E-01  0.66962149035E-02 -0.76583708219E-02  0.23473398311E-01  0.00000000000E+00 0.  1.
     999901    1    3    3    0    0  0.14036290890E+00 -0.45001201817E-01  0.24643394131E-01  0.89259965899E+00  0.88000000000E+00 0. -1.
        -11    1    4    4    0    0 -0.85033353775E-01  0.20321767075E-01 -0.56733602934E-02  0.87613318675E-01  0.51100000000E-03 0. -1.
         11    1    4    4    0    0 -0.34175111373E-01  0.17983219839E-01 -0.11311663016E-01  0.40243624020E-01  0.51100000000E-03 0.  1.
</event>
<event>
 8    1  0.1041149E+005  0.1043930E+01  0.7957747E-01            NaN
         13   -1    0    0    0    0  0.00000000000E+00  0.00000000000E+00  0.74505805969E-08  0.10566000000E+00  0.10566000000E+00 0.  1.
     999900   -1    0    0    0    0 -0.00000000000E+00 -0.00000000000E+00 -0.74505805969E-08  0.93827000000E+00  0.93827000000E+00 0.  1.
     999902    2    1    2    0    0  0.62442922026E-02 -0.36197203436E-02  0.23471420007E-01  0.10193739189E+01  0.10190781057E+01 0.  0.
     999903    2    3    3    0    0 -0.12057308903E+00  0.88235603134E-02  0.43997582829E-01  0.12995905129E+00  0.18380497853E-01 0.  0.
         14    1    1    2    0    0 -0.62442922026E-02  0.36197203436E-02 -0.23471420007E-01  0.24556081072E-01  0.00000000000E+00 0. -1.
     999901    1    3    3    0    0  0.12681738124E+00 -0.12443280657E-01 -0.20526162822E-01  0.88941486764E+00  0.88000000000E+00 0. -1.
        -11    1    4    4    0    0 -0.32999154088E-01 -0.33574506915E-02  0.59544967115E-02  0.33703616983E-01  0.51100000000E-03 0.  1.
         11    1    4    4    0    0 -0.87573934946E-01  0.12181011005E-01  0.38043086118E-01  0.96255434306E-01  0.51100000000E-03 0. -1.
</event>
<event>
 8    1  0.1041149E+005  0.1043930E+01  0.7957747E-01            NaN
         13   -1    0    0    0    0  0.00000000000E+00  0.00000000000E+00  0.74505805969E-08  0.10566000000E+00  0.10566000000E+00 0. -1.
     999900   -1    0    0    0    0 -0.00000000000E+00 -0.00000000000E+00 -0.74505805969E-08  0.93827000000E+00  0.93827000000E+00 0.  1.
     999902    2    1    2    0    0 -0.90327225972E-02  0.17972243615E-01  0.15882777011E-01  0.10183008326E+01  0.10179782568E+01 0.  0.
     999903    2    3    3    0    0  0.54390149571E-01  0.92059780969E-01 -0.69071548596E-01  0.12884669583E+00  0.19932399718E-01 0.  0.
         14    1    1    2    0    0  0.90327225972E-02 -0.17972243615E-01 -0.15882777011E-01  0.25629167440E-01  0.00000000000E+00 0. -1.
     999901    1    3    3    0    0 -0.63422872168E-01 -0.74087537354E-01  0.84954325608E-01  0.88945413673E+00  0.88000000000E+00 0. -1.
        -11    1    4    4    0    0  0.20930669193E-01  0.53187286974E-01 -0.41299268813E-01  0.70518587153E-01  0.51100000000E-03 0. -1.
         11    1    4    4    0    0  0.33459480378E-01  0.38872493996E-01 -0.27772279784E-01  0.58328108678E-01  0.51100000000E-03 0.  1.
</event>
<event>
 8    1  0.1041149E+005  0.1043930E+01  0.7957747E-01            NaN
         13   -1    0    0    0    0  0.00000000000E+00  0.00000000000E+00  0.74505805969E-08  0.10566000000E+00  0.10566000000E+00 0. -1.
     999900   -1    0    0    0    0 -0.00000000000E+00 -0.00000000000E+00 -0.74505805969E-08  0.93827000000E+00  0.93827000000E+00 0. -1.
     999902    2    1    2    0    0 -0.16198331262E-01  0.33488174106E-02 -0.16428333594E-01  0.10206171139E+01  0.10203508233E+01 0.  0.
     999903    2    3    3    0    0  0.11850772028E+00 -0.42433127879E-01  0.16734140275E-01  0.12857369763E+00  0.20162196427E-01 0.  0.
         14    1    1    2    0    0  0.16198331262E-01 -0.33488174106E-02  0.16428333594E-01  0.23312886102E-01  0.00000000000E+00 0. -1.
     999901    1    3    3    0    0 -0.13470605154E+00  0.45781945290E-01 -0.33162473868E-01  0.89204341627E+00  0.88000000000E+00 0.  1.
        -11    1    4    4    0    0  0.75302547794E-01 -0.17734229994E-01  0.55494237484E-02  0.77563095881E-01  0.51100000000E-03 0. -1.
         11    1    4    4    0    0  0.43205172482E-01 -0.24698897885E-01  0.11184716526E-01  0.51010601748E-01  0.51100000000E-03 0.  1.
</event>
<event>
 8    1  0.1041149E+005  0.1043930E+01  0.7957747E-01            NaN
         13   -1    0    0    0    0  0.00000000000E+00  0.00000000000E+00  0.74505805969E-08  0.10566000000E+00  0.10566000000E+00 0.  1.
     999900   -1    0    0    0    0 -0.00000000000E+00 -0.00000000000E+00 -0.74505805969E-08  0.93827000000E+00  0.93827000000E+00 0.  1.
     999902    2    1    2    0    0  0.16509000715E-01 -0.10997625051E-01 -0.14311347472E-01  0.10194696335E+01  0.10191761497E+01 0.  0.
     999903    2    3    3    0    0 -0.79514721955E-01  0.97648026582E-01 -0.78690801062E-02  0.12758066301E+00  0.18899075326E-01 0.  0.
         14    1    1    2    0    0 -0.16509000715E-01  0.10997625051E-01  0.14311347472E-01  0.24460366470E-01  0.00000000000E+00 0.  1.
     999901    1    3    3    0    0  0.96023722670E-01 -0.10864565163E+00 -0.64422673662E-02  0.89188897052E+00  0.88000000000E+00 0. -1.
        -11    1    4    4    0    0 -0.13309444870E-01  0.25622958620E-01 -0.71349840385E-02  0.29746368676E-01  0.51100000000E-03 0.  1.
         11    1    4    4    0    0 -0.66205277085E-01  0.72025067963E-01 -0.73409606766E-03  0.97834294329E-01  0.51100000000E-03 0. -1.
</event>
<event>
 8    1  0.1041149E+005  0.1043930E+01  0.7957747E-01            NaN
         13   -1    0    0    0    0  0.00000000000E+00  0.00000000000E+00  0.74505805969E-08  0.10566000000E+00  0.10566000000E+00 0. -1.
     999900   -1    0    0    0    0 -0.00000000000E+00 -0.00000000000E+00 -0.74505805969E-08  0.93827000000E+00  0.93827000000E+00 0. -1.
     999902    2    1    2    0    0  0.20075296646E-01  0.81168302814E-02  0.90024415906E-02  0.10204791061E+01  0.10202096165E+01 0.  0.
     999903    2    3    3    0    0  0.75955091295E-02 -0.10676814999E+00  0.72183643290E-01  0.13067791032E+00  0.20226425192E-01 0.  0.
         14    1    1    2    0    0 -0.20075296646E-01 -0.81168302814E-02 -0.90024415906E-02  0.23450893882E-01  0.00000000000E+00 0. -1.
     999901    1    3    3    0    0  0.12479787517E-01  0.11488498028E+00 -0.63181201699E-01  0.88980119579E+00  0.88000000000E+00 0. -1.
        -11    1    4    4    0    0  0.85843524872E-02 -0.46201334815E-01  0.21434393687E-01  0.51652190660E-01  0.51100000000E-03 0. -1.
         11    1    4    4    0    0 -0.98884335767E-03 -0.60566815179E-01  0.50749249602E-01  0.79025719663E-01  0.51100000000E-03 0.  1.
</event>
<event>
 8    1  0.1041149E+005  0.1043930E+01  0.7957747E-01            NaN
         13   -1    0    0    0    0  0.00000000000E+00  0.00000000000E+00  0.74505805969E-08  0.10566000000E+00  0.10566000000E+00 0.  1.
     999900   -1    0    0    0    0 -0.00000000000E+00 -0.00000000000E+00 -0.74505805969E-08  0.93827000000E+00  0.93827000000E+00 0. -1.
     999902    2    1    2    0    0 -0.12405999972E-01 -0.59991245801E-02  0.22235393896E-01  0.10177706599E+01  0.10174344230E+01 0.  0.
     999903    2    3    3    0    0 -0.11151533745E+00 -0.17221634424E-01 -0.58261062107E-01  0.12848539359E+00  0.19542001699E-01 0.  0.
         14    1    1    2    0    0  0.12405999972E-01  0.59991245801E-02 -0.22235393896E-01  0.26159340067E-01  0.00000000000E+00 0. -1.
     999901    1    3    3    0    0  0.99109337475E-01  0.11222509844E-01  0.80496456003E-01  0.88928526634E+00  0.88000000000E+00 0. -1.
        -11    1    4    4    0    0 -0.91717587566E-01 -0.21541090229E-01 -0.49102968039E-01  0.10624263282E+00  0.51100000000E-03 0.  1.
         11    1    4    4    0    0 -0.19797749881E-01  0.43194558050E-02 -0.91580940675E-02  0.22242760772E-01  0.51100000000E-03 0. -1.
</event>
<event>
 8    1  0.1041149E+005  0.1043930E+01  0.7957747E-01            NaN
         13   -1    0    0    0    0  0.00000000000E+00  0.00000000000E+00  0.74505805969E-08  0.10566000000E+00  0.10566000000E+00 0. -1.
     999900   -1    0    0    0    0 -0.00000000000E+00 -0.00000000000E+00 -0.74505805969E-08  0.93827000000E+00  0.93827000000E+00 0. -1.
     999902    2    1    2    0    0 -0.28930150186E-02 -0.97626477120E-02  0.17754655912E-01  0.10234627913E+01  0.10232581192E+01 0.  0.
     999903    2    3    3    0    0  0.63888515029E-01  0.10298595901E+00  0.50380928088E-01  0.13316144078E+00  0.22491804925E-01 0.  0.
         14    1    1    2    0    0  0.28930150186E-02  0.97626477120E-02 -0.17754655912E-01  0.20467208720E-01  0.00000000000E+00 0.  1.
     999901    1    3    3    0    0 -0.66781530047E-01 -0.11274860672E+00 -0.32626272176E-01  0.89030135050E+00  0.88000000000E+00 0. -1.
        -11    1    4    4    0    0  0.19268574757E-01  0.48301028759E-01  0.28304259320E-01  0.59208610598E-01  0.51100000000E-03 0.  1.
         11    1    4    4    0    0  0.44619940271E-01  0.54684930252E-01  0.22076668767E-01  0.73952830178E-01  0.51100000000E-03 0. -1.
</event>
<event>
 8    1  0.1041149E+005  0.1043930E+01  0.7957747E-01            NaN
         13   -1    0    0    0    0  0.00000000000E+00  0.00000000000E+00  0.74505805969E-08  0.10566000000E+00  0.10566000000E+00 0. -1.
     999900   -1    0    0    0    0 -0.00000000000E+00 -0.00000000000E+00 -0.74505805969E-08  0.93827000000E+00  0.93827000000E+00 0.  1.
     999902    2    1    2    0    0  0.61917336841E-02  0.23550238407E-01 -0.67657996387E-03  0.10195700112E+01  0.10192789602E+01 0.  0.
     999903    2    3    3    0    0 -0.44048344545E-01  0.98613868270E-01 -0.73197544288E-01  0.13197894303E+00  0.19889928126E-01 0.  0.
         14    1    1    2    0    0 -0.61917336841E-02 -0.23550238407E-01  0.67657996387E-03  0.24359988823E-01  0.00000000000E+00 0.  1.
     999901    1    3    3    0    0  0.50240078229E-01 -0.75063629864E-01  0.72520964324E-01  0.88759106815E+00  0.88000000000E+00 0. -1.
        -11    1    4    4    0    0 -0.16493084850E-01  0.31678926888E-01 -0.13619820471E-01  0.38227436316E-01  0.51100000000E-03 0.  1.
         11    1    4    4    0    0 -0.27555259695E-01  0.66934941382E-01 -0.59577723817E-01  0.93751506713E-01  0.51100000000E-03 0. -1.
</event>
<event>
 8    1  0.1041149E+005  0.1043930E+01  0.7957747E-01            NaN
         13   -1    0    0    0    0  0.00000000000E+00  0.00000000000E+00  0.74505805969E-08  0.10566000000E+00  0.10566000000E+00 0. -1.
     999900   -1    0    0    0    0 -0.00000000000E+00 -0.00000000000E+00 -0.74505805969E-08  0.93827000000E+00  0.93827000000E+00 0.  1.
     999902    2    1    2    0    0 -0.21988243701E-01 -0.21135210079E-02 -0.47124523393E-03  0.10218353874E+01  0.10215964894E+01 0.  0.
     999903    2    3    3    0    0  0.21464138976E-01  0.47398304847E-01 -0.11901759735E+00  0.13144627696E+00  0.20140175856E-01 0.  0.
         14    1    1    2    0    0  0.21988243701E-01  0.21135210079E-02  0.47124523393E-03  0.22094612560E-01  0.00000000000E+00 0. -1.
     999901    1    3    3    0    0 -0.43452382677E-01 -0.49511825855E-01  0.11854635212E+00  0.89038911048E+00  0.88000000000E+00 0. -1.
        -11    1    4    4    0    0  0.66665380056E-04  0.13065417516E-01 -0.15353179923E-01  0.20166577149E-01  0.51100000000E-03 0. -1.
         11    1    4    4    0    0  0.21397473596E-01  0.34332887331E-01 -0.10366441743E+00  0.11127969981E+00  0.51100000000E-03 0.  1.
</event>
<event>
 8    1  0.1041149E+005  0.1043930E+01  0.7957747E-01            NaN
         13   -1    0    0    0    0  0.00000000000E+00  0.00000000000E+00  0.74505805969E-08  0.10566000000E+00  0.10566000000E+00 0. -1.
     999900   -1    0    0    0    0 -0.00000000000E+00 -0.00000000000E+00 -0.74505805969E-08  0.93827000000E+00  0.93827000000E+00 0.  1.
     999902    2    1    2    0    0  0.18704947078E-01 -0.14317925321E-01  0.78325620264E-04  0.10203740206E+01  0.10201020820E+01 0.  0.
     999903    2    3    3    0    0  0.43537130356E-01 -0.55762012451E-02  0.12239766178E+00  0.13152359726E+00  0.19765962856E-01 0.  0.
         14    1    1    2    0    0 -0.18704947078E-01  0.14317925321E-01 -0.78325620264E-04  0.23555979402E-01  0.00000000000E+00 0.  1.
     999901    1    3    3    0    0 -0.24832183278E-01 -0.87417240763E-02 -0.12231933616E+00  0.88885042334E+00  0.88000000000E+00 0.  1.
        -11    1    4    4    0    0  0.13713893802E-01  0.93772987176E-03  0.65739320182E-01  0.67163007374E-01  0.51100000000E-03 0.  1.
         11    1    4    4    0    0  0.29823236553E-01 -0.65139311168E-02  0.56658341597E-01  0.64360589887E-01  0.51100000000E-03 0. -1.
</event>
<event>
 8    1  0.1041149E+005  0.1043930E+01  0.7957747E-01            NaN
         13   -1    0    0    0    0  0.00000000000E+00  0.00000000000E+00  0.74505805969E-08  0.10566000000E+00  0.10566000000E+00 0. -1.
     999900   -1    0    0    0    0 -0.00000000000E+00 -0.00000000000E+00 -0.74505805969E-08  0.93827000000E+00  0.93827000000E+00 0. -1.
     999902    2    1    2    0    0 -0.10344859580E-01 -0.15810544207E-01 -0.14010235732E-01  0.10204081775E+01  0.10201370362E+01 0.  0.
     999903    2    3    3    0    0 -0.84397356831E-01 -0.54938526637E-01  0.81496449135E-01  0.13128709565E+00  0.21294945731E-01 0.  0.
         14    1    1    2    0    0  0.10344859580E-01  0.15810544207E-01  0.14010235732E-01  0.23521822487E-01  0.00000000000E+00 0. -1.
     999901    1    3    3    0    0  0.74052497251E-01  0.39127982430E-01 -0.95506684867E-01  0.88912108186E+00  0.88000000000E+00 0. -1.
        -11    1    4    4    0    0 -0.77794752867E-01 -0.42842695765E-01  0.66774504005E-01  0.11111532595E+00  0.51100000000E-03 0. -1.
         11    1    4    4    0    0 -0.66026039634E-02 -0.12095830872E-01  0.14721945130E-01  0.20171769704E-01  0.51100000000E-03 0.  1.
</event>
<event>
 7    1  0.1041149E+005  0.1043930E+01  0.7957747E-01            NaN
         13   -1    0    0    0    0  0.00000000000E+00  0.00000000000E+00  0.74505805969E-08  0.10566000000E+00  0.10566000000E+00 0. -1.
     999900   -1    0    0    0    0 -0.00000000000E+00 -0.00000000000E+00 -0.74505805969E-08  0.93827000000E+00  0.93827000000E+00 0.  1.
     999902    2    1    2    0    0  0.21864609012E-02  0.17059741913E-01  0.16788470681E-01  0.10198952719E+01  0.10196120329E+01 0.  0.
         14    1    1    2    0    0 -0.21864609012E-02 -0.17059741913E-01 -0.16788470681E-01  0.24034728067E-01  0.00000000000E+00 0.  1.
     999901    1    3    3    0    0  0.99027337981E-01  0.40105235377E-01 -0.49937685560E-01  0.88786745408E+00  0.88000000000E+00 0. -1.
        -11    1    3    3    0    0 -0.23237434122E-01 -0.12634584568E-01 -0.69628219926E-02  0.27356042895E-01  0.51100000000E-03 0. -1.
         11    1    3    3    0    0 -0.73603442958E-01 -0.10410908896E-01  0.73688978233E-01  0.10467177496E+00  0.51100000000E-03 0.  1.
</event>
<event>
 8    1  0.1041149E+005  0.1043930E+01  0.7957747E-01            NaN
         13   -1    0    0    0    0  0.00000000000E+00  0.00000000000E+00  0.74505805969E-08  0.10566000000E+00  0.10566000000E+00 0. -1.
     999900   -1    0    0    0    0 -0.00000000000E+00 -0.00000000000E+00 -0.74505805969E-08  0.93827000000E+00  0.93827000000E+00 0. -1.
     999902    2    1    2    0    0  0.18822848398E-01  0.40699692934E-02  0.12742013045E-01  0.10208383745E+01  0.10205771718E+01 0.  0.
     999903    2    3    3    0    0 -0.84796343068E-01 -0.86358997228E-01 -0.38912485902E-01  0.12865984859E+00  0.19770657066E-01 0.  0.
         14    1    1    2    0    0 -0.18822848398E-01 -0.40699692934E-02 -0.12742013045E-01  0.23091625502E-01  0.00000000000E+00 0.  1.
     999901    1    3    3    0    0  0.10361919147E+00  0.90428966521E-01  0.51654498947E-01  0.89217852591E+00  0.88000000000E+00 0.  1.
        -11    1    4    4    0    0 -0.30138229862E-01 -0.28741545220E-01 -0.37933588691E-02  0.41821525717E-01  0.51100000000E-03 0. -1.
         11    1    4    4    0    0 -0.54658113206E-01 -0.57617452008E-01 -0.35119127033E-01  0.86838322875E-01  0.51100000000E-03 0.  1.
</event>
<event>
 8    1  0.1041149E+005  0.1043930E+01  0.7957747E-01            NaN
         13   -1    0    0    0    0  0.00000000000E+00  0.00000000000E+00  0.74505805969E-08  0.10566000000E+00  0.10566000000E+00 0. -1.
     999900   -1    0    0    0    0 -0.00000000000E+00 -0.00000000000E+00 -0.74505805969E-08  0.93827000000E+00  0.93827000000E+00 0. -1.
     999902    2    1    2    0    0 -0.34354958183E-02 -0.24132581114E-01  0.66382258624E-02  0.10186663869E+01  0.10183530614E+01 0.  0.
     999903    2    3    3    0    0  0.11593634673E+00 -0.49033997022E-01 -0.24301838602E-01  0.12971925414E+00  0.19772106035E-01 0.  0.
         14    1    1    2    0    0  0.34354958183E-02  0.24132581114E-01 -0.66382258624E-02  0.25263613069E-01  0.00000000000E+00 0. -1.
     999901    1    3    3    0    0 -0.11937184255E+00  0.24901415909E-01  0.30940064464E-01  0.88894713279E+00  0.88000000000E+00 0. -1.
        -11    1    4    4    0    0  0.69293356537E-01 -0.18895812073E-01 -0.11694606572E-01  0.72771188790E-01  0.51100000000E-03 0. -1.
         11    1    4    4    0    0  0.46642990197E-01 -0.30138184950E-01 -0.12607232030E-01  0.56948065349E-01  0.51100000000E-03 0.  1.
</event>
<event>
 8    1  0.1041149E+005  0.1043930E+01  0.7957747E-01            NaN
         13   -1    0    0    0    0  0.00000000000E+00  0.00000000000E+00  0.74505805969E-08  0.10566000000E+00  0.10566000000E+00 0. -1.
     999900   -1    0    0    0    0 -0.00000000000E+00 -0.00000000000E+00 -0.74505805969E-08  0.93827000000E+00  0.93827000000E+00 0. -1.
     999902    2    1    2    0    0 -0.20950638712E-02  0.19349989239E-01 -0.10797876246E-01  0.10216722933E+01  0.10214298162E+01 0.  0.
     999903    2    3    3    0    0 -0.50703651616E-01 -0.28609293864E-01 -0.11753363689E+00  0.13259670020E+00  0.19451918228E-01 0.  0.
         14    1    1    2    0    0  0.20950638712E-02 -0.19349989239E-01  0.10797876246E-01  0.22257706701E-01  0.00000000000E+00 0. -1.
     999901    1    3    3    0    0  0.48608587744E-01  0.47959283102E-01  0.10673576064E+00  0.88907559310E+00  0.88000000000E+00 0.  1.
        -11    1    4    4    0    0 -0.14685376059E-01 -0.14159332479E-01 -0.25121579341E-01  0.32365133027E-01  0.51100000000E-03 0. -1.
         11    1    4    4    0    0 -0.36018275557E-01 -0.14449961384E-01 -0.92412057545E-01  0.10023156718E+00  0.51100000000E-03 0.  1.
</event>
<event>
 8    1  0.1041149E+005  0.1043930E+01  0.7957747E-01            NaN
         13   -1    0    0    0    0  0.00000000000E+00  0.00000000000E+00  0.74505805969E-08  0.10566000000E+00  0.10566000000E+00 0. -1.
     999900   -1    0    0    0    0 -0.00000000000E+00 -0.00000000000E+00 -0.74505805969E-08  0.93827000000E+00  0.93827000000E+00 0. -1.
     999902    2    1    2    0    0  0.64365824134E-02  0.82022224265E-02  0.21883823762E-01  0.10196893773E+01  0.10194012058E+01 0.  0.
     999903    2    3    3    0    0 -0.99984277291E-01  0.62474946354E-01  0.53594835116E-01  0.13105192808E+00  0.20055594577E-01 0.  0.
         14    1    1    2    0    0 -0.64365824134E-02 -0.82022224265E-02 -0.21883823762E-01  0.24240622688E-01  0.00000000000E+00 0.  1.
     999901    1    3    3    0    0  0.10642085970E+00 -0.54272723927E-01 -0.31711011355E-01  0.88863744924E+00  0.88000000000E+00 0. -1.
        -11    1    4    4    0    0 -0.54530752632E-01  0.45649489654E-01  0.32372480812E-01  0.78139090877E-01  0.51100000000E-03 0. -1.
         11    1    4    4    0    0 -0.45453524660E-01  0.16825456700E-01  0.21222354305E-01  0.52912837199E-01  0.51100000000E-03 0.  1.
</event>
<event>
 8    1  0.1041149E+005  0.1043930E+01  0.7957747E-01            NaN
         13   -1    0    0    0    0  0.00000000000E+00  0.00000000000E+00  0.74505805969E-08  0.10566000000E+00  0.10566000000E+00 0. -1.
     999900   -1    0    0    0    0 -0.00000000000E+00 -0.00000000000E+00 -0.74505805969E-08  0.93827000000E+00  0.93827000000E+00 0.  1.
     999902    2    1    2    0    0 -0.96313150563E-02  0.57726185630E-02  0.21005808715E-01  0.10201113234E+01  0.10198332132E+01 0.  0.
     999903    2    3    3    0    0  0.41818590401E-01  0.39451291311E-01 -0.11241059347E+00  0.12793349240E+00  0.20630997643E-01 0.  0.
         14    1    1    2    0    0  0.96313150563E-02 -0.57726185630E-02 -0.21005808715E-01  0.23818676592E-01  0.00000000000E+00 0.  1.
     999901    1    3    3    0    0 -0.51449905457E-01 -0.33678672748E-01  0.13341640219E+00  0.89217783101E+00  0.88000000000E+00 0. -1.
        -11    1    4    4    0    0  0.32749991775E-01  0.37180104831E-01 -0.79151540840E-01  0.93381741764E-01  0.51100000000E-03 0. -1.
         11    1    4    4    0    0  0.90685986265E-02  0.22711864807E-02 -0.33259052632E-01  0.34551750637E-01  0.51100000000E-03 0.  1.
</event>
<event>
 8    1  0.1041149E+005  0.1043930E+01  0.7957747E-01            NaN
         13   -1    0    0    0    0  0.00000000000E+00  0.00000000000E+00  0.74505805969E-08  0.10566000000E+00  0.10566000000E+00 0.  1.
     999900   -1    0    0    0    0 -0.00000000000E+00 -0.00000000000E+00 -0.74505805969E-08  0.93827000000E+00  0.93827000000E+00 0.  1.
     999902    2    1    2    0    0  0.17753848467E-01  0.65528795961E-02 -0.17243957056E-01  0.10183273942E+01  0.10180054953E+01 0.  0.
     999903    2    3    3    0    0  0.58410522468E-01  0.58149313083E-02  0.11187806962E+00  0.12797577411E+00  0.20383663483E-01 0.  0.
         14    1    1    2    0    0 -0.17753848467E-01 -0.65528795961E-02  0.17243957056E-01  0.25602605753E-01  0.00000000000E+00 0.  1.
     999901    1    3    3    0    0 -0.40656674001E-01  0.73794828787E-03 -0.12912202667E+00  0.89035162014E+00  0.88000000000E+00 0.  1.
        -11    1    4    4    0    0  0.12517137310E-01 -0.16989966725E-02  0.43355640266E-01  0.45161244226E-01  0.51100000000E-03 0.  1.
         11    1    4    4    0    0  0.45893385158E-01  0.75139279808E-02  0.68522429349E-01  0.82814529884E-01  0.51100000000E-03 0. -1.
</event>
<event>
 8    1  0.1041149E+005  0.1043930E+01  0.7957747E-01            NaN
         13   -1    0    0    0    0  0.00000000000E+00  0.00000000000E+00  0.74505805969E-08  0.10566000000E+00  0.10566000000E+00 0. -1.
     999900   -1    0    0    0    0 -0.00000000000E+00 -0.00000000000E+00 -0.74505805969E-08  0.93827000000E+00  0.93827000000E+00 0. -1.
     999902    2    1    2    0    0  0.22995864057E-01 -0.19970421972E-02 -0.18066003409E-03  0.10208468767E+01  0.10205858686E+01 0.  0.
     999903    2    3    3    0    0 -0.84999587279E-01 -0.54927759918E-01  0.77805883685E-01  0.12924910903E+00  0.20238280611E-01 0.  0.
         14    1    1    2    0    0 -0.22995864057E-01  0.19970421972E-02  0.18066003409E-03  0.23083123257E-01  0.00000000000E+00 0. -1.
     999901    1    3    3    0    0  0.10799545134E+00  0.52930717721E-01 -0.77986543719E-01  0.89159776771E+00  0.88000000000E+00 0. -1.
        -11    1    4    4    0    0 -0.16418564043E-01 -0.13080768954E-01  0.26947933272E-01  0.34163254972E-01  0.51100000000E-03 0.  1.
         11    1    4    4    0    0 -0.68581023237E-01 -0.41846990964E-01  0.50857950413E-01  0.95085854059E-01  0.51100000000E-03 0. -1.
</event>
<event>
 8    1  0.1041149E+005  0.1043930E+01  0.7957747E-01            NaN
         13   -1    0    0    0    0  0.00000000000E+00  0.00000000000E+00  0.74505805969E-08  0.10566000000E+00  0.10566000000E+00 0. -1.
     999900   -1    0    0    0    0 -0.00000000000E+00 -0.00000000000E+00 -0.74505805969E-08  0.93827000000E+00  0.93827000000E+00 0. -1.
     999902    2    1    2    0    0 -0.36120179653E-02  0.23106683466E-01  0.15703123635E-02  0.10204900475E+01  0.10202208122E+01 0.  0.
     999903    2    3    3    0    0  0.31123795779E-01  0.70212082133E-01 -0.10543143084E+00  0.13207861777E+00  0.20749639059E-01 0.  0.
         14    1    1    2    0    0  0.36120179653E-02 -0.23106683466E-01 -0.15703123635E-02  0.23439952549E-01  0.00000000000E+00 0. -1.
     999901    1    3    3    0    0 -0.34735813744E-01 -0.47105398667E-01  0.10700174321E+00  0.88841142968E+00  0.88000000000E+00 0.  1.
        -11    1    4    4    0    0  0.43819238440E-02  0.19277452642E-01 -0.42128963424E-01  0.46539575816E-01  0.51100000000E-03 0. -1.
         11    1    4    4    0    0  0.26741871935E-01  0.50934629491E-01 -0.63302467418E-01  0.85539041953E-01  0.51100000000E-03 0.  1.
</event>
<event>
 8    1  0.1041149E+005  0.1043930E+01  0.7957747E-01            NaN
         13   -1    0    0    0    0  0.00000000000E+00  0.00000000000E+00  0.74505805969E-08  0.10566000000E+00  0.10566000000E+00 0.  1.
     999900   -1    0    0    0    0 -0.00000000000E+00 -0.00000000000E+00 -0.74505805969E-08  0.93827000000E+00  0.93827000000E+00 0.  1.
     999902    2    1    2    0    0 -0.80818458355E-02  0.90689203694E-02 -0.20614135943E-01  0.10200029411E+01  0.10197222640E+01 0.  0.
     999903    2    3    3    0    0  0.28382070877E-01  0.11720093025E+00  0.44783026204E-01  0.13022828554E+00  0.20304849672E-01 0.  0.
         14    1    1    2    0    0  0.80818458355E-02 -0.90689203694E-02  0.20614135943E-01  0.23927058939E-01  0.00000000000E+00 0.  1.
     999901    1    3    3    0    0 -0.36463916713E-01 -0.10813200988E+00 -0.65397162147E-01  0.88977465552E+00  0.88000000000E+00 0.  1.
        -11    1    4    4    0    0  0.19092854660E-02  0.95995159730E-02  0.10200782800E-01  0.14146136174E-01  0.51100000000E-03 0.  1.
         11    1    4    4    0    0  0.26472785411E-01  0.10760141428E+00  0.34582243404E-01  0.11608214937E+00  0.51100000000E-03 0. -1.
</event>
<event>
 8    1  0.1041149E+005  0.1043930E+01  0.7957747E-01            NaN
         13   -1    0    0    0    0  0.00000000000E+00  0.00000000000E+00  0.74505805969E-08  0.10566000000E+00  0.10566000000E+00 0. -1.
     999900   -1    0    0    0    0 -0.00000000000E+00 -0.00000000000E+00 -0.74505805969E-08  0.93827000000E+00  0.93827000000E+00 0. -1.
     999902    2    1    2    0    0 -0.23555595769E-01 -0.13106182249E-02  0.56552099203E-02  0.10196696370E+01  0.10193809903E+01 0.  0.
     999903    2    3    3    0    0 -0.94197712623E-01  0.72527329416E-01  0.54798683338E-01  0.13239435158E+00  0.19797627638E-01 0.  0.
         14    1    1    2    0    0  0.23555595769E-01  0.13106182249E-02 -0.56552099203E-02  0.24260362970E-01  0.00000000000E+00 0. -1.
     999901    1    3    3    0    0  0.70642116854E-01 -0.73837947641E-01 -0.49143473417E-01  0.88727528545E+00  0.88000000000E+00 0. -1.
        -11    1    4    4    0    0 -0.36595461735E-01  0.33525602868E-01  0.13273867168E-01  0.51377529503E-01  0.51100000000E-03 0. -1.
         11    1    4    4    0    0 -0.57602250888E-01  0.39001726548E-01  0.41524816170E-01  0.81016822081E-01  0.51100000000E-03 0.  1.
</event>
<event>
 8    1  0.1041149E+005  0.1043930E+01  0.7957747E-01            NaN
         13   -1    0    0    0    0  0.00000000000E+00  0.00000000000E+00  0.74505805969E-08  0.10566000000E+00  0.10566000000E+00 0. -1.
     999900   -1    0    0    0    0 -0.00000000000E+00 -0.00000000000E+00 -0.74505805969E-08  0.93827000000E+00  0.93827000000E+00 0. -1.
     999902    2    1    2    0    0  0.46281352198E-02  0.19125707182E-01  0.13028645391E-01  0.10203300442E+01  0.10200570775E+01 0.  0.
     999903    2    3    3    0    0 -0.75127887816E-01 -0.90823386883E-01 -0.45657877525E-01  0.12797701183E+00  0.20009663757E-01 0.  0.
         14    1    1    2    0    0 -0.46281352198E-02 -0.19125707182E-01 -0.13028645391E-01  0.23599955753E-01  0.00000000000E+00 0. -1.
     999901    1    3    3    0    0  0.79756023036E-01  0.10994909406E+00  0.58686522916E-01  0.89235303242E+00  0.88000000000E+00 0.  1.
        -11    1    4    4    0    0 -0.36760180995E-01 -0.29142872459E-01 -0.17888707658E-01  0.50208414680E-01  0.51100000000E-03 0. -1.
         11    1    4    4    0    0 -0.38367706821E-01 -0.61680514423E-01 -0.27769169867E-01  0.77768597147E-01  0.51100000000E-03 0.  1.
</event>
<event>
 8    1  0.1041149E+005  0.1043930E+01  0.7957747E-01            NaN
         13   -1    0    0    0    0  0.00000000000E+00  0.00000000000E+00  0.74505805969E-08  0.10566000000E+00  0.10566000000E+00 0. -1.
     999900   -1    0    0    0    0 -0.00000000000E+00 -0.00000000000E+00 -0.74505805969E-08  0.93827000000E+00  0.93827000000E+00 0.  1.
     999902    2    1    2    0    0  0.27467884346E-02  0.21763515004E-01 -0.82379953390E-02  0.10204979707E+01  0.10202289195E+01 0.  0.
     999903    2    3    3    0    0  0.12838429936E+00  0.79230899514E-03  0.70323692837E-02  0.13119613232E+00  0.26073259108E-01 0.  0.
         14    1    1    2    0    0 -0.27467884346E-02 -0.21763515004E-01  0.82379953390E-02  0.23432029345E-01  0.00000000000E+00 0. -1.
     999901    1    3    3    0    0 -0.12563751093E+00  0.20971206009E-01 -0.15270364623E-01  0.88930183834E+00  0.88000000000E+00 0. -1.
        -11    1    4    4    0    0  0.57865618475E-01  0.98909237499E-02  0.11988110369E-01  0.59918578799E-01  0.51100000000E-03 0.  1.
         11    1    4    4    0    0  0.70518680889E-01 -0.90986147547E-02 -0.49557410852E-02  0.71277553518E-01  0.51100000000E-03 0. -1.
</event>
<event>
 8    1  0.1041149E+005  0.1043930E+01  0.7957747E-01            NaN
         13   -1    0    0    0    0  0.00000000000E+00  0.00000000000E+00  0.74505805969E-08  0.10566000000E+00  0.10566000000E+00 0.  1.
     999900   -1    0    0    0    0 -0.00000000000E+00 -0.00000000000E+00 -0.74505805969E-08  0.93827000000E+00  0.93827000000E+00 0. -1.
     999902    2    1    2    0    0  0.55616898041E-02 -0.21308988849E-01  0.76907829943E-02  0.10206029011E+01  0.10203362819E+01 0.  0.
     999903    2    3    3    0    0 -0.12864287985E+00 -0.33544499372E-02  0.18378515186E-02  0.13022798638E+00  0.19892407332E-01 0.  0.
         14    1    1    2    0    0 -0.55616898041E-02  0.21308988849E-01 -0.76907829943E-02  0.23327098884E-01  0.00000000000E+00 0. -1.
     999901    1    3    3    0    0  0.13420456965E+00 -0.17954538912E-01  0.58529314757E-02  0.89037491473E+00  0.88000000000E+00 0. -1.
        -11    1    4    4    0    0 -0.36276784735E-01 -0.97461168287E-02 -0.12602040904E-02  0.37587779122E-01  0.51100000000E-03 0.  1.
         11    1    4    4    0    0 -0.92366095110E-01  0.63916668914E-02  0.30980556090E-02  0.92640207259E-01  0.51100000000E-03 0. -1.
</event>
<event>
 8    1  0.1041149E+005  0.1043930E+01  0.7957747E-01            NaN
         13   -1    0    0    0    0  0.00000000000E+00  0.00000000000E+00  0.74505805969E-08  0.10566000000E+00  0.10566000000E+00 0.  1.
     999900   -1    0    0    0    0 -0.00000000000E+00 -0.00000000000E+00 -0.74505805969E-08  0.93827000000E+00  0.93827000000E+00 0.  1.
     999902    2    1    2    0    0  0.13976909777E-01  0.17946879364E-01 -0.45328004878E-02  0.10207353720E+01  0.10204718070E+01 0.  0.
     999903    2    3    3    0    0 -0.16739362620E-01 -0.85542130469E-01  0.92805948254E-01  0.12881144224E+00  0.19539224009E-01 0.  0.
         14    1    1    2    0    0 -0.13976909777E-01 -0.17946879364E-01  0.45328004878E-02  0.23194627957E-01  0.00000000000E+00 0.  1.
     999901    1    3    3    0    0  0.30716272396E-01  0.10348900983E+00 -0.97338748742E-01  0.89192392980E+00  0.88000000000E+00 0.  1.
        -11    1    4    4    0    0  0.12433823999E-02 -0.15252560224E-01  0.26058180532E-01  0.30223773537E-01  0.51100000000E-03 0.  1.
         11    1    4    4    0    0 -0.17982745020E-01 -0.70289570246E-01  0.66747767722E-01  0.98587668705E-01  0.51100000000E-03 0. -1.
</event>
<event>
 8    1  0.1041149E+005  0.1043930E+01  0.7957747E-01            NaN
         13   -1    0    0    0    0  0.00000000000E+00  0.00000000000E+00  0.74505805969E-08  0.10566000000E+00  0.10566000000E+00 0. -1.
     999900   -1    0    0    0    0 -0.00000000000E+00 -0.00000000000E+00 -0.74505805969E-08  0.93827000000E+00  0.93827000000E+00 0.  1.
     999902    2    1    2    0    0 -0.19618073863E-01  0.21016819419E-02  0.13135696592E-01  0.10202269957E+01  0.10199516117E+01 0.  0.
     999903    2    3    3    0    0  0.27967781661E-01  0.11984832184E+00  0.39346712198E-01  0.13072393093E+00  0.19868701482E-01 0.  0.
         14    1    1    2    0    0  0.19618073863E-01 -0.21016819419E-02 -0.13135696592E-01  0.23703004325E-01  0.00000000000E+00 0. -1.
     999901    1    3    3    0    0 -0.47585855524E-01 -0.11774663989E+00 -0.26211015606E-01  0.88950306475E+00  0.88000000000E+00 0.  1.
        -11    1    4    4    0    0  0.25567614006E-01  0.68329189438E-01  0.25944426669E-01  0.77433554816E-01  0.51100000000E-03 0.  1.
         11    1    4    4    0    0  0.24001676553E-02  0.51519132399E-01  0.13402285529E-01  0.53290376113E-01  0.51100000000E-03 0. -1.
</event>
<event>
 8    1  0.1041149E+005  0.1043930E+01  0.7957747E-01            NaN
         13   -1    0    0    0    0  0.00000000000E+00  0.00000000000E+00  0.74505805969E-08  0.10566000000E+00  0.10566000000E+00 0.  1.
     999900   -1    0    0    0    0 -0.00000000000E+00 -0.00000000000E+00 -0.74505805969E-08  0.93827000000E+00  0.93827000000E+00 0.  1.
     999902    2    1    2    0    0  0.12705365430E-01  0.18340584254E-01  0.72377460660E-02  0.10204739068E+01  0.10202042963E+01 0.  0.
     999903    2    3    3    0    0  0.10716542923E+00  0.48370159551E-01  0.59538331949E-01  0.13336634264E+00  0.20436898563E-01 0.  0.
         14    1    1    2    0    0 -0.12705365430E-01 -0.18340584254E-01 -0.72377460660E-02  0.23456093230E-01  0.00000000000E+00 0. -1.
     999901    1    3    3    0    0 -0.94460063796E-01 -0.30029575296E-01 -0.52300585883E-01  0.88710756413E+00  0.88000000000E+00 0.  1.
        -11    1    4    4    0    0  0.63950650014E-01  0.23478452833E-01  0.44115322425E-01  0.81162467793E-01  0.51100000000E-03 0. -1.
         11    1    4    4    0    0  0.43214779212E-01  0.24891706718E-01  0.15423009524E-01  0.52203874851E-01  0.51100000000E-03 0.  1.
</event>
<event>
 8    1  0.1041149E+005  0.1043930E+01  0.7957747E-01            NaN
         13   -1    0    0    0    0  0.00000000000E+00  0.00000000000E+00  0.74505805969E-08  0.10566000000E+00  0.10566000000E+00 0. -1.
     999900   -1    0    0    0    0 -0.00000000000E+00 -0.00000000000E+00 -0.74505805969E-08  0.93827000000E+00  0.93827000000E+00 0. -1.
     999902    2    1    2    0    0 -0.13543097520E-02 -0.20014287872E-01 -0.22472060859E-01  0.10138069292E+01  0.10133593096E+01 0.  0.
     999903    2    3    3    0    0  0.12000296907E+00 -0.21447367759E-01 -0.23177757722E-01  0.12547695627E+00  0.18616012745E-01 0.  0.
         14    1    1    2    0    0  0.13543097520E-02  0.20014287872E-01  0.22472060859E-01  0.30123070780E-01  0.00000000000E+00 0.  1.
     999901    1    3    3    0    0 -0.12135727883E+00  0.14330798868E-02  0.70569686312E-03  0.88832997295E+00  0.88000000000E+00 0.  1.
        -11    1    4    4    0    0  0.74810779859E-01 -0.22410824420E-01 -0.13728525924E-01  0.79294586065E-01  0.51100000000E-03 0. -1.
         11    1    4    4    0    0  0.45192189215E-01  0.96345666103E-03 -0.94492317987E-02  0.46182370200E-01  0.51100000000E-03 0.  1.
</event>
<event>
 8    1  0.1041149E+005  0.1043930E+01  0.7957747E-01            NaN
         13   -1    0    0    0    0  0.00000000000E+00  0.00000000000E+00  0.74505805969E-08  0.10566000000E+00  0.10566000000E+00 0. -1.
     999900   -1    0    0    0    0 -0.00000000000E+00 -0.00000000000E+00 -0.74505805969E-08  0.93827000000E+00  0.93827000000E+00 0.  1.
     999902    2    1    2    0    0  0.13718745996E-01  0.41069677110E-02  0.21778013247E-01  0.10178655983E+01  0.10175318291E+01 0.  0.
     999903    2    3    3    0    0 -0.54192251646E-02 -0.80140597632E-01 -0.95024516103E-01  0.12595375003E+00  0.19565405580E-01 0.  0.
         14    1    1    2    0    0 -0.13718745996E-01 -0.41069677110E-02 -0.21778013247E-01  0.26064401709E-01  0.00000000000E+00 0.  1.
     999901    1    3    3    0    0  0.19137971161E-01  0.84247565343E-01  0.11680252935E+00  0.89191184826E+00  0.88000000000E+00 0. -1.
        -11    1    4    4    0    0 -0.66312042978E-02 -0.26418238070E-01 -0.20591986099E-01  0.34149482948E-01  0.51100000000E-03 0.  1.
         11    1    4    4    0    0  0.12119791333E-02 -0.53722359563E-01 -0.74432530004E-01  0.91804267081E-01  0.51100000000E-03 0. -1.
</event>
<event>
 8    1  0.1041149E+005  0.1043930E+01  0.7957747E-01            NaN
         13   -1    0    0    0    0  0.00000000000E+00  0.00000000000E+00  0.74505805969E-08  0.10566000000E+00  0.10566000000E+00 0.  1.
     999900   -1    0    0    0    0 -0.00000000000E+00 -0.00000000000E+00 -0.74505805969E-08  0.93827000000E+00  0.93827000000E+00 0. -1.
     999902    2    1    2    0    0  0.18343869308E-01  0.25838012548E-01 -0.14480109196E-01  0.10090907406E+01  0.10084891416E+01 0.  0.
     999903    2    3    3    0    0 -0.10681661163E+00 -0.72061745523E-02 -0.47916578606E-01  0.11899239672E+00  0.20036828563E-01 0.  0.
         14    1    1    2    0    0 -0.18343869308E-01 -0.25838012548E-01  0.14480109196E-01  0.34839259406E-01  0.00000000000E+00 0.  1.
     999901    1    3    3    0    0  0.12516048094E+00  0.33044187100E-01  0.33436469411E-01  0.89009834388E+00  0.88000000000E+00 0. -1.
        -11    1    4    4    0    0 -0.92451738623E-02  0.46355172917E-02 -0.71566860708E-02  0.12587316506E-01  0.51100000000E-03 0.  1.
         11    1    4    4    0    0 -0.97571437768E-01 -0.11841691844E-01 -0.40759892535E-01  0.10640508021E+00  0.51100000000E-03 0. -1.
</event>
<event>
 8    1  0.1041149E+005  0.1043930E+01  0.7957747E-01            NaN
         13   -1    0    0    0    0  0.00000000000E+00  0.00000000000E+00  0.74505805969E-08  0.10566000000E+00  0.10566000000E+00 0. -1.
     999900   -1    0    0    0    0 -0.00000000000E+00 -0.00000000000E+00 -0.74505805969E-08  0.93827000000E+00  0.93827000000E+00 0. -1.
     999902    2    1    2    0    0  0.12762215715E-01  0.12246223549E-01  0.15268133697E-01  0.10205642120E+01  0.10202966974E+01 0.  0.
     999903    2    3    3    0    0  0.60884449893E-01  0.11227365197E+00  0.33228077233E-01  0.13340932395E+00  0.19535952392E-01 0.  0.
         14    1    1    2    0    0 -0.12762215715E-01 -0.12246223549E-01 -0.15268133697E-01  0.23365787976E-01  0.00000000000E+00 0.  1.
     999901    1    3    3    0    0 -0.48122234178E-01 -0.10002742842E+00 -0.17959943536E-01  0.88715488807E+00  0.88000000000E+00 0.  1.
        -11    1    4    4    0    0  0.14599684599E-01  0.21428706602E-01  0.14607306051E-01  0.29765328288E-01  0.51100000000E-03 0.  1.
         11    1    4    4    0    0  0.46284765293E-01  0.90844945366E-01  0.18620771182E-01  0.10364399566E+00  0.51100000000E-03 0. -1.
</event>
<event>
 8    1  0.1041149E+005  0.1043930E+01  0.7957747E-01            NaN
         13   -1    0    0    0    0  0.00000000000E+00  0.00000000000E+00  0.74505805969E-08  0.10566000000E+00  0.10566000000E+00 0.  1.
     999900   -1    0    0    0    0 -0.00000000000E+00 -0.00000000000E+00 -0.74505805969E-08  0.93827000000E+00  0.93827000000E+00 0. -1.
     999902    2    1    2    0    0 -0.25092757159E-01  0.10158791083E-01  0.89140142151E-03  0.10168441717E+01  0.10164833631E+01 0.  0.
     999903    2    3    3    0    0  0.34784089300E-01 -0.11674119882E+00  0.22858363863E-01  0.12545683074E+00  0.19454336555E-01 0.  0.
         14    1    1    2    0    0  0.25092757159E-01 -0.10158791083E-01 -0.89140142151E-03  0.27085828299E-01  0.00000000000E+00 0.  1.
     999901    1    3    3    0    0 -0.59876846459E-01  0.12689998991E+00 -0.21966962442E-01  0.89138734096E+00  0.88000000000E+00 0.  1.
        -11    1    4    4    0    0  0.27851808187E-01 -0.69023598251E-01  0.73100630816E-02  0.74790898364E-01  0.51100000000E-03 0.  1.
         11    1    4    4    0    0  0.69322811128E-02 -0.47717600572E-01  0.15548300782E-01  0.50665932381E-01  0.51100000000E-03 0. -1.
</event>
<event>
 8    1  0.1041149E+005  0.1043930E+01  0.7957747E-01            NaN
         13   -1    0    0    0    0  0.00000000000E+00  0.00000000000E+00  0.74505805969E-08  0.10566000000E+00  0.10566000000E+00 0.  1.
     999900   -1    0    0    0    0 -0.00000000000E+00 -0.00000000000E+00 -0.74505805969E-08  0.93827000000E+00  0.93827000000E+00 0. -1.
     999902    2    1    2    0    0  0.51085085559E-03  0.18417065964E-01  0.15536789563E-01  0.10198293544E+01  0.10195445410E+01 0.  0.
     999903    2    3    3    0    0 -0.76106237595E-01  0.95007860341E-01  0.48689207640E-01  0.13256647858E+00  0.19610695418E-01 0.  0.
         14    1    1    2    0    0 -0.51085085559E-03 -0.18417065964E-01 -0.15536789563E-01  0.24100645577E-01  0.00000000000E+00 0. -1.
     999901    1    3    3    0    0  0.76617088450E-01 -0.76590794377E-01 -0.33152418077E-01  0.88726287584E+00  0.88000000000E+00 0. -1.
        -11    1    4    4    0    0 -0.31688963001E-01  0.27530161971E-01  0.10862681431E-01  0.43363108319E-01  0.51100000000E-03 0. -1.
         11    1    4    4    0    0 -0.44417274594E-01  0.67477698370E-01  0.37826526210E-01  0.89203370260E-01  0.51100000000E-03 0.  1.
</event>
<event>
 8    1  0.1041149E+005  0.1043930E+01  0.7957747E-01            NaN
         13   -1    0    0    0    0  0.00000000000E+00  0.00000000000E+00  0.74505805969E-08  0.10566000000E+00  0.10566000000E+00 0. -1.
     999900   -1    0    0    0    0 -0.00000000000E+00 -0.00000000000E+00 -0.74505805969E-08  0.93827000000E+00  0.93827000000E+00 0.  1.
     999902    2    1    2    0    0  0.23003311253E-01 -0.37955722944E-02 -0.20925065039E-01  0.10126024236E+01  0.10121177062E+01 0.  0.
     999903    2    3    3    0    0 -0.78812547758E-02 -0.12106283622E+00 -0.17624174725E-01  0.12428020530E+00  0.20411599754E-01 0.  0.
         14    1    1    2    0    0 -0.23003311253E-01  0.37955722944E-02  0.20925065039E-01  0.31327576423E-01  0.00000000000E+00 0. -1.
     999901    1    3    3    0    0  0.30884566029E-01  0.11726726392E+00 -0.33008903140E-02  0.88832221828E+00  0.88000000000E+00 0. -1.
        -11    1    4    4    0    0  0.24861652238E-02 -0.93835435331E-01 -0.14288366855E-01  0.94950979403E-01  0.51100000000E-03 0.  1.
         11    1    4    4    0    0 -0.10367420000E-01 -0.27227400888E-01 -0.33358078704E-02  0.29329225897E-01  0.51100000000E-03 0. -1.
</event>
<event>
 8    1  0.1041149E+005  0.1043930E+01  0.7957747E-01            NaN
         13   -1    0    0    0    0  0.00000000000E+00  0.00000000000E+00  0.74505805969E-08  0.10566000000E+00  0.10566000000E+00 0. -1.
     999900   -1    0    0    0    0 -0.00000000000E+00 -0.00000000000E+00 -0.74505805969E-08  0.93827000000E+00  0.93827000000E+00 0. -1.
     999902    2    1    2    0    0 -0.20584869633E-01  0.95150134916E-02 -0.10026431925E-04  0.10212524243E+01  0.10210006081E+01 0.  0.
     999903    2    3    3    0    0 -0.53372009290E-01  0.67499246379E-03 -0.11968854768E+00  0.13250268958E+00  0.19559839229E-01 0.  0.
         14    1    1    2    0    0  0.20584869633E-01 -0.95150134916E-02  0.10026431925E-04  0.22677575710E-01  0.00000000000E+00 0. -1.
     999901    1    3    3    0    0  0.32787139656E-01  0.88400210278E-02  0.11967852124E+00  0.88874973471E+00  0.88000000000E+00 0.  1.
        -11    1    4    4    0    0 -0.25806092669E-01  0.64903282363E-02 -0.75905818258E-01  0.80436516246E-01  0.51100000000E-03 0.  1.
         11    1    4    4    0    0 -0.27565916621E-01 -0.58153357725E-02 -0.43782729419E-01  0.52066173334E-01  0.51100000000E-03 0. -1.
</event>
<event>
 8    1  0.1041149E+005  0.1043930E+01  0.7957747E-01            NaN
         13   -1    0    0    0    0  0.00000000000E+00  0.00000000000E+00  0.74505805969E-08  0.10566000000E+00  0.10566000000E+00 0. -1.
     999900   -1    0    0    0    0 -0.00000000000E+00 -0.00000000000E+00 -0.74505805969E-08  0.93827000000E+00  0.93827000000E+00 0. -1.
     999902    2    1    2    0    0 -0.92938128777E-02 -0.10807377603E-01  0.18514849347E-01  0.10205639131E+01  0.10202963916E+01 0.  0.
     999903    2    3    3    0    0  0.11932481071E+00 -0.37672753956E-01  0.32527551658E-01  0.13069827463E+00  0.19140285609E-01 0.  0.
         14    1    1    2    0    0  0.92938128777E-02  0.10807377603E-01 -0.18514849347E-01  0.23366086853E-01  0.00000000000E+00 0.  1.
     999901    1    3    3    0    0 -0.12861862359E+00  0.26865376353E-01 -0.14012702310E-01  0.88986563851E+00  0.88000000000E+00 0.  1.
        -11    1    4    4    0    0  0.40278823632E-01 -0.11812818975E-01  0.20317210841E-01  0.46636643347E-01  0.51100000000E-03 0.  1.
         11    1    4    4    0    0  0.79045987080E-01 -0.25859934981E-01  0.12210340817E-01  0.84061631287E-01  0.51100000000E-03 0. -1.
</event>
<event>
 8    1  0.1041149E+005  0.1043930E+01  0.7957747E-01            NaN
         13   -1    0    0    0    0  0.00000000000E+00  0.00000000000E+00  0.74505805969E-08  0.10566000000E+00  0.10566000000E+00 0. -1.
     999900   -1    0    0    0    0 -0.00000000000E+00 -0.00000000000E+00 -0.74505805969E-08  0.93827000000E+00  0.93827000000E+00 0. -1.
     999902    2    1    2    0    0 -0.20848010548E-01 -0.11083141126E-01 -0.96637470320E-03  0.10202993115E+01  0.10200256249E+01 0.  0.
     999903    2    3    3    0    0  0.10704895811E+00 -0.49223317044E-01  0.48328645140E-01  0.12887219352E+00  0.19747656785E-01 0.  0.
         14    1    1    2    0    0  0.20848010548E-01  0.11083141126E-01  0.96637470320E-03  0.23630688544E-01  0.00000000000E+00 0.  1.
     999901    1    3    3    0    0 -0.12789696866E+00  0.38140175918E-01 -0.49295019843E-01  0.89142711794E+00  0.88000000000E+00 0.  1.
        -11    1    4    4    0    0  0.29704941415E-01 -0.14048980781E-01  0.23330597476E-01  0.40303043372E-01  0.51100000000E-03 0.  1.
         11    1    4    4    0    0  0.77344016694E-01 -0.35174336263E-01  0.24998047664E-01  0.88569150148E-01  0.51100000000E-03 0. -1.
</event>
<event>
 8    1  0.1041149E+005  0.1043930E+01  0.7957747E-01            NaN
         13   -1    0    0    0    0  0.00000000000E+00  0.00000000000E+00  0.74505805969E-08  0.10566000000E+00  0.10566000000E+00 0. -1.
     999900   -1    0    0    0    0 -0.00000000000E+00 -0.00000000000E+00 -0.74505805969E-08  0.93827000000E+00  0.93827000000E+00 0. -1.
     999902    2    1    2    0    0 -0.16383525708E-01 -0.16513355278E-01  0.39518239113E-02  0.10203349215E+01  0.10200620688E+01 0.  0.
     999903    2    3    3    0    0 -0.63743408910E-01 -0.81615963266E-01 -0.80446438832E-01  0.13263881649E+00  0.19925824423E-01 0.  0.
         14    1    1    2    0    0  0.16383525708E-01  0.16513355278E-01 -0.39518239113E-02  0.23595078499E-01  0.00000000000E+00 0.  1.
     999901    1    3    3    0    0  0.47359883202E-01  0.65102607988E-01  0.84398262743E-01  0.88769610501E+00  0.88000000000E+00 0.  1.
        -11    1    4    4    0    0 -0.13970501552E-01 -0.88559701956E-02 -0.18911767979E-01  0.25130045978E-01  0.51100000000E-03 0. -1.
         11    1    4    4    0    0 -0.49772907358E-01 -0.72759993070E-01 -0.61534670853E-01  0.10750877051E+00  0.51100000000E-03 0.  1.
</event>
<event>
 8    1  0.1041149E+005  0.1043930E+01  0.7957747E-01            NaN
         13   -1    0    0    0    0  0.00000000000E+00  0.00000000000E+00  0.74505805969E-08  0.10566000000E+00  0.10566000000E+00 0. -1.
     999900   -1    0    0    0    0 -0.00000000000E+00 -0.00000000000E+00 -0.74505805969E-08  0.93827000000E+00  0.93827000000E+00 0. -1.
     999902    2    1    2    0    0 -0.61771488234E-03 -0.86910166689E-02  0.22285013476E-01  0.10200022511E+01  0.10197215576E+01 0.  0.
     999903    2    3    3    0    0  0.95822424449E-01 -0.86902541857E-01  0.89233347957E-02  0.13118490337E+00  0.19896335334E-01 0.  0.
         14    1    1    2    0    0  0.61771488234E-03  0.86910166689E-02 -0.22285013476E-01  0.23927748913E-01  0.00000000000E+00 0.  1.
     999901    1    3    3    0    0 -0.96440139331E-01  0.78211525189E-01  0.13361678680E-01  0.88881734772E+00  0.88000000000E+00 0. -1.
        -11    1    4    4    0    0  0.52052714609E-01 -0.47833543473E-01 -0.50381910652E-02  0.70874378089E-01  0.51100000000E-03 0.  1.
         11    1    4    4    0    0  0.43769709840E-01 -0.39068998384E-01  0.13961525861E-01  0.60310525280E-01  0.51100000000E-03 0. -1.
</event>
<event>
 8    1  0.1041149E+005  0.1043930E+01  0.7957747E-01            NaN
         13   -1    0    0    0    0  0.00000000000E+00  0.00000000000E+00  0.74505805969E-08  0.10566000000E+00  0.10566000000E+00 0. -1.
     999900   -1    0    0    0    0 -0.00000000000E+00 -0.00000000000E+00 -0.74505805969E-08  0.93827000000E+00  0.93827000000E+00 0. -1.
     999902    2    1    2    0    0 -0.21274458983E-01 -0.58451656966E-02 -0.79864028737E-02  0.10204661726E+01  0.10201963821E+01 0.  0.
     999903    2    3    3    0    0 -0.82915958718E-01 -0.78946185770E-02  0.99843853609E-01  0.13174167141E+00  0.21205934753E-01 0.  0.
         14    1    1    2    0    0  0.21274458983E-01  0.58451656966E-02  0.79864028737E-02  0.23463827435E-01  0.00000000000E+00 0.  1.
     999901    1    3    3    0    0  0.61641499735E-01  0.20494528804E-02 -0.10783025648E+00  0.88872450116E+00  0.88000000000E+00 0. -1.
        -11    1    4    4    0    0 -0.65970023245E-01  0.23599016422E-02  0.79656334051E-01  0.10345533228E+00  0.51100000000E-03 0. -1.
         11    1    4    4    0    0 -0.16945935473E-01 -0.10254520219E-01  0.20187519558E-01  0.28286339122E-01  0.51100000000E-03 0.  1.
</event>
<event>
 8    1  0.1041149E+005  0.1043930E+01  0.7957747E-01            NaN
         13   -1    0    0    0    0  0.00000000000E+00  0.00000000000E+00  0.74505805969E-08  0.10566000000E+00  0.10566000000E+00 0. -1.
     999900   -1    0    0    0    0 -0.00000000000E+00 -0.00000000000E+00 -0.74505805969E-08  0.93827000000E+00  0.93827000000E+00 0.  1.
     999902    2    1    2    0    0 -0.21264902550E-01  0.10851581774E-01 -0.74017882227E-02  0.10189352130E+01  0.10186286021E+01 0.  0.
     999903    2    3    3    0    0 -0.63154828190E-01 -0.55143078888E-01  0.96389179257E-01  0.12939453040E+00  0.20561593951E-01 0.  0.
         14    1    1    2    0    0  0.21264902550E-01 -0.10851581774E-01  0.74017882227E-02  0.24994786983E-01  0.00000000000E+00 0.  1.
     999901    1    3    3    0    0  0.41889925640E-01  0.65994660662E-01 -0.10379096748E+00  0.88954068262E+00  0.88000000000E+00 0.  1.
        -11    1    4    4    0    0 -0.69494831068E-02  0.21340914109E-03  0.11963328138E-01  0.13846414700E-01  0.51100000000E-03 0.  1.
         11    1    4    4    0    0 -0.56205345083E-01 -0.55356488029E-01  0.84425851119E-01  0.11554811570E+00  0.51100000000E-03 0. -1.
</event>
<event>
 8    1  0.1041149E+005  0.1043930E+01  0.7957747E-01            NaN
         13   -1    0    0    0    0  0.00000000000E+00  0.00000000000E+00  0.74505805969E-08  0.10566000000E+00  0.10566000000E+00 0. -1.
     999900   -1    0    0    0    0 -0.00000000000E+00 -0.00000000000E+00 -0.74505805969E-08  0.93827000000E+00  0.93827000000E+00 0. -1.
     999902    2    1    2    0    0  0.10292384000E-02  0.21846337150E-01  0.79170683958E-02  0.10206705557E+01  0.10204054985E+01 0.  0.
     999903    2    3    3    0    0 -0.12700955133E-01  0.24417372989E-01  0.12794323945E+00  0.13241304223E+00  0.20154872056E-01 0.  0.
         14    1    1    2    0    0 -0.10292384000E-02 -0.21846337150E-01 -0.79170683958E-02  0.23259444330E-01  0.00000000000E+00 0.  1.
     999901    1    3    3    0    0  0.13730193533E-01 -0.25710358384E-02 -0.12002617105E+00  0.88825751344E+00  0.88000000000E+00 0. -1.
        -11    1    4    4    0    0  0.51298676491E-02  0.56692652906E-02  0.40598751938E-01  0.41315564754E-01  0.51100000000E-03 0. -1.
         11    1    4    4    0    0 -0.17830822782E-01  0.18748107698E-01  0.87344487511E-01  0.91097477478E-01  0.51100000000E-03 0.  1.
</event>
<event>
 8    1  0.1041149E+005  0.1043930E+01  0.7957747E-01            NaN
         13   -1    0    0    0    0  0.00000000000E+00  0.00000000000E+00  0.74505805969E-08  0.10566000000E+00  0.10566000000E+00 0.  1.
     999900   -1    0    0    0    0 -0.00000000000E+00 -0.00000000000E+00 -0.74505805969E-08  0.93827000000E+00  0.93827000000E+00 0.  1.
     999902    2    1    2    0    0 -0.21072881900E-01 -0.10008002464E-01  0.27549389183E-02  0.10204392326E+01  0.10201688151E+01 0.  0.
     999903    2    3    3    0    0 -0.58766008147E-01 -0.30458241154E-01 -0.11244111220E+00  0.13189597860E+00  0.19297598009E-01 0.  0.
         14    1    1    2    0    0  0.21072881900E-01  0.10008002464E-01 -0.27549389183E-02  0.23490767406E-01  0.00000000000E+00 0.  1.
     999901    1    3    3    0    0  0.37693126247E-01  0.20450238689E-01  0.11519605112E+00  0.88854325400E+00  0.88000000000E+00 0. -1.
        -11    1    4    4    0    0 -0.33612409940E-01 -0.19341712300E-01 -0.82950528718E-01  0.91569357715E-01  0.51100000000E-03 0.  1.
         11    1    4    4    0    0 -0.25153598207E-01 -0.11116528853E-01 -0.29490583485E-01  0.40326620882E-01  0.51100000000E-03 0. -1.
</event>
<event>
 8    1  0.1041149E+005  0.1043930E+01  0.7957747E-01            NaN
         13   -1    0    0    0    0  0.00000000000E+00  0.00000000000E+00  0.74505805969E-08  0.10566000000E+00  0.10566000000E+00 0. -1.
     999900   -1    0    0    0    0 -0.00000000000E+00 -0.00000000000E+00 -0.74505805969E-08  0.93827000000E+00  0.93827000000E+00 0.  1.
     999902    2    1    2    0    0  0.22179895332E-01 -0.77938300457E-02 -0.42409979847E-02  0.10200411405E+01  0.10197613695E+01 0.  0.
     999903    2    3    3    0    0  0.97700999151E-02 -0.81901625719E-01  0.99467955021E-01  0.13077092548E+00  0.20095515126E-01 0.  0.
         14    1    1    2    0    0 -0.22179895332E-01  0.77938300457E-02  0.42409979847E-02  0.23888859488E-01  0.00000000000E+00 0. -1.
     999901    1    3    3    0    0  0.12409795417E-01  0.74107795673E-01 -0.10370895301E+00  0.88927021503E+00  0.88000000000E+00 0. -1.
        -11    1    4    4    0    0 -0.90433255527E-03 -0.54714782985E-01  0.55166344171E-01  0.77705289040E-01  0.51100000000E-03 0. -1.
         11    1    4    4    0    0  0.10674432470E-01 -0.27186842734E-01  0.44301610850E-01  0.53065636445E-01  0.51100000000E-03 0.  1.
</event>
<event>
 8    1  0.1041149E+005  0.1043930E+01  0.7957747E-01            NaN
         13   -1    0    0    0    0  0.00000000000E+00  0.00000000000E+00  0.74505805969E-08  0.10566000000E+00  0.10566000000E+00 0. -1.
     999900   -1    0    0    0    0 -0.00000000000E+00 -0.00000000000E+00 -0.74505805969E-08  0.93827000000E+00  0.93827000000E+00 0.  1.
     999902    2    1    2    0    0 -0.14312958362E-01 -0.30236348795E-02  0.18502050003E-01  0.10203433724E+01  0.10200707175E+01 0.  0.
     999903    2    3    3    0    0 -0.53380279127E-01 -0.11588118183E+00  0.28243429719E-01  0.13222289868E+00  0.20181702384E-01 0.  0.
         14    1    1    2    0    0  0.14312958362E-01  0.30236348795E-02 -0.18502050003E-01  0.23586627552E-01  0.00000000000E+00 0.  1.
     999901    1    3    3    0    0  0.39067320765E-01  0.11285754695E+00 -0.97413797165E-02  0.88812047377E+00  0.88000000000E+00 0.  1.
        -11    1    4    4    0    0 -0.18398467007E-01 -0.63456847302E-01  0.12235323968E-01  0.67195530591E-01  0.51100000000E-03 0.  1.
         11    1    4    4    0    0 -0.34981812120E-01 -0.52424334523E-01  0.16008105751E-01  0.65027368086E-01  0.51100000000E-03 0. -1.
</event>
<event>
 8    1  0.1041149E+005  0.1043930E+01  0.7957747E-01            NaN
         13   -1    0    0    0    0  0.00000000000E+00  0.00000000000E+00  0.74505805969E-08  0.10566000000E+00  0.10566000000E+00 0. -1.
     999900   -1    0    0    0    0 -0.00000000000E+00 -0.00000000000E+00 -0.74505805969E-08  0.93827000000E+00  0.93827000000E+00 0. -1.
     999902    2    1    2    0    0  0.16854494895E-03 -0.18735951867E-01 -0.11322909254E-01  0.10220377052E+01  0.10218032091E+01 0.  0.
     999903    2    3    3    0    0  0.22058738374E-01  0.85634898093E-01 -0.95293756406E-01  0.13163130465E+00  0.20639201602E-01 0.  0.
         14    1    1    2    0    0 -0.16854494895E-03  0.18735951867E-01  0.11322909254E-01  0.21892294849E-01  0.00000000000E+00 0.  1.
     999901    1    3    3    0    0 -0.21890193425E-01 -0.10437084996E+00  0.83970847152E-01  0.89040640051E+00  0.88000000000E+00 0.  1.
        -11    1    4    4    0    0  0.18344138077E-01  0.42790086145E-01 -0.38656970095E-01  0.60515463578E-01  0.51100000000E-03 0.  1.
         11    1    4    4    0    0  0.37146002967E-02  0.42844811948E-01 -0.56636786311E-01  0.71115841068E-01  0.51100000000E-03 0. -1.
</event>
<event>
 8    1  0.1041149E+005  0.1043930E+01  0.7957747E-01            NaN
         13   -1    0    0    0    0  0.00000000000E+00  0.00000000000E+00  0.74505805969E-08  0.10566000000E+00  0.10566000000E+00 0. -1.
     999900   -1    0    0    0    0 -0.00000000000E+00 -0.00000000000E+00 -0.74505805969E-08  0.93827000000E+00  0.93827000000E+00 0.  1.
     999902    2    1    2    0    0 -0.10293982327E-01  0.18107696171E-02  0.22760444754E-01  0.10188843855E+01  0.10185765108E+01 0.  0.
     999903    2    3    3    0    0  0.10824504411E+00 -0.65345773718E-01  0.62101535687E-03  0.12812535165E+00  0.20704114515E-01 0.  0.
         14    1    1    2    0    0  0.10293982327E-01 -0.18107696171E-02 -0.22760444754E-01  0.25045614470E-01  0.00000000000E+00 0.  1.
     999901    1    3    3    0    0 -0.11853902644E+00  0.67156543335E-01  0.22139429397E-01  0.89075903388E+00  0.88000000000E+00 0. -1.
        -11    1    4    4    0    0  0.10055810804E-01 -0.57930326881E-03  0.28395587655E-02  0.10477554017E-01  0.51100000000E-03 0.  1.
         11    1    4    4    0    0  0.98189233310E-01 -0.64766470449E-01 -0.22185434087E-02  0.11764779763E+00  0.51100000000E-03 0. -1.
</event>
<event>
 8    1  0.1041149E+005  0.1043930E+01  0.7957747E-01            NaN
         13   -1    0    0    0    0  0.00000000000E+00  0.00000000000E+00  0.74505805969E-08  0.10566000000E+00  0.10566000000E+00 0. -1.
     999900   -1    0    0    0    0 -0.00000000000E+00 -0.00000000000E+00 -0.74505805969E-08  0.93827000000E+00  0.93827000000E+00 0. -1.
     999902    2    1    2    0    0 -0.43026456293E-02 -0.12881899185E-01  0.19237074977E-01  0.10203817275E+01  0.10201099689E+01 0.  0.
     999903    2    3    3    0    0  0.10231135001E+00  0.69255692214E-01 -0.28756405392E-01  0.12885690888E+00  0.22654113724E-01 0.  0.
         14    1    1    2    0    0  0.43026456293E-02  0.12881899185E-01 -0.19237074977E-01  0.23548272542E-01  0.00000000000E+00 0. -1.
     999901    1    3    3    0    0 -0.10661399564E+00 -0.82137591399E-01  0.47993480369E-01  0.89152481858E+00  0.88000000000E+00 0.  1.
        -11    1    4    4    0    0  0.72225131079E-01  0.36280800098E-01 -0.15609460536E-01  0.82320607350E-01  0.51100000000E-03 0. -1.
         11    1    4    4    0    0  0.30086218935E-01  0.32974892116E-01 -0.13146944856E-01  0.46536301528E-01  0.51100000000E-03 0.  1.
</event>
<event>
 8    1  0.1041149E+005  0.1043930E+01  0.7957747E-01            NaN
         13   -1    0    0    0    0  0.00000000000E+00  0.00000000000E+00  0.74505805969E-08  0.10566000000E+00  0.10566000000E+00 0. -1.
     999900   -1    0    0    0    0 -0.00000000000E+00 -0.00000000000E+00 -0.74505805969E-08  0.93827000000E+00  0.93827000000E+00 0.  1.
     999902    2    1    2    0    0 -0.63937166368E-02 -0.13447828018E-01  0.17246015742E-01  0.10211451640E+01  0.10208909331E+01 0.  0.
     999903    2    3    3    0    0 -0.29825154215E-02  0.67849943879E-01  0.11301223135E+00  0.13221764615E+00  0.98605900648E-02 0.  0.
         14    1    1    2    0    0  0.63937166368E-02  0.13447828018E-01 -0.17246015742E-01  0.22784835962E-01  0.00000000000E+00 0. -1.
     999901    1    3    3    0    0 -0.34112012153E-02 -0.81297771898E-01 -0.95766215604E-01  0.88892751789E+00  0.88000000000E+00 0.  1.
        -11    1    4    4    0    0 -0.64114104654E-02  0.42579433968E-01  0.68323801987E-01  0.80762103861E-01  0.51100000000E-03 0. -1.
         11    1    4    4    0    0  0.34288950440E-02  0.25270509911E-01  0.44688429360E-01  0.51455542287E-01  0.51100000000E-03 0.  1.
</event>
<event>
 8    1  0.1041149E+005  0.1043930E+01  0.7957747E-01            NaN
         13   -1    0    0    0    0  0.00000000000E+00  0.00000000000E+00  0.74505805969E-08  0.10566000000E+00  0.10566000000E+00 0. -1.
     999900   -1    0    0    0    0 -0.00000000000E+00 -0.00000000000E+00 -0.74505805969E-08  0.93827000000E+00  0.93827000000E+00 0. -1.
     999902    2    1    2    0    0 -0.65315323537E-02 -0.51568209159E-02 -0.22521003803E-01  0.10199206408E+01  0.10196380065E+01 0.  0.
     999903    2    3    3    0    0  0.69988704694E-01 -0.10641352379E+00 -0.21792201854E-01  0.13081502407E+00  0.20381698418E-01 0.  0.
         14    1    1    2    0    0  0.65315323537E-02  0.51568209159E-02  0.22521003803E-01  0.24009359199E-01  0.00000000000E+00 0. -1.
     999901    1    3    3    0    0 -0.76520237048E-01  0.10125670287E+00 -0.72880194828E-03  0.88910561673E+00  0.88000000000E+00 0. -1.
        -11    1    4    4    0    0  0.24238542322E-01 -0.21606374709E-01 -0.82511236576E-02  0.33506484813E-01  0.51100000000E-03 0. -1.
         11    1    4    4    0    0  0.45750162372E-01 -0.84807149080E-01 -0.13541078197E-01  0.97308539255E-01  0.51100000000E-03 0.  1.
</event>
<event>
 8    1  0.1041149E+005  0.1043930E+01  0.7957747E-01            NaN
         13   -1    0    0    0    0  0.00000000000E+00  0.00000000000E+00  0.74505805969E-08  0.10566000000E+00  0.10566000000E+00 0. -1.
     999900   -1    0    0    0    0 -0.00000000000E+00 -0.00000000000E+00 -0.74505805969E-08  0.93827000000E+00  0.93827000000E+00 0.  1.
     999902    2    1    2    0    0  0.15182609675E-01  0.49121852379E-04  0.18662513224E-01  0.10198716657E+01  0.10195878633E+01 0.  0.
     999903    2    3    3    0    0  0.73347647418E-01 -0.10076526933E+00  0.38302796254E-01  0.13199078754E+00  0.20516990726E-01 0.  0.
         14    1    1    2    0    0 -0.15182609675E-01 -0.49121852379E-04 -0.18662513224E-01  0.24058334301E-01  0.00000000000E+00 0.  1.
     999901    1    3    3    0    0 -0.58165037743E-01  0.10081439119E+00 -0.19640283030E-01  0.88788087816E+00  0.88000000000E+00 0. -1.
        -11    1    4    4    0    0  0.48817037058E-01 -0.60396123566E-01  0.14166632917E-01  0.78941430556E-01  0.51100000000E-03 0.  1.
         11    1    4    4    0    0  0.24530610359E-01 -0.40369145768E-01  0.24136163337E-01  0.53049356983E-01  0.51100000000E-03 0. -1.
</event>
<event>
 8    1  0.1041149E+005  0.1043930E+01  0.7957747E-01            NaN
         13   -1    0    0    0    0  0.00000000000E+00  0.00000000000E+00  0.74505805969E-08  0.10566000000E+00  0.10566000000E+00 0.  1.
     999900   -1    0    0    0    0 -0.00000000000E+00 -0.00000000000E+00 -0.74505805969E-08  0.93827000000E+00  0.93827000000E+00 0.  1.
     999902    2    1    2    0    0  0.15729892442E-01  0.17163765537E-01  0.60635198837E-03  0.10206406886E+01  0.10203749424E+01 0.  0.
     999903    2    3    3    0    0  0.10598263635E+00 -0.54818366978E-01 -0.54105923554E-01  0.13141607225E+00  0.10264527102E-01 0.  0.
         14    1    1    2    0    0 -0.15729892442E-01 -0.17163765537E-01 -0.60635198837E-03  0.23289311419E-01  0.00000000000E+00 0. -1.
     999901    1    3    3    0    0 -0.90252743911E-01  0.71982132515E-01  0.54712275543E-01  0.88922461633E+00  0.88000000000E+00 0. -1.
        -11    1    4    4    0    0  0.73550516906E-01 -0.36730533192E-01 -0.32173318199E-01  0.88284733282E-01  0.51100000000E-03 0. -1.
         11    1    4    4    0    0  0.32432119447E-01 -0.18087833786E-01 -0.21932605355E-01  0.43131338973E-01  0.51100000000E-03 0.  1.
</event>
<event>
 8    1  0.1041149E+005  0.1043930E+01  0.7957747E-01            NaN
         13   -1    0    0    0    0  0.00000000000E+00  0.00000000000E+00  0.74505805969E-08  0.10566000000E+00  0.10566000000E+00 0. -1.
     999900   -1    0    0    0    0 -0.00000000000E+00 -0.00000000000E+00 -0.74505805969E-08  0.93827000000E+00  0.93827000000E+00 0. -1.
     999902    2    1    2    0    0 -0.39626103539E-02 -0.10128530782E-01 -0.23919335094E-01  0.10176540793E+01  0.10173147994E+01 0.  0.
     999903    2    3    3    0    0  0.24142803833E-01 -0.35873284010E-01  0.11639770952E+00  0.12572270323E+00  0.19697813181E-01 0.  0.
         14    1    1    2    0    0  0.39626103539E-02  0.10128530782E-01  0.23919335094E-01  0.26275920688E-01  0.00000000000E+00 0. -1.
     999901    1    3    3    0    0 -0.28105414187E-01  0.25744753228E-01 -0.14031704461E+00  0.89193137608E+00  0.88000000000E+00 0. -1.
        -11    1    4    4    0    0  0.17136230023E-01 -0.82784060971E-02  0.45951112674E-01  0.49738800387E-01  0.51100000000E-03 0. -1.
         11    1    4    4    0    0  0.70065738092E-02 -0.27594877913E-01  0.70446596846E-01  0.75983902846E-01  0.51100000000E-03 0.  1.
</event>
<event>
 8    1  0.1041149E+005  0.1043930E+01  0.7957747E-01            NaN
         13   -1    0    0    0    0  0.00000000000E+00  0.00000000000E+00  0.74505805969E-08  0.10566000000E+00  0.10566000000E+00 0. -1.
     999900   -1    0    0    0    0 -0.00000000000E+00 -0.00000000000E+00 -0.74505805969E-08  0.93827000000E+00  0.93827000000E+00 0.  1.
     999902    2    1    2    0    0 -0.19499546604E-01  0.11346135773E-01 -0.49060958271E-02  0.10208424083E+01  0.10205812979E+01 0.  0.
     999903    2    3    3    0    0 -0.64146809526E-01 -0.11263555737E+00 -0.53878581284E-03  0.13102000370E+00  0.19088455178E-01 0.  0.
         14    1    1    2    0    0  0.19499546604E-01 -0.11346135773E-01  0.49060958271E-02  0.23087591710E-01  0.00000000000E+00 0. -1.
     999901    1    3    3    0    0  0.44647262923E-01  0.12398169315E+00 -0.43673100143E-02  0.88982240459E+00  0.88000000000E+00 0. -1.
        -11    1    4    4    0    0 -0.48708985164E-01 -0.81046625326E-01 -0.85856367030E-02  0.94947854062E-01  0.51100000000E-03 0.  1.
         11    1    4    4    0    0 -0.15437824362E-01 -0.31588932047E-01  0.80468508902E-02  0.36072149633E-01  0.51100000000E-03 0. -1.
</event>
<event>
 8    1  0.1041149E+005  0.1043930E+01  0.7957747E-01            NaN
         13   -1    0    0    0    0  0.00000000000E+00  0.00000000000E+00  0.74505805969E-08  0.10566000000E+00  0.10566000000E+00 0. -1.
     999900   -1    0    0    0    0 -0.00000000000E+00 -0.00000000000E+00 -0.74505805969E-08  0.93827000000E+00  0.93827000000E+00 0.  1.
     999902    2    1    2    0    0  0.12075349026E-01  0.16527137612E-02 -0.18011296260E-01  0.10221825333E+01  0.10219511627E+01 0.  0.
     999903    2    3    3    0    0 -0.10426076125E+00 -0.75195388529E-01 -0.17269746105E-01  0.13120538917E+00  0.19797909599E-01 0.  0.
         14    1    1    2    0    0 -0.12075349026E-01 -0.16527137612E-02  0.18011296260E-01  0.21747466746E-01  0.00000000000E+00 0. -1.
     999901    1    3    3    0    0  0.11633611028E+00  0.76848102290E-01 -0.74155015585E-03  0.89097714408E+00  0.88000000000E+00 0.  1.
        -11    1    4    4    0    0 -0.11953912220E-01 -0.15202579651E-01  0.19697666016E-02  0.19446221917E-01  0.51100000000E-03 0.  1.
         11    1    4    4    0    0 -0.92306849032E-01 -0.59992808878E-01 -0.19239512706E-01  0.11175916725E+00  0.51100000000E-03 0. -1.
</event>
<event>
 8    1  0.1041149E+005  0.1043930E+01  0.7957747E-01            NaN
         13   -1    0    0    0    0  0.00000000000E+00  0.00000000000E+00  0.74505805969E-08  0.10566000000E+00  0.10566000000E+00 0.  1.
     999900   -1    0    0    0    0 -0.00000000000E+00 -0.00000000000E+00 -0.74505805969E-08  0.93827000000E+00  0.93827000000E+00 0. -1.
     999902    2    1    2    0    0 -0.46457162599E-02  0.22076569484E-01 -0.10727099805E-01  0.10189494422E+01  0.10186431845E+01 0.  0.
     999903    2    3    3    0    0  0.34967618659E-01 -0.83870739921E-01  0.85565996606E-01  0.12649977462E+00  0.20581978398E-01 0.  0.
         14    1    1    2    0    0  0.46457162599E-02 -0.22076569484E-01  0.10727099805E-01  0.24980557839E-01  0.00000000000E+00 0.  1.
     999901    1    3    3    0    0 -0.39613334919E-01  0.10594730940E+00 -0.96293096411E-01  0.89244966754E+00  0.88000000000E+00 0. -1.
        -11    1    4    4    0    0 -0.15006364664E-02 -0.15518581822E-01  0.12245793784E-01  0.19831764368E-01  0.51100000000E-03 0. -1.
         11    1    4    4    0    0  0.36468255125E-01 -0.68352158099E-01  0.73320202822E-01  0.10666801025E+00  0.51100000000E-03 0.  1.
</event>
<event>
 8    1  0.1041149E+005  0.1043930E+01  0.7957747E-01            NaN
         13   -1    0    0    0    0  0.00000000000E+00  0.00000000000E+00  0.74505805969E-08  0.10566000000E+00  0.10566000000E+00 0.  1.
     999900   -1    0    0    0    0 -0.00000000000E+00 -0.00000000000E+00 -0.74505805969E-08  0.93827000000E+00  0.93827000000E+00 0. -1.
     999902    2    1    2    0    0 -0.11382001251E-01 -0.14930967298E-01 -0.14225648003E-01  0.10203746864E+01  0.10201027634E+01 0.  0.
     999903    2    3    3    0    0  0.11599006308E+00 -0.25538330284E-01 -0.49807731078E-01  0.13042960746E+00  0.20619684283E-01 0.  0.
         14    1    1    2    0    0  0.11382001251E-01  0.14930967298E-01  0.14225648003E-01  0.23555313583E-01  0.00000000000E+00 0.  1.
     999901    1    3    3    0    0 -0.12737206433E+00  0.10607362986E-01  0.35582083075E-01  0.88994507896E+00  0.88000000000E+00 0. -1.
        -11    1    4    4    0    0  0.49469724710E-01 -0.28485790250E-02 -0.13707315325E-01  0.51415169743E-01  0.51100000000E-03 0. -1.
         11    1    4    4    0    0  0.66520338372E-01 -0.22689751259E-01 -0.36100415753E-01  0.79014437717E-01  0.51100000000E-03 0.  1.
</event>
<event>
 8    1  0.1041149E+005  0.1043930E+01  0.7957747E-01            NaN
         13   -1    0    0    0    0  0.00000000000E+00  0.00000000000E+00  0.74505805969E-08  0.10566000000E+00  0.10566000000E+00 0.  1.
     999900   -1    0    0    0    0 -0.00000000000E+00 -0.00000000000E+00 -0.74505805969E-08  0.93827000000E+00  0.93827000000E+00 0.  1.
     999902    2    1    2    0    0 -0.84770751465E-02  0.18699296131E-01 -0.66457146123E-02  0.10223501483E+01  0.10221223682E+01 0.  0.
     999903    2    3    3    0    0  0.11116980716E+00  0.62539453550E-01 -0.30980657513E-01  0.13283931341E+00  0.20410114496E-01 0.  0.
         14    1    1    2    0    0  0.84770751465E-02 -0.18699296131E-01  0.66457146123E-02  0.21579851750E-01  0.00000000000E+00 0. -1.
     999901    1    3    3    0    0 -0.11964688231E+00 -0.43840157419E-01  0.24334942901E-01  0.88951083484E+00  0.88000000000E+00 0. -1.
        -11    1    4    4    0    0  0.25705803496E-01  0.73632571674E-02 -0.12181318826E-01  0.29387948871E-01  0.51100000000E-03 0.  1.
         11    1    4    4    0    0  0.85464003663E-01  0.55176196383E-01 -0.18799338687E-01  0.10345136454E+00  0.51100000000E-03 0. -1.
</event>
<event>
 8    1  0.1041149E+005  0.1043930E+01  0.7957747E-01            NaN
         13   -1    0    0    0    0  0.00000000000E+00  0.00000000000E+00  0.74505805969E-08  0.10566000000E+00  0.10566000000E+00 0.  1.
     999900   -1    0    0    0    0 -0.00000000000E+00 -0.00000000000E+00 -0.74505805969E-08  0.93827000000E+00  0.93827000000E+00 0. -1.
     999902    2    1    2    0    0  0.19692599952E-01 -0.11634460470E-01 -0.57986952764E-02  0.10203337285E+01  0.10200608479E+01 0.  0.
     999903    2    3    3    0    0  0.12733374772E+00 -0.30291791700E-01  0.16216684560E-01  0.13330532438E+00  0.19386920815E-01 0.  0.
         14    1    1    2    0    0 -0.19692599952E-01  0.11634460470E-01  0.57986952764E-02  0.23596271532E-01  0.00000000000E+00 0.  1.
     999901    1    3    3    0    0 -0.10764114777E+00  0.18657331231E-01 -0.22015379836E-01  0.88702840408E+00  0.88000000000E+00 0. -1.
        -11    1    4    4    0    0  0.56665370166E-01 -0.63739349342E-02  0.13736618034E-01  0.58656176304E-01  0.51100000000E-03 0.  1.
         11    1    4    4    0    0  0.70668377553E-01 -0.23917856766E-01  0.24800665262E-02  0.74649148081E-01  0.51100000000E-03 0. -1.
</event>
<event>
 8    1  0.1041149E+005  0.1043930E+01  0.7957747E-01            NaN
         13   -1    0    0    0    0  0.00000000000E+00  0.00000000000E+00  0.74505805969E-08  0.10566000000E+00  0.10566000000E+00 0.  1.
     999900   -1    0    0    0    0 -0.00000000000E+00 -0.00000000000E+00 -0.74505805969E-08  0.93827000000E+00  0.93827000000E+00 0. -1.
     999902    2    1    2    0    0  0.22978160204E-01 -0.52292886068E-02  0.21411377931E-03  0.10203633466E+01  0.10200911587E+01 0.  0.
     999903    2    3    3    0    0  0.62153017941E-01 -0.10883684955E+00 -0.38375189246E-01  0.13258052947E+00  0.19911910664E-01 0.  0.
         14    1    1    2    0    0 -0.22978160204E-01  0.52292886068E-02 -0.21411377931E-03  0.23566653356E-01  0.00000000000E+00 0.  1.
     999901    1    3    3    0    0 -0.39174857737E-01  0.10360756094E+00  0.38589303026E-01  0.88778281717E+00  0.88000000000E+00 0. -1.
        -11    1    4    4    0    0  0.32080952393E-01 -0.37617608650E-01 -0.11799839894E-01  0.50830791156E-01  0.51100000000E-03 0. -1.
         11    1    4    4    0    0  0.30072065549E-01 -0.71219240896E-01 -0.26575349352E-01  0.81749738314E-01  0.51100000000E-03 0.  1.
</event>
<event>
 8    1  0.1041149E+005  0.1043930E+01  0.7957747E-01            NaN
         13   -1    0    0    0    0  0.00000000000E+00  0.00000000000E+00  0.74505805969E-08  0.10566000000E+00  0.10566000000E+00 0. -1.
     999900   -1    0    0    0    0 -0.00000000000E+00 -0.00000000000E+00 -0.74505805969E-08  0.93827000000E+00  0.93827000000E+00 0.  1.
     999902    2    1    2    0    0 -0.40061392693E-02 -0.21908694922E-01  0.76544886906E-02  0.10203793893E+01  0.10201075762E+01 0.  0.
     999903    2    3    3    0    0  0.65067387482E-01 -0.28481974312E-01 -0.10737807208E+00  0.13018455105E+00  0.19312669224E-01 0.  0.
         14    1    1    2    0    0  0.40061392693E-02  0.21908694922E-01 -0.76544886906E-02  0.23550610654E-01  0.00000000000E+00 0.  1.
     999901    1    3    3    0    0 -0.69073526752E-01  0.65732793898E-02  0.11503256077E+00  0.89019483830E+00  0.88000000000E+00 0. -1.
        -11    1    4    4    0    0  0.25263126941E-01 -0.20714858190E-01 -0.54488530524E-01  0.63534179874E-01  0.51100000000E-03 0. -1.
         11    1    4    4    0    0  0.39804260542E-01 -0.77671161228E-02 -0.52889541557E-01  0.66650371171E-01  0.51100000000E-03 0.  1.
</event>
<event>
 8    1  0.1041149E+005  0.1043930E+01  0.7957747E-01            NaN
         13   -1    0    0    0    0  0.00000000000E+00  0.00000000000E+00  0.74505805969E-08  0.10566000000E+00  0.10566000000E+00 0. -1.
     999900   -1    0    0    0    0 -0.00000000000E+00 -0.00000000000E+00 -0.74505805969E-08  0.93827000000E+00  0.93827000000E+00 0. -1.
     999902    2    1    2    0    0  0.15198520041E-01 -0.79989610525E-03 -0.18689958272E-01  0.10198271084E+01  0.10195422412E+01 0.  0.
     999903    2    3    3    0    0 -0.74465666655E-01 -0.10285209266E+00 -0.14800293047E-01  0.12939493986E+00  0.20007831278E-01 0.  0.
         14    1    1    2    0    0 -0.15198520041E-01  0.79989610525E-03  0.18689958272E-01  0.24102891640E-01  0.00000000000E+00 0.  1.
     999901    1    3    3    0    0  0.89664186697E-01  0.10205219656E+00 -0.38896652247E-02  0.89043216850E+00  0.88000000000E+00 0.  1.
        -11    1    4    4    0    0 -0.45163112328E-01 -0.48931447615E-01 -0.15388418999E-02  0.66607975771E-01  0.51100000000E-03 0.  1.
         11    1    4    4    0    0 -0.29302554327E-01 -0.53920645047E-01 -0.13261451147E-01  0.62786964092E-01  0.51100000000E-03 0. -1.
</event>
<event>
 8    1  0.1041149E+005  0.1043930E+01  0.7957747E-01            NaN
         13   -1    0    0    0    0  0.00000000000E+00  0.00000000000E+00  0.74505805969E-08  0.10566000000E+00  0.10566000000E+00 0.  1.
     999900   -1    0    0    0    0 -0.00000000000E+00 -0.00000000000E+00 -0.74505805969E-08  0.93827000000E+00  0.93827000000E+00 0.  1.
     999902    2    1    2    0    0  0.22934027743E-01 -0.74519019674E-03  0.33842211999E-02  0.10207356496E+01  0.10204720910E+01 0.  0.
     999903    2    3    3    0    0 -0.89888114207E-01  0.10441725087E-02  0.90845238616E-01  0.12923048019E+00  0.19149314846E-01 0.  0.
         14    1    1    2    0    0 -0.22934027743E-01  0.74519019674E-03 -0.33842211999E-02  0.23194350391E-01  0.00000000000E+00 0. -1.
     999901    1    3    3    0    0  0.11282214195E+00 -0.17893627054E-02 -0.87461017416E-01  0.89150516942E+00  0.88000000000E+00 0.  1.
        -11    1    4    4    0    0 -0.44493705824E-01  0.89418090679E-02  0.51438188919E-01  0.68598791590E-01  0.51100000000E-03 0. -1.
         11    1    4    4    0    0 -0.45394408383E-01 -0.78976365592E-02  0.39407049697E-01  0.60631688600E-01  0.51100000000E-03 0.  1.
</event>
<event>
 8    1  0.1041149E+005  0.1043930E+01  0.7957747E-01            NaN
         13   -1    0    0    0    0  0.00000000000E+00  0.00000000000E+00  0.74505805969E-08  0.10566000000E+00  0.10566000000E+00 0.  1.
     999900   -1    0    0    0    0 -0.00000000000E+00 -0.00000000000E+00 -0.74505805969E-08  0.93827000000E+00  0.93827000000E+00 0.  1.
     999902    2    1    2    0    0 -0.21265530541E-02 -0.59429418888E-02 -0.23814119580E-01  0.10192935823E+01  0.10189958066E+01 0.  0.
     999903    2    3    3    0    0  0.11636285675E+00 -0.43891507838E-02 -0.56183477404E-01  0.13076112378E+00  0.19552730865E-01 0.  0.
         14    1    1    2    0    0  0.21265530541E-02  0.59429418888E-02  0.23814119580E-01  0.24636417710E-01  0.00000000000E+00 0.  1.
     999901    1    3    3    0    0 -0.11848940980E+00 -0.15537911050E-02  0.32369357824E-01  0.88853245851E+00  0.88000000000E+00 0.  1.
        -11    1    4    4    0    0  0.10658927564E+00 -0.67636842137E-02 -0.45540550449E-01  0.11610867307E+00  0.51100000000E-03 0. -1.
         11    1    4    4    0    0  0.97735811028E-02  0.23745334299E-02 -0.10642926955E-01  0.14652450708E-01  0.51100000000E-03 0.  1.
</event>
<event>
 8    1  0.1041149E+005  0.1043930E+01  0.7957747E-01            NaN
         13   -1    0    0    0    0  0.00000000000E+00  0.00000000000E+00  0.74505805969E-08  0.10566000000E+00  0.10566000000E+00 0. -1.
     999900   -1    0    0    0    0 -0.00000000000E+00 -0.00000000000E+00 -0.74505805969E-08  0.93827000000E+00  0.93827000000E+00 0. -1.
     999902    2    1    2    0    0 -0.13209602058E-01 -0.19265919635E-01  0.17467808510E-02  0.10205052163E+01  0.10202363335E+01 0.  0.
     999903    2    3    3    0    0 -0.10188234760E+00  0.60772100797E-01  0.47015416348E-01  0.13128185303E+00  0.30841766688E-01 0.  0.
         14    1    1    2    0    0  0.13209602058E-01  0.19265919635E-01 -0.17467808510E-02  0.23424783654E-01  0.00000000000E+00 0.  1.
     999901    1    3    3    0    0  0.88672745538E-01 -0.80038020432E-01 -0.45268635497E-01  0.88922336332E+00  0.88000000000E+00 0. -1.
        -11    1    4    4    0    0 -0.39988747879E-01  0.12456257778E-01  0.28331970933E-01  0.50568962939E-01  0.51100000000E-03 0. -1.
         11    1    4    4    0    0 -0.61893599716E-01  0.48315843019E-01  0.18683445416E-01  0.80712890086E-01  0.51100000000E-03 0.  1.
</event>
<event>
 8    1  0.1041149E+005  0.1043930E+01  0.7957747E-01            NaN
         13   -1    0    0    0    0  0.00000000000E+00  0.00000000000E+00  0.74505805969E-08  0.10566000000E+00  0.10566000000E+00 0. -1.
     999900   -1    0    0    0    0 -0.00000000000E+00 -0.00000000000E+00 -0.74505805969E-08  0.93827000000E+00  0.93827000000E+00 0.  1.
     999902    2    1    2    0    0 -0.39028472527E-02  0.76903060897E-02  0.22195231218E-01  0.10201182106E+01  0.10198402631E+01 0.  0.
     999903    2    3    3    0    0  0.47952663853E-01 -0.71371391545E-01 -0.92573499614E-01  0.12764322070E+00  0.18155039470E-01 0.  0.
         14    1    1    2    0    0  0.39028472527E-02 -0.76903060897E-02 -0.22195231218E-01  0.23811789376E-01  0.00000000000E+00 0.  1.
     999901    1    3    3    0    0 -0.51855511106E-01  0.79061697634E-01  0.11476873083E+00  0.89247498993E+00  0.88000000000E+00 0. -1.
        -11    1    4    4    0    0  0.51709452054E-02 -0.14345517937E-01 -0.25745334402E-01  0.29926842861E-01  0.51100000000E-03 0.  1.
         11    1    4    4    0    0  0.42781718648E-01 -0.57025873608E-01 -0.66828165212E-01  0.97716377838E-01  0.51100000000E-03 0. -1.
</event>
<event>
 8    1  0.1041149E+005  0.1043930E+01  0.7957747E-01            NaN
         13   -1    0    0    0    0  0.00000000000E+00  0.00000000000E+00  0.74505805969E-08  0.10566000000E+00  0.10566000000E+00 0. -1.
     999900   -1    0    0    0    0 -0.00000000000E+00 -0.00000000000E+00 -0.74505805969E-08  0.93827000000E+00  0.93827000000E+00 0.  1.
     999902    2    1    2    0    0 -0.12263817661E-01 -0.81174172652E-02 -0.20058779665E-01  0.10190573578E+01  0.10187537731E+01 0.  0.
     999903    2    3    3    0    0  0.65902054911E-01 -0.75337174495E-01  0.77148782816E-01  0.12772256686E+00  0.18502667187E-01 0.  0.
         14    1    1    2    0    0  0.12263817661E-01  0.81174172652E-02  0.20058779665E-01  0.24872642166E-01  0.00000000000E+00 0. -1.
     999901    1    3    3    0    0 -0.78165872572E-01  0.67219757230E-01 -0.97207562481E-01  0.89133479097E+00  0.88000000000E+00 0.  1.
        -11    1    4    4    0    0  0.44629705621E-01 -0.45612257616E-01  0.58992041113E-01  0.86905757602E-01  0.51100000000E-03 0. -1.
         11    1    4    4    0    0  0.21272349290E-01 -0.29724916879E-01  0.18156741702E-01  0.40816809258E-01  0.51100000000E-03 0.  1.
</event>
<event>
 8    1  0.1041149E+005  0.1043930E+01  0.7957747E-01            NaN
         13   -1    0    0    0    0  0.00000000000E+00  0.00000000000E+00  0.74505805969E-08  0.10566000000E+00  0.10566000000E+00 0.  1.
     999900   -1    0    0    0    0 -0.00000000000E+00 -0.00000000000E+00 -0.74505805969E-08  0.93827000000E+00  0.93827000000E+00 0. -1.
     999902    2    1    2    0    0  0.27590411951E-02  0.24253415366E-01  0.22459793727E-02  0.10194170465E+01  0.10191222840E+01 0.  0.
     999903    2    3    3    0    0  0.16774143680E-01 -0.10293593797E+00 -0.69981092965E-01  0.12723415905E+00  0.20346956405E-01 0.  0.
         14    1    1    2    0    0 -0.27590411951E-02 -0.24253415366E-01 -0.22459793727E-02  0.24512953485E-01  0.00000000000E+00 0. -1.
     999901    1    3    3    0    0 -0.14015102485E-01  0.12718935334E+00  0.72227072337E-01  0.89218288746E+00  0.88000000000E+00 0.  1.
        -11    1    4    4    0    0  0.20627280174E-01 -0.68324726526E-01 -0.45030137818E-01  0.84390327497E-01  0.51100000000E-03 0. -1.
         11    1    4    4    0    0 -0.38531364939E-02 -0.34611211447E-01 -0.24950955147E-01  0.42843831556E-01  0.51100000000E-03 0.  1.
</event>
<event>
 8    1  0.1041149E+005  0.1043930E+01  0.7957747E-01            NaN
         13   -1    0    0    0    0  0.00000000000E+00  0.00000000000E+00  0.74505805969E-08  0.10566000000E+00  0.10566000000E+00 0. -1.
     999900   -1    0    0    0    0 -0.00000000000E+00 -0.00000000000E+00 -0.74505805969E-08  0.93827000000E+00  0.93827000000E+00 0. -1.
     999902    2    1    2    0    0  0.17126326691E-01  0.22328596422E-02  0.15808535643E-01  0.10205161894E+01  0.10202475613E+01 0.  0.
     999903    2    3    3    0    0  0.98768805298E-01  0.70706406930E-01  0.51143075208E-01  0.13338449078E+00  0.20521582735E-01 0.  0.
         14    1    1    2    0    0 -0.17126326691E-01 -0.22328596422E-02 -0.15808535643E-01  0.23413810611E-01  0.00000000000E+00 0. -1.
     999901    1    3    3    0    0 -0.81642478607E-01 -0.68473547288E-01 -0.35334539565E-01  0.88713169861E+00  0.88000000000E+00 0. -1.
        -11    1    4    4    0    0  0.61243108963E-01  0.52697394108E-01  0.40699523611E-01  0.90467928485E-01  0.51100000000E-03 0.  1.
         11    1    4    4    0    0  0.37525696335E-01  0.18009012822E-01  0.10443551597E-01  0.42916562295E-01  0.51100000000E-03 0. -1.
</event>
<event>
 8    1  0.1041149E+005  0.1043930E+01  0.7957747E-01            NaN
         13   -1    0    0    0    0  0.00000000000E+00  0.00000000000E+00  0.74505805969E-08  0.10566000000E+00  0.10566000000E+00 0. -1.
     999900   -1    0    0    0    0 -0.00000000000E+00 -0.00000000000E+00 -0.74505805969E-08  0.93827000000E+00  0.93827000000E+00 0. -1.
     999902    2    1    2    0    0 -0.60282754749E-02  0.16908366445E-01  0.14848876639E-01  0.10206336033E+01  0.10203676936E+01 0.  0.
     999903    2    3    3    0    0 -0.88423414008E-01 -0.67890784078E-01  0.66831666339E-01  0.13120566064E+00  0.17905168282E-01 0.  0.
         14    1    1    2    0    0  0.60282754749E-02 -0.16908366445E-01 -0.14848876639E-01  0.23296396685E-01  0.00000000000E+00 0. -1.
     999901    1    3    3    0    0  0.82395138533E-01  0.84799150523E-01 -0.51982789700E-01  0.88942794267E+00  0.88000000000E+00 0. -1.
        -11    1    4    4    0    0 -0.83167669452E-01 -0.57882549707E-01  0.57284036226E-01  0.11640005468E+00  0.51100000000E-03 0. -1.
         11    1    4    4    0    0 -0.52557445568E-02 -0.10008234370E-01  0.95476301136E-02  0.14805605960E-01  0.51100000000E-03 0.  1.
</event>
<event>
 8    1  0.1041149E+005  0.1043930E+01  0.7957747E-01            NaN
         13   -1    0    0    0    0  0.00000000000E+00  0.00000000000E+00  0.74505805969E-08  0.10566000000E+00  0.10566000000E+00 0.  1.
     999900   -1    0    0    0    0 -0.00000000000E+00 -0.00000000000E+00 -0.74505805969E-08  0.93827000000E+00  0.93827000000E+00 0. -1.
     999902    2    1    2    0    0  0.19314802923E-01 -0.12355388245E-01  0.54980483432E-02  0.10203514978E+01  0.10200790329E+01 0.  0.
     999903    2    3    3    0    0 -0.12267727649E+00 -0.75932214715E-02  0.31742937880E-01  0.12857057006E+00  0.20381516119E-01 0.  0.
         14    1    1    2    0    0 -0.19314802923E-01  0.12355388245E-01 -0.54980483432E-02  0.23578502205E-01  0.00000000000E+00 0. -1.
     999901    1    3    3    0    0  0.14199207942E+00 -0.47621667735E-02 -0.26244889537E-01  0.89178092774E+00  0.88000000000E+00 0.  1.
        -11    1    4    4    0    0 -0.26865071387E-01 -0.36281490656E-02 -0.12916224401E-02  0.27144519443E-01  0.51100000000E-03 0.  1.
         11    1    4    4    0    0 -0.95812205107E-01 -0.39650724059E-02  0.33034560320E-01  0.10142605061E+00  0.51100000000E-03 0. -1.
</event>
<event>
 8    1  0.1041149E+005  0.1043930E+01  0.7957747E-01            NaN
         13   -1    0    0    0    0  0.00000000000E+00  0.00000000000E+00  0.74505805969E-08  0.10566000000E+00  0.10566000000E+00 0. -1.
     999900   -1    0    0    0    0 -0.00000000000E+00 -0.00000000000E+00 -0.74505805969E-08  0.93827000000E+00  0.93827000000E+00 0.  1.
     999902    2    1    2    0    0  0.22448510602E-01  0.74303133892E-02 -0.15875872830E-02  0.10202305144E+01  0.10199552132E+01 0.  0.
     999903    2    3    3    0    0  0.94729507479E-01  0.14129425900E-01  0.89449550769E-01  0.13256099191E+00  0.19946783686E-01 0.  0.
         14    1    1    2    0    0 -0.22448510602E-01 -0.74303133892E-02  0.15875872830E-02  0.23699485621E-01  0.00000000000E+00 0.  1.
     999901    1    3    3    0    0 -0.72280996877E-01 -0.66991125110E-02 -0.91037138052E-01  0.88766952247E+00  0.88000000000E+00 0.  1.
        -11    1    4    4    0    0  0.39953660706E-01  0.14840816357E-01  0.45318476725E-01  0.62213907510E-01  0.51100000000E-03 0.  1.
         11    1    4    4    0    0  0.54775846773E-01 -0.71139045714E-03  0.44131074044E-01  0.70347084399E-01  0.51100000000E-03 0. -1.
</event>
<event>
 8    1  0.1041149E+005  0.1043930E+01  0.7957747E-01            NaN
         13   -1    0    0    0    0  0.00000000000E+00  0.00000000000E+00  0.74505805969E-08  0.10566000000E+00  0.10566000000E+00 0.  1.
     999900   -1    0    0    0    0 -0.00000000000E+00 -0.00000000000E+00 -0.74505805969E-08  0.93827000000E+00  0.93827000000E+00 0.  1.
     999902    2    1    2    0    0 -0.48886187235E-02  0.15876625296E-01  0.15604130483E-01  0.10211384509E+01  0.10208840684E+01 0.  0.
     999903    2    3    3    0    0 -0.10810332181E+00  0.25568406457E-01 -0.68692047764E-01  0.13105247119E+00  0.10774097756E-01 0.  0.
         14    1    1    2    0    0  0.48886187235E-02 -0.15876625296E-01 -0.15604130483E-01  0.22791549134E-01  0.00000000000E+00 0.  1.
     999901    1    3    3    0    0  0.10321470309E+00 -0.96917811611E-02  0.84296178247E-01  0.89008597968E+00  0.88000000000E+00 0. -1.
        -11    1    4    4    0    0 -0.70424249572E-01  0.21178716618E-01 -0.48265280840E-01  0.87965398999E-01  0.51100000000E-03 0. -1.
         11    1    4    4    0    0 -0.37679072240E-01  0.43896898384E-02 -0.20426766924E-01  0.43087072188E-01  0.51100000000E-03 0.  1.
</event>
<event>
 8    1  0.1041149E+005  0.1043930E+01  0.7957747E-01            NaN
         13   -1    0    0    0    0  0.00000000000E+00  0.00000000000E+00  0.74505805969E-08  0.10566000000E+00  0.10566000000E+00 0.  1.
     999900   -1    0    0    0    0 -0.00000000000E+00 -0.00000000000E+00 -0.74505805969E-08  0.93827000000E+00  0.93827000000E+00 0.  1.
     999902    2    1    2    0    0  0.17961946992E-01  0.15235507113E-01  0.13191715724E-02  0.10203399082E+01  0.10200671722E+01 0.  0.
     999903    2    3    3    0    0 -0.83279956072E-01  0.38710693894E-01  0.89604819655E-01  0.12983703737E+00  0.19863626612E-01 0.  0.
         14    1    1    2    0    0 -0.17961946992E-01 -0.15235507113E-01 -0.13191715724E-02  0.23590091784E-01  0.00000000000E+00 0. -1.
     999901    1    3    3    0    0  0.10124190306E+00 -0.23475186781E-01 -0.88285648083E-01  0.89050287085E+00  0.88000000000E+00 0. -1.
        -11    1    4    4    0    0 -0.47005004554E-01  0.15301810345E-01  0.58684807983E-01  0.76731894685E-01  0.51100000000E-03 0.  1.
         11    1    4    4    0    0 -0.36274951517E-01  0.23408883549E-01  0.30920011672E-01  0.53105142683E-01  0.51100000000E-03 0. -1.
</event>
<event>
 8    1  0.1041149E+005  0.1043930E+01  0.7957747E-01            NaN
         13   -1    0    0    0    0  0.00000000000E+00  0.00000000000E+00  0.74505805969E-08  0.10566000000E+00  0.10566000000E+00 0.  1.
     999900   -1    0    0    0    0 -0.00000000000E+00 -0.00000000000E+00 -0.74505805969E-08  0.93827000000E+00  0.93827000000E+00 0. -1.
     999902    2    1    2    0    0 -0.56859447791E-02 -0.13420932013E-01  0.24176897099E-01  0.10156992767E+01  0.10153068733E+01 0.  0.
     999903    2    3    3    0    0  0.96526360121E-01 -0.71284053991E-01  0.39288509031E-01  0.12776692739E+00  0.19546003193E-01 0.  0.
         14    1    1    2    0    0  0.56859447791E-02  0.13420932013E-01 -0.24176897099E-01  0.28230723289E-01  0.00000000000E+00 0. -1.
     999901    1    3    3    0    0 -0.10221230490E+00  0.57863121978E-01 -0.15111611933E-01  0.88793234932E+00  0.88000000000E+00 0. -1.
        -11    1    4    4    0    0  0.44835097385E-01 -0.45228654595E-01  0.20555717821E-01  0.66922461178E-01  0.51100000000E-03 0.  1.
         11    1    4    4    0    0  0.51691262736E-01 -0.26055399396E-01  0.18732791211E-01  0.60844466211E-01  0.51100000000E-03 0. -1.
</event>
<event>
 8    1  0.1041149E+005  0.1043930E+01  0.7957747E-01            NaN
         13   -1    0    0    0    0  0.00000000000E+00  0.00000000000E+00  0.74505805969E-08  0.10566000000E+00  0.10566000000E+00 0.  1.
     999900   -1    0    0    0    0 -0.00000000000E+00 -0.00000000000E+00 -0.74505805969E-08  0.93827000000E+00  0.93827000000E+00 0.  1.
     999902    2    1    2    0    0 -0.24575913743E-01 -0.52353611448E-02  0.16996586759E-02  0.10187452153E+01  0.10184338664E+01 0.  0.
     999903    2    3    3    0    0 -0.12319661759E+00  0.31964970551E-01  0.27623990062E-01  0.13207617957E+00  0.21951456740E-01 0.  0.
         14    1    1    2    0    0  0.24575913743E-01  0.52353611448E-02 -0.16996586759E-02  0.25184784737E-01  0.00000000000E+00 0. -1.
     999901    1    3    3    0    0  0.98620703850E-01 -0.37200331696E-01 -0.25924331386E-01  0.88666903570E+00  0.88000000000E+00 0.  1.
        -11    1    4    4    0    0 -0.33468123958E-01  0.65939221414E-02  0.17321903271E-01  0.38261006056E-01  0.51100000000E-03 0.  1.
         11    1    4    4    0    0 -0.89728493636E-01  0.25371048410E-01  0.10302086791E-01  0.93815173510E-01  0.51100000000E-03 0. -1.
</event>
<event>
 8    1  0.1041149E+005  0.1043930E+01  0.7957747E-01            NaN
         13   -1    0    0    0    0  0.00000000000E+00  0.00000000000E+00  0.74505805969E-08  0.10566000000E+00  0.10566000000E+00 0.  1.
     999900   -1    0    0    0    0 -0.00000000000E+00 -0.00000000000E+00 -0.74505805969E-08  0.93827000000E+00  0.93827000000E+00 0. -1.
     999902    2    1    2    0    0  0.58059474335E-02  0.21352631120E-01 -0.78877661913E-02  0.10204382837E+01  0.10201678440E+01 0.  0.
     999903    2    3    3    0    0  0.55400618730E-01 -0.10616276527E+00 -0.43917500125E-01  0.12913701614E+00  0.20195564776E-01 0.  0.
         14    1    1    2    0    0 -0.58059474335E-02 -0.21352631120E-01  0.78877661913E-02  0.23491716345E-01  0.00000000000E+00 0.  1.
     999901    1    3    3    0    0 -0.49594671296E-01  0.12751539639E+00  0.36029733933E-01  0.89130126751E+00  0.88000000000E+00 0.  1.
        -11    1    4    4    0    0  0.35960313505E-01 -0.72760467663E-01 -0.39405564964E-01  0.90223552763E-01  0.51100000000E-03 0.  1.
         11    1    4    4    0    0  0.19440305225E-01 -0.33402297605E-01 -0.45119351600E-02  0.38913463382E-01  0.51100000000E-03 0. -1.
</event>
<event>
 8    1  0.1041149E+005  0.1043930E+01  0.7957747E-01            NaN
         13   -1    0    0    0    0  0.00000000000E+00  0.00000000000E+00  0.74505805969E-08  0.10566000000E+00  0.10566000000E+00 0.  1.
     999900   -1    0    0    0    0 -0.00000000000E+00 -0.00000000000E+00 -0.74505805969E-08  0.93827000000E+00  0.93827000000E+00 0.  1.
     999902    2    1    2    0    0  0.16603388382E-01  0.46171280024E-02 -0.27840324265E-01  0.10111874584E+01  0.10106572129E+01 0.  0.
     999903    2    3    3    0    0 -0.17850035273E-01 -0.11759685478E+00  0.12128176294E-01  0.12117578597E+00  0.19718885121E-01 0.  0.
         14    1    1    2    0    0 -0.16603388382E-01 -0.46171280024E-02  0.27840324265E-01  0.32742541623E-01  0.00000000000E+00 0.  1.
     999901    1    3    3    0    0  0.34453423655E-01  0.12221398278E+00 -0.39968500559E-01  0.89001167241E+00  0.88000000000E+00 0. -1.
        -11    1    4    4    0    0 -0.20335074857E-01 -0.92762972012E-01  0.45019456435E-02  0.95073723402E-01  0.51100000000E-03 0. -1.
         11    1    4    4    0    0  0.24850395836E-02 -0.24833882770E-01  0.76262306507E-02  0.26102062564E-01  0.51100000000E-03 0.  1.
</event>
<event>
 8    1  0.1159046E+005  0.1043930E+01  0.7957747E-01            NaN
         13   -1    0    0    0    0  0.00000000000E+00  0.00000000000E+00  0.74505805969E-08  0.10566000000E+00  0.10566000000E+00 0. -1.
     999900   -1    0    0    0    0 -0.00000000000E+00 -0.00000000000E+00 -0.74505805969E-08  0.93827000000E+00  0.93827000000E+00 0.  1.
     999902    2    1    2    0    0 -0.21754570995E-01  0.11242116175E-01 -0.75870201742E-02  0.10182939042E+01  0.10179711518E+01 0.  0.
     999903    2    3    3    0    0  0.34916652274E-02 -0.12484650193E+00  0.12457745502E-01  0.12724997872E+00  0.20940890414E-01 0.  0.
         14    1    1    2    0    0  0.21754570995E-01 -0.11242116175E-01  0.75870201742E-02  0.25636095849E-01  0.00000000000E+00 0.  1.
     999901    1    3    3    0    0 -0.25246236222E-01  0.13608861810E+00 -0.20044765676E-01  0.89104392543E+00  0.88000000000E+00 0. -1.
        -11    1    4    4    0    0 -0.87224668894E-02 -0.46526476473E-01  0.60113241890E-02  0.47719928554E-01  0.51100000000E-03 0. -1.
         11    1    4    4    0    0  0.12214132117E-01 -0.78320025453E-01  0.64464213126E-02  0.79530050164E-01  0.51100000000E-03 0.  1.
</event>
<event>
 8    1  0.1041149E+005  0.1043930E+01  0.7957747E-01            NaN
         13   -1    0    0    0    0  0.00000000000E+00  0.00000000000E+00  0.74505805969E-08  0.10566000000E+00  0.10566000000E+00 0. -1.
     999900   -1    0    0    0    0 -0.00000000000E+00 -0.00000000000E+00 -0.74505805969E-08  0.93827000000E+00  0.93827000000E+00 0.  1.
     999902    2    1    2    0    0 -0.22193582546E-01  0.41720154073E-02  0.36200918872E-02  0.10210593663E+01  0.10208031954E+01 0.  0.
     999903    2    3    3    0    0 -0.28986960724E-01 -0.25791917550E-01 -0.12331983702E+00  0.13142026377E+00  0.23622798800E-01 0.  0.
         14    1    1    2    0    0  0.22193582546E-01 -0.41720154073E-02 -0.36200918872E-02  0.22870633661E-01  0.00000000000E+00 0.  1.
     999901    1    3    3    0    0  0.67933781785E-02  0.29963932957E-01  0.12693992891E+00  0.88963910257E+00  0.88000000000E+00 0. -1.
        -11    1    4    4    0    0 -0.31851620964E-01 -0.19405367722E-01 -0.91017885830E-01  0.98364682262E-01  0.51100000000E-03 0.  1.
         11    1    4    4    0    0  0.28646602403E-02 -0.63865498284E-02 -0.32301951194E-01  0.33055581510E-01  0.51100000000E-03 0. -1.
</event>
<event>
 8    1  0.1041149E+005  0.1043930E+01  0.7957747E-01            NaN
         13   -1    0    0    0    0  0.00000000000E+00  0.00000000000E+00  0.74505805969E-08  0.10566000000E+00  0.10566000000E+00 0. -1.
     999900   -1    0    0    0    0 -0.00000000000E+00 -0.00000000000E+00 -0.74505805969E-08  0.93827000000E+00  0.93827000000E+00 0. -1.
     999902    2    1    2    0    0  0.62263642143E-02 -0.18105027261E-01 -0.18609308939E-01  0.10172304494E+01  0.10168799935E+01 0.  0.
     999903    2    3    3    0    0 -0.53181391434E-01  0.15358269189E-01  0.11045678803E+00  0.12520627314E+00  0.20292165565E-01 0.  0.
         14    1    1    2    0    0 -0.62263642143E-02  0.18105027261E-01  0.18609308939E-01  0.26699550607E-01  0.00000000000E+00 0. -1.
     999901    1    3    3    0    0  0.59407755648E-01 -0.33463296450E-01 -0.12906609697E+00  0.89202417626E+00  0.88000000000E+00 0. -1.
        -11    1    4    4    0    0 -0.89526300068E-02  0.64884255277E-02  0.40338384185E-01  0.41829363006E-01  0.51100000000E-03 0.  1.
         11    1    4    4    0    0 -0.44228761427E-01  0.88698436612E-02  0.70118403846E-01  0.83376910130E-01  0.51100000000E-03 0. -1.
</event>
<event>
 8    1  0.1041149E+005  0.1043930E+01  0.7957747E-01            NaN
         13   -1    0    0    0    0  0.00000000000E+00  0.00000000000E+00  0.74505805969E-08  0.10566000000E+00  0.10566000000E+00 0.  1.
     999900   -1    0    0    0    0 -0.00000000000E+00 -0.00000000000E+00 -0.74505805969E-08  0.93827000000E+00  0.93827000000E+00 0.  1.
     999902    2    1    2    0    0  0.52027724930E-02  0.72970284233E-02 -0.21260733817E-01  0.10208576298E+01  0.10205968675E+01 0.  0.
     999903    2    3    3    0    0  0.81319227433E-01  0.10220361772E+00 -0.65332989314E-02  0.13236572056E+00  0.20484231961E-01 0.  0.
         14    1    1    2    0    0 -0.52027724930E-02 -0.72970284233E-02  0.21260733817E-01  0.23072370226E-01  0.00000000000E+00 0.  1.
     999901    1    3    3    0    0 -0.76116454940E-01 -0.94906589294E-01 -0.14727434885E-01  0.88849190922E+00  0.88000000000E+00 0.  1.
        -11    1    4    4    0    0  0.56575711364E-01  0.82721556153E-01 -0.10453513237E-03  0.10021945429E+00  0.51100000000E-03 0. -1.
         11    1    4    4    0    0  0.24743516070E-01  0.19482061565E-01 -0.64287637991E-02  0.32146266273E-01  0.51100000000E-03 0.  1.
</event>
<event>
 8    1  0.1041149E+005  0.1043930E+01  0.7957747E-01            NaN
         13   -1    0    0    0    0  0.00000000000E+00  0.00000000000E+00  0.74505805969E-08  0.10566000000E+00  0.10566000000E+00 0. -1.
     999900   -1    0    0    0    0 -0.00000000000E+00 -0.00000000000E+00 -0.74505805969E-08  0.93827000000E+00  0.93827000000E+00 0. -1.
     999902    2    1    2    0    0  0.58888889164E-02 -0.14431398500E-01 -0.17901596915E-01  0.10201937103E+01  0.10199175433E+01 0.  0.
     999903    2    3    3    0    0  0.17147400987E-02  0.90220569545E-01  0.88426639581E-01  0.12762710115E+00  0.18075255424E-01 0.  0.
         14    1    1    2    0    0 -0.58888889164E-02  0.14431398500E-01  0.17901596915E-01  0.23736289673E-01  0.00000000000E+00 0. -1.
     999901    1    3    3    0    0  0.41741488177E-02 -0.10465196805E+00 -0.10632823650E+00  0.89256660917E+00  0.88000000000E+00 0. -1.
        -11    1    4    4    0    0 -0.43872409027E-02  0.75945665099E-01  0.68564913755E-01  0.10241289201E+00  0.51100000000E-03 0.  1.
         11    1    4    4    0    0  0.61019810014E-02  0.14274904446E-01  0.19861725827E-01  0.25214209147E-01  0.51100000000E-03 0. -1.
</event>
<event>
 7    1  0.1055660E+005  0.1043930E+01  0.7957747E-01            NaN
         13   -1    0    0    0    0  0.00000000000E+00  0.00000000000E+00  0.74505805969E-08  0.10566000000E+00  0.10566000000E+00 0.  1.
     999900   -1    0    0    0    0 -0.00000000000E+00 -0.00000000000E+00 -0.74505805969E-08  0.93827000000E+00  0.93827000000E+00 0.  1.
     999903    2    1    2    0    0  0.10194719299E+00 -0.44678780113E-01  0.22361924779E-01  0.11520080990E+00  0.19538356395E-01 0.  0.
         14    1    1    2    0    0 -0.31686719768E-01 -0.23960519755E-01  0.15032715726E-01  0.42475136948E-01  0.00000000000E+00 0. -1.
     999901    1    1    2    0    0 -0.70260473227E-01  0.68639299869E-01 -0.37394640505E-01  0.88625405315E+00  0.88000000000E+00 0.  1.
        -11    1    3    3    0    0  0.48401864625E-01 -0.26621357540E-01  0.19623382303E-01  0.58624017522E-01  0.51100000000E-03 0. -1.
         11    1    3    3    0    0  0.53545328370E-01 -0.18057422573E-01  0.27385424759E-02  0.56576792381E-01  0.51100000000E-03 0.  1.
</event>
<event>
 8    1  0.1041149E+005  0.1043930E+01  0.7957747E-01            NaN
         13   -1    0    0    0    0  0.00000000000E+00  0.00000000000E+00  0.74505805969E-08  0.10566000000E+00  0.10566000000E+00 0.  1.
     999900   -1    0    0    0    0 -0.00000000000E+00 -0.00000000000E+00 -0.74505805969E-08  0.93827000000E+00  0.93827000000E+00 0.  1.
     999902    2    1    2    0    0 -0.18737391019E-01 -0.50109116818E-03  0.15236408630E-01  0.10197744817E+01  0.10194883543E+01 0.  0.
     999903    2    3    3    0    0 -0.77731939776E-01  0.93678423782E-01  0.47811493703E-01  0.13218714858E+00  0.19225029915E-01 0.  0.
         14    1    1    2    0    0  0.18737391019E-01  0.50109116818E-03 -0.15236408630E-01  0.24155518263E-01  0.00000000000E+00 0. -1.
     999901    1    3    3    0    0  0.58994548757E-01 -0.94179514950E-01 -0.32575085073E-01  0.88758733316E+00  0.88000000000E+00 0.  1.
        -11    1    4    4    0    0 -0.56087661434E-01  0.57044813748E-01  0.24507750168E-01  0.83670947646E-01  0.51100000000E-03 0. -1.
         11    1    4    4    0    0 -0.21644278343E-01  0.36633610033E-01  0.23303743535E-01  0.48516200931E-01  0.51100000000E-03 0.  1.
</event>
<event>
 8    1  0.1041149E+005  0.1043930E+01  0.7957747E-01            NaN
         13   -1    0    0    0    0  0.00000000000E+00  0.00000000000E+00  0.74505805969E-08  0.10566000000E+00  0.10566000000E+00 0. -1.
     999900   -1    0    0    0    0 -0.00000000000E+00 -0.00000000000E+00 -0.74505805969E-08  0.93827000000E+00  0.93827000000E+00 0.  1.
     999902    2    1    2    0    0  0.74188688937E-02 -0.15720365542E-02 -0.21818540885E-01  0.10208310900E+01  0.10205697207E+01 0.  0.
     999903    2    3    3    0    0 -0.70965459607E-01 -0.64479269448E-01  0.83733356957E-01  0.12884307105E+00  0.19889425421E-01 0.  0.
         14    1    1    2    0    0 -0.74188688937E-02  0.15720365542E-02  0.21818540885E-01  0.23098909951E-01  0.00000000000E+00 0. -1.
     999901    1    3    3    0    0  0.78384328501E-01  0.62907232894E-01 -0.10555189784E+00  0.89198801900E+00  0.88000000000E+00 0.  1.
        -11    1    4    4    0    0 -0.58586863052E-01 -0.42542040263E-01  0.66583739876E-01  0.98366159064E-01  0.51100000000E-03 0. -1.
         11    1    4    4    0    0 -0.12378596555E-01 -0.21937229185E-01  0.17149617080E-01  0.30476911983E-01  0.51100000000E-03 0.  1.
</event>
<event>
 8    1  0.1041149E+005  0.1043930E+01  0.7957747E-01            NaN
         13   -1    0    0    0    0  0.00000000000E+00  0.00000000000E+00  0.74505805969E-08  0.10566000000E+00  0.10566000000E+00 0. -1.
     999900   -1    0    0    0    0 -0.00000000000E+00 -0.00000000000E+00 -0.74505805969E-08  0.93827000000E+00  0.93827000000E+00 0.  1.
     999902    2    1    2    0    0 -0.24333652739E-01  0.32756576829E-02  0.75848493933E-02  0.10182320131E+01  0.10179076805E+01 0.  0.
     999903    2    3    3    0    0 -0.45228994736E-01 -0.55998352085E-01 -0.10490915597E+00  0.12884743670E+00  0.20353219280E-01 0.  0.
         14    1    1    2    0    0  0.24333652739E-01 -0.32756576829E-02 -0.75848493933E-02  0.25697986871E-01  0.00000000000E+00 0.  1.
     999901    1    3    3    0    0  0.20895341996E-01  0.59274009768E-01  0.11249400537E+00  0.88938457643E+00  0.88000000000E+00 0. -1.
        -11    1    4    4    0    0 -0.33501485291E-01 -0.32320295718E-01 -0.52607396588E-01  0.70247778106E-01  0.51100000000E-03 0. -1.
         11    1    4    4    0    0 -0.11727509444E-01 -0.23678056367E-01 -0.52301759387E-01  0.58599658592E-01  0.51100000000E-03 0.  1.
</event>
<event>
 8    1  0.1041149E+005  0.1043930E+01  0.7957747E-01            NaN
         13   -1    0    0    0    0  0.00000000000E+00  0.00000000000E+00  0.74505805969E-08  0.10566000000E+00  0.10566000000E+00 0.  1.
     999900   -1    0    0    0    0 -0.00000000000E+00 -0.00000000000E+00 -0.74505805969E-08  0.93827000000E+00  0.93827000000E+00 0.  1.
     999902    2    1    2    0    0  0.12669251841E-01  0.14757621765E-01  0.14166595596E-01  0.10198677937E+01  0.10195838989E+01 0.  0.
     999903    2    3    3    0    0  0.12842485340E+00 -0.14202807498E-01  0.17086002236E-01  0.13181003165E+00  0.19679691584E-01 0.  0.
         14    1    1    2    0    0 -0.12669251841E-01 -0.14757621765E-01 -0.14166595596E-01  0.24062206323E-01  0.00000000000E+00 0. -1.
     999901    1    3    3    0    0 -0.11575560156E+00  0.28960429263E-01 -0.29194066405E-02  0.88805776202E+00  0.88000000000E+00 0.  1.
        -11    1    4    4    0    0  0.81027723863E-01 -0.15336476621E-01  0.37339413630E-02  0.82552425698E-01  0.51100000000E-03 0. -1.
         11    1    4    4    0    0  0.47397129535E-01  0.11336691228E-02  0.13352060873E-01  0.49257605955E-01  0.51100000000E-03 0.  1.
</event>
<event>
 8    1  0.1041149E+005  0.1043930E+01  0.7957747E-01            NaN
         13   -1    0    0    0    0  0.00000000000E+00  0.00000000000E+00  0.74505805969E-08  0.10566000000E+00  0.10566000000E+00 0. -1.
     999900   -1    0    0    0    0 -0.00000000000E+00 -0.00000000000E+00 -0.74505805969E-08  0.93827000000E+00  0.93827000000E+00 0. -1.
     999902    2    1    2    0    0 -0.76386989317E-02  0.11467714440E-01  0.12179912544E-01  0.10255395551E+01  0.10253746489E+01 0.  0.
     999903    2    3    3    0    0 -0.13294715822E+00 -0.14841083153E-01 -0.12863079103E-01  0.13592080849E+00  0.20342142227E-01 0.  0.
         14    1    1    2    0    0  0.76386989317E-02 -0.11467714440E-01 -0.12179912544E-01  0.18390444949E-01  0.00000000000E+00 0. -1.
     999901    1    3    3    0    0  0.12530845928E+00  0.26308797593E-01  0.25042991647E-01  0.88961874656E+00  0.88000000000E+00 0.  1.
        -11    1    4    4    0    0 -0.11104299443E+00 -0.15129466698E-01 -0.35905557685E-02  0.11212760850E+00  0.51100000000E-03 0.  1.
         11    1    4    4    0    0 -0.21904163781E-01  0.28838354504E-03 -0.92725233344E-02  0.23793199995E-01  0.51100000000E-03 0. -1.
</event>
<event>
 8    1  0.1041149E+005  0.1043930E+01  0.7957747E-01            NaN
         13   -1    0    0    0    0  0.00000000000E+00  0.00000000000E+00  0.74505805969E-08  0.10566000000E+00  0.10566000000E+00 0. -1.
     999900   -1    0    0    0    0 -0.00000000000E+00 -0.00000000000E+00 -0.74505805969E-08  0.93827000000E+00  0.93827000000E+00 0. -1.
     999902    2    1    2    0    0  0.15791679849E-02 -0.23427303488E-02 -0.26224604331E-01  0.10175536464E+01  0.10172117337E+01 0.  0.
     999903    2    3    3    0    0 -0.91975034417E-01 -0.86988960288E-01 -0.65611962062E-02  0.12833824918E+00  0.20029247091E-01 0.  0.
         14    1    1    2    0    0 -0.15791679849E-02  0.23427303488E-02  0.26224604331E-01  0.26376353602E-01  0.00000000000E+00 0. -1.
     999901    1    3    3    0    0  0.93554202402E-01  0.84646229940E-01 -0.19663408125E-01  0.88921539722E+00  0.88000000000E+00 0. -1.
        -11    1    4    4    0    0 -0.11214763897E-01 -0.14320469083E-01  0.55470968387E-02  0.19023095656E-01  0.51100000000E-03 0.  1.
         11    1    4    4    0    0 -0.80760270520E-01 -0.72668491206E-01 -0.12108293045E-01  0.10931515352E+00  0.51100000000E-03 0. -1.
</event>
<event>
 8    1  0.1041149E+005  0.1043930E+01  0.7957747E-01            NaN
         13   -1    0    0    0    0  0.00000000000E+00  0.00000000000E+00  0.74505805969E-08  0.10566000000E+00  0.10566000000E+00 0.  1.
     999900   -1    0    0    0    0 -0.00000000000E+00 -0.00000000000E+00 -0.74505805969E-08  0.93827000000E+00  0.93827000000E+00 0. -1.
     999902    2    1    2    0    0 -0.41032721000E-02  0.12034572986E-01  0.19709658333E-01  0.10204749703E+01  0.10202053845E+01 0.  0.
     999903    2    3    3    0    0 -0.75425192878E-02  0.12607028435E+00 -0.32092809752E-01  0.13159957539E+00  0.18381882731E-01 0.  0.
         14    1    1    2    0    0  0.41032721000E-02 -0.12034572986E-01 -0.19709658333E-01  0.23455029748E-01  0.00000000000E+00 0. -1.
     999901    1    3    3    0    0  0.34392471878E-02 -0.11403571136E+00  0.51802468085E-01  0.88887539486E+00  0.88000000000E+00 0.  1.
        -11    1    4    4    0    0  0.17875704868E-03  0.30940256938E-01 -0.15902187632E-01  0.34791840221E-01  0.51100000000E-03 0. -1.
         11    1    4    4    0    0 -0.77212763364E-02  0.95130027410E-01 -0.16190622120E-01  0.96807735171E-01  0.51100000000E-03 0.  1.
</event>
<event>
 8    1  0.1041149E+005  0.1043930E+01  0.7957747E-01            NaN
         13   -1    0    0    0    0  0.00000000000E+00  0.00000000000E+00  0.74505805969E-08  0.10566000000E+00  0.10566000000E+00 0. -1.
     999900   -1    0    0    0    0 -0.00000000000E+00 -0.00000000000E+00 -0.74505805969E-08  0.93827000000E+00  0.93827000000E+00 0. -1.
     999902    2    1    2    0    0 -0.13478564986E-01  0.39683075085E-02  0.19000738508E-01  0.10202985116E+01  0.10200248064E+01 0.  0.
     999903    2    3    3    0    0 -0.95988179087E-01 -0.16458993796E-01  0.88805817125E-01  0.13345136581E+00  0.20932388290E-01 0.  0.
         14    1    1    2    0    0  0.13478564986E-01 -0.39683075085E-02 -0.19000738508E-01  0.23631488366E-01  0.00000000000E+00 0.  1.
     999901    1    3    3    0    0  0.82509614102E-01  0.20427301305E-01 -0.69805078617E-01  0.88684714583E+00  0.88000000000E+00 0. -1.
        -11    1    4    4    0    0 -0.24134648650E-01 -0.91378081448E-02  0.34494491346E-01  0.43082616649E-01  0.51100000000E-03 0. -1.
         11    1    4    4    0    0 -0.71853530437E-01 -0.73211856512E-02  0.54311325780E-01  0.90368749159E-01  0.51100000000E-03 0.  1.
</event>
<event>
 8    1  0.1041149E+005  0.1043930E+01  0.7957747E-01            NaN
         13   -1    0    0    0    0  0.00000000000E+00  0.00000000000E+00  0.74505805969E-08  0.10566000000E+00  0.10566000000E+00 0. -1.
     999900   -1    0    0    0    0 -0.00000000000E+00 -0.00000000000E+00 -0.74505805969E-08  0.93827000000E+00  0.93827000000E+00 0.  1.
     999902    2    1    2    0    0 -0.99401395858E-02 -0.18502531681E-01  0.11208481305E-01  0.10201228560E+01  0.10198450182E+01 0.  0.
     999903    2    3    3    0    0 -0.85965046225E-02 -0.69710205012E-01 -0.10825393625E+00  0.13057504929E+00  0.19937808533E-01 0.  0.
         14    1    1    2    0    0  0.99401395858E-02  0.18502531681E-01 -0.11208481305E-01  0.23807144027E-01  0.00000000000E+00 0.  1.
     999901    1    3    3    0    0 -0.13436349633E-02  0.51207673331E-01  0.11946241756E+00  0.88954780668E+00  0.88000000000E+00 0. -1.
        -11    1    4    4    0    0 -0.46246246035E-02 -0.28706446031E-01 -0.62930937886E-01  0.69325401266E-01  0.51100000000E-03 0. -1.
         11    1    4    4    0    0 -0.39718800190E-02 -0.41003758981E-01 -0.45322998365E-01  0.61249648026E-01  0.51100000000E-03 0.  1.
</event>
<event>
 8    1  0.1041149E+005  0.1043930E+01  0.7957747E-01            NaN
         13   -1    0    0    0    0  0.00000000000E+00  0.00000000000E+00  0.74505805969E-08  0.10566000000E+00  0.10566000000E+00 0.  1.
     999900   -1    0    0    0    0 -0.00000000000E+00 -0.00000000000E+00 -0.74505805969E-08  0.93827000000E+00  0.93827000000E+00 0.  1.
     999902    2    1    2    0    0 -0.14788832138E-01  0.15156420351E-01  0.11093134258E-01  0.10200242630E+01  0.10197440918E+01 0.  0.
     999903    2    3    3    0    0 -0.11139907303E+00 -0.55001856563E-01 -0.34992514802E-01  0.13076636480E+00  0.20985908935E-01 0.  0.
         14    1    1    2    0    0  0.14788832138E-01 -0.15156420351E-01 -0.11093134258E-01  0.23905737001E-01  0.00000000000E+00 0. -1.
     999901    1    3    3    0    0  0.96610240889E-01  0.70158276914E-01  0.46085649060E-01  0.88925789820E+00  0.88000000000E+00 0. -1.
        -11    1    4    4    0    0 -0.53013906281E-01 -0.16753594759E-01 -0.92164545971E-02  0.56359217107E-01  0.51100000000E-03 0. -1.
         11    1    4    4    0    0 -0.58385166745E-01 -0.38248261803E-01 -0.25776060205E-01  0.74407147691E-01  0.51100000000E-03 0.  1.
</event>
<event>
 8    1  0.1041149E+005  0.1043930E+01  0.7957747E-01            NaN
         13   -1    0    0    0    0  0.00000000000E+00  0.00000000000E+00  0.74505805969E-08  0.10566000000E+00  0.10566000000E+00 0. -1.
     999900   -1    0    0    0    0 -0.00000000000E+00 -0.00000000000E+00 -0.74505805969E-08  0.93827000000E+00  0.93827000000E+00 0. -1.
     999902    2    1    2    0    0  0.18681075695E-01 -0.94817483917E-02  0.11347869891E-01  0.10201043774E+01  0.10198261031E+01 0.  0.
     999903    2    3    3    0    0  0.91983692594E-01 -0.88553014423E-01 -0.29086993950E-01  0.13260197347E+00  0.20846920244E-01 0.  0.
         14    1    1    2    0    0 -0.18681075695E-01  0.94817483917E-02 -0.11347869891E-01  0.23825622610E-01  0.00000000000E+00 0. -1.
     999901    1    3    3    0    0 -0.73302616899E-01  0.79071266031E-01  0.40434863841E-01  0.88750240392E+00  0.88000000000E+00 0. -1.
        -11    1    4    4    0    0  0.46321066168E-01 -0.58836165841E-01 -0.16245217247E-01  0.76625738406E-01  0.51100000000E-03 0. -1.
         11    1    4    4    0    0  0.45662626426E-01 -0.29716848582E-01 -0.12841776703E-01  0.55976235061E-01  0.51100000000E-03 0.  1.
</event>
<event>
 8    1  0.1041149E+005  0.1043930E+01  0.7957747E-01            NaN
         13   -1    0    0    0    0  0.00000000000E+00  0.00000000000E+00  0.74505805969E-08  0.10566000000E+00  0.10566000000E+00 0. -1.
     999900   -1    0    0    0    0 -0.00000000000E+00 -0.00000000000E+00 -0.74505805969E-08  0.93827000000E+00  0.93827000000E+00 0.  1.
     999902    2    1    2    0    0  0.20126194728E-01  0.10400048605E-01 -0.10536013166E-01  0.10189453587E+01  0.10186389997E+01 0.  0.
     999903    2    3    3    0    0 -0.10139754366E-01 -0.10634120557E+00 -0.68836220654E-01  0.12880859268E+00  0.21022884085E-01 0.  0.
         14    1    1    2    0    0 -0.20126194728E-01 -0.10400048605E-01  0.10536013166E-01  0.24984641255E-01  0.00000000000E+00 0. -1.
     999901    1    3    3    0    0  0.30265949094E-01  0.11674125417E+00  0.58300207488E-01  0.89013676606E+00  0.88000000000E+00 0. -1.
        -11    1    4    4    0    0 -0.11125525473E-01 -0.24691564331E-01 -0.19891069213E-01  0.33606047396E-01  0.51100000000E-03 0. -1.
         11    1    4    4    0    0  0.98577110784E-03 -0.81649641236E-01 -0.48945151442E-01  0.95202545288E-01  0.51100000000E-03 0.  1.
</event>
<event>
 8    1  0.1041149E+005  0.1043930E+01  0.7957747E-01            NaN
         13   -1    0    0    0    0  0.00000000000E+00  0.00000000000E+00  0.74505805969E-08  0.10566000000E+00  0.10566000000E+00 0.  1.
     999900   -1    0    0    0    0 -0.00000000000E+00 -0.00000000000E+00 -0.74505805969E-08  0.93827000000E+00  0.93827000000E+00 0.  1.
     999902    2    1    2    0    0  0.21975466910E-01 -0.59759533103E-02 -0.13189370466E-02  0.10211183197E+01  0.10208634826E+01 0.  0.
     999903    2    3    3    0    0 -0.22672347132E-01 -0.12042173918E+00  0.41123503951E-01  0.13157201622E+00  0.24589068395E-01 0.  0.
         14    1    1    2    0    0 -0.21975466910E-01  0.59759533103E-02  0.13189370466E-02  0.22811680315E-01  0.00000000000E+00 0. -1.
     999901    1    3    3    0    0  0.44647814041E-01  0.11444578587E+00 -0.42442440997E-01  0.88954630346E+00  0.88000000000E+00 0.  1.
        -11    1    4    4    0    0 -0.12573815328E-01 -0.47564817842E-01  0.45088809612E-02  0.49407528341E-01  0.51100000000E-03 0. -1.
         11    1    4    4    0    0 -0.10098531803E-01 -0.72856921338E-01  0.36614622990E-01  0.82164487883E-01  0.51100000000E-03 0.  1.
</event>
<event>
 8    1  0.1041149E+005  0.1043930E+01  0.7957747E-01            NaN
         13   -1    0    0    0    0  0.00000000000E+00  0.00000000000E+00  0.74505805969E-08  0.10566000000E+00  0.10566000000E+00 0. -1.
     999900   -1    0    0    0    0 -0.00000000000E+00 -0.00000000000E+00 -0.74505805969E-08  0.93827000000E+00  0.93827000000E+00 0.  1.
     999902    2    1    2    0    0 -0.51601204344E-02  0.21485303453E-01 -0.19322373887E-02  0.10217494083E+01  0.10215086268E+01 0.  0.
     999903    2    3    3    0    0 -0.72959809170E-01  0.50423354525E-01 -0.97744092101E-01  0.13348474047E+00  0.19965469236E-01 0.  0.
         14    1    1    2    0    0  0.51601204344E-02 -0.21485303453E-01  0.19322373887E-02  0.22180591711E-01  0.00000000000E+00 0. -1.
     999901    1    3    3    0    0  0.67799688736E-01 -0.28938051073E-01  0.95811854712E-01  0.88826466782E+00  0.88000000000E+00 0. -1.
        -11    1    4    4    0    0 -0.60309351108E-01  0.46708647024E-01 -0.90744891639E-01  0.11854877485E+00  0.51100000000E-03 0. -1.
         11    1    4    4    0    0 -0.12650458062E-01  0.37147075011E-02 -0.69992004620E-02  0.14935965623E-01  0.51100000000E-03 0.  1.
</event>
<event>
 8    1  0.1041149E+005  0.1043930E+01  0.7957747E-01            NaN
         13   -1    0    0    0    0  0.00000000000E+00  0.00000000000E+00  0.74505805969E-08  0.10566000000E+00  0.10566000000E+00 0. -1.
     999900   -1    0    0    0    0 -0.00000000000E+00 -0.00000000000E+00 -0.74505805969E-08  0.93827000000E+00  0.93827000000E+00 0. -1.
     999902    2    1    2    0    0  0.13146060647E-01 -0.67037025792E-02  0.19599169324E-01  0.10193966354E+01  0.10191013759E+01 0.  0.
     999903    2    3    3    0    0  0.24938084721E-01 -0.83609908580E-02  0.12840465625E+00  0.13261569720E+00  0.20182991830E-01 0.  0.
         14    1    1    2    0    0 -0.13146060647E-01  0.67037025792E-02 -0.19599169324E-01  0.24533364567E-01  0.00000000000E+00 0.  1.
     999901    1    3    3    0    0 -0.11792024074E-01  0.16572882787E-02 -0.10880548692E+00  0.88678093824E+00  0.88000000000E+00 0. -1.
        -11    1    4    4    0    0  0.83143413977E-02 -0.36712073096E-02  0.12687208686E-01  0.15615134365E-01  0.51100000000E-03 0.  1.
         11    1    4    4    0    0  0.16623743323E-01 -0.46897835484E-02  0.11571744756E+00  0.11700056283E+00  0.51100000000E-03 0. -1.
</event>
<event>
 8    1  0.1041149E+005  0.1043930E+01  0.7957747E-01            NaN
         13   -1    0    0    0    0  0.00000000000E+00  0.00000000000E+00  0.74505805969E-08  0.10566000000E+00  0.10566000000E+00 0. -1.
     999900   -1    0    0    0    0 -0.00000000000E+00 -0.00000000000E+00 -0.74505805969E-08  0.93827000000E+00  0.93827000000E+00 0. -1.
     999902    2    1    2    0    0  0.20714939771E-03  0.26368862097E-02  0.23291214625E-01  0.10204890794E+01  0.10202198216E+01 0.  0.
     999903    2    3    3    0    0 -0.11790643067E+00  0.34722229117E-01  0.41194239044E-01  0.13183796377E+00  0.24015073863E-01 0.  0.
         14    1    1    2    0    0 -0.20714939771E-03 -0.26368862097E-02 -0.23291214625E-01  0.23440920597E-01  0.00000000000E+00 0.  1.
     999901    1    3    3    0    0  0.11811358007E+00 -0.32085342907E-01 -0.17903024420E-01  0.88865111563E+00  0.88000000000E+00 0.  1.
        -11    1    4    4    0    0 -0.67112237476E-01  0.24649373472E-01  0.35241363316E-01  0.79711096097E-01  0.51100000000E-03 0.  1.
         11    1    4    4    0    0 -0.50794193196E-01  0.10072855645E-01  0.59528757286E-02  0.52126867676E-01  0.51100000000E-03 0. -1.
</event>
<event>
 8    1  0.1041149E+005  0.1043930E+01  0.7957747E-01            NaN
         13   -1    0    0    0    0  0.00000000000E+00  0.00000000000E+00  0.74505805969E-08  0.10566000000E+00  0.10566000000E+00 0.  1.
     999900   -1    0    0    0    0 -0.00000000000E+00 -0.00000000000E+00 -0.74505805969E-08  0.93827000000E+00  0.93827000000E+00 0.  1.
     999902    2    1    2    0    0 -0.89172890316E-02 -0.73785585954E-02  0.19464834478E-01  0.10212840080E+01  0.10210329006E+01 0.  0.
     999903    2    3    3    0    0  0.51463213348E-01 -0.69521315083E-01  0.99554248717E-01  0.13340910608E+00  0.20131208842E-01 0.  0.
         14    1    1    2    0    0  0.89172890316E-02  0.73785585954E-02 -0.19464834478E-01  0.22645991960E-01  0.00000000000E+00 0. -1.
     999901    1    3    3    0    0 -0.60380502379E-01  0.62142756487E-01 -0.80089414239E-01  0.88787490196E+00  0.88000000000E+00 0.  1.
        -11    1    4    4    0    0  0.25870183804E-01 -0.20964224576E-01  0.30158019238E-01  0.44928079944E-01  0.51100000000E-03 0. -1.
         11    1    4    4    0    0  0.25593029544E-01 -0.48557090507E-01  0.69396229478E-01  0.88481026139E-01  0.51100000000E-03 0.  1.
</event>
<event>
 8    1  0.1041149E+005  0.1043930E+01  0.7957747E-01            NaN
         13   -1    0    0    0    0  0.00000000000E+00  0.00000000000E+00  0.74505805969E-08  0.10566000000E+00  0.10566000000E+00 0. -1.
     999900   -1    0    0    0    0 -0.00000000000E+00 -0.00000000000E+00 -0.74505805969E-08  0.93827000000E+00  0.93827000000E+00 0. -1.
     999902    2    1    2    0    0  0.64790861703E-02  0.22050417206E-01  0.68313574724E-02  0.10199536178E+01  0.10196717686E+01 0.  0.
     999903    2    3    3    0    0 -0.12548028345E+00 -0.16602635819E-01 -0.11690405637E-01  0.12908303832E+00  0.22468114002E-01 0.  0.
         14    1    1    2    0    0 -0.64790861703E-02 -0.22050417206E-01 -0.68313574724E-02  0.23976382160E-01  0.00000000000E+00 0.  1.
     999901    1    3    3    0    0  0.13195936962E+00  0.38653053026E-01  0.18521763109E-01  0.89087057952E+00  0.88000000000E+00 0. -1.
        -11    1    4    4    0    0 -0.49204263526E-01  0.30530820218E-02 -0.99426424776E-02  0.50294116151E-01  0.51100000000E-03 0.  1.
         11    1    4    4    0    0 -0.76276019928E-01 -0.19655717841E-01 -0.17477631591E-02  0.78788922172E-01  0.51100000000E-03 0. -1.
</event>
<event>
 8    1  0.1041149E+005  0.1043930E+01  0.7957747E-01            NaN
         13   -1    0    0    0    0  0.00000000000E+00  0.00000000000E+00  0.74505805969E-08  0.10566000000E+00  0.10566000000E+00 0.  1.
     999900   -1    0    0    0    0 -0.00000000000E+00 -0.00000000000E+00 -0.74505805969E-08  0.93827000000E+00  0.93827000000E+00 0.  1.
     999902    2    1    2    0    0  0.14865131181E-01  0.17463427491E-01  0.50364276671E-02  0.10204500292E+01  0.10201798631E+01 0.  0.
     999903    2    3    3    0    0  0.33494410482E-01  0.12720395356E+00  0.11930039112E-01  0.13341138575E+00  0.18802943375E-01 0.  0.
         14    1    1    2    0    0 -0.14865131181E-01 -0.17463427491E-01 -0.50364276671E-02  0.23479970792E-01  0.00000000000E+00 0. -1.
     999901    1    3    3    0    0 -0.18629279301E-01 -0.10974052607E+00 -0.68936114448E-02  0.88703864346E+00  0.88000000000E+00 0.  1.
        -11    1    4    4    0    0  0.14484217206E-01  0.76654637760E-01 -0.39940087983E-03  0.78013759557E-01  0.51100000000E-03 0.  1.
         11    1    4    4    0    0  0.19010193276E-01  0.50549315801E-01  0.12329439992E-01  0.55397626193E-01  0.51100000000E-03 0. -1.
</event>
<event>
 8    1  0.1041149E+005  0.1043930E+01  0.7957747E-01            NaN
         13   -1    0    0    0    0  0.00000000000E+00  0.00000000000E+00  0.74505805969E-08  0.10566000000E+00  0.10566000000E+00 0. -1.
     999900   -1    0    0    0    0 -0.00000000000E+00 -0.00000000000E+00 -0.74505805969E-08  0.93827000000E+00  0.93827000000E+00 0.  1.
     999902    2    1    2    0    0  0.26343145859E-01 -0.28298463782E-02 -0.19808728013E-02  0.10173613489E+01  0.10170143662E+01 0.  0.
     999903    2    3    3    0    0  0.82712333179E-01  0.97025352736E-01 -0.13731316106E-01  0.12984423977E+00  0.20389419490E-01 0.  0.
         14    1    1    2    0    0 -0.26343145859E-01  0.28298463782E-02  0.19808728013E-02  0.26568651101E-01  0.00000000000E+00 0.  1.
     999901    1    3    3    0    0 -0.56369187320E-01 -0.99855199114E-01  0.11750443305E-01  0.88751710912E+00  0.88000000000E+00 0. -1.
        -11    1    4    4    0    0  0.28602241386E-01  0.31426354895E-01  0.49344816583E-02  0.42782171807E-01  0.51100000000E-03 0. -1.
         11    1    4    4    0    0  0.54110091793E-01  0.65598997842E-01 -0.18665797765E-01  0.87062067968E-01  0.51100000000E-03 0.  1.
</event>
<event>
 8    1  0.1041149E+005  0.1043930E+01  0.7957747E-01            NaN
         13   -1    0    0    0    0  0.00000000000E+00  0.00000000000E+00  0.74505805969E-08  0.10566000000E+00  0.10566000000E+00 0. -1.
     999900   -1    0    0    0    0 -0.00000000000E+00 -0.00000000000E+00 -0.74505805969E-08  0.93827000000E+00  0.93827000000E+00 0.  1.
     999902    2    1    2    0    0 -0.57541051998E-03 -0.26497354641E-01  0.95701388383E-02  0.10157514894E+01  0.10153605566E+01 0.  0.
     999903    2    3    3    0    0  0.57850773197E-01  0.89408149515E-01 -0.59398275574E-01  0.12356073235E+00  0.19964224989E-01 0.  0.
         14    1    1    2    0    0  0.57541051998E-03  0.26497354641E-01 -0.95701388383E-02  0.28178510564E-01  0.00000000000E+00 0. -1.
     999901    1    3    3    0    0 -0.58426183717E-01 -0.11590550416E+00  0.68968414412E-01  0.89219075708E+00  0.88000000000E+00 0. -1.
        -11    1    4    4    0    0  0.53506409715E-01  0.71998552117E-01 -0.54463371738E-01  0.10494402017E+00  0.51100000000E-03 0. -1.
         11    1    4    4    0    0  0.43443634815E-02  0.17409597398E-01 -0.49349038360E-02  0.18616712183E-01  0.51100000000E-03 0.  1.
</event>
<event>
 8    1  0.1041149E+005  0.1043930E+01  0.7957747E-01            NaN
         13   -1    0    0    0    0  0.00000000000E+00  0.00000000000E+00  0.74505805969E-08  0.10566000000E+00  0.10566000000E+00 0. -1.
     999900   -1    0    0    0    0 -0.00000000000E+00 -0.00000000000E+00 -0.74505805969E-08  0.93827000000E+00  0.93827000000E+00 0. -1.
     999902    2    1    2    0    0 -0.16390808924E-02  0.84932076465E-02  0.22529532549E-01  0.10197970143E+01  0.10195114268E+01 0.  0.
     999903    2    3    3    0    0  0.66706415976E-01  0.44670864904E-03 -0.10702956732E+00  0.12765273591E+00  0.19747081418E-01 0.  0.
         14    1    1    2    0    0  0.16390808924E-02 -0.84932076465E-02 -0.22529532549E-01  0.24132985708E-01  0.00000000000E+00 0.  1.
     999901    1    3    3    0    0 -0.68345496868E-01  0.80464989975E-02  0.12955909987E+00  0.89214427838E+00  0.88000000000E+00 0.  1.
        -11    1    4    4    0    0  0.28902368000E-01 -0.11187768405E-02 -0.64716526114E-01  0.70887857993E-01  0.51100000000E-03 0.  1.
         11    1    4    4    0    0  0.37804047976E-01  0.15654854896E-02 -0.42313041205E-01  0.56764877919E-01  0.51100000000E-03 0. -1.
</event>
<event>
 8    1  0.1041149E+005  0.1043930E+01  0.7957747E-01            NaN
         13   -1    0    0    0    0  0.00000000000E+00  0.00000000000E+00  0.74505805969E-08  0.10566000000E+00  0.10566000000E+00 0.  1.
     999900   -1    0    0    0    0 -0.00000000000E+00 -0.00000000000E+00 -0.74505805969E-08  0.93827000000E+00  0.93827000000E+00 0. -1.
     999902    2    1    2    0    0  0.12425963662E-01 -0.29880073590E-02 -0.19179276937E-01  0.10208827133E+01  0.10206225242E+01 0.  0.
     999903    2    3    3    0    0 -0.53460049321E-02  0.52955325734E-01 -0.12040339845E+00  0.13313735444E+00  0.19892976063E-01 0.  0.
         14    1    1    2    0    0 -0.12425963662E-01  0.29880073590E-02  0.19179276937E-01  0.23047286711E-01  0.00000000000E+00 0. -1.
     999901    1    3    3    0    0  0.17771968594E-01 -0.55943333093E-01  0.10122412151E+00  0.88774535885E+00  0.88000000000E+00 0.  1.
        -11    1    4    4    0    0  0.51200751935E-02  0.45697890450E-02 -0.99679167865E-02  0.12112746508E-01  0.51100000000E-03 0.  1.
         11    1    4    4    0    0 -0.10466080126E-01  0.48385536689E-01 -0.11043548166E+00  0.12102460793E+00  0.51100000000E-03 0. -1.
</event>
<event>
 8    1  0.1041149E+005  0.1043930E+01  0.7957747E-01            NaN
         13   -1    0    0    0    0  0.00000000000E+00  0.00000000000E+00  0.74505805969E-08  0.10566000000E+00  0.10566000000E+00 0. -1.
     999900   -1    0    0    0    0 -0.00000000000E+00 -0.00000000000E+00 -0.74505805969E-08  0.93827000000E+00  0.93827000000E+00 0. -1.
     999902    2    1    2    0    0  0.18457757671E-01  0.47154705108E-02 -0.15355095125E-01  0.10194615831E+01  0.10191679037E+01 0.  0.
     999903    2    3    3    0    0 -0.64256097108E-01 -0.92656727113E-02  0.10757617117E+00  0.12696556047E+00  0.18246156728E-01 0.  0.
         14    1    1    2    0    0 -0.18457757671E-01 -0.47154705108E-02  0.15355095125E-01  0.24468416922E-01  0.00000000000E+00 0. -1.
     999901    1    3    3    0    0  0.82713854779E-01  0.13981143222E-01 -0.12293126630E+00  0.89249602261E+00  0.88000000000E+00 0. -1.
        -11    1    4    4    0    0 -0.37144450371E-01  0.29386033911E-02  0.52593452440E-01  0.64456791293E-01  0.51100000000E-03 0.  1.
         11    1    4    4    0    0 -0.27111646738E-01 -0.12204276102E-01  0.54982718731E-01  0.62508769177E-01  0.51100000000E-03 0. -1.
</event>
<event>
 8    1  0.1041149E+005  0.1043930E+01  0.7957747E-01            NaN
         13   -1    0    0    0    0  0.00000000000E+00  0.00000000000E+00  0.74505805969E-08  0.10566000000E+00  0.10566000000E+00 0. -1.
     999900   -1    0    0    0    0 -0.00000000000E+00 -0.00000000000E+00 -0.74505805969E-08  0.93827000000E+00  0.93827000000E+00 0. -1.
     999902    2    1    2    0    0 -0.22766390786E-01 -0.62546415194E-02 -0.60137639228E-02  0.10195662062E+01  0.10192750632E+01 0.  0.
     999903    2    3    3    0    0  0.63192603846E-01 -0.93644054676E-01 -0.59883437381E-01  0.12943823791E+00  0.20142422954E-01 0.  0.
         14    1    1    2    0    0  0.22766390786E-01  0.62546415194E-02  0.60137639228E-02  0.24363793762E-01  0.00000000000E+00 0. -1.
     999901    1    3    3    0    0 -0.85958994632E-01  0.87389413156E-01  0.53869673459E-01  0.89012796833E+00  0.88000000000E+00 0.  1.
        -11    1    4    4    0    0  0.13178864666E-01 -0.24267478061E-01 -0.57264725863E-02  0.28207207848E-01  0.51100000000E-03 0.  1.
         11    1    4    4    0    0  0.50013739180E-01 -0.69376576615E-01 -0.54156964795E-01  0.10123103006E+00  0.51100000000E-03 0. -1.
</event>
<event>
 7    1  0.1041149E+005  0.1043930E+01  0.7957747E-01            NaN
         13   -1    0    0    0    0  0.00000000000E+00  0.00000000000E+00  0.74505805969E-08  0.10566000000E+00  0.10566000000E+00 0.  1.
     999900   -1    0    0    0    0 -0.00000000000E+00 -0.00000000000E+00 -0.74505805969E-08  0.93827000000E+00  0.93827000000E+00 0.  1.
     999903    2    1    2    0    0 -0.52102914016E-01 -0.92259143253E-01  0.10499076682E-01  0.10834377874E+00  0.20041971427E-01 0.  0.
         14    1    1    2    0    0 -0.26602018420E-01  0.65089923426E-02  0.37719733389E-01  0.46613438537E-01  0.00000000000E+00 0.  1.
     999901    1    1    2    0    0  0.78704932436E-01  0.85750150910E-01 -0.48218810070E-01  0.88897278272E+00  0.88000000000E+00 0.  1.
        -11    1    3    3    0    0 -0.29671454980E-01 -0.45277057554E-01 -0.40424460164E-02  0.54286367277E-01  0.51100000000E-03 0.  1.
         11    1    3    3    0    0 -0.22431459036E-01 -0.46982085699E-01  0.14541522698E-01  0.54057411467E-01  0.51100000000E-03 0. -1.
</event>
<event>
 8    1  0.1041149E+005  0.1043930E+01  0.7957747E-01            NaN
         13   -1    0    0    0    0  0.00000000000E+00  0.00000000000E+00  0.74505805969E-08  0.10566000000E+00  0.10566000000E+00 0. -1.
     999900   -1    0    0    0    0 -0.00000000000E+00 -0.00000000000E+00 -0.74505805969E-08  0.93827000000E+00  0.93827000000E+00 0. -1.
     999902    2    1    2    0    0  0.15012071387E-01  0.15205317035E-01  0.41747067771E-02  0.10221586397E+01  0.10219267550E+01 0.  0.
     999903    2    3    3    0    0  0.13548420852E-01  0.84920986923E-01 -0.10001972600E+00  0.13327231583E+00  0.19037616736E-01 0.  0.
         14    1    1    2    0    0 -0.15012071387E-01 -0.15205317035E-01 -0.41747067771E-02  0.21771360319E-01  0.00000000000E+00 0. -1.
     999901    1    3    3    0    0  0.14636505350E-02 -0.69715669888E-01  0.10419443278E+00  0.88888632385E+00  0.88000000000E+00 0.  1.
        -11    1    4    4    0    0  0.11794707874E-01  0.61309630780E-01 -0.84075796003E-01  0.10472338113E+00  0.51100000000E-03 0. -1.
         11    1    4    4    0    0  0.17537129774E-02  0.23611356143E-01 -0.15943929998E-01  0.28548934707E-01  0.51100000000E-03 0.  1.
</event>
<event>
 8    1  0.1041149E+005  0.1043930E+01  0.7957747E-01            NaN
         13   -1    0    0    0    0  0.00000000000E+00  0.00000000000E+00  0.74505805969E-08  0.10566000000E+00  0.10566000000E+00 0.  1.
     999900   -1    0    0    0    0 -0.00000000000E+00 -0.00000000000E+00 -0.74505805969E-08  0.93827000000E+00  0.93827000000E+00 0.  1.
     999902    2    1    2    0    0 -0.33895502504E-02 -0.14248449779E-01 -0.19047140286E-01  0.10199029127E+01  0.10196198558E+01 0.  0.
     999903    2    3    3    0    0  0.31598857927E-01 -0.56267534938E-01 -0.11471029487E+00  0.13303131466E+00  0.19348271829E-01 0.  0.
         14    1    1    2    0    0  0.33895502504E-02  0.14248449779E-01  0.19047140286E-01  0.24027087320E-01  0.00000000000E+00 0.  1.
     999901    1    3    3    0    0 -0.34988408177E-01  0.42019085158E-01  0.95663154580E-01  0.88687159802E+00  0.88000000000E+00 0. -1.
        -11    1    4    4    0    0  0.12442950113E-01 -0.23278042892E-01 -0.29018478783E-01  0.39230441245E-01  0.51100000000E-03 0.  1.
         11    1    4    4    0    0  0.19155907813E-01 -0.32989492046E-01 -0.85691816082E-01  0.93800873418E-01  0.51100000000E-03 0. -1.
</event>
<event>
 8    1  0.1041149E+005  0.1043930E+01  0.7957747E-01            NaN
         13   -1    0    0    0    0  0.00000000000E+00  0.00000000000E+00  0.74505805969E-08  0.10566000000E+00  0.10566000000E+00 0.  1.
     999900   -1    0    0    0    0 -0.00000000000E+00 -0.00000000000E+00 -0.74505805969E-08  0.93827000000E+00  0.93827000000E+00 0. -1.
     999902    2    1    2    0    0  0.24227040256E-01 -0.96034286007E-02  0.21049383754E-02  0.10177841383E+01  0.10174482523E+01 0.  0.
     999903    2    3    3    0    0  0.29712648476E-01 -0.20847969433E-01  0.12255175330E+00  0.12949141240E+00  0.20775330067E-01 0.  0.
         14    1    1    2    0    0 -0.24227040256E-01  0.96034286007E-02 -0.21049383754E-02  0.26145861738E-01  0.00000000000E+00 0. -1.
     999901    1    3    3    0    0 -0.54856082204E-02  0.11244540832E-01 -0.12044681492E+00  0.88829272586E+00  0.88000000000E+00 0. -1.
        -11    1    4    4    0    0 -0.65569295566E-03 -0.17934231588E-02  0.32559395466E-01  0.32619344782E-01  0.51100000000E-03 0. -1.
         11    1    4    4    0    0  0.30368341432E-01 -0.19054546274E-01  0.89992357833E-01  0.96872067617E-01  0.51100000000E-03 0.  1.
</event>
<event>
 8    1  0.1041149E+005  0.1043930E+01  0.7957747E-01            NaN
         13   -1    0    0    0    0  0.00000000000E+00  0.00000000000E+00  0.74505805969E-08  0.10566000000E+00  0.10566000000E+00 0. -1.
     999900   -1    0    0    0    0 -0.00000000000E+00 -0.00000000000E+00 -0.74505805969E-08  0.93827000000E+00  0.93827000000E+00 0. -1.
     999902    2    1    2    0    0 -0.28299394666E-02  0.18508303598E-01  0.85282491024E-02  0.10233558198E+01  0.10231489808E+01 0.  0.
     999903    2    3    3    0    0  0.10796584236E+00  0.29908377462E-01 -0.68850780816E-01  0.13296647728E+00  0.19710908174E-01 0.  0.
         14    1    1    2    0    0  0.28299394666E-02 -0.18508303598E-01 -0.85282491024E-02  0.20574180232E-01  0.00000000000E+00 0.  1.
     999901    1    3    3    0    0 -0.11079578183E+00 -0.11400073864E-01  0.77379029918E-01  0.89038934249E+00  0.88000000000E+00 0.  1.
        -11    1    4    4    0    0  0.87168728912E-02 -0.28841933528E-02 -0.47579350852E-02  0.10353816281E-01  0.51100000000E-03 0. -1.
         11    1    4    4    0    0  0.99248969469E-01  0.32792570815E-01 -0.64092845730E-01  0.12261266099E+00  0.51100000000E-03 0.  1.
</event>
<event>
 8    1  0.1041149E+005  0.1043930E+01  0.7957747E-01            NaN
         13   -1    0    0    0    0  0.00000000000E+00  0.00000000000E+00  0.74505805969E-08  0.10566000000E+00  0.10566000000E+00 0. -1.
     999900   -1    0    0    0    0 -0.00000000000E+00 -0.00000000000E+00 -0.74505805969E-08  0.93827000000E+00  0.93827000000E+00 0.  1.
     999902    2    1    2    0    0 -0.11673322271E-01 -0.47241722753E-02 -0.20582962255E-01  0.10198002965E+01  0.10195147876E+01 0.  0.
     999903    2    3    3    0    0 -0.95771568270E-01  0.70663483448E-01  0.48007190898E-01  0.12993490064E+00  0.20319125083E-01 0.  0.
         14    1    1    2    0    0  0.11673322271E-01  0.47241722753E-02  0.20582962255E-01  0.24129703515E-01  0.00000000000E+00 0. -1.
     999901    1    3    3    0    0  0.84098245999E-01 -0.75387655723E-01 -0.68590153154E-01  0.88986539585E+00  0.88000000000E+00 0.  1.
        -11    1    4    4    0    0 -0.47944845905E-01  0.22932987896E-01  0.19958226616E-01  0.56773427881E-01  0.51100000000E-03 0. -1.
         11    1    4    4    0    0 -0.47826722365E-01  0.47730495551E-01  0.28048964282E-01  0.73161472758E-01  0.51100000000E-03 0.  1.
</event>
<event>
 8    1  0.1041149E+005  0.1043930E+01  0.7957747E-01            NaN
         13   -1    0    0    0    0  0.00000000000E+00  0.00000000000E+00  0.74505805969E-08  0.10566000000E+00  0.10566000000E+00 0.  1.
     999900   -1    0    0    0    0 -0.00000000000E+00 -0.00000000000E+00 -0.74505805969E-08  0.93827000000E+00  0.93827000000E+00 0.  1.
     999902    2    1    2    0    0  0.57883915535E-02  0.15361866425E-01 -0.17817275738E-01  0.10197029958E+01  0.10194151519E+01 0.  0.
     999903    2    3    3    0    0  0.11652069811E+00  0.38369428293E-01 -0.44500489490E-01  0.13206400078E+00  0.20281040941E-01 0.  0.
         14    1    1    2    0    0 -0.57883915535E-02 -0.15361866425E-01  0.17817275738E-01  0.24227004181E-01  0.00000000000E+00 0.  1.
     999901    1    3    3    0    0 -0.11073230656E+00 -0.23007561868E-01  0.26683213751E-01  0.88763899504E+00  0.88000000000E+00 0.  1.
        -11    1    4    4    0    0  0.25869225469E-01  0.15265056241E-01 -0.17172236030E-01  0.34603259669E-01  0.51100000000E-03 0. -1.
         11    1    4    4    0    0  0.90651472641E-01  0.23104372052E-01 -0.27328253460E-01  0.97460741111E-01  0.51100000000E-03 0.  1.
</event>
<event>
 8    1  0.1041149E+005  0.1043930E+01  0.7957747E-01            NaN
         13   -1    0    0    0    0  0.00000000000E+00  0.00000000000E+00  0.74505805969E-08  0.10566000000E+00  0.10566000000E+00 0.  1.
     999900   -1    0    0    0    0 -0.00000000000E+00 -0.00000000000E+00 -0.74505805969E-08  0.93827000000E+00  0.93827000000E+00 0.  1.
     999902    2    1    2    0    0  0.10771607583E-02  0.19944475552E-01  0.94795881016E-02  0.10218210658E+01  0.10215818546E+01 0.  0.
     999903    2    3    3    0    0 -0.72653639755E-01 -0.35511698047E-02 -0.10666738980E+00  0.13082252666E+00  0.21105431986E-01 0.  0.
         14    1    1    2    0    0 -0.10771607583E-02 -0.19944475552E-01 -0.94795881016E-02  0.22108934187E-01  0.00000000000E+00 0. -1.
     999901    1    3    3    0    0  0.73730800514E-01  0.23495645356E-01  0.11614697790E+00  0.89099853915E+00  0.88000000000E+00 0. -1.
        -11    1    4    4    0    0 -0.39757621843E-01  0.48347444563E-02 -0.71405857912E-01  0.81872467373E-01  0.51100000000E-03 0. -1.
         11    1    4    4    0    0 -0.32896017912E-01 -0.83859142610E-02 -0.35261531884E-01  0.48950059288E-01  0.51100000000E-03 0.  1.
</event>
<event>
 8    1  0.1041149E+005  0.1043930E+01  0.7957747E-01            NaN
         13   -1    0    0    0    0  0.00000000000E+00  0.00000000000E+00  0.74505805969E-08  0.10566000000E+00  0.10566000000E+00 0. -1.
     999900   -1    0    0    0    0 -0.00000000000E+00 -0.00000000000E+00 -0.74505805969E-08  0.93827000000E+00  0.93827000000E+00 0. -1.
     999902    2    1    2    0    0  0.62691581088E-02 -0.84509592478E-02 -0.18871136782E-01  0.10223234996E+01  0.10220951507E+01 0.  0.
     999903    2    3    3    0    0  0.20324060186E-01 -0.11854736191E+00 -0.56668191053E-01  0.13454685233E+00  0.20616186742E-01 0.  0.
         14    1    1    2    0    0 -0.62691581088E-02  0.84509592478E-02  0.18871136782E-01  0.21606500389E-01  0.00000000000E+00 0. -1.
     999901    1    3    3    0    0 -0.14054902077E-01  0.11009640266E+00  0.37797054271E-01  0.88777664728E+00  0.88000000000E+00 0.  1.
        -11    1    4    4    0    0  0.24079140732E-01 -0.98395295161E-01 -0.50123671064E-01  0.11302248736E+00  0.51100000000E-03 0. -1.
         11    1    4    4    0    0 -0.37550805458E-02 -0.20152066749E-01 -0.65445199888E-02  0.21524364963E-01  0.51100000000E-03 0.  1.
</event>
<event>
 8    1  0.1041149E+005  0.1043930E+01  0.7957747E-01            NaN
         13   -1    0    0    0    0  0.00000000000E+00  0.00000000000E+00  0.74505805969E-08  0.10566000000E+00  0.10566000000E+00 0. -1.
     999900   -1    0    0    0    0 -0.00000000000E+00 -0.00000000000E+00 -0.74505805969E-08  0.93827000000E+00  0.93827000000E+00 0. -1.
     999902    2    1    2    0    0  0.20094740017E-01 -0.12661989862E-01 -0.25424149771E-02  0.10200430069E+01  0.10197632802E+01 0.  0.
     999903    2    3    3    0    0  0.52757465587E-01  0.10785561534E+00 -0.46160063353E-01  0.13015883130E+00  0.19859153566E-01 0.  0.
         14    1    1    2    0    0 -0.20094740017E-01  0.12661989862E-01  0.25424149771E-02  0.23886993062E-01  0.00000000000E+00 0. -1.
     999901    1    3    3    0    0 -0.32662725571E-01 -0.12051760520E+00  0.43617648376E-01  0.88988417564E+00  0.88000000000E+00 0. -1.
        -11    1    4    4    0    0  0.67966169335E-02  0.28828278487E-01 -0.56199670335E-02  0.30151431023E-01  0.51100000000E-03 0.  1.
         11    1    4    4    0    0  0.45960848654E-01  0.79027336853E-01 -0.40540096320E-01  0.10000740027E+00  0.51100000000E-03 0. -1.
</event>
<event>
 8    1  0.1041149E+005  0.1043930E+01  0.7957747E-01            NaN
         13   -1    0    0    0    0  0.00000000000E+00  0.00000000000E+00  0.74505805969E-08  0.10566000000E+00  0.10566000000E+00 0.  1.
     999900   -1    0    0    0    0 -0.00000000000E+00 -0.00000000000E+00 -0.74505805969E-08  0.93827000000E+00  0.93827000000E+00 0.  1.
     999902    2    1    2    0    0 -0.98482677585E-02 -0.16571427318E-01  0.13771174784E-01  0.10202393724E+01  0.10199642794E+01 0.  0.
     999903    2    3    3    0    0  0.10177030674E-01 -0.12214831457E+00 -0.44170680604E-01  0.13181112527E+00  0.19983518542E-01 0.  0.
         14    1    1    2    0    0  0.98482677585E-02  0.16571427318E-01 -0.13771174784E-01  0.23690627601E-01  0.00000000000E+00 0. -1.
     999901    1    3    3    0    0 -0.20025298433E-01  0.10557688725E+00  0.57941855388E-01  0.88842824713E+00  0.88000000000E+00 0. -1.
        -11    1    4    4    0    0 -0.12503497589E-02 -0.90802408179E-01 -0.31574218002E-01  0.96144854616E-01  0.51100000000E-03 0.  1.
         11    1    4    4    0    0  0.11427380433E-01 -0.31345906390E-01 -0.12596462602E-01  0.35666270650E-01  0.51100000000E-03 0. -1.
</event>
<event>
 8    1  0.1041149E+005  0.1043930E+01  0.7957747E-01            NaN
         13   -1    0    0    0    0  0.00000000000E+00  0.00000000000E+00  0.74505805969E-08  0.10566000000E+00  0.10566000000E+00 0.  1.
     999900   -1    0    0    0    0 -0.00000000000E+00 -0.00000000000E+00 -0.74505805969E-08  0.93827000000E+00  0.93827000000E+00 0. -1.
     999902    2    1    2    0    0  0.16540522459E-01 -0.66900336567E-02  0.14085622597E-01  0.10211978598E+01  0.10209448167E+01 0.  0.
     999903    2    3    3    0    0  0.82893031280E-01  0.40901718111E-01 -0.90813216266E-01  0.13121392925E+00  0.20636128548E-01 0.  0.
         14    1    1    2    0    0 -0.16540522459E-01  0.66900336567E-02 -0.14085622597E-01  0.22732140188E-01  0.00000000000E+00 0. -1.
     999901    1    3    3    0    0 -0.66352508821E-01 -0.47591751767E-01  0.10489883886E+00  0.88998393056E+00  0.88000000000E+00 0.  1.
        -11    1    4    4    0    0  0.50171784276E-01  0.33844946684E-01 -0.65963103685E-01  0.89521397008E-01  0.51100000000E-03 0.  1.
         11    1    4    4    0    0  0.32721247004E-01  0.70567714264E-02 -0.24850112581E-01  0.41692532242E-01  0.51100000000E-03 0. -1.
</event>
<event>
 8    1  0.1041149E+005  0.1043930E+01  0.7957747E-01            NaN
         13   -1    0    0    0    0  0.00000000000E+00  0.00000000000E+00  0.74505805969E-08  0.10566000000E+00  0.10566000000E+00 0.  1.
     999900   -1    0    0    0    0 -0.00000000000E+00 -0.00000000000E+00 -0.74505805969E-08  0.93827000000E+00  0.93827000000E+00 0.  1.
     999902    2    1    2    0    0  0.20962328818E-01 -0.39817301407E-02 -0.80289677213E-02  0.10211322429E+01  0.10208777203E+01 0.  0.
     999903    2    3    3    0    0  0.11307552608E+00 -0.62983002385E-01 -0.28986039148E-01  0.13411184290E+00  0.19820765703E-01 0.  0.
         14    1    1    2    0    0 -0.20962328818E-01  0.39817301407E-02  0.80289677213E-02  0.22797757062E-01  0.00000000000E+00 0. -1.
     999901    1    3    3    0    0 -0.92113197264E-01  0.59001272244E-01  0.20957071427E-01  0.88702040004E+00  0.88000000000E+00 0.  1.
        -11    1    4    4    0    0  0.54471612351E-01 -0.29540652834E-01 -0.37878634769E-02  0.62083941182E-01  0.51100000000E-03 0. -1.
         11    1    4    4    0    0  0.58603913731E-01 -0.33442349551E-01 -0.25198175672E-01  0.72027901721E-01  0.51100000000E-03 0.  1.
</event>
<event>
 8    1  0.1041149E+005  0.1043930E+01  0.7957747E-01            NaN
         13   -1    0    0    0    0  0.00000000000E+00  0.00000000000E+00  0.74505805969E-08  0.10566000000E+00  0.10566000000E+00 0.  1.
     999900   -1    0    0    0    0 -0.00000000000E+00 -0.00000000000E+00 -0.74505805969E-08  0.93827000000E+00  0.93827000000E+00 0. -1.
     999902    2    1    2    0    0  0.13119962654E-01  0.21044716929E-02 -0.16586297282E-01  0.10226775301E+01  0.10224566803E+01 0.  0.
     999903    2    3    3    0    0 -0.10384549618E+00  0.75239215231E-01 -0.23978915552E-01  0.13190019532E+00  0.19438275382E-01 0.  0.
         14    1    1    2    0    0 -0.13119962654E-01 -0.21044716929E-02  0.16586297282E-01  0.21252469943E-01  0.00000000000E+00 0.  1.
     999901    1    3    3    0    0  0.11696545883E+00 -0.73134743538E-01  0.73926182703E-02  0.89077733473E+00  0.88000000000E+00 0.  1.
        -11    1    4    4    0    0 -0.76719041537E-01  0.46256615126E-01 -0.21455754994E-01  0.92120010425E-01  0.51100000000E-03 0.  1.
         11    1    4    4    0    0 -0.27126454641E-01  0.28982600105E-01 -0.25231605579E-02  0.39780184898E-01  0.51100000000E-03 0. -1.
</event>
<event>
 8    1  0.1041149E+005  0.1043930E+01  0.7957747E-01            NaN
         13   -1    0    0    0    0  0.00000000000E+00  0.00000000000E+00  0.74505805969E-08  0.10566000000E+00  0.10566000000E+00 0.  1.
     999900   -1    0    0    0    0 -0.00000000000E+00 -0.00000000000E+00 -0.74505805969E-08  0.93827000000E+00  0.93827000000E+00 0. -1.
     999902    2    1    2    0    0  0.22593511424E-01 -0.94034838554E-02  0.27401501777E-02  0.10193047956E+01  0.10190072942E+01 0.  0.
     999903    2    3    3    0    0 -0.11582455798E+00 -0.44076731152E-01 -0.22378864045E-01  0.12745684845E+00  0.19655742194E-01 0.  0.
         14    1    1    2    0    0 -0.22593511424E-01  0.94034838554E-02 -0.27401501777E-02  0.24625204366E-01  0.00000000000E+00 0. -1.
     999901    1    3    3    0    0  0.13841806940E+00  0.34673247297E-01  0.25119014223E-01  0.89184794718E+00  0.88000000000E+00 0.  1.
        -11    1    4    4    0    0 -0.36702730656E-01 -0.16200498009E-01 -0.16428756744E-01  0.43355642568E-01  0.51100000000E-03 0.  1.
         11    1    4    4    0    0 -0.79121827324E-01 -0.27876233143E-01 -0.59501073019E-02  0.84101205885E-01  0.51100000000E-03 0. -1.
</event>
<event>
 8    1  0.1041149E+005  0.1043930E+01  0.7957747E-01            NaN
         13   -1    0    0    0    0  0.00000000000E+00  0.00000000000E+00  0.74505805969E-08  0.10566000000E+00  0.10566000000E+00 0.  1.
     999900   -1    0    0    0    0 -0.00000000000E+00 -0.00000000000E+00 -0.74505805969E-08  0.93827000000E+00  0.93827000000E+00 0.  1.
     999902    2    1    2    0    0 -0.12075168289E-01  0.12239474620E-01 -0.17401922480E-01  0.10194669394E+01  0.10191733901E+01 0.  0.
     999903    2    3    3    0    0  0.39454354794E-01 -0.10595395434E+00 -0.58273962034E-01  0.12913245056E+00  0.22281126171E-01 0.  0.
         14    1    1    2    0    0  0.12075168289E-01 -0.12239474620E-01  0.17401922480E-01  0.24463060606E-01  0.00000000000E+00 0.  1.
     999901    1    3    3    0    0 -0.51529523083E-01  0.11819342896E+00  0.40872039554E-01  0.89033448884E+00  0.88000000000E+00 0.  1.
        -11    1    4    4    0    0  0.79290629991E-02 -0.73907064803E-02 -0.11048114973E-02  0.10907534633E-01  0.51100000000E-03 0. -1.
         11    1    4    4    0    0  0.31525291795E-01 -0.98563247857E-01 -0.57169150536E-01  0.11822491592E+00  0.51100000000E-03 0.  1.
</event>
<event>
 8    1  0.1041149E+005  0.1043930E+01  0.7957747E-01            NaN
         13   -1    0    0    0    0  0.00000000000E+00  0.00000000000E+00  0.74505805969E-08  0.10566000000E+00  0.10566000000E+00 0.  1.
     999900   -1    0    0    0    0 -0.00000000000E+00 -0.00000000000E+00 -0.74505805969E-08  0.93827000000E+00  0.93827000000E+00 0. -1.
     999902    2    1    2    0    0  0.63208972965E-02  0.73408885464E-02  0.22857819251E-01  0.10191041609E+01  0.10188017317E+01 0.  0.
     999903    2    3    3    0    0  0.10154194464E+00 -0.15418973052E-01 -0.74283439814E-01  0.12836206388E+00  0.20255339068E-01 0.  0.
         14    1    1    2    0    0 -0.63208972965E-02 -0.73408885464E-02 -0.22857819251E-01  0.24825839124E-01  0.00000000000E+00 0. -1.
     999901    1    3    3    0    0 -0.95221047342E-01  0.22759861598E-01  0.97141259066E-01  0.89074209700E+00  0.88000000000E+00 0. -1.
        -11    1    4    4    0    0  0.65547688077E-01 -0.14462027821E-01 -0.58516258865E-01  0.89050903048E-01  0.51100000000E-03 0. -1.
         11    1    4    4    0    0  0.35994256561E-01 -0.95694523046E-03 -0.15767180949E-01  0.39311160827E-01  0.51100000000E-03 0.  1.
</event>
<event>
 8    1  0.1041149E+005  0.1043930E+01  0.7957747E-01            NaN
         13   -1    0    0    0    0  0.00000000000E+00  0.00000000000E+00  0.74505805969E-08  0.10566000000E+00  0.10566000000E+00 0. -1.
     999900   -1    0    0    0    0 -0.00000000000E+00 -0.00000000000E+00 -0.74505805969E-08  0.93827000000E+00  0.93827000000E+00 0. -1.
     999902    2    1    2    0    0 -0.20393544406E-01 -0.51031286454E-02 -0.95105113415E-02  0.10208564567E+01  0.10205956676E+01 0.  0.
     999903    2    3    3    0    0 -0.94463056740E-01  0.47801521848E-01 -0.78794771570E-01  0.13345265715E+00  0.19817696493E-01 0.  0.
         14    1    1    2    0    0  0.20393544406E-01  0.51031286454E-02  0.95105113415E-02  0.23073543321E-01  0.00000000000E+00 0. -1.
     999901    1    3    3    0    0  0.74069512334E-01 -0.52904650494E-01  0.69284260229E-01  0.88740379953E+00  0.88000000000E+00 0.  1.
        -11    1    4    4    0    0 -0.38472128510E-01  0.19133273771E-01 -0.20186661569E-01  0.47475775545E-01  0.51100000000E-03 0.  1.
         11    1    4    4    0    0 -0.55990928230E-01  0.28668248077E-01 -0.58608110001E-01  0.85976881607E-01  0.51100000000E-03 0. -1.
</event>
<event>
 8    1  0.1041149E+005  0.1043930E+01  0.7957747E-01            NaN
         13   -1    0    0    0    0  0.00000000000E+00  0.00000000000E+00  0.74505805969E-08  0.10566000000E+00  0.10566000000E+00 0.  1.
     999900   -1    0    0    0    0 -0.00000000000E+00 -0.00000000000E+00 -0.74505805969E-08  0.93827000000E+00  0.93827000000E+00 0.  1.
     999902    2    1    2    0    0 -0.75991435128E-03  0.21927477866E-01  0.97441158084E-02  0.10199229271E+01  0.10196403472E+01 0.  0.
     999903    2    3    3    0    0  0.34400950454E-01 -0.12094181876E+00  0.96803372172E-02  0.12770774769E+00  0.20129852829E-01 0.  0.
         14    1    1    2    0    0  0.75991435128E-03 -0.21927477866E-01 -0.97441158084E-02  0.24007072880E-01  0.00000000000E+00 0.  1.
     999901    1    3    3    0    0 -0.35160864805E-01  0.14286929663E+00  0.63778591164E-04  0.89221517943E+00  0.88000000000E+00 0.  1.
        -11    1    4    4    0    0  0.22871938731E-01 -0.87770130928E-01 -0.19103477288E-02  0.90722830720E-01  0.51100000000E-03 0.  1.
         11    1    4    4    0    0  0.11529011723E-01 -0.33171687832E-01  0.11590684946E-01  0.36984916972E-01  0.51100000000E-03 0. -1.
</event>
<event>
 8    1  0.1041149E+005  0.1043930E+01  0.7957747E-01            NaN
         13   -1    0    0    0    0  0.00000000000E+00  0.00000000000E+00  0.74505805969E-08  0.10566000000E+00  0.10566000000E+00 0.  1.
     999900   -1    0    0    0    0 -0.00000000000E+00 -0.00000000000E+00 -0.74505805969E-08  0.93827000000E+00  0.93827000000E+00 0. -1.
     999902    2    1    2    0    0  0.38206076858E-02 -0.16894375804E-01  0.16232406304E-01  0.10201916767E+01  0.10199154618E+01 0.  0.
     999903    2    3    3    0    0 -0.82435842779E-03 -0.12555535989E+00 -0.35196763496E-01  0.13200602909E+00  0.20541460342E-01 0.  0.
         14    1    1    2    0    0 -0.38206076858E-02  0.16894375804E-01 -0.16232406304E-01  0.23738323263E-01  0.00000000000E+00 0. -1.
     999901    1    3    3    0    0  0.46449661135E-02  0.10866098409E+00  0.51429169800E-01  0.88818564764E+00  0.88000000000E+00 0. -1.
        -11    1    4    4    0    0  0.72687877458E-02 -0.73885873199E-01 -0.27334940751E-01  0.79116481472E-01  0.51100000000E-03 0.  1.
         11    1    4    4    0    0 -0.80931461735E-02 -0.51669486691E-01 -0.78618227448E-02  0.52889547623E-01  0.51100000000E-03 0. -1.
</event>
<event>
 8    1  0.1041149E+005  0.1043930E+01  0.7957747E-01            NaN
         13   -1    0    0    0    0  0.00000000000E+00  0.00000000000E+00  0.74505805969E-08  0.10566000000E+00  0.10566000000E+00 0. -1.
     999900   -1    0    0    0    0 -0.00000000000E+00 -0.00000000000E+00 -0.74505805969E-08  0.93827000000E+00  0.93827000000E+00 0.  1.
     999902    2    1    2    0    0 -0.19884359339E-01  0.97980988366E-02  0.20222178919E-02  0.10216706233E+01  0.10214281094E+01 0.  0.
     999903    2    3    3    0    0 -0.61385183162E-01  0.95298671243E-01  0.69343318027E-01  0.13399681112E+00  0.17224174358E-01 0.  0.
         14    1    1    2    0    0  0.19884359339E-01 -0.97980988366E-02 -0.20222178919E-02  0.22259376728E-01  0.00000000000E+00 0.  1.
     999901    1    3    3    0    0  0.41500823824E-01 -0.85500572406E-01 -0.67321100135E-01  0.88767381215E+00  0.88000000000E+00 0.  1.
        -11    1    4    4    0    0 -0.43057864927E-01  0.51285960702E-01  0.39483318027E-01  0.77739456009E-01  0.51100000000E-03 0. -1.
         11    1    4    4    0    0 -0.18327318235E-01  0.44012710541E-01  0.29860000001E-01  0.56257355109E-01  0.51100000000E-03 0.  1.
</event>
<event>
 8    1  0.1041149E+005  0.1043930E+01  0.7957747E-01            NaN
         13   -1    0    0    0    0  0.00000000000E+00  0.00000000000E+00  0.74505805969E-08  0.10566000000E+00  0.10566000000E+00 0.  1.
     999900   -1    0    0    0    0 -0.00000000000E+00 -0.00000000000E+00 -0.74505805969E-08  0.93827000000E+00  0.93827000000E+00 0. -1.
     999902    2    1    2    0    0 -0.18442948214E-01  0.13069297797E-02  0.11153268085E-01  0.10223372745E+01  0.10221092198E+01 0.  0.
     999903    2    3    3    0    0 -0.91434894709E-01  0.47843262953E-02  0.97464876400E-01  0.13510020910E+00  0.19220682064E-01 0.  0.
         14    1    1    2    0    0  0.18442948214E-01 -0.13069297797E-02 -0.11153268085E-01  0.21592725471E-01  0.00000000000E+00 0.  1.
     999901    1    3    3    0    0  0.72991946495E-01 -0.34773965157E-02 -0.86311608315E-01  0.88723706543E+00  0.88000000000E+00 0. -1.
        -11    1    4    4    0    0 -0.38748757859E-01 -0.69818769736E-02  0.36852055303E-01  0.53930955329E-01  0.51100000000E-03 0. -1.
         11    1    4    4    0    0 -0.52686136850E-01  0.11766203269E-01  0.60612821097E-01  0.81169253772E-01  0.51100000000E-03 0.  1.
</event>
<event>
 8    1  0.1041149E+005  0.1043930E+01  0.7957747E-01            NaN
         13   -1    0    0    0    0  0.00000000000E+00  0.00000000000E+00  0.74505805969E-08  0.10566000000E+00  0.10566000000E+00 0.  1.
     999900   -1    0    0    0    0 -0.00000000000E+00 -0.00000000000E+00 -0.74505805969E-08  0.93827000000E+00  0.93827000000E+00 0.  1.
     999902    2    1    2    0    0 -0.21985450021E-01  0.96375596495E-02 -0.37355271056E-02  0.10196360351E+01  0.10193465786E+01 0.  0.
     999903    2    3    3    0    0  0.77348433476E-01 -0.21072367987E-01 -0.98103645242E-01  0.12850436031E+00  0.21499315221E-01 0.  0.
         14    1    1    2    0    0  0.21985450021E-01 -0.96375596495E-02  0.37355271056E-02  0.24293964917E-01  0.00000000000E+00 0. -1.
     999901    1    3    3    0    0 -0.99333883496E-01  0.30709927637E-01  0.94368118136E-01  0.89113167477E+00  0.88000000000E+00 0.  1.
        -11    1    4    4    0    0  0.60621973732E-01 -0.21986509577E-01 -0.87409873732E-01  0.10862401875E+00  0.51100000000E-03 0.  1.
         11    1    4    4    0    0  0.16726459744E-01  0.91414158975E-03 -0.10693771510E-01  0.19880341560E-01  0.51100000000E-03 0. -1.
</event>
<event>
 8    1  0.1041149E+005  0.1043930E+01  0.7957747E-01            NaN
         13   -1    0    0    0    0  0.00000000000E+00  0.00000000000E+00  0.74505805969E-08  0.10566000000E+00  0.10566000000E+00 0.  1.
     999900   -1    0    0    0    0 -0.00000000000E+00 -0.00000000000E+00 -0.74505805969E-08  0.93827000000E+00  0.93827000000E+00 0. -1.
     999902    2    1    2    0    0 -0.11688664791E-02 -0.22367888580E-01 -0.66646253189E-02  0.10205610908E+01  0.10202935039E+01 0.  0.
     999903    2    3    3    0    0  0.60665959851E-01 -0.11693598459E+00  0.33648582755E-02  0.13328026652E+00  0.19948032344E-01 0.  0.
         14    1    1    2    0    0  0.11688664791E-02  0.22367888580E-01  0.66646253189E-02  0.23368909239E-01  0.00000000000E+00 0. -1.
     999901    1    3    3    0    0 -0.61834826330E-01  0.94568096012E-01 -0.10029483594E-01  0.88728082424E+00  0.88000000000E+00 0.  1.
        -11    1    4    4    0    0  0.10567841424E-01 -0.22056922478E-01  0.84065894257E-02  0.25867334002E-01  0.51100000000E-03 0. -1.
         11    1    4    4    0    0  0.50098118426E-01 -0.94879062114E-01 -0.50417311501E-02  0.10741293251E+00  0.51100000000E-03 0.  1.
</event>
<event>
 7    1  0.1041149E+005  0.1043930E+01  0.7957747E-01            NaN
         13   -1    0    0    0    0  0.00000000000E+00  0.00000000000E+00  0.74505805969E-08  0.10566000000E+00  0.10566000000E+00 0.  1.
     999900   -1    0    0    0    0 -0.00000000000E+00 -0.00000000000E+00 -0.74505805969E-08  0.93827000000E+00  0.93827000000E+00 0. -1.
     999903    2    1    2    0    0 -0.56094907185E-01 -0.16268117623E-01  0.91412336348E-01  0.11019223092E+00  0.19360326862E-01 0.  0.
         14    1    1    2    0    0  0.47835294136E-01 -0.30988285559E-02 -0.14751699905E-01  0.50154070160E-01  0.00000000000E+00 0. -1.
     999901    1    1    2    0    0  0.82596130483E-02  0.19366946179E-01 -0.76660636443E-01  0.88358369892E+00  0.88000000000E+00 0. -1.
        -11    1    3    3    0    0 -0.47249861011E-01 -0.59475983323E-02  0.66295714195E-01  0.81629076518E-01  0.51100000000E-03 0.  1.
         11    1    3    3    0    0 -0.88450461740E-02 -0.10320519291E-01  0.25116622152E-01  0.28563154406E-01  0.51100000000E-03 0. -1.
</event>
<event>
 8    1  0.1041149E+005  0.1043930E+01  0.7957747E-01            NaN
         13   -1    0    0    0    0  0.00000000000E+00  0.00000000000E+00  0.74505805969E-08  0.10566000000E+00  0.10566000000E+00 0. -1.
     999900   -1    0    0    0    0 -0.00000000000E+00 -0.00000000000E+00 -0.74505805969E-08  0.93827000000E+00  0.93827000000E+00 0.  1.
     999902    2    1    2    0    0 -0.19442581230E-01 -0.10949526344E-01 -0.10332290515E-01  0.10193401175E+01  0.10190434794E+01 0.  0.
     999903    2    3    3    0    0 -0.51000253052E-01  0.87217142822E-01 -0.80157627332E-01  0.13057234177E+00  0.20396945914E-01 0.  0.
         14    1    1    2    0    0  0.19442581230E-01  0.10949526344E-01  0.10332290515E-01  0.24589882459E-01  0.00000000000E+00 0. -1.
     999901    1    3    3    0    0  0.31557671822E-01 -0.98166669166E-01  0.69825336818E-01  0.88876777577E+00  0.88000000000E+00 0. -1.
        -11    1    4    4    0    0 -0.36097234456E-01  0.43072901061E-01 -0.39045872732E-01  0.68433372265E-01  0.51100000000E-03 0. -1.
         11    1    4    4    0    0 -0.14903018596E-01  0.44144241761E-01 -0.41111754600E-01  0.62138969506E-01  0.51100000000E-03 0.  1.
</event>
<event>
 8    1  0.1041149E+005  0.1043930E+01  0.7957747E-01            NaN
         13   -1    0    0    0    0  0.00000000000E+00  0.00000000000E+00  0.74505805969E-08  0.10566000000E+00  0.10566000000E+00 0.  1.
     999900   -1    0    0    0    0 -0.00000000000E+00 -0.00000000000E+00 -0.74505805969E-08  0.93827000000E+00  0.93827000000E+00 0.  1.
     999902    2    1    2    0    0 -0.99193700772E-02 -0.60108066279E-03 -0.22111709910E-01  0.10196878277E+01  0.10193996190E+01 0.  0.
     999903    2    3    3    0    0 -0.82829096041E-01  0.88008980240E-01 -0.48808977460E-01  0.13183631137E+00  0.19805478036E-01 0.  0.
         14    1    1    2    0    0  0.99193700772E-02  0.60108066279E-03  0.22111709910E-01  0.24242172259E-01  0.00000000000E+00 0.  1.
     999901    1    3    3    0    0  0.72909725964E-01 -0.88610060903E-01  0.26697267551E-01  0.88785151637E+00  0.88000000000E+00 0.  1.
        -11    1    4    4    0    0 -0.52786334594E-01  0.42528516525E-01 -0.23597265138E-01  0.71778575360E-01  0.51100000000E-03 0.  1.
         11    1    4    4    0    0 -0.30042761448E-01  0.45480463714E-01 -0.25211712322E-01  0.60057736007E-01  0.51100000000E-03 0. -1.
</event>
<event>
 8    1  0.1041149E+005  0.1043930E+01  0.7957747E-01            NaN
         13   -1    0    0    0    0  0.00000000000E+00  0.00000000000E+00  0.74505805969E-08  0.10566000000E+00  0.10566000000E+00 0. -1.
     999900   -1    0    0    0    0 -0.00000000000E+00 -0.00000000000E+00 -0.74505805969E-08  0.93827000000E+00  0.93827000000E+00 0. -1.
     999902    2    1    2    0    0 -0.21225362984E-01  0.18691248418E-02 -0.98151389595E-02  0.10204705325E+01  0.10202008435E+01 0.  0.
     999903    2    3    3    0    0 -0.19996745430E-02  0.66814467432E-01 -0.11247881692E+00  0.13191701394E+00  0.16806027288E-01 0.  0.
         14    1    1    2    0    0  0.21225362984E-01 -0.18691248418E-02  0.98151389595E-02  0.23459467477E-01  0.00000000000E+00 0. -1.
     999901    1    3    3    0    0 -0.19225688441E-01 -0.64945342591E-01  0.10266367796E+00  0.88855351859E+00  0.88000000000E+00 0.  1.
        -11    1    4    4    0    0  0.76731655969E-03  0.10527710219E-01 -0.31750586248E-01  0.33463148466E-01  0.51100000000E-03 0. -1.
         11    1    4    4    0    0 -0.27669911027E-02  0.56286757214E-01 -0.80728230674E-01  0.98453865471E-01  0.51100000000E-03 0.  1.
</event>
<event>
 8    1  0.1041149E+005  0.1043930E+01  0.7957747E-01            NaN
         13   -1    0    0    0    0  0.00000000000E+00  0.00000000000E+00  0.74505805969E-08  0.10566000000E+00  0.10566000000E+00 0.  1.
     999900   -1    0    0    0    0 -0.00000000000E+00 -0.00000000000E+00 -0.74505805969E-08  0.93827000000E+00  0.93827000000E+00 0. -1.
     999902    2    1    2    0    0 -0.86765439482E-02 -0.21015457488E-01  0.56667323464E-02  0.10204983179E+01  0.10202292748E+01 0.  0.
     999903    2    3    3    0    0 -0.62545504389E-01  0.11005606678E+00 -0.13538415440E-01  0.12895446200E+00  0.20535009675E-01 0.  0.
         14    1    1    2    0    0  0.86765439482E-02  0.21015457488E-01 -0.56667323464E-02  0.23431682052E-01  0.00000000000E+00 0.  1.
     999901    1    3    3    0    0  0.53868960441E-01 -0.13107152427E+00  0.19205147787E-01  0.89154385595E+00  0.88000000000E+00 0.  1.
        -11    1    4    4    0    0 -0.56764303518E-01  0.10684603356E+00 -0.99111075611E-02  0.12139502550E+00  0.51100000000E-03 0. -1.
         11    1    4    4    0    0 -0.57812008710E-02  0.32100332227E-02 -0.36273078791E-02  0.75594365036E-02  0.51100000000E-03 0.  1.
</event>
<event>
 8    1  0.1041149E+005  0.1043930E+01  0.7957747E-01            NaN
         13   -1    0    0    0    0  0.00000000000E+00  0.00000000000E+00  0.74505805969E-08  0.10566000000E+00  0.10566000000E+00 0. -1.
     999900   -1    0    0    0    0 -0.00000000000E+00 -0.00000000000E+00 -0.74505805969E-08  0.93827000000E+00  0.93827000000E+00 0.  1.
     999902    2    1    2    0    0 -0.10772112439E-01  0.73700060342E-02  0.19945958910E-01  0.10200931237E+01  0.10198145833E+01 0.  0.
     999903    2    3    3    0    0  0.11742727397E+00  0.33196294531E-01  0.40843761943E-01  0.13018369121E+00  0.19708422658E-01 0.  0.
         14    1    1    2    0    0  0.10772112439E-01 -0.73700060342E-02 -0.19945958910E-01  0.23836876310E-01  0.00000000000E+00 0.  1.
     999901    1    3    3    0    0 -0.12819938641E+00 -0.25826288497E-01 -0.20897803033E-01  0.88990943248E+00  0.88000000000E+00 0. -1.
        -11    1    4    4    0    0  0.95923875192E-01  0.18988825049E-01  0.33755479729E-01  0.10344882233E+00  0.51100000000E-03 0. -1.
         11    1    4    4    0    0  0.21503398778E-01  0.14207469482E-01  0.70882822137E-02  0.26734868876E-01  0.51100000000E-03 0.  1.
</event>
<event>
 8    1  0.1041149E+005  0.1043930E+01  0.7957747E-01            NaN
         13   -1    0    0    0    0  0.00000000000E+00  0.00000000000E+00  0.74505805969E-08  0.10566000000E+00  0.10566000000E+00 0. -1.
     999900   -1    0    0    0    0 -0.00000000000E+00 -0.00000000000E+00 -0.74505805969E-08  0.93827000000E+00  0.93827000000E+00 0. -1.
     999902    2    1    2    0    0  0.13890361113E-01 -0.18412014914E-01  0.38641240286E-02  0.10205446225E+01  0.10202766540E+01 0.  0.
     999903    2    3    3    0    0 -0.12024987398E+00 -0.37802654579E-01 -0.23440897825E-01  0.12974994147E+00  0.19912276023E-01 0.  0.
         14    1    1    2    0    0 -0.13890361113E-01  0.18412014914E-01 -0.38641240286E-02  0.23385377473E-01  0.00000000000E+00 0. -1.
     999901    1    3    3    0    0  0.13414023509E+00  0.19390639665E-01  0.27305021854E-01  0.89079468105E+00  0.88000000000E+00 0. -1.
        -11    1    4    4    0    0 -0.68690456663E-01 -0.17913494661E-01 -0.22524447333E-01  0.74477405810E-01  0.51100000000E-03 0. -1.
         11    1    4    4    0    0 -0.51559417315E-01 -0.19889159918E-01 -0.91645049276E-03  0.55272535663E-01  0.51100000000E-03 0.  1.
</event>
<event>
 8    1  0.1041149E+005  0.1043930E+01  0.7957747E-01            NaN
         13   -1    0    0    0    0  0.00000000000E+00  0.00000000000E+00  0.74505805969E-08  0.10566000000E+00  0.10566000000E+00 0.  1.
     999900   -1    0    0    0    0 -0.00000000000E+00 -0.00000000000E+00 -0.74505805969E-08  0.93827000000E+00  0.93827000000E+00 0. -1.
     999902    2    1    2    0    0 -0.78142543513E-02 -0.20546367837E-01  0.68785853183E-02  0.10208967471E+01  0.10206368784E+01 0.  0.
     999903    2    3    3    0    0 -0.10079104282E+00  0.73455862576E-01  0.33118614674E-01  0.13063294259E+00  0.20335313894E-01 0.  0.
         14    1    1    2    0    0  0.78142543513E-02  0.20546367837E-01 -0.68785853183E-02  0.23033252883E-01  0.00000000000E+00 0. -1.
     999901    1    3    3    0    0  0.92976788469E-01 -0.94002230414E-01 -0.26240029356E-01  0.89026380453E+00  0.88000000000E+00 0. -1.
        -11    1    4    4    0    0 -0.62083598112E-01  0.56091586060E-01  0.25961903364E-01  0.87606624912E-01  0.51100000000E-03 0. -1.
         11    1    4    4    0    0 -0.38707444709E-01  0.17364276516E-01  0.71567113105E-02  0.43026317674E-01  0.51100000000E-03 0.  1.
</event>
<event>
 8    1  0.1092162E+005  0.1043930E+01  0.7957747E-01            NaN
         13   -1    0    0    0    0  0.00000000000E+00  0.00000000000E+00  0.74505805969E-08  0.10566000000E+00  0.10566000000E+00 0. -1.
     999900   -1    0    0    0    0 -0.00000000000E+00 -0.00000000000E+00 -0.74505805969E-08  0.93827000000E+00  0.93827000000E+00 0. -1.
     999902    2    1    2    0    0 -0.22009219943E-01  0.61492253659E-02  0.27908097132E-02  0.10209081114E+01  0.10206485020E+01 0.  0.
     999903    2    3    3    0    0 -0.30789234284E-01  0.20801603423E-01  0.12533716119E+00  0.13225216613E+00  0.20013690728E-01 0.  0.
         14    1    1    2    0    0  0.22009219943E-01 -0.61492253659E-02 -0.27908097132E-02  0.23021888583E-01  0.00000000000E+00 0.  1.
     999901    1    3    3    0    0  0.87800143419E-02 -0.14652378057E-01 -0.12254635148E+00  0.88865594529E+00  0.88000000000E+00 0. -1.
        -11    1    4    4    0    0 -0.30689030744E-01  0.14511577663E-01  0.86835688068E-01  0.93236797121E-01  0.51100000000E-03 0. -1.
         11    1    4    4    0    0 -0.10020354066E-03  0.62900257598E-02  0.38501473127E-01  0.39015369007E-01  0.51100000000E-03 0.  1.
</event>
<event>
 8    1  0.1041149E+005  0.1043930E+01  0.7957747E-01            NaN
         13   -1    0    0    0    0  0.00000000000E+00  0.00000000000E+00  0.74505805969E-08  0.10566000000E+00  0.10566000000E+00 0. -1.
     999900   -1    0    0    0    0 -0.00000000000E+00 -0.00000000000E+00 -0.74505805969E-08  0.93827000000E+00  0.93827000000E+00 0.  1.
     999902    2    1    2    0    0  0.81986854516E-02 -0.20266139844E-01 -0.96565238388E-02  0.10200305582E+01  0.10197505363E+01 0.  0.
     999903    2    3    3    0    0  0.79579928097E-02  0.10172835998E+00  0.74843816876E-01  0.12760519798E+00  0.16416478106E-01 0.  0.
         14    1    1    2    0    0 -0.81986854516E-02  0.20266139844E-01  0.96565238388E-02  0.23899441834E-01  0.00000000000E+00 0.  1.
     999901    1    3    3    0    0  0.24069264185E-03 -0.12199449982E+00 -0.84500340715E-01  0.89242536018E+00  0.88000000000E+00 0. -1.
        -11    1    4    4    0    0  0.11855306277E-01  0.48853206434E-01  0.34318331388E-01  0.60870296994E-01  0.51100000000E-03 0.  1.
         11    1    4    4    0    0 -0.38973134675E-02  0.52875153546E-01  0.40525485488E-01  0.66734900988E-01  0.51100000000E-03 0. -1.
</event>
<event>
 8    1  0.1041149E+005  0.1043930E+01  0.7957747E-01            NaN
         13   -1    0    0    0    0  0.00000000000E+00  0.00000000000E+00  0.74505805969E-08  0.10566000000E+00  0.10566000000E+00 0.  1.
     999900   -1    0    0    0    0 -0.00000000000E+00 -0.00000000000E+00 -0.74505805969E-08  0.93827000000E+00  0.93827000000E+00 0.  1.
     999902    2    1    2    0    0 -0.24596238961E-01  0.65530870689E-02  0.45243789998E-02  0.10180768005E+01  0.10177484875E+01 0.  0.
     999903    2    3    3    0    0 -0.35983233301E-01 -0.12083575117E+00 -0.14366930138E-01  0.12863064621E+00  0.21056177797E-01 0.  0.
         14    1    1    2    0    0  0.24596238961E-01 -0.65530870689E-02 -0.45243789998E-02  0.25853199541E-01  0.00000000000E+00 0. -1.
     999901    1    3    3    0    0  0.11386994341E-01  0.12738883824E+00  0.18891309138E-01  0.88944615425E+00  0.88000000000E+00 0.  1.
        -11    1    4    4    0    0 -0.11493036639E-01 -0.73885422302E-01 -0.59809555140E-02  0.75014521726E-01  0.51100000000E-03 0.  1.
         11    1    4    4    0    0 -0.24490196662E-01 -0.46950328867E-01 -0.83859746242E-02  0.53616124484E-01  0.51100000000E-03 0. -1.
</event>
<event>
 8    1  0.1041149E+005  0.1043930E+01  0.7957747E-01            NaN
         13   -1    0    0    0    0  0.00000000000E+00  0.00000000000E+00  0.74505805969E-08  0.10566000000E+00  0.10566000000E+00 0. -1.
     999900   -1    0    0    0    0 -0.00000000000E+00 -0.00000000000E+00 -0.74505805969E-08  0.93827000000E+00  0.93827000000E+00 0.  1.
     999902    2    1    2    0    0 -0.20301765457E-01 -0.67626918053E-02  0.13506482028E-01  0.10186254404E+01  0.10183110856E+01 0.  0.
     999903    2    3    3    0    0  0.79014276914E-01  0.24289021360E-01  0.96490214238E-01  0.12861747132E+00  0.19971979641E-01 0.  0.
         14    1    1    2    0    0  0.20301765457E-01  0.67626918053E-02 -0.13506482028E-01  0.25304559626E-01  0.00000000000E+00 0.  1.
     999901    1    3    3    0    0 -0.99316042371E-01 -0.31051713165E-01 -0.82983732211E-01  0.89000796905E+00  0.88000000000E+00 0.  1.
        -11    1    4    4    0    0  0.61522800322E-01  0.98921914812E-02  0.72973215364E-01  0.95959687855E-01  0.51100000000E-03 0.  1.
         11    1    4    4    0    0  0.17491476592E-01  0.14396829879E-01  0.23516998874E-01  0.32657783467E-01  0.51100000000E-03 0. -1.
</event>
<event>
 8    1  0.1041149E+005  0.1043930E+01  0.7957747E-01            NaN
         13   -1    0    0    0    0  0.00000000000E+00  0.00000000000E+00  0.74505805969E-08  0.10566000000E+00  0.10566000000E+00 0.  1.
     999900   -1    0    0    0    0 -0.00000000000E+00 -0.00000000000E+00 -0.74505805969E-08  0.93827000000E+00  0.93827000000E+00 0. -1.
     999902    2    1    2    0    0  0.18989734230E-01  0.83065749402E-03  0.14422012455E-01  0.10200701081E+01  0.10197910232E+01 0.  0.
     999903    2    3    3    0    0  0.12327080910E+00 -0.37101613388E-01  0.26422940254E-01  0.13302026620E+00  0.20591196080E-01 0.  0.
         14    1    1    2    0    0 -0.18989734230E-01 -0.83065749402E-03 -0.14422012455E-01  0.23859891895E-01  0.00000000000E+00 0.  1.
     999901    1    3    3    0    0 -0.10428107487E+00  0.37932270882E-01 -0.12000927800E-01  0.88704984190E+00  0.88000000000E+00 0. -1.
        -11    1    4    4    0    0  0.69087220407E-01 -0.15078852170E-01  0.56115925537E-02  0.70937767785E-01  0.51100000000E-03 0. -1.
         11    1    4    4    0    0  0.54183588696E-01 -0.22022761218E-01  0.20811347701E-01  0.62082498417E-01  0.51100000000E-03 0.  1.
</event>
<event>
 8    1  0.1041149E+005  0.1043930E+01  0.7957747E-01            NaN
         13   -1    0    0    0    0  0.00000000000E+00  0.00000000000E+00  0.74505805969E-08  0.10566000000E+00  0.10566000000E+00 0.  1.
     999900   -1    0    0    0    0 -0.00000000000E+00 -0.00000000000E+00 -0.74505805969E-08  0.93827000000E+00  0.93827000000E+00 0.  1.
     999902    2    1    2    0    0 -0.12908565864E-01 -0.16275952245E-01 -0.11058205482E-01  0.10203965854E+01  0.10201251736E+01 0.  0.
     999903    2    3    3    0    0  0.81807614360E-01 -0.19433268523E-01 -0.98545666118E-01  0.13099500051E+00  0.19450042546E-01 0.  0.
         14    1    1    2    0    0  0.12908565864E-01  0.16275952245E-01  0.11058205482E-01  0.23533414598E-01  0.00000000000E+00 0.  1.
     999901    1    3    3    0    0 -0.94716180224E-01  0.31573162781E-02  0.87487460636E-01  0.88940158489E+00  0.88000000000E+00 0. -1.
        -11    1    4    4    0    0  0.21907532747E-01 -0.90397106094E-02 -0.40561224167E-01  0.46980106278E-01  0.51100000000E-03 0.  1.
         11    1    4    4    0    0  0.59900081613E-01 -0.10393557913E-01 -0.57984441951E-01  0.84014894231E-01  0.51100000000E-03 0. -1.
</event>
<event>
 7    1  0.1041149E+005  0.1043930E+01  0.7957747E-01            NaN
         13   -1    0    0    0    0  0.00000000000E+00  0.00000000000E+00  0.74505805969E-08  0.10566000000E+00  0.10566000000E+00 0.  1.
     999900   -1    0    0    0    0 -0.00000000000E+00 -0.00000000000E+00 -0.74505805969E-08  0.93827000000E+00  0.93827000000E+00 0. -1.
     999902    2    1    2    0    0  0.17540402987E-01 -0.54879503749E-02  0.13947480854E-01  0.10208580352E+01  0.10205972822E+01 0.  0.
         14    1    1    2    0    0 -0.17540402987E-01  0.54879503749E-02 -0.13947480854E-01  0.23071964772E-01  0.00000000000E+00 0. -1.
     999901    1    3    3    0    0 -0.80874434876E-01  0.73065304978E-01  0.37090427972E-01  0.88749924668E+00  0.88000000000E+00 0.  1.
        -11    1    3    3    0    0  0.32993872818E-01 -0.71754232051E-02  0.16147257618E-03  0.33769357946E-01  0.51100000000E-03 0. -1.
         11    1    3    3    0    0  0.65420965045E-01 -0.71377832148E-01 -0.23304419694E-01  0.99589430603E-01  0.51100000000E-03 0.  1.
</event>
<event>
 8    1  0.1041149E+005  0.1043930E+01  0.7957747E-01            NaN
         13   -1    0    0    0    0  0.00000000000E+00  0.00000000000E+00  0.74505805969E-08  0.10566000000E+00  0.10566000000E+00 0.  1.
     999900   -1    0    0    0    0 -0.00000000000E+00 -0.00000000000E+00 -0.74505805969E-08  0.93827000000E+00  0.93827000000E+00 0. -1.
     999902    2    1    2    0    0 -0.47416286051E-02 -0.18419812217E-02 -0.22908714768E-01  0.10204633183E+01  0.10201934615E+01 0.  0.
     999903    2    3    3    0    0  0.66045566287E-01 -0.13540561735E-01  0.10728059546E+00  0.12799654569E+00  0.18128042100E-01 0.  0.
         14    1    1    2    0    0  0.47416286051E-02  0.18419812217E-02  0.22908714768E-01  0.23466681678E-01  0.00000000000E+00 0.  1.
     999901    1    3    3    0    0 -0.70787194892E-01  0.11698580513E-01 -0.13018931022E+00  0.89246677263E+00  0.88000000000E+00 0. -1.
        -11    1    4    4    0    0  0.61218784502E-01 -0.90515163155E-02  0.87754139895E-01  0.10738118882E+00  0.51100000000E-03 0. -1.
         11    1    4    4    0    0  0.48267817846E-02 -0.44890454191E-02  0.19526455560E-01  0.20615356871E-01  0.51100000000E-03 0.  1.
</event>
<event>
 8    1  0.1041149E+005  0.1043930E+01  0.7957747E-01            NaN
         13   -1    0    0    0    0  0.00000000000E+00  0.00000000000E+00  0.74505805969E-08  0.10566000000E+00  0.10566000000E+00 0.  1.
     999900   -1    0    0    0    0 -0.00000000000E+00 -0.00000000000E+00 -0.74505805969E-08  0.93827000000E+00  0.93827000000E+00 0.  1.
     999902    2    1    2    0    0  0.11003233548E-01 -0.53373304176E-02  0.20656507550E-01  0.10199248016E+01  0.10196422664E+01 0.  0.
     999903    2    3    3    0    0  0.79880653671E-01 -0.36510358193E-01 -0.92892558484E-01  0.12941413518E+00  0.20126248462E-01 0.  0.
         14    1    1    2    0    0 -0.11003233548E-01  0.53373304176E-02 -0.20656507550E-01  0.24005198367E-01  0.00000000000E+00 0. -1.
     999901    1    3    3    0    0 -0.68877420123E-01  0.31173027775E-01  0.11354906603E+00  0.89051066645E+00  0.88000000000E+00 0. -1.
        -11    1    4    4    0    0  0.35592413993E-01 -0.27040448511E-01 -0.42928602868E-01  0.61976865480E-01  0.51100000000E-03 0.  1.
         11    1    4    4    0    0  0.44288239678E-01 -0.94699096813E-02 -0.49963955616E-01  0.67437269703E-01  0.51100000000E-03 0. -1.
</event>
<event>
 8    1  0.1041149E+005  0.1043930E+01  0.7957747E-01            NaN
         13   -1    0    0    0    0  0.00000000000E+00  0.00000000000E+00  0.74505805969E-08  0.10566000000E+00  0.10566000000E+00 0. -1.
     999900   -1    0    0    0    0 -0.00000000000E+00 -0.00000000000E+00 -0.74505805969E-08  0.93827000000E+00  0.93827000000E+00 0. -1.
     999902    2    1    2    0    0 -0.47803342044E-02  0.22758850390E-01 -0.37773671822E-02  0.10203697502E+01  0.10200977119E+01 0.  0.
     999903    2    3    3    0    0  0.43476690628E-01 -0.69941179249E-02  0.12079647961E+00  0.12978981397E+00  0.17733189517E-01 0.  0.
         14    1    1    2    0    0  0.47803342044E-02 -0.22758850390E-01  0.37773671822E-02  0.23560249765E-01  0.00000000000E+00 0.  1.
     999901    1    3    3    0    0 -0.48257024833E-01  0.29752968315E-01 -0.12457384679E+00  0.89057993626E+00  0.88000000000E+00 0. -1.
        -11    1    4    4    0    0  0.13187116658E-01  0.12510420335E-02  0.18328497601E-01  0.22619904890E-01  0.51100000000E-03 0. -1.
         11    1    4    4    0    0  0.30289573970E-01 -0.82451599584E-02  0.10246798201E+00  0.10716990908E+00  0.51100000000E-03 0.  1.
</event>
<event>
 8    1  0.1041149E+005  0.1043930E+01  0.7957747E-01            NaN
         13   -1    0    0    0    0  0.00000000000E+00  0.00000000000E+00  0.74505805969E-08  0.10566000000E+00  0.10566000000E+00 0. -1.
     999900   -1    0    0    0    0 -0.00000000000E+00 -0.00000000000E+00 -0.74505805969E-08  0.93827000000E+00  0.93827000000E+00 0. -1.
     999902    2    1    2    0    0 -0.18376142384E-01  0.40502665533E-02  0.13373323962E-01  0.10208446570E+01  0.10205835981E+01 0.  0.
     999903    2    3    3    0    0 -0.79220773779E-01 -0.21310951392E-02  0.10597598375E+00  0.13387479786E+00  0.20275103127E-01 0.  0.
         14    1    1    2    0    0  0.18376142384E-01 -0.40502665533E-02 -0.13373323962E-01  0.23085343010E-01  0.00000000000E+00 0.  1.
     999901    1    3    3    0    0  0.60844631395E-01  0.61813616925E-02 -0.92602659785E-01  0.88696985913E+00  0.88000000000E+00 0. -1.
        -11    1    4    4    0    0 -0.10209496878E-01  0.66570497686E-02  0.17187263074E-01  0.21076367598E-01  0.51100000000E-03 0.  1.
         11    1    4    4    0    0 -0.69011276901E-01 -0.87881449078E-02  0.88788720673E-01  0.11279843026E+00  0.51100000000E-03 0. -1.
</event>
<event>
 8    1  0.1041149E+005  0.1043930E+01  0.7957747E-01            NaN
         13   -1    0    0    0    0  0.00000000000E+00  0.00000000000E+00  0.74505805969E-08  0.10566000000E+00  0.10566000000E+00 0. -1.
     999900   -1    0    0    0    0 -0.00000000000E+00 -0.00000000000E+00 -0.74505805969E-08  0.93827000000E+00  0.93827000000E+00 0.  1.
     999902    2    1    2    0    0  0.16725203424E-01  0.21904459809E-02  0.16632844564E-01  0.10202407197E+01  0.10199656583E+01 0.  0.
     999903    2    3    3    0    0  0.18182868719E-01  0.89567921976E-01 -0.89641935820E-01  0.12954925962E+00  0.19857105756E-01 0.  0.
         14    1    1    2    0    0 -0.16725203424E-01 -0.21904459809E-02 -0.16632844564E-01  0.23689280307E-01  0.00000000000E+00 0.  1.
     999901    1    3    3    0    0 -0.14576652949E-02 -0.87377475995E-01  0.10627478038E+00  0.89069146007E+00  0.88000000000E+00 0. -1.
        -11    1    4    4    0    0  0.42619237270E-02  0.59438254988E-01 -0.49570506713E-01  0.77514943118E-01  0.51100000000E-03 0.  1.
         11    1    4    4    0    0  0.13920944992E-01  0.30129666988E-01 -0.40071429107E-01  0.52034316503E-01  0.51100000000E-03 0. -1.
</event>
<event>
 8    1  0.1301600E+005  0.1043930E+01  0.7957747E-01            NaN
         13   -1    0    0    0    0  0.00000000000E+00  0.00000000000E+00  0.74505805969E-08  0.10566000000E+00  0.10566000000E+00 0.  1.
     999900   -1    0    0    0    0 -0.00000000000E+00 -0.00000000000E+00 -0.74505805969E-08  0.93827000000E+00  0.93827000000E+00 0. -1.
     999902    2    1    2    0    0 -0.11694982029E-02  0.21644489414E-01 -0.87107733086E-02  0.10205691520E+01  0.10203017518E+01 0.  0.
     999903    2    3    3    0    0  0.68548977375E-01  0.10222322336E+00 -0.46974155123E-01  0.13331626550E+00  0.20447633210E-01 0.  0.
         14    1    1    2    0    0  0.11694982029E-02 -0.21644489414E-01  0.87107733086E-02  0.23360848008E-01  0.00000000000E+00 0.  1.
     999901    1    3    3    0    0 -0.69718475578E-01 -0.80578733946E-01  0.38263381814E-01  0.88725288649E+00  0.88000000000E+00 0. -1.
        -11    1    4    4    0    0  0.27310689439E-01  0.42758531254E-01 -0.87930425150E-02  0.51495091711E-01  0.51100000000E-03 0.  1.
         11    1    4    4    0    0  0.41238287936E-01  0.59464692106E-01 -0.38181112608E-01  0.81821173788E-01  0.51100000000E-03 0. -1.
</event>
<event>
 8    1  0.1041149E+005  0.1043930E+01  0.7957747E-01            NaN
         13   -1    0    0    0    0  0.00000000000E+00  0.00000000000E+00  0.74505805969E-08  0.10566000000E+00  0.10566000000E+00 0. -1.
     999900   -1    0    0    0    0 -0.00000000000E+00 -0.00000000000E+00 -0.74505805969E-08  0.93827000000E+00  0.93827000000E+00 0. -1.
     999902    2    1    2    0    0 -0.83081381974E-02  0.11534894295E-01  0.19864682826E-01  0.10195028722E+01  0.10192101952E+01 0.  0.
     999903    2    3    3    0    0  0.10444898474E+00  0.42655466456E-01 -0.56929982397E-01  0.12844727387E+00  0.22991303528E-01 0.  0.
         14    1    1    2    0    0  0.83081381974E-02 -0.11534894295E-01 -0.19864682826E-01  0.24427127758E-01  0.00000000000E+00 0.  1.
     999901    1    3    3    0    0 -0.11275712293E+00 -0.31120572161E-01  0.76794665223E-01  0.89105559837E+00  0.88000000000E+00 0. -1.
        -11    1    4    4    0    0  0.28248922039E-01  0.31012374904E-02 -0.21174615710E-01  0.35443543021E-01  0.51100000000E-03 0.  1.
         11    1    4    4    0    0  0.76200062697E-01  0.39554228965E-01 -0.35755366687E-01  0.93003730849E-01  0.51100000000E-03 0. -1.
</event>
<event>
 8    1  0.1041149E+005  0.1043930E+01  0.7957747E-01            NaN
         13   -1    0    0    0    0  0.00000000000E+00  0.00000000000E+00  0.74505805969E-08  0.10566000000E+00  0.10566000000E+00 0. -1.
     999900   -1    0    0    0    0 -0.00000000000E+00 -0.00000000000E+00 -0.74505805969E-08  0.93827000000E+00  0.93827000000E+00 0.  1.
     999902    2    1    2    0    0  0.72665644398E-02  0.12425648878E-01  0.99827870236E-02  0.10264127015E+01  0.10262632109E+01 0.  0.
     999903    2    3    3    0    0 -0.59046880518E-01  0.12178769557E+00  0.11117533866E-01  0.13716649384E+00  0.19294314766E-01 0.  0.
         14    1    1    2    0    0 -0.72665644398E-02 -0.12425648878E-01 -0.99827870236E-02  0.17517298466E-01  0.00000000000E+00 0.  1.
     999901    1    3    3    0    0  0.66313444958E-01 -0.10936204670E+00 -0.11347468429E-02  0.88924620769E+00  0.88000000000E+00 0. -1.
        -11    1    4    4    0    0 -0.25565834959E-01  0.52937845425E-01 -0.47393144715E-02  0.58980925883E-01  0.51100000000E-03 0. -1.
         11    1    4    4    0    0 -0.33481045560E-01  0.68849850148E-01  0.15856848338E-01  0.78185567961E-01  0.51100000000E-03 0.  1.
</event>
<event>
 8    1  0.1041149E+005  0.1043930E+01  0.7957747E-01            NaN
         13   -1    0    0    0    0  0.00000000000E+00  0.00000000000E+00  0.74505805969E-08  0.10566000000E+00  0.10566000000E+00 0. -1.
     999900   -1    0    0    0    0 -0.00000000000E+00 -0.00000000000E+00 -0.74505805969E-08  0.93827000000E+00  0.93827000000E+00 0. -1.
     999902    2    1    2    0    0 -0.55654907636E-02 -0.24500511755E-01  0.65640312985E-03  0.10187967426E+01  0.10184866823E+01 0.  0.
     999903    2    3    3    0    0  0.24887994876E-01 -0.88162790437E-01  0.91926118349E-01  0.13126620145E+00  0.19705697192E-01 0.  0.
         14    1    1    2    0    0  0.55654907636E-02  0.24500511755E-01 -0.65640312985E-03  0.25133257424E-01  0.00000000000E+00 0. -1.
     999901    1    3    3    0    0 -0.30453485640E-01  0.63662278683E-01 -0.91269715219E-01  0.88753054113E+00  0.88000000000E+00 0. -1.
        -11    1    4    4    0    0  0.18132271468E-01 -0.45115640187E-01  0.60083509874E-01  0.77294822193E-01  0.51100000000E-03 0. -1.
         11    1    4    4    0    0  0.67557234081E-02 -0.43047150250E-01  0.31842608475E-01  0.53971379257E-01  0.51100000000E-03 0.  1.
</event>
<event>
 8    1  0.1041149E+005  0.1043930E+01  0.7957747E-01            NaN
         13   -1    0    0    0    0  0.00000000000E+00  0.00000000000E+00  0.74505805969E-08  0.10566000000E+00  0.10566000000E+00 0. -1.
     999900   -1    0    0    0    0 -0.00000000000E+00 -0.00000000000E+00 -0.74505805969E-08  0.93827000000E+00  0.93827000000E+00 0.  1.
     999902    2    1    2    0    0 -0.10524806926E-01  0.14398706336E-01 -0.15521269241E-01  0.10202867324E+01  0.10200127510E+01 0.  0.
     999903    2    3    3    0    0 -0.15362036071E-01  0.42606212913E-01 -0.12368477277E+00  0.13320251670E+00  0.19842023813E-01 0.  0.
         14    1    1    2    0    0  0.10524806926E-01 -0.14398706336E-01  0.15521269241E-01  0.23643267622E-01  0.00000000000E+00 0. -1.
     999901    1    3    3    0    0  0.48372291449E-02 -0.28207506576E-01  0.10816350353E+00  0.88708421568E+00  0.88000000000E+00 0. -1.
        -11    1    4    4    0    0 -0.10653591032E-01  0.12363064792E-01 -0.64928939047E-01  0.66950523670E-01  0.51100000000E-03 0.  1.
         11    1    4    4    0    0 -0.47084450395E-02  0.30243148121E-01 -0.58755833721E-01  0.66251993028E-01  0.51100000000E-03 0. -1.
</event>
<event>
 8    1  0.1041149E+005  0.1043930E+01  0.7957747E-01            NaN
         13   -1    0    0    0    0  0.00000000000E+00  0.00000000000E+00  0.74505805969E-08  0.10566000000E+00  0.10566000000E+00 0.  1.
     999900   -1    0    0    0    0 -0.00000000000E+00 -0.00000000000E+00 -0.74505805969E-08  0.93827000000E+00  0.93827000000E+00 0.  1.
     999902    2    1    2    0    0 -0.71085081961E-02 -0.15349467796E-01 -0.15843883796E-01  0.10207531645E+01  0.10204900083E+01 0.  0.
     999903    2    3    3    0    0  0.15520654493E-01  0.97030609168E-01  0.80286097835E-01  0.12812651574E+00  0.17740256419E-01 0.  0.
         14    1    1    2    0    0  0.71085081961E-02  0.15349467796E-01  0.15843883796E-01  0.23176835507E-01  0.00000000000E+00 0.  1.
     999901    1    3    3    0    0 -0.22629162689E-01 -0.11238007696E+00 -0.96129981631E-01  0.89262664876E+00  0.88000000000E+00 0. -1.
        -11    1    4    4    0    0  0.92091064764E-02  0.81925112313E-01  0.59542894603E-01  0.10169635730E+00  0.51100000000E-03 0.  1.
         11    1    4    4    0    0  0.63115480161E-02  0.15105496854E-01  0.20743203231E-01  0.26430158434E-01  0.51100000000E-03 0. -1.
</event>
<event>
 8    1  0.1041149E+005  0.1043930E+01  0.7957747E-01            NaN
         13   -1    0    0    0    0  0.00000000000E+00  0.00000000000E+00  0.74505805969E-08  0.10566000000E+00  0.10566000000E+00 0.  1.
     999900   -1    0    0    0    0 -0.00000000000E+00 -0.00000000000E+00 -0.74505805969E-08  0.93827000000E+00  0.93827000000E+00 0.  1.
     999902    2    1    2    0    0 -0.11433264948E-01 -0.11526451998E-01 -0.17270388355E-01  0.10202267311E+01  0.10199513409E+01 0.  0.
     999903    2    3    3    0    0 -0.54027197426E-01 -0.91400831831E-01  0.73809527804E-01  0.13090692879E+00  0.20389396490E-01 0.  0.
         14    1    1    2    0    0  0.11433264948E-01  0.11526451998E-01  0.17270388355E-01  0.23703268909E-01  0.00000000000E+00 0.  1.
     999901    1    3    3    0    0  0.42593932478E-01  0.79874379833E-01 -0.91079916160E-01  0.88931980230E+00  0.88000000000E+00 0.  1.
        -11    1    4    4    0    0 -0.21624573413E-01 -0.50616334725E-01  0.46685311182E-01  0.72176276694E-01  0.51100000000E-03 0.  1.
         11    1    4    4    0    0 -0.32402624014E-01 -0.40784497106E-01  0.27124216623E-01  0.58730652096E-01  0.51100000000E-03 0. -1.
</event>
<event>
 8    1  0.1053034E+005  0.1043930E+01  0.7957747E-01            NaN
         13   -1    0    0    0    0  0.00000000000E+00  0.00000000000E+00  0.74505805969E-08  0.10566000000E+00  0.10566000000E+00 0. -1.
     999900   -1    0    0    0    0 -0.00000000000E+00 -0.00000000000E+00 -0.74505805969E-08  0.93827000000E+00  0.93827000000E+00 0. -1.
     999902    2    1    2    0    0 -0.17890540815E-01  0.36311193065E-02  0.42867056342E-02  0.10251781381E+01  0.10250066256E+01 0.  0.
     999903    2    3    3    0    0 -0.44424439834E-01  0.28500821420E-01 -0.12393846283E+00  0.13514204690E+00  0.10807524957E-01 0.  0.
         14    1    1    2    0    0  0.17890540815E-01 -0.36311193065E-02 -0.42867056342E-02  0.18751861861E-01  0.00000000000E+00 0.  1.
     999901    1    3    3    0    0  0.26533899020E-01 -0.24869702113E-01  0.12822516846E+00  0.89003609124E+00  0.88000000000E+00 0.  1.
        -11    1    4    4    0    0 -0.23519206295E-01  0.16272885133E-01 -0.53695162132E-01  0.60839061570E-01  0.51100000000E-03 0. -1.
         11    1    4    4    0    0 -0.20905233539E-01  0.12227936287E-01 -0.70243300697E-01  0.74302985330E-01  0.51100000000E-03 0.  1.
</event>
<event>
 8    1  0.1041149E+005  0.1043930E+01  0.7957747E-01            NaN
         13   -1    0    0    0    0  0.00000000000E+00  0.00000000000E+00  0.74505805969E-08  0.10566000000E+00  0.10566000000E+00 0.  1.
     999900   -1    0    0    0    0 -0.00000000000E+00 -0.00000000000E+00 -0.74505805969E-08  0.93827000000E+00  0.93827000000E+00 0.  1.
     999902    2    1    2    0    0  0.11897631604E-01 -0.11368449439E-01 -0.12909003432E-01  0.10230149898E+01  0.10228011692E+01 0.  0.
     999903    2    3    3    0    0 -0.36389932821E-01 -0.10994211754E+00 -0.65726105718E-01  0.13462425192E+00  0.19805853018E-01 0.  0.
         14    1    1    2    0    0 -0.11897631604E-01  0.11368449439E-01  0.12909003432E-01  0.20915010161E-01  0.00000000000E+00 0.  1.
     999901    1    3    3    0    0  0.48287564425E-01  0.98573668098E-01  0.52817102286E-01  0.88839073792E+00  0.88000000000E+00 0. -1.
        -11    1    4    4    0    0 -0.56403945358E-02 -0.47995304849E-01 -0.27216741941E-01  0.55465083620E-01  0.51100000000E-03 0. -1.
         11    1    4    4    0    0 -0.30749538286E-01 -0.61946812688E-01 -0.38509363777E-01  0.79159168303E-01  0.51100000000E-03 0.  1.
</event>
<event>
 8    1  0.1041149E+005  0.1043930E+01  0.7957747E-01            NaN
         13   -1    0    0    0    0  0.00000000000E+00  0.00000000000E+00  0.74505805969E-08  0.10566000000E+00  0.10566000000E+00 0.  1.
     999900   -1    0    0    0    0 -0.00000000000E+00 -0.00000000000E+00 -0.74505805969E-08  0.93827000000E+00  0.93827000000E+00 0.  1.
     999902    2    1    2    0    0  0.23659798627E-02  0.10791760466E-02 -0.21469497879E-01  0.10223035851E+01  0.10220748105E+01 0.  0.
     999903    2    3    3    0    0  0.10035540555E-01  0.72753205567E-01 -0.11134883790E+00  0.13479342493E+00  0.19415527462E-01 0.  0.
         14    1    1    2    0    0 -0.23659798627E-02 -0.10791760466E-02  0.21469497879E-01  0.21626414887E-01  0.00000000000E+00 0.  1.
     999901    1    3    3    0    0 -0.76695606922E-02 -0.71674029520E-01  0.89879340025E-01  0.88751016019E+00  0.88000000000E+00 0. -1.
        -11    1    4    4    0    0  0.84428448794E-02  0.51430622495E-01 -0.61926445246E-01  0.80941561028E-01  0.51100000000E-03 0. -1.
         11    1    4    4    0    0  0.15926956755E-02  0.21322583072E-01 -0.49422392659E-01  0.53851863900E-01  0.51100000000E-03 0.  1.
</event>
<event>
 8    1  0.1041149E+005  0.1043930E+01  0.7957747E-01            NaN
         13   -1    0    0    0    0  0.00000000000E+00  0.00000000000E+00  0.74505805969E-08  0.10566000000E+00  0.10566000000E+00 0. -1.
     999900   -1    0    0    0    0 -0.00000000000E+00 -0.00000000000E+00 -0.74505805969E-08  0.93827000000E+00  0.93827000000E+00 0. -1.
     999902    2    1    2    0    0  0.40978725313E-02  0.23025444184E-01  0.58673319797E-02  0.10198179859E+01  0.10195329005E+01 0.  0.
     999903    2    3    3    0    0  0.21112302799E-01  0.64273622393E-01 -0.11032215098E+00  0.13105992040E+00  0.20709849702E-01 0.  0.
         14    1    1    2    0    0 -0.40978725313E-02 -0.23025444184E-01 -0.58673319797E-02  0.24112014095E-01  0.00000000000E+00 0. -1.
     999901    1    3    3    0    0 -0.17014430268E-01 -0.41248178209E-01  0.11618948296E+00  0.88875806550E+00  0.88000000000E+00 0.  1.
        -11    1    4    4    0    0  0.71562078787E-02  0.10008959618E-01 -0.35549460667E-01  0.37622012952E-01  0.51100000000E-03 0.  1.
         11    1    4    4    0    0  0.13956094920E-01  0.54264662776E-01 -0.74772690312E-01  0.93437907452E-01  0.51100000000E-03 0. -1.
</event>
<event>
 8    1  0.1041149E+005  0.1043930E+01  0.7957747E-01            NaN
         13   -1    0    0    0    0  0.00000000000E+00  0.00000000000E+00  0.74505805969E-08  0.10566000000E+00  0.10566000000E+00 0.  1.
     999900   -1    0    0    0    0 -0.00000000000E+00 -0.00000000000E+00 -0.74505805969E-08  0.93827000000E+00  0.93827000000E+00 0. -1.
     999902    2    1    2    0    0  0.20616271625E-01 -0.21874381544E-03  0.11950067031E-01  0.10200997124E+01  0.10198213278E+01 0.  0.
     999903    2    3    3    0    0 -0.93477449788E-01  0.28666620158E-01  0.82491834543E-01  0.12946629597E+00  0.19920097775E-01 0.  0.
         14    1    1    2    0    0 -0.20616271625E-01  0.21874381544E-03 -0.11950067031E-01  0.23830287590E-01  0.00000000000E+00 0.  1.
     999901    1    3    3    0    0  0.11409372141E+00 -0.28885363973E-01 -0.70541767512E-01  0.89063341644E+00  0.88000000000E+00 0.  1.
        -11    1    4    4    0    0 -0.16342737659E-01  0.80045867063E-02  0.67862306233E-02  0.19428652285E-01  0.51100000000E-03 0. -1.
         11    1    4    4    0    0 -0.77134712129E-01  0.20662033451E-01  0.75705603920E-01  0.11003764368E+00  0.51100000000E-03 0.  1.
</event>
<event>
 8    1  0.1041149E+005  0.1043930E+01  0.7957747E-01            NaN
         13   -1    0    0    0    0  0.00000000000E+00  0.00000000000E+00  0.74505805969E-08  0.10566000000E+00  0.10566000000E+00 0. -1.
     999900   -1    0    0    0    0 -0.00000000000E+00 -0.00000000000E+00 -0.74505805969E-08  0.93827000000E+00  0.93827000000E+00 0. -1.
     999902    2    1    2    0    0 -0.12510720676E-01 -0.15755292064E-01 -0.12899785199E-01  0.10200312172E+01  0.10197512110E+01 0.  0.
     999903    2    3    3    0    0  0.14566592325E-01  0.77339121285E-01  0.98638946671E-01  0.12770804741E+00  0.19651419313E-01 0.  0.
         14    1    1    2    0    0  0.12510720676E-01  0.15755292064E-01  0.12899785199E-01  0.23898782773E-01  0.00000000000E+00 0.  1.
     999901    1    3    3    0    0 -0.27077313001E-01 -0.93094413348E-01 -0.11153873187E+00  0.89232316981E+00  0.88000000000E+00 0. -1.
        -11    1    4    4    0    0  0.87008302885E-02  0.43205080497E-01  0.39568948672E-01  0.59231294503E-01  0.51100000000E-03 0. -1.
         11    1    4    4    0    0  0.58657620366E-02  0.34134040788E-01  0.59069997999E-01  0.68476752912E-01  0.51100000000E-03 0.  1.
</event>
<event>
 8    1  0.1041149E+005  0.1043930E+01  0.7957747E-01            NaN
         13   -1    0    0    0    0  0.00000000000E+00  0.00000000000E+00  0.74505805969E-08  0.10566000000E+00  0.10566000000E+00 0. -1.
     999900   -1    0    0    0    0 -0.00000000000E+00 -0.00000000000E+00 -0.74505805969E-08  0.93827000000E+00  0.93827000000E+00 0. -1.
     999902    2    1    2    0    0  0.11725437940E-01  0.17497839139E-01  0.10971694130E-01  0.10201805086E+01  0.10199040307E+01 0.  0.
     999903    2    3    3    0    0  0.71127861984E-01  0.70810735731E-01 -0.82732968986E-01  0.13161341670E+00  0.20100105807E-01 0.  0.
         14    1    1    2    0    0 -0.11725437940E-01 -0.17497839139E-01 -0.10971694130E-01  0.23749491394E-01  0.00000000000E+00 0.  1.
     999901    1    3    3    0    0 -0.59402424044E-01 -0.53312896592E-01  0.93704663116E-01  0.88856709190E+00  0.88000000000E+00 0.  1.
        -11    1    4    4    0    0  0.27405848881E-01  0.18361601188E-01 -0.18296527671E-01  0.37726025458E-01  0.51100000000E-03 0. -1.
         11    1    4    4    0    0  0.43722013103E-01  0.52449134543E-01 -0.64436441315E-01  0.93887391243E-01  0.51100000000E-03 0.  1.
</event>
<event>
 8    1  0.1041149E+005  0.1043930E+01  0.7957747E-01            NaN
         13   -1    0    0    0    0  0.00000000000E+00  0.00000000000E+00  0.74505805969E-08  0.10566000000E+00  0.10566000000E+00 0. -1.
     999900   -1    0    0    0    0 -0.00000000000E+00 -0.00000000000E+00 -0.74505805969E-08  0.93827000000E+00  0.93827000000E+00 0.  1.
     999902    2    1    2    0    0 -0.10981512384E-01  0.21401611744E-01  0.32823460835E-02  0.10196525126E+01  0.10193634533E+01 0.  0.
     999903    2    3    3    0    0 -0.10719760438E+00  0.59280053362E-02 -0.72546351954E-01  0.13103169339E+00  0.19490096429E-01 0.  0.
         14    1    1    2    0    0  0.10981512384E-01 -0.21401611744E-01 -0.32823460835E-02  0.24277487417E-01  0.00000000000E+00 0. -1.
     999901    1    3    3    0    0  0.96216091997E-01  0.15473606407E-01  0.75828698037E-01  0.88862081919E+00  0.88000000000E+00 0. -1.
        -11    1    4    4    0    0 -0.10266571756E-01  0.40127241115E-03 -0.14937269938E-01  0.18136886981E-01  0.51100000000E-03 0. -1.
         11    1    4    4    0    0 -0.96931032626E-01  0.55267329251E-02 -0.57609082016E-01  0.11289480641E+00  0.51100000000E-03 0.  1.
</event>
<event>
 8    1  0.1041149E+005  0.1043930E+01  0.7957747E-01            NaN
         13   -1    0    0    0    0  0.00000000000E+00  0.00000000000E+00  0.74505805969E-08  0.10566000000E+00  0.10566000000E+00 0.  1.
     999900   -1    0    0    0    0 -0.00000000000E+00 -0.00000000000E+00 -0.74505805969E-08  0.93827000000E+00  0.93827000000E+00 0. -1.
     999902    2    1    2    0    0  0.17282294035E-01  0.83915703620E-02  0.13338143483E-01  0.10205419216E+01  0.10202738904E+01 0.  0.
     999903    2    3    3    0    0 -0.59192483560E-01  0.48367766717E-01  0.10631492552E+00  0.13144621814E+00  0.11491471181E-01 0.  0.
         14    1    1    2    0    0 -0.17282294035E-01 -0.83915703620E-02 -0.13338143483E-01  0.23388078413E-01  0.00000000000E+00 0.  1.
     999901    1    3    3    0    0  0.76474777595E-01 -0.39976196354E-01 -0.92976782033E-01  0.88909570344E+00  0.88000000000E+00 0. -1.
        -11    1    4    4    0    0 -0.35679744849E-01  0.22123580388E-01  0.60662507146E-01  0.73774642635E-01  0.51100000000E-03 0.  1.
         11    1    4    4    0    0 -0.23512738711E-01  0.26244186328E-01  0.45652418370E-01  0.57671575509E-01  0.51100000000E-03 0. -1.
</event>
<event>
 8    1  0.1041149E+005  0.1043930E+01  0.7957747E-01            NaN
         13   -1    0    0    0    0  0.00000000000E+00  0.00000000000E+00  0.74505805969E-08  0.10566000000E+00  0.10566000000E+00 0. -1.
     999900   -1    0    0    0    0 -0.00000000000E+00 -0.00000000000E+00 -0.74505805969E-08  0.93827000000E+00  0.93827000000E+00 0. -1.
     999902    2    1    2    0    0  0.12658169860E-01  0.20593572758E-01 -0.27995379621E-02  0.10195956228E+01  0.10193051908E+01 0.  0.
     999903    2    3    3    0    0 -0.71267456342E-02  0.26716697523E-02 -0.12838924637E+00  0.13027823715E+00  0.20753124265E-01 0.  0.
         14    1    1    2    0    0 -0.12658169860E-01 -0.20593572758E-01  0.27995379621E-02  0.24334377246E-01  0.00000000000E+00 0. -1.
     999901    1    3    3    0    0  0.19784915494E-01  0.17921903006E-01  0.12558970841E+00  0.88931738561E+00  0.88000000000E+00 0.  1.
        -11    1    4    4    0    0  0.16063797613E-02  0.59215566185E-02 -0.10372407924E+00  0.10390664571E+00  0.51100000000E-03 0. -1.
         11    1    4    4    0    0 -0.87331253955E-02 -0.32498868663E-02 -0.24665167136E-01  0.26371591432E-01  0.51100000000E-03 0.  1.
</event>
<event>
 8    1  0.1041149E+005  0.1043930E+01  0.7957747E-01            NaN
         13   -1    0    0    0    0  0.00000000000E+00  0.00000000000E+00  0.74505805969E-08  0.10566000000E+00  0.10566000000E+00 0. -1.
     999900   -1    0    0    0    0 -0.00000000000E+00 -0.00000000000E+00 -0.74505805969E-08  0.93827000000E+00  0.93827000000E+00 0.  1.
     999902    2    1    2    0    0 -0.55071984131E-03 -0.12510138523E-01  0.16711426334E-01  0.10230475043E+01  0.10228343548E+01 0.  0.
     999903    2    3    3    0    0 -0.87954582013E-01  0.88276242598E-01  0.41513518609E-01  0.13264732820E+00  0.18526682051E-01 0.  0.
         14    1    1    2    0    0  0.55071984131E-03  0.12510138523E-01 -0.16711426334E-01  0.20882495740E-01  0.00000000000E+00 0.  1.
     999901    1    3    3    0    0  0.87403862171E-01 -0.10078638112E+00 -0.24802092276E-01  0.89040017606E+00  0.88000000000E+00 0.  1.
        -11    1    4    4    0    0 -0.36815872488E-02  0.10894260791E-01  0.26230645382E-02  0.11805955761E-01  0.51100000000E-03 0.  1.
         11    1    4    4    0    0 -0.84272994764E-01  0.77381981806E-01  0.38890454071E-01  0.12084137244E+00  0.51100000000E-03 0. -1.
</event>
<event>
 8    1  0.1041149E+005  0.1043930E+01  0.7957747E-01            NaN
         13   -1    0    0    0    0  0.00000000000E+00  0.00000000000E+00  0.74505805969E-08  0.10566000000E+00  0.10566000000E+00 0. -1.
     999900   -1    0    0    0    0 -0.00000000000E+00 -0.00000000000E+00 -0.74505805969E-08  0.93827000000E+00  0.93827000000E+00 0.  1.
     999902    2    1    2    0    0 -0.12620245166E-01 -0.82906092104E-02 -0.16764682148E-01  0.10213676562E+01  0.10211184211E+01 0.  0.
     999903    2    3    3    0    0 -0.82803738035E-01  0.18933280645E-01 -0.10178406263E+00  0.13407111171E+00  0.20003485735E-01 0.  0.
         14    1    1    2    0    0  0.12620245166E-01  0.82906092104E-02  0.16764682148E-01  0.22562343776E-01  0.00000000000E+00 0. -1.
     999901    1    3    3    0    0  0.70183492868E-01 -0.27223889856E-01  0.85019380479E-01  0.88729654451E+00  0.88000000000E+00 0. -1.
        -11    1    4    4    0    0 -0.48076926452E-01  0.80295846501E-02 -0.43387968574E-01  0.65258271696E-01  0.51100000000E-03 0.  1.
         11    1    4    4    0    0 -0.34726811582E-01  0.10903695995E-01 -0.58396094053E-01  0.68812840014E-01  0.51100000000E-03 0. -1.
</event>
<event>
 8    1  0.1041149E+005  0.1043930E+01  0.7957747E-01            NaN
         13   -1    0    0    0    0  0.00000000000E+00  0.00000000000E+00  0.74505805969E-08  0.10566000000E+00  0.10566000000E+00 0. -1.
     999900   -1    0    0    0    0 -0.00000000000E+00 -0.00000000000E+00 -0.74505805969E-08  0.93827000000E+00  0.93827000000E+00 0. -1.
     999902    2    1    2    0    0  0.27680286667E-02 -0.11118057931E-01 -0.22758949371E-01  0.10184497533E+01  0.10181309626E+01 0.  0.
     999903    2    3    3    0    0  0.59436618990E-01 -0.14978350901E-02 -0.11581545497E+00  0.13167842368E+00  0.19774540892E-01 0.  0.
         14    1    1    2    0    0 -0.27680286667E-02  0.11118057931E-01  0.22758949371E-01  0.25480246689E-01  0.00000000000E+00 0. -1.
     999901    1    3    3    0    0 -0.56668590323E-01 -0.96202228410E-02  0.93056505597E-01  0.88677132963E+00  0.88000000000E+00 0.  1.
        -11    1    4    4    0    0  0.28065018053E-01 -0.84901813750E-02 -0.68090913112E-01  0.74137453338E-01  0.51100000000E-03 0.  1.
         11    1    4    4    0    0  0.31371600937E-01  0.69923462849E-02 -0.47724541855E-01  0.57540970345E-01  0.51100000000E-03 0. -1.
</event>
<event>
 7    1  0.1041149E+005  0.1043930E+01  0.7957747E-01            NaN
         13   -1    0    0    0    0  0.00000000000E+00  0.00000000000E+00  0.74505805969E-08  0.10566000000E+00  0.10566000000E+00 0.  1.
     999900   -1    0    0    0    0 -0.00000000000E+00 -0.00000000000E+00 -0.74505805969E-08  0.93827000000E+00  0.93827000000E+00 0.  1.
     999903    2    1    2    0    0 -0.37391438627E-01 -0.97391416162E-01 -0.29930514709E-01  0.11036824690E+00  0.20052595564E-01 0.  0.
         14    1    1    2    0    0 -0.10709966785E-01 -0.39665211216E-01  0.39684380541E-02  0.41276880574E-01  0.00000000000E+00 0.  1.
     999901    1    1    2    0    0  0.48101405413E-01  0.13705662738E+00  0.25962076655E-01  0.89228487252E+00  0.88000000000E+00 0.  1.
        -11    1    3    3    0    0 -0.34391378798E-01 -0.64177944995E-01 -0.18714425256E-01  0.75180226078E-01  0.51100000000E-03 0.  1.
         11    1    3    3    0    0 -0.30000598295E-02 -0.33213471166E-01 -0.11216089453E-01  0.35188020824E-01  0.51100000000E-03 0. -1.
</event>
<event>
 8    1  0.1041149E+005  0.1043930E+01  0.7957747E-01            NaN
         13   -1    0    0    0    0  0.00000000000E+00  0.00000000000E+00  0.74505805969E-08  0.10566000000E+00  0.10566000000E+00 0. -1.
     999900   -1    0    0    0    0 -0.00000000000E+00 -0.00000000000E+00 -0.74505805969E-08  0.93827000000E+00  0.93827000000E+00 0. -1.
     999902    2    1    2    0    0  0.12684098705E-01  0.25704179031E-02 -0.19904492616E-01  0.10201880069E+01  0.10199117056E+01 0.  0.
     999903    2    3    3    0    0  0.12185046379E+00  0.19787151314E-01 -0.45238906231E-01  0.13291378569E+00  0.19505099531E-01 0.  0.
         14    1    1    2    0    0 -0.12684098705E-01 -0.25704179031E-02  0.19904492616E-01  0.23741993060E-01  0.00000000000E+00 0. -1.
     999901    1    3    3    0    0 -0.10916636508E+00 -0.17216733411E-01  0.25334413615E-01  0.88727422125E+00  0.88000000000E+00 0.  1.
        -11    1    4    4    0    0  0.87424001498E-01  0.16336430935E-01 -0.41388670817E-01  0.98097493376E-01  0.51100000000E-03 0. -1.
         11    1    4    4    0    0  0.34426462291E-01  0.34507203791E-02 -0.38502354139E-02  0.34816292318E-01  0.51100000000E-03 0.  1.
</event>
<event>
 8    1  0.1041149E+005  0.1043930E+01  0.7957747E-01            NaN
         13   -1    0    0    0    0  0.00000000000E+00  0.00000000000E+00  0.74505805969E-08  0.10566000000E+00  0.10566000000E+00 0.  1.
     999900   -1    0    0    0    0 -0.00000000000E+00 -0.00000000000E+00 -0.74505805969E-08  0.93827000000E+00  0.93827000000E+00 0.  1.
     999902    2    1    2    0    0  0.41803987263E-02 -0.20868608769E-01  0.98534891507E-02  0.10204765181E+01  0.10202069683E+01 0.  0.
     999903    2    3    3    0    0 -0.79126229404E-02  0.12453359567E+00 -0.20873125749E-01  0.12793398851E+00  0.18978724558E-01 0.  0.
         14    1    1    2    0    0 -0.41803987263E-02  0.20868608769E-01 -0.98534891507E-02  0.23453481914E-01  0.00000000000E+00 0. -1.
     999901    1    3    3    0    0  0.12093021667E-01 -0.14540220444E+00  0.30726614899E-01  0.89254252957E+00  0.88000000000E+00 0. -1.
        -11    1    4    4    0    0 -0.81017892162E-03  0.57937813137E-01 -0.56890818926E-03  0.57948523350E-01  0.51100000000E-03 0.  1.
         11    1    4    4    0    0 -0.71024440188E-02  0.66595782536E-01 -0.20304217559E-01  0.69985465165E-01  0.51100000000E-03 0. -1.
</event>
<event>
 8    1  0.1041149E+005  0.1043930E+01  0.7957747E-01            NaN
         13   -1    0    0    0    0  0.00000000000E+00  0.00000000000E+00  0.74505805969E-08  0.10566000000E+00  0.10566000000E+00 0.  1.
     999900   -1    0    0    0    0 -0.00000000000E+00 -0.00000000000E+00 -0.74505805969E-08  0.93827000000E+00  0.93827000000E+00 0.  1.
     999902    2    1    2    0    0  0.16129329703E-01  0.17626475053E-01  0.10230893710E-02  0.10200156819E+01  0.10197353072E+01 0.  0.
     999903    2    3    3    0    0  0.25040222089E-01  0.96944426095E-01 -0.83903418386E-01  0.13233147391E+00  0.21132933922E-01 0.  0.
         14    1    1    2    0    0 -0.16129329703E-01 -0.17626475053E-01 -0.10230893710E-02  0.23914318123E-01  0.00000000000E+00 0. -1.
     999901    1    3    3    0    0 -0.89108923857E-02 -0.79317951043E-01  0.84926507757E-01  0.88768420797E+00  0.88000000000E+00 0.  1.
        -11    1    4    4    0    0  0.13708634789E-01  0.46131081418E-01 -0.53823597298E-01  0.72202798337E-01  0.51100000000E-03 0. -1.
         11    1    4    4    0    0  0.11331587299E-01  0.50813344678E-01 -0.30079821087E-01  0.60128675569E-01  0.51100000000E-03 0.  1.
</event>
<event>
 8    1  0.1041149E+005  0.1043930E+01  0.7957747E-01            NaN
         13   -1    0    0    0    0  0.00000000000E+00  0.00000000000E+00  0.74505805969E-08  0.10566000000E+00  0.10566000000E+00 0. -1.
     999900   -1    0    0    0    0 -0.00000000000E+00 -0.00000000000E+00 -0.74505805969E-08  0.93827000000E+00  0.93827000000E+00 0.  1.
     999902    2    1    2    0    0 -0.16296416991E-01  0.42872913033E-02 -0.15795638805E-01  0.10208333275E+01  0.10205720094E+01 0.  0.
     999903    2    3    3    0    0  0.32206657376E-01  0.10768324891E+00  0.62170799188E-01  0.13003478818E+00  0.20270347590E-01 0.  0.
         14    1    1    2    0    0  0.16296416991E-01 -0.42872913033E-02  0.15795638805E-01  0.23096672460E-01  0.00000000000E+00 0.  1.
     999901    1    3    3    0    0 -0.48503074367E-01 -0.10339595760E+00 -0.77966437993E-01  0.89079853936E+00  0.88000000000E+00 0.  1.
        -11    1    4    4    0    0  0.12896568034E-01  0.16505228992E-01  0.12998307977E-01  0.24656868869E-01  0.51100000000E-03 0.  1.
         11    1    4    4    0    0  0.19310089342E-01  0.91178019913E-01  0.49172491211E-01  0.10537791931E+00  0.51100000000E-03 0. -1.
</event>
<event>
 8    1  0.1041149E+005  0.1043930E+01  0.7957747E-01            NaN
         13   -1    0    0    0    0  0.00000000000E+00  0.00000000000E+00  0.74505805969E-08  0.10566000000E+00  0.10566000000E+00 0.  1.
     999900   -1    0    0    0    0 -0.00000000000E+00 -0.00000000000E+00 -0.74505805969E-08  0.93827000000E+00  0.93827000000E+00 0. -1.
     999902    2    1    2    0    0  0.21052767402E-01 -0.22025052587E-02 -0.10414011600E-01  0.10203392882E+01  0.10200665377E+01 0.  0.
     999903    2    3    3    0    0  0.45856428476E-01  0.10610255211E+00  0.57987490820E-01  0.13071915997E+00  0.19088899791E-01 0.  0.
         14    1    1    2    0    0 -0.21052767402E-01  0.22025052587E-02  0.10414011600E-01  0.23590711780E-01  0.00000000000E+00 0.  1.
     999901    1    3    3    0    0 -0.24803661074E-01 -0.10830505737E+00 -0.68401502420E-01  0.88962012825E+00  0.88000000000E+00 0. -1.
        -11    1    4    4    0    0  0.16360364659E-01  0.28173979287E-01  0.80058761257E-02  0.33552791452E-01  0.51100000000E-03 0. -1.
         11    1    4    4    0    0  0.29496063816E-01  0.77928572821E-01  0.49981614695E-01  0.97166368518E-01  0.51100000000E-03 0.  1.
</event>
<event>
 8    1  0.1041149E+005  0.1043930E+01  0.7957747E-01            NaN
         13   -1    0    0    0    0  0.00000000000E+00  0.00000000000E+00  0.74505805969E-08  0.10566000000E+00  0.10566000000E+00 0. -1.
     999900   -1    0    0    0    0 -0.00000000000E+00 -0.00000000000E+00 -0.74505805969E-08  0.93827000000E+00  0.93827000000E+00 0. -1.
     999902    2    1    2    0    0 -0.36476930733E-03  0.15794034389E-01 -0.17387673392E-01  0.10204371125E+01  0.10201666456E+01 0.  0.
     999903    2    3    3    0    0  0.61827590037E-01  0.17556476013E-02 -0.11573445768E+00  0.13266627725E+00  0.19497262321E-01 0.  0.
         14    1    1    2    0    0  0.36476930733E-03 -0.15794034389E-01  0.17387673392E-01  0.23492887539E-01  0.00000000000E+00 0. -1.
     999901    1    3    3    0    0 -0.62192359344E-01  0.14038386787E-01  0.98346784287E-01  0.88777083521E+00  0.88000000000E+00 0.  1.
        -11    1    4    4    0    0  0.44467147209E-01 -0.45685865042E-02 -0.67003541049E-01  0.80547717519E-01  0.51100000000E-03 0. -1.
         11    1    4    4    0    0  0.17360442828E-01  0.63242341054E-02 -0.48730916630E-01  0.52118559735E-01  0.51100000000E-03 0.  1.
</event>
<event>
 8    1  0.1041149E+005  0.1043930E+01  0.7957747E-01            NaN
         13   -1    0    0    0    0  0.00000000000E+00  0.00000000000E+00  0.74505805969E-08  0.10566000000E+00  0.10566000000E+00 0.  1.
     999900   -1    0    0    0    0 -0.00000000000E+00 -0.00000000000E+00 -0.74505805969E-08  0.93827000000E+00  0.93827000000E+00 0.  1.
     999902    2    1    2    0    0 -0.16706043961E-03 -0.52341332749E-02 -0.22906884469E-01  0.10204321402E+01  0.10201615574E+01 0.  0.
     999903    2    3    3    0    0 -0.12089877893E+00  0.30427708773E-01 -0.36145065086E-01  0.13137468182E+00  0.20260332808E-01 0.  0.
         14    1    1    2    0    0  0.16706043961E-03  0.52341332749E-02  0.22906884469E-01  0.23497859826E-01  0.00000000000E+00 0.  1.
     999901    1    3    3    0    0  0.12073171849E+00 -0.35661842048E-01  0.13238180617E-01  0.88905745835E+00  0.88000000000E+00 0.  1.
        -11    1    4    4    0    0 -0.42502762963E-02  0.48732377453E-02 -0.43109545793E-02  0.77883724296E-02  0.51100000000E-03 0. -1.
         11    1    4    4    0    0 -0.11664850263E+00  0.25554471028E-01 -0.31834110506E-01  0.12358630939E+00  0.51100000000E-03 0.  1.
</event>
<event>
 8    1  0.1041149E+005  0.1043930E+01  0.7957747E-01            NaN
         13   -1    0    0    0    0  0.00000000000E+00  0.00000000000E+00  0.74505805969E-08  0.10566000000E+00  0.10566000000E+00 0. -1.
     999900   -1    0    0    0    0 -0.00000000000E+00 -0.00000000000E+00 -0.74505805969E-08  0.93827000000E+00  0.93827000000E+00 0. -1.
     999902    2    1    2    0    0  0.69177726901E-02 -0.95215389004E-02  0.20590667709E-01  0.10202131098E+01  0.10199373994E+01 0.  0.
     999903    2    3    3    0    0  0.62525119453E-01  0.10198222371E+00  0.49133782041E-01  0.13097749682E+00  0.20765635575E-01 0.  0.
         14    1    1    2    0    0 -0.69177726901E-02  0.95215389004E-02 -0.20590667709E-01  0.23716890157E-01  0.00000000000E+00 0.  1.
     999901    1    3    3    0    0 -0.55607346763E-01 -0.11150376261E+00 -0.28543114333E-01  0.88923561302E+00  0.88000000000E+00 0.  1.
        -11    1    4    4    0    0  0.54093845996E-01  0.71657618415E-01  0.39195978994E-01  0.97967057432E-01  0.51100000000E-03 0.  1.
         11    1    4    4    0    0  0.84312734576E-02  0.30324605293E-01  0.99378030476E-02  0.33010439390E-01  0.51100000000E-03 0. -1.
</event>
<event>
 8    1  0.1041149E+005  0.1043930E+01  0.7957747E-01            NaN
         13   -1    0    0    0    0  0.00000000000E+00  0.00000000000E+00  0.74505805969E-08  0.10566000000E+00  0.10566000000E+00 0.  1.
     999900   -1    0    0    0    0 -0.00000000000E+00 -0.00000000000E+00 -0.74505805969E-08  0.93827000000E+00  0.93827000000E+00 0. -1.
     999902    2    1    2    0    0 -0.10870235319E-01  0.19435944115E-01  0.41411181512E-02  0.10212790221E+01  0.10210278029E+01 0.  0.
     999903    2    3    3    0    0  0.10200504086E+00  0.74210003919E-01  0.31542892227E-01  0.13195799863E+00  0.22490138019E-01 0.  0.
         14    1    1    2    0    0  0.10870235319E-01 -0.19435944115E-01 -0.41411181512E-02  0.22650977883E-01  0.00000000000E+00 0. -1.
     999901    1    3    3    0    0 -0.11287527618E+00 -0.54774059804E-01 -0.27401774075E-01  0.88932102349E+00  0.88000000000E+00 0. -1.
        -11    1    4    4    0    0  0.56877764460E-01  0.54021232538E-01  0.15342771430E-01  0.79931441943E-01  0.51100000000E-03 0. -1.
         11    1    4    4    0    0  0.45127276404E-01  0.20188771381E-01  0.16200120797E-01  0.52026556683E-01  0.51100000000E-03 0.  1.
</event>
<event>
 8    1  0.1041149E+005  0.1043930E+01  0.7957747E-01            NaN
         13   -1    0    0    0    0  0.00000000000E+00  0.00000000000E+00  0.74505805969E-08  0.10566000000E+00  0.10566000000E+00 0. -1.
     999900   -1    0    0    0    0 -0.00000000000E+00 -0.00000000000E+00 -0.74505805969E-08  0.93827000000E+00  0.93827000000E+00 0. -1.
     999902    2    1    2    0    0 -0.13932670120E-01 -0.18673862789E-01  0.41602112767E-02  0.10202627271E+01  0.10199881825E+01 0.  0.
     999903    2    3    3    0    0 -0.46304143358E-01 -0.11319995742E+00  0.49501521850E-01  0.13344880678E+00  0.19996982597E-01 0.  0.
         14    1    1    2    0    0  0.13932670120E-01  0.18673862789E-01 -0.41602112767E-02  0.23667272889E-01  0.00000000000E+00 0.  1.
     999901    1    3    3    0    0  0.32371473238E-01  0.94526094634E-01 -0.45341310574E-01  0.88681392033E+00  0.88000000000E+00 0. -1.
        -11    1    4    4    0    0 -0.95728749084E-02 -0.27483117941E-01  0.21142682920E-01  0.35975489821E-01  0.51100000000E-03 0.  1.
         11    1    4    4    0    0 -0.36731268449E-01 -0.85716839483E-01  0.28358838930E-01  0.97473316960E-01  0.51100000000E-03 0. -1.
</event>
<event>
 8    1  0.1041149E+005  0.1043930E+01  0.7957747E-01            NaN
         13   -1    0    0    0    0  0.00000000000E+00  0.00000000000E+00  0.74505805969E-08  0.10566000000E+00  0.10566000000E+00 0. -1.
     999900   -1    0    0    0    0 -0.00000000000E+00 -0.00000000000E+00 -0.74505805969E-08  0.93827000000E+00  0.93827000000E+00 0. -1.
     999902    2    1    2    0    0 -0.15327934256E-01 -0.16562674706E-01 -0.73974643942E-02  0.10201815213E+01  0.10199050672E+01 0.  0.
     999903    2    3    3    0    0  0.21889133985E-01  0.11550342790E+00  0.45990773046E-01  0.12795012219E+00  0.20878374474E-01 0.  0.
         14    1    1    2    0    0  0.15327934256E-01  0.16562674706E-01  0.73974643942E-02  0.23748478718E-01  0.00000000000E+00 0. -1.
     999901    1    3    3    0    0 -0.37217068241E-01 -0.13206610260E+00 -0.53388237440E-01  0.89223139909E+00  0.88000000000E+00 0.  1.
        -11    1    4    4    0    0  0.62435501932E-02  0.74940484417E-01  0.22313363918E-01  0.78442370273E-01  0.51100000000E-03 0. -1.
         11    1    4    4    0    0  0.15645583792E-01  0.40562943481E-01  0.23677409129E-01  0.49507751919E-01  0.51100000000E-03 0.  1.
</event>
<event>
 8    1  0.1041149E+005  0.1043930E+01  0.7957747E-01            NaN
         13   -1    0    0    0    0  0.00000000000E+00  0.00000000000E+00  0.74505805969E-08  0.10566000000E+00  0.10566000000E+00 0.  1.
     999900   -1    0    0    0    0 -0.00000000000E+00 -0.00000000000E+00 -0.74505805969E-08  0.93827000000E+00  0.93827000000E+00 0. -1.
     999902    2    1    2    0    0 -0.44334617598E-02  0.23448146102E-01  0.71058169317E-03  0.10200558285E+01  0.10197764055E+01 0.  0.
     999903    2    3    3    0    0 -0.81272282525E-01  0.76861732137E-01  0.68234422462E-01  0.13252178147E+00  0.19828675746E-01 0.  0.
         14    1    1    2    0    0  0.44334617598E-02 -0.23448146102E-01 -0.71058169317E-03  0.23874171507E-01  0.00000000000E+00 0. -1.
     999901    1    3    3    0    0  0.76838820765E-01 -0.53413586035E-01 -0.67523840769E-01  0.88753404702E+00  0.88000000000E+00 0. -1.
        -11    1    4    4    0    0 -0.44462408242E-01  0.33652882760E-01  0.42916171984E-01  0.70366762065E-01  0.51100000000E-03 0.  1.
         11    1    4    4    0    0 -0.36809874283E-01  0.43208849377E-01  0.25318250478E-01  0.62155019407E-01  0.51100000000E-03 0. -1.
</event>
<event>
 8    1  0.1041149E+005  0.1043930E+01  0.7957747E-01            NaN
         13   -1    0    0    0    0  0.00000000000E+00  0.00000000000E+00  0.74505805969E-08  0.10566000000E+00  0.10566000000E+00 0.  1.
     999900   -1    0    0    0    0 -0.00000000000E+00 -0.00000000000E+00 -0.74505805969E-08  0.93827000000E+00  0.93827000000E+00 0.  1.
     999902    2    1    2    0    0 -0.17080474264E-01  0.12051036078E-01  0.11094012478E-01  0.10202646839E+01  0.10199901853E+01 0.  0.
     999903    2    3    3    0    0 -0.10736048249E+00 -0.72819556075E-01 -0.79030655456E-02  0.13138089723E+00  0.19222922889E-01 0.  0.
         14    1    1    2    0    0  0.17080474264E-01 -0.12051036078E-01 -0.11094012478E-01  0.23665316066E-01  0.00000000000E+00 0.  1.
     999901    1    3    3    0    0  0.90280008222E-01  0.84870592154E-01  0.18997078023E-01  0.88888378671E+00  0.88000000000E+00 0. -1.
        -11    1    4    4    0    0 -0.38948026760E-01 -0.15888476625E-01 -0.50645490519E-03  0.42070299447E-01  0.51100000000E-03 0. -1.
         11    1    4    4    0    0 -0.68412455727E-01 -0.56931079450E-01 -0.73966106404E-02  0.89310597781E-01  0.51100000000E-03 0.  1.
</event>
<event>
 8    1  0.1041149E+005  0.1043930E+01  0.7957747E-01            NaN
         13   -1    0    0    0    0  0.00000000000E+00  0.00000000000E+00  0.74505805969E-08  0.10566000000E+00  0.10566000000E+00 0. -1.
     999900   -1    0    0    0    0 -0.00000000000E+00 -0.00000000000E+00 -0.74505805969E-08  0.93827000000E+00  0.93827000000E+00 0. -1.
     999902    2    1    2    0    0  0.35289724469E-02 -0.13172645144E-01  0.14796508311E-01  0.10238076521E+01  0.10236098864E+01 0.  0.
     999903    2    3    3    0    0  0.64795365539E-01 -0.19568980960E-01 -0.11214569977E+00  0.13256761248E+00  0.20399252214E-01 0.  0.
         14    1    1    2    0    0 -0.35289724469E-02  0.13172645144E-01 -0.14796508311E-01  0.20122347895E-01  0.00000000000E+00 0.  1.
     999901    1    3    3    0    0 -0.61266393093E-01  0.63963358160E-02  0.12694220808E+00  0.89124003962E+00  0.88000000000E+00 0.  1.
        -11    1    4    4    0    0  0.36875883682E-01 -0.20785849559E-01 -0.74383840148E-01  0.85586792996E-01  0.51100000000E-03 0. -1.
         11    1    4    4    0    0  0.27919481857E-01  0.12168685992E-02 -0.37761859623E-01  0.46980819486E-01  0.51100000000E-03 0.  1.
</event>
<event>
 8    1  0.1041149E+005  0.1043930E+01  0.7957747E-01            NaN
         13   -1    0    0    0    0  0.00000000000E+00  0.00000000000E+00  0.74505805969E-08  0.10566000000E+00  0.10566000000E+00 0. -1.
     999900   -1    0    0    0    0 -0.00000000000E+00 -0.00000000000E+00 -0.74505805969E-08  0.93827000000E+00  0.93827000000E+00 0. -1.
     999902    2    1    2    0    0  0.22726003235E-01  0.38253853224E-02  0.36961661063E-02  0.10205897678E+01  0.10203228448E+01 0.  0.
     999903    2    3    3    0    0 -0.10425408678E+00 -0.66386574540E-01  0.28735457007E-01  0.12835626211E+00  0.19326449292E-01 0.  0.
         14    1    1    2    0    0 -0.22726003235E-01 -0.38253853224E-02 -0.36961661063E-02  0.23340232213E-01  0.00000000000E+00 0.  1.
     999901    1    3    3    0    0  0.12698009002E+00  0.70211959862E-01 -0.25039290901E-01  0.89223350568E+00  0.88000000000E+00 0. -1.
        -11    1    4    4    0    0 -0.71495393224E-01 -0.48634074101E-01  0.11265453673E-01  0.87201123751E-01  0.51100000000E-03 0. -1.
         11    1    4    4    0    0 -0.32758693560E-01 -0.17752500439E-01  0.17470003334E-01  0.41155138356E-01  0.51100000000E-03 0.  1.
</event>
<event>
 8    1  0.1041149E+005  0.1043930E+01  0.7957747E-01            NaN
         13   -1    0    0    0    0  0.00000000000E+00  0.00000000000E+00  0.74505805969E-08  0.10566000000E+00  0.10566000000E+00 0. -1.
     999900   -1    0    0    0    0 -0.00000000000E+00 -0.00000000000E+00 -0.74505805969E-08  0.93827000000E+00  0.93827000000E+00 0.  1.
     999902    2    1    2    0    0  0.20433907557E-01  0.23596068796E-01  0.52448994522E-02  0.10122783332E+01  0.10117833740E+01 0.  0.
     999903    2    3    3    0    0 -0.26975070773E-01  0.21292254687E-01 -0.11612863925E+00  0.12268041578E+00  0.19585939096E-01 0.  0.
         14    1    1    2    0    0 -0.20433907557E-01 -0.23596068796E-01 -0.52448994522E-02  0.31651666796E-01  0.00000000000E+00 0.  1.
     999901    1    3    3    0    0  0.47408978330E-01  0.23038141090E-02  0.12137353870E+00  0.88959791742E+00  0.88000000000E+00 0. -1.
        -11    1    4    4    0    0 -0.48548642598E-02  0.15928763974E-01 -0.54008200964E-01  0.56519395973E-01  0.51100000000E-03 0. -1.
         11    1    4    4    0    0 -0.22120206513E-01  0.53634907137E-02 -0.62120438282E-01  0.66161019809E-01  0.51100000000E-03 0.  1.
</event>
<event>
 8    1  0.1041149E+005  0.1043930E+01  0.7957747E-01            NaN
         13   -1    0    0    0    0  0.00000000000E+00  0.00000000000E+00  0.74505805969E-08  0.10566000000E+00  0.10566000000E+00 0. -1.
     999900   -1    0    0    0    0 -0.00000000000E+00 -0.00000000000E+00 -0.74505805969E-08  0.93827000000E+00  0.93827000000E+00 0.  1.
     999902    2    1    2    0    0 -0.13964525511E-01 -0.14903996915E-01 -0.12323459037E-01  0.10200761798E+01  0.10197972386E+01 0.  0.
     999903    2    3    3    0    0 -0.45928306974E-01 -0.87096204512E-01  0.84458154512E-01  0.13125669367E+00  0.19999538654E-01 0.  0.
         14    1    1    2    0    0  0.13964525511E-01  0.14903996915E-01  0.12323459037E-01  0.23853820227E-01  0.00000000000E+00 0. -1.
     999901    1    3    3    0    0  0.31963781464E-01  0.72192207597E-01 -0.96781613550E-01  0.88881948611E+00  0.88000000000E+00 0.  1.
        -11    1    4    4    0    0 -0.16855759645E-01 -0.50578270823E-01  0.38617969149E-01  0.65832262416E-01  0.51100000000E-03 0. -1.
         11    1    4    4    0    0 -0.29072547329E-01 -0.36517933690E-01  0.45840185363E-01  0.65424431249E-01  0.51100000000E-03 0.  1.
</event>
<event>
 8    1  0.1041149E+005  0.1043930E+01  0.7957747E-01            NaN
         13   -1    0    0    0    0  0.00000000000E+00  0.00000000000E+00  0.74505805969E-08  0.10566000000E+00  0.10566000000E+00 0.  1.
     999900   -1    0    0    0    0 -0.00000000000E+00 -0.00000000000E+00 -0.74505805969E-08  0.93827000000E+00  0.93827000000E+00 0.  1.
     999902    2    1    2    0    0  0.10638817667E-01 -0.14435960089E-01 -0.15436444489E-01  0.10202685291E+01  0.10199941207E+01 0.  0.
     999903    2    3    3    0    0 -0.74648151603E-01  0.10170450698E-01 -0.10556551871E+00  0.13122264022E+00  0.19987945377E-01 0.  0.
         14    1    1    2    0    0 -0.10638817667E-01  0.14435960089E-01  0.15436444489E-01  0.23661470865E-01  0.00000000000E+00 0.  1.
     999901    1    3    3    0    0  0.85286969270E-01 -0.24606410787E-01  0.90129074220E-01  0.88904588892E+00  0.88000000000E+00 0. -1.
        -11    1    4    4    0    0 -0.15777073878E-01  0.27271913365E-02 -0.38342667506E-01  0.41554481169E-01  0.51100000000E-03 0. -1.
         11    1    4    4    0    0 -0.58871077725E-01  0.74432593616E-02 -0.67222851203E-01  0.89668159049E-01  0.51100000000E-03 0.  1.
</event>
<event>
 8    1  0.1041149E+005  0.1043930E+01  0.7957747E-01            NaN
         13   -1    0    0    0    0  0.00000000000E+00  0.00000000000E+00  0.74505805969E-08  0.10566000000E+00  0.10566000000E+00 0.  1.
     999900   -1    0    0    0    0 -0.00000000000E+00 -0.00000000000E+00 -0.74505805969E-08  0.93827000000E+00  0.93827000000E+00 0.  1.
     999902    2    1    2    0    0 -0.19829272325E-01 -0.12720540660E-01 -0.73076498294E-02  0.10192639516E+01  0.10189654504E+01 0.  0.
     999903    2    3    3    0    0  0.28223383308E-01  0.11896207116E+00  0.29124889168E-01  0.12742500998E+00  0.20984285986E-01 0.  0.
         14    1    1    2    0    0  0.19829272325E-01  0.12720540660E-01  0.73076498294E-02  0.24666048359E-01  0.00000000000E+00 0.  1.
     999901    1    3    3    0    0 -0.48052655634E-01 -0.13168261182E+00 -0.36432538998E-01  0.89183894166E+00  0.88000000000E+00 0.  1.
        -11    1    4    4    0    0  0.30914580090E-01  0.94855501334E-01  0.24392999464E-01  0.10270616797E+00  0.51100000000E-03 0.  1.
         11    1    4    4    0    0 -0.26911967820E-02  0.24106569827E-01  0.47318897036E-02  0.24718842005E-01  0.51100000000E-03 0. -1.
</event>
<event>
 8    1  0.1041149E+005  0.1043930E+01  0.7957747E-01            NaN
         13   -1    0    0    0    0  0.00000000000E+00  0.00000000000E+00  0.74505805969E-08  0.10566000000E+00  0.10566000000E+00 0. -1.
     999900   -1    0    0    0    0 -0.00000000000E+00 -0.00000000000E+00 -0.74505805969E-08  0.93827000000E+00  0.93827000000E+00 0. -1.
     999902    2    1    2    0    0 -0.21162186901E-01  0.91646894429E-02  0.52132514649E-02  0.10202866568E+01  0.10200126736E+01 0.  0.
     999903    2    3    3    0    0 -0.11082979597E+00  0.60721991961E-01 -0.37050698662E-01  0.13322145229E+00  0.20119569987E-01 0.  0.
         14    1    1    2    0    0  0.21162186901E-01 -0.91646894429E-02 -0.52132514649E-02  0.23643343204E-01  0.00000000000E+00 0.  1.
     999901    1    3    3    0    0  0.89667609072E-01 -0.51557302519E-01  0.42263950127E-01  0.88706520450E+00  0.88000000000E+00 0.  1.
        -11    1    4    4    0    0 -0.34835183253E-01  0.18752038537E-01 -0.20562624299E-02  0.39618408319E-01  0.51100000000E-03 0.  1.
         11    1    4    4    0    0 -0.75994612720E-01  0.41969953424E-01 -0.34994436232E-01  0.93603043974E-01  0.51100000000E-03 0. -1.
</event>
<event>
 8    1  0.1041149E+005  0.1043930E+01  0.7957747E-01            NaN
         13   -1    0    0    0    0  0.00000000000E+00  0.00000000000E+00  0.74505805969E-08  0.10566000000E+00  0.10566000000E+00 0. -1.
     999900   -1    0    0    0    0 -0.00000000000E+00 -0.00000000000E+00 -0.74505805969E-08  0.93827000000E+00  0.93827000000E+00 0.  1.
     999902    2    1    2    0    0 -0.14351887350E-01  0.15537587797E-01  0.10394588122E-01  0.10203622091E+01  0.10200899946E+01 0.  0.
     999903    2    3    3    0    0 -0.63800253749E-01  0.95007069948E-01  0.66171535674E-01  0.13364263258E+00  0.19617986398E-01 0.  0.
         14    1    1    2    0    0  0.14351887350E-01 -0.15537587797E-01 -0.10394588122E-01  0.23567790887E-01  0.00000000000E+00 0.  1.
     999901    1    3    3    0    0  0.49448366399E-01 -0.79469482151E-01 -0.55776947552E-01  0.88671957654E+00  0.88000000000E+00 0.  1.
        -11    1    4    4    0    0 -0.25236922907E-01  0.48936990589E-01  0.23077954267E-01  0.59704140726E-01  0.51100000000E-03 0.  1.
         11    1    4    4    0    0 -0.38563330842E-01  0.46070079359E-01  0.43093581407E-01  0.73938491852E-01  0.51100000000E-03 0. -1.
</event>
<event>
 8    1  0.1041149E+005  0.1043930E+01  0.7957747E-01            NaN
         13   -1    0    0    0    0  0.00000000000E+00  0.00000000000E+00  0.74505805969E-08  0.10566000000E+00  0.10566000000E+00 0.  1.
     999900   -1    0    0    0    0 -0.00000000000E+00 -0.00000000000E+00 -0.74505805969E-08  0.93827000000E+00  0.93827000000E+00 0. -1.
     999902    2    1    2    0    0  0.10363194779E-02  0.12812658403E-01 -0.19659419637E-01  0.10204410461E+01  0.10201706709E+01 0.  0.
     999903    2    3    3    0    0  0.79293057098E-01 -0.62312291737E-01 -0.82129425552E-01  0.13158201526E+00  0.19959298425E-01 0.  0.
         14    1    1    2    0    0 -0.10363194779E-02 -0.12812658403E-01  0.19659419637E-01  0.23488953870E-01  0.00000000000E+00 0.  1.
     999901    1    3    3    0    0 -0.78256737620E-01  0.75124950140E-01  0.62470005914E-01  0.88885903087E+00  0.88000000000E+00 0.  1.
        -11    1    4    4    0    0  0.21898966962E-01 -0.23374091930E-01 -0.16236239649E-01  0.35913639839E-01  0.51100000000E-03 0.  1.
         11    1    4    4    0    0  0.57394090136E-01 -0.38938199807E-01 -0.65893185903E-01  0.95668375423E-01  0.51100000000E-03 0. -1.
</event>
<event>
 8    1  0.1041149E+005  0.1043930E+01  0.7957747E-01            NaN
         13   -1    0    0    0    0  0.00000000000E+00  0.00000000000E+00  0.74505805969E-08  0.10566000000E+00  0.10566000000E+00 0.  1.
     999900   -1    0    0    0    0 -0.00000000000E+00 -0.00000000000E+00 -0.74505805969E-08  0.93827000000E+00  0.93827000000E+00 0. -1.
     999902    2    1    2    0    0 -0.12076786560E-01  0.19079517644E-01 -0.87568043540E-02  0.10197110324E+01  0.10194233818E+01 0.  0.
     999903    2    3    3    0    0  0.99346765498E-01  0.61933709941E-01  0.51059106279E-01  0.12963820794E+00  0.22214148231E-01 0.  0.
         14    1    1    2    0    0  0.12076786560E-01 -0.19079517644E-01  0.87568043540E-02  0.24218967560E-01  0.00000000000E+00 0.  1.
     999901    1    3    3    0    0 -0.11142355206E+00 -0.42854192297E-01 -0.59815910633E-01  0.89007282450E+00  0.88000000000E+00 0. -1.
        -11    1    4    4    0    0  0.63705899052E-02  0.76346889049E-02  0.10791564724E-01  0.14683047388E-01  0.51100000000E-03 0. -1.
         11    1    4    4    0    0  0.92976175593E-01  0.54299021037E-01  0.40267541555E-01  0.11495516055E+00  0.51100000000E-03 0.  1.
</event>
<event>
 8    1  0.1309137E+005  0.1043930E+01  0.7957747E-01            NaN
         13   -1    0    0    0    0  0.00000000000E+00  0.00000000000E+00  0.74505805969E-08  0.10566000000E+00  0.10566000000E+00 0.  1.
     999900   -1    0    0    0    0 -0.00000000000E+00 -0.00000000000E+00 -0.74505805969E-08  0.93827000000E+00  0.93827000000E+00 0.  1.
     999902    2    1    2    0    0 -0.22415555457E-01  0.69269020455E-02  0.48971129906E-02  0.10199629223E+01  0.10196812943E+01 0.  0.
     999903    2    3    3    0    0 -0.58635183577E-01  0.11669195445E+00  0.85304387690E-02  0.13239690827E+00  0.20026880600E-01 0.  0.
         14    1    1    2    0    0  0.22415555457E-01 -0.69269020455E-02 -0.48971129906E-02  0.23967077712E-01  0.00000000000E+00 0.  1.
     999901    1    3    3    0    0  0.36219628120E-01 -0.10976505240E+00 -0.36333257783E-02  0.88756601402E+00  0.88000000000E+00 0.  1.
        -11    1    4    4    0    0 -0.51469889328E-01  0.86542203398E-01  0.11071178689E-01  0.10129923294E+00  0.51100000000E-03 0.  1.
         11    1    4    4    0    0 -0.71652942494E-02  0.30149751051E-01 -0.25407399205E-02  0.31097675323E-01  0.51100000000E-03 0. -1.
</event>
<event>
 8    1  0.1041149E+005  0.1043930E+01  0.7957747E-01            NaN
         13   -1    0    0    0    0  0.00000000000E+00  0.00000000000E+00  0.74505805969E-08  0.10566000000E+00  0.10566000000E+00 0.  1.
     999900   -1    0    0    0    0 -0.00000000000E+00 -0.00000000000E+00 -0.74505805969E-08  0.93827000000E+00  0.93827000000E+00 0.  1.
     999902    2    1    2    0    0  0.21814426801E-01 -0.73422808543E-02 -0.30369366449E-02  0.10207135987E+01  0.10204495329E+01 0.  0.
     999903    2    3    3    0    0  0.10021068932E+00 -0.35806895180E-01  0.77679518646E-01  0.13309242140E+00  0.18845928484E-01 0.  0.
         14    1    1    2    0    0 -0.21814426801E-01  0.73422808543E-02  0.30369366449E-02  0.23216401292E-01  0.00000000000E+00 0.  1.
     999901    1    3    3    0    0 -0.78396262523E-01  0.28464614326E-01 -0.80716455291E-01  0.88762117731E+00  0.88000000000E+00 0. -1.
        -11    1    4    4    0    0  0.25928464991E-01 -0.14579878214E-02  0.22729361388E-01  0.34515156314E-01  0.51100000000E-03 0. -1.
         11    1    4    4    0    0  0.74282224332E-01 -0.34348907359E-01  0.54950157259E-01  0.98577265088E-01  0.51100000000E-03 0.  1.
</event>
<event>
 8    1  0.1041149E+005  0.1043930E+01  0.7957747E-01            NaN
         13   -1    0    0    0    0  0.00000000000E+00  0.00000000000E+00  0.74505805969E-08  0.10566000000E+00  0.10566000000E+00 0. -1.
     999900   -1    0    0    0    0 -0.00000000000E+00 -0.00000000000E+00 -0.74505805969E-08  0.93827000000E+00  0.93827000000E+00 0. -1.
     999902    2    1    2    0    0 -0.10623700468E-01  0.26665735411E-01 -0.30574304555E-02  0.10150635430E+01  0.10146530067E+01 0.  0.
     999903    2    3    3    0    0  0.98023220077E-01  0.46031852311E-01 -0.62253817288E-01  0.12619717960E+00  0.17964054988E-01 0.  0.
         14    1    1    2    0    0  0.10623700468E-01 -0.26665735411E-01  0.30574304555E-02  0.28866456964E-01  0.00000000000E+00 0. -1.
     999901    1    3    3    0    0 -0.10864692054E+00 -0.19366116900E-01  0.59196386832E-01  0.88886636343E+00  0.88000000000E+00 0.  1.
        -11    1    4    4    0    0  0.24030339024E-01  0.20077499126E-01 -0.16224884186E-01  0.35271392836E-01  0.51100000000E-03 0. -1.
         11    1    4    4    0    0  0.73992881053E-01  0.25954353185E-01 -0.46028933102E-01  0.90925786768E-01  0.51100000000E-03 0.  1.
</event>
<event>
 8    1  0.1041149E+005  0.1043930E+01  0.7957747E-01            NaN
         13   -1    0    0    0    0  0.00000000000E+00  0.00000000000E+00  0.74505805969E-08  0.10566000000E+00  0.10566000000E+00 0.  1.
     999900   -1    0    0    0    0 -0.00000000000E+00 -0.00000000000E+00 -0.74505805969E-08  0.93827000000E+00  0.93827000000E+00 0.  1.
     999902    2    1    2    0    0 -0.22442757068E-02 -0.22654609990E-01 -0.81793201117E-02  0.10197397250E+01  0.10194527637E+01 0.  0.
     999903    2    3    3    0    0 -0.84573118838E-01 -0.76490131471E-01 -0.66100897882E-01  0.13236651661E+00  0.12174291658E-01 0.  0.
         14    1    1    2    0    0  0.22442757068E-02  0.22654609990E-01  0.81793201117E-02  0.24190275003E-01  0.00000000000E+00 0. -1.
     999901    1    3    3    0    0  0.82328843131E-01  0.53835521480E-01  0.57921577770E-01  0.88737320838E+00  0.88000000000E+00 0. -1.
        -11    1    4    4    0    0 -0.73335618193E-01 -0.63624408089E-01 -0.60430504089E-01  0.11436033030E+00  0.51100000000E-03 0.  1.
         11    1    4    4    0    0 -0.11237500645E-01 -0.12865723382E-01 -0.56703937927E-02  0.18006186316E-01  0.51100000000E-03 0. -1.
</event>
<event>
 8    1  0.1041149E+005  0.1043930E+01  0.7957747E-01            NaN
         13   -1    0    0    0    0  0.00000000000E+00  0.00000000000E+00  0.74505805969E-08  0.10566000000E+00  0.10566000000E+00 0. -1.
     999900   -1    0    0    0    0 -0.00000000000E+00 -0.00000000000E+00 -0.74505805969E-08  0.93827000000E+00  0.93827000000E+00 0.  1.
     999902    2    1    2    0    0  0.98312020150E-02  0.16355498177E-01 -0.13379289037E-01  0.10206242018E+01  0.10203580749E+01 0.  0.
     999903    2    3    3    0    0  0.11421531937E+00 -0.20746131436E-01 -0.60975621881E-01  0.13240239068E+00  0.18352804893E-01 0.  0.
         14    1    1    2    0    0 -0.98312020150E-02 -0.16355498177E-01  0.13379289037E-01  0.23305798180E-01  0.00000000000E+00 0. -1.
     999901    1    3    3    0    0 -0.10438411735E+00  0.37101629613E-01  0.47596332844E-01  0.88822181113E+00  0.88000000000E+00 0. -1.
        -11    1    4    4    0    0  0.37315268623E-01 -0.13462468891E-01 -0.27160020488E-01  0.48079051311E-01  0.51100000000E-03 0.  1.
         11    1    4    4    0    0  0.76900050744E-01 -0.72836625447E-02 -0.33815601393E-01  0.84323339373E-01  0.51100000000E-03 0. -1.
</event>
<event>
 8    1  0.1041149E+005  0.1043930E+01  0.7957747E-01            NaN
         13   -1    0    0    0    0  0.00000000000E+00  0.00000000000E+00  0.74505805969E-08  0.10566000000E+00  0.10566000000E+00 0.  1.
     999900   -1    0    0    0    0 -0.00000000000E+00 -0.00000000000E+00 -0.74505805969E-08  0.93827000000E+00  0.93827000000E+00 0. -1.
     999902    2    1    2    0    0 -0.12766316829E-01 -0.24269795497E-02  0.16819600537E-01  0.10226751644E+01  0.10224542649E+01 0.  0.
     999903    2    3    3    0    0 -0.95537561098E-01 -0.54960925769E-01 -0.71320690205E-01  0.13285517964E+00  0.20389432659E-01 0.  0.
         14    1    1    2    0    0  0.12766316829E-01  0.24269795497E-02 -0.16819600537E-01  0.21254835622E-01  0.00000000000E+00 0. -1.
     999901    1    3    3    0    0  0.82771244270E-01  0.52533946220E-01  0.88140290743E-01  0.88981998474E+00  0.88000000000E+00 0.  1.
        -11    1    4    4    0    0 -0.82190940552E-01 -0.40339950305E-01 -0.52537414579E-01  0.10556089878E+00  0.51100000000E-03 0. -1.
         11    1    4    4    0    0 -0.13346620547E-01 -0.14620975464E-01 -0.18783275626E-01  0.27294280863E-01  0.51100000000E-03 0.  1.
</event>
<event>
 8    1  0.1041149E+005  0.1043930E+01  0.7957747E-01            NaN
         13   -1    0    0    0    0  0.00000000000E+00  0.00000000000E+00  0.74505805969E-08  0.10566000000E+00  0.10566000000E+00 0. -1.
     999900   -1    0    0    0    0 -0.00000000000E+00 -0.00000000000E+00 -0.74505805969E-08  0.93827000000E+00  0.93827000000E+00 0.  1.
     999902    2    1    2    0    0  0.14788761799E-01  0.20880065172E-01 -0.65769769231E-02  0.10175114228E+01  0.10171684001E+01 0.  0.
     999903    2    3    3    0    0  0.30277376492E-01  0.61622446268E-01  0.10757364969E+00  0.12906885043E+00  0.19303694753E-01 0.  0.
         14    1    1    2    0    0 -0.14788761799E-01 -0.20880065172E-01  0.65769769231E-02  0.26418577225E-01  0.00000000000E+00 0. -1.
     999901    1    3    3    0    0 -0.15488614692E-01 -0.40742381096E-01 -0.11415062662E+00  0.88844257235E+00  0.88000000000E+00 0.  1.
        -11    1    4    4    0    0  0.22291897552E-01  0.29294024261E-01  0.44605309238E-01  0.57835657575E-01  0.51100000000E-03 0.  1.
         11    1    4    4    0    0  0.79854789400E-02  0.32328422007E-01  0.62968340455E-01  0.71233192853E-01  0.51100000000E-03 0. -1.
</event>
<event>
 8    1  0.1041149E+005  0.1043930E+01  0.7957747E-01            NaN
         13   -1    0    0    0    0  0.00000000000E+00  0.00000000000E+00  0.74505805969E-08  0.10566000000E+00  0.10566000000E+00 0. -1.
     999900   -1    0    0    0    0 -0.00000000000E+00 -0.00000000000E+00 -0.74505805969E-08  0.93827000000E+00  0.93827000000E+00 0. -1.
     999902    2    1    2    0    0  0.24608796687E-01 -0.11517010944E-01  0.23103685191E-02  0.10166614794E+01  0.10162957204E+01 0.  0.
     999903    2    3    3    0    0 -0.69333783268E-01  0.24599998491E-01  0.99809850561E-01  0.12557461732E+00  0.19865669311E-01 0.  0.
         14    1    1    2    0    0 -0.24608796687E-01  0.11517010944E-01 -0.23103685191E-02  0.27268520645E-01  0.00000000000E+00 0. -1.
     999901    1    3    3    0    0  0.93942579954E-01 -0.36117009435E-01 -0.97499482042E-01  0.89108686204E+00  0.88000000000E+00 0. -1.
        -11    1    4    4    0    0 -0.18879121771E-01 -0.14203266536E-02  0.19101090311E-01  0.26898909619E-01  0.51100000000E-03 0. -1.
         11    1    4    4    0    0 -0.50454661496E-01  0.26020325145E-01  0.80708760251E-01  0.98675707698E-01  0.51100000000E-03 0.  1.
</event>
<event>
 8    1  0.1041149E+005  0.1043930E+01  0.7957747E-01            NaN
         13   -1    0    0    0    0  0.00000000000E+00  0.00000000000E+00  0.74505805969E-08  0.10566000000E+00  0.10566000000E+00 0.  1.
     999900   -1    0    0    0    0 -0.00000000000E+00 -0.00000000000E+00 -0.74505805969E-08  0.93827000000E+00  0.93827000000E+00 0. -1.
     999902    2    1    2    0    0  0.10899336815E-01 -0.15906639116E-01 -0.14363191150E-01  0.10198859161E+01  0.10196024538E+01 0.  0.
     999903    2    3    3    0    0 -0.10844328046E+00  0.10443153860E-01 -0.67711836531E-01  0.12983926009E+00  0.20108110718E-01 0.  0.
         14    1    1    2    0    0 -0.10899336815E-01  0.15906639116E-01  0.14363191150E-01  0.24044083908E-01  0.00000000000E+00 0. -1.
     999901    1    3    3    0    0  0.11934261727E+00 -0.26349792977E-01  0.53348645381E-01  0.89004665600E+00  0.88000000000E+00 0.  1.
        -11    1    4    4    0    0 -0.62326525707E-01 -0.39930512605E-02 -0.37738951734E-01  0.72972802222E-01  0.51100000000E-03 0. -1.
         11    1    4    4    0    0 -0.46116754751E-01  0.14436205121E-01 -0.29972884797E-01  0.56866457873E-01  0.51100000000E-03 0.  1.
</event>
<event>
 8    1  0.1041149E+005  0.1043930E+01  0.7957747E-01            NaN
         13   -1    0    0    0    0  0.00000000000E+00  0.00000000000E+00  0.74505805969E-08  0.10566000000E+00  0.10566000000E+00 0.  1.
     999900   -1    0    0    0    0 -0.00000000000E+00 -0.00000000000E+00 -0.74505805969E-08  0.93827000000E+00  0.93827000000E+00 0. -1.
     999902    2    1    2    0    0 -0.24428134668E-01 -0.15593254122E-02 -0.63258500701E-02  0.10186479582E+01  0.10183341697E+01 0.  0.
     999903    2    3    3    0    0 -0.16652812753E-01  0.56401284947E-01  0.11273470784E+00  0.12870677786E+00  0.19947410833E-01 0.  0.
         14    1    1    2    0    0  0.24428134668E-01  0.15593254122E-02  0.63258500701E-02  0.25282041813E-01  0.00000000000E+00 0. -1.
     999901    1    3    3    0    0 -0.77753219150E-02 -0.57960610360E-01 -0.11906055791E+00  0.88994118032E+00  0.88000000000E+00 0. -1.
        -11    1    4    4    0    0 -0.21004176284E-03  0.83321336835E-02  0.33942195829E-01  0.34954289407E-01  0.51100000000E-03 0.  1.
         11    1    4    4    0    0 -0.16442770991E-01  0.48069151264E-01  0.78792512015E-01  0.93752488456E-01  0.51100000000E-03 0. -1.
</event>
<event>
 8    1  0.1041149E+005  0.1043930E+01  0.7957747E-01            NaN
         13   -1    0    0    0    0  0.00000000000E+00  0.00000000000E+00  0.74505805969E-08  0.10566000000E+00  0.10566000000E+00 0.  1.
     999900   -1    0    0    0    0 -0.00000000000E+00 -0.00000000000E+00 -0.74505805969E-08  0.93827000000E+00  0.93827000000E+00 0. -1.
     999902    2    1    2    0    0  0.13836398462E-01 -0.18721439598E-01  0.32637127230E-02  0.10204227661E+01  0.10201519650E+01 0.  0.
     999903    2    3    3    0    0 -0.65553169129E-02  0.12482308024E+00 -0.19307140390E-01  0.12827351033E+00  0.21390517579E-01 0.  0.
         14    1    1    2    0    0 -0.13836398462E-01  0.18721439598E-01 -0.32637127230E-02  0.23507233860E-01  0.00000000000E+00 0. -1.
     999901    1    3    3    0    0  0.20391715375E-01 -0.14354451984E+00  0.22570853113E-01  0.89214925581E+00  0.88000000000E+00 0.  1.
        -11    1    4    4    0    0  0.74496761183E-02  0.27986924854E-01 -0.41732910851E-02  0.29265049402E-01  0.51100000000E-03 0.  1.
         11    1    4    4    0    0 -0.14004993031E-01  0.96836155385E-01 -0.15133849305E-01  0.99008460928E-01  0.51100000000E-03 0. -1.
</event>
<event>
 8    1  0.1041149E+005  0.1043930E+01  0.7957747E-01            NaN
         13   -1    0    0    0    0  0.00000000000E+00  0.00000000000E+00  0.74505805969E-08  0.10566000000E+00  0.10566000000E+00 0.  1.
     999900   -1    0    0    0    0 -0.00000000000E+00 -0.00000000000E+00 -0.74505805969E-08  0.93827000000E+00  0.93827000000E+00 0. -1.
     999902    2    1    2    0    0  0.13245937992E-01 -0.19404821369E-01  0.32599523179E-02  0.10202101928E+01  0.10199344137E+01 0.  0.
     999903    2    3    3    0    0 -0.11658664199E+00  0.26358457370E-01  0.43055165928E-01  0.12861923526E+00  0.20048615904E-01 0.  0.
         14    1    1    2    0    0 -0.13245937992E-01  0.19404821369E-01 -0.32599523179E-02  0.23719807225E-01  0.00000000000E+00 0.  1.
     999901    1    3    3    0    0  0.12983257998E+00 -0.45763278739E-01 -0.39795213610E-01  0.89159095752E+00  0.88000000000E+00 0. -1.
        -11    1    4    4    0    0 -0.44056555532E-01  0.19983065437E-01  0.16467600082E-01  0.51105243988E-01  0.51100000000E-03 0. -1.
         11    1    4    4    0    0 -0.72530086455E-01  0.63753919328E-02  0.26587565847E-01  0.77513991267E-01  0.51100000000E-03 0.  1.
</event>
<event>
 8    1  0.1041149E+005  0.1043930E+01  0.7957747E-01            NaN
         13   -1    0    0    0    0  0.00000000000E+00  0.00000000000E+00  0.74505805969E-08  0.10566000000E+00  0.10566000000E+00 0. -1.
     999900   -1    0    0    0    0 -0.00000000000E+00 -0.00000000000E+00 -0.74505805969E-08  0.93827000000E+00  0.93827000000E+00 0. -1.
     999902    2    1    2    0    0  0.16787538411E-01  0.48608701837E-02  0.28573509781E-01  0.10104352994E+01  0.10098799926E+01 0.  0.
     999903    2    3    3    0    0  0.68255504299E-01 -0.55313820617E-01  0.86733834407E-01  0.12496787017E+00  0.19384992275E-01 0.  0.
         14    1    1    2    0    0 -0.16787538411E-01 -0.48608701837E-02 -0.28573509781E-01  0.33494700567E-01  0.00000000000E+00 0.  1.
     999901    1    3    3    0    0 -0.51467965888E-01  0.60174690800E-01 -0.58160324626E-01  0.88546742926E+00  0.88000000000E+00 0. -1.
        -11    1    4    4    0    0  0.32504361370E-01 -0.20101345339E-01  0.49197470488E-01  0.62299677495E-01  0.51100000000E-03 0.  1.
         11    1    4    4    0    0  0.35751142929E-01 -0.35212475278E-01  0.37536363919E-01  0.62668192675E-01  0.51100000000E-03 0. -1.
</event>
<event>
 8    1  0.1041149E+005  0.1043930E+01  0.7957747E-01            NaN
         13   -1    0    0    0    0  0.00000000000E+00  0.00000000000E+00  0.74505805969E-08  0.10566000000E+00  0.10566000000E+00 0.  1.
     999900   -1    0    0    0    0 -0.00000000000E+00 -0.00000000000E+00 -0.74505805969E-08  0.93827000000E+00  0.93827000000E+00 0. -1.
     999902    2    1    2    0    0 -0.18084537814E-01  0.92643209487E-02  0.10620839871E-01  0.10210022790E+01  0.10207448130E+01 0.  0.
     999903    2    3    3    0    0 -0.11517871902E+00  0.43426026006E-01  0.49611617668E-01  0.13414570499E+00  0.19539716198E-01 0.  0.
         14    1    1    2    0    0  0.18084537814E-01 -0.92643209487E-02 -0.10620839871E-01  0.22927720998E-01  0.00000000000E+00 0. -1.
     999901    1    3    3    0    0  0.97094181209E-01 -0.34161705057E-01 -0.38990777796E-01  0.88685657401E+00  0.88000000000E+00 0. -1.
        -11    1    4    4    0    0 -0.34380679330E-01  0.36711386643E-02  0.14271480202E-01  0.37409151801E-01  0.51100000000E-03 0.  1.
         11    1    4    4    0    0 -0.80798039692E-01  0.39754887341E-01  0.35340137466E-01  0.96736553188E-01  0.51100000000E-03 0. -1.
</event>
<event>
 8    1  0.1041149E+005  0.1043930E+01  0.7957747E-01            NaN
         13   -1    0    0    0    0  0.00000000000E+00  0.00000000000E+00  0.74505805969E-08  0.10566000000E+00  0.10566000000E+00 0. -1.
     999900   -1    0    0    0    0 -0.00000000000E+00 -0.00000000000E+00 -0.74505805969E-08  0.93827000000E+00  0.93827000000E+00 0. -1.
     999902    2    1    2    0    0  0.69280099213E-02  0.58879020820E-02 -0.22576578942E-01  0.10195914169E+01  0.10193008833E+01 0.  0.
     999903    2    3    3    0    0 -0.61707837497E-01  0.96976919529E-02  0.10888179031E+00  0.12717520405E+00  0.20405534189E-01 0.  0.
         14    1    1    2    0    0 -0.69280099213E-02 -0.58879020820E-02  0.22576578942E-01  0.24338583137E-01  0.00000000000E+00 0. -1.
     999901    1    3    3    0    0  0.68635847418E-01 -0.38097898709E-02 -0.13145836925E+00  0.89241621282E+00  0.88000000000E+00 0. -1.
        -11    1    4    4    0    0 -0.45726644208E-01  0.15317590969E-01  0.72995226795E-01  0.87487821093E-01  0.51100000000E-03 0. -1.
         11    1    4    4    0    0 -0.15981193289E-01 -0.56198990160E-02  0.35886563515E-01  0.39687382955E-01  0.51100000000E-03 0.  1.
</event>
<event>
 8    1  0.1041149E+005  0.1043930E+01  0.7957747E-01            NaN
         13   -1    0    0    0    0  0.00000000000E+00  0.00000000000E+00  0.74505805969E-08  0.10566000000E+00  0.10566000000E+00 0. -1.
     999900   -1    0    0    0    0 -0.00000000000E+00 -0.00000000000E+00 -0.74505805969E-08  0.93827000000E+00  0.93827000000E+00 0.  1.
     999902    2    1    2    0    0  0.21610101642E-01  0.57949688276E-02  0.76994554778E-02  0.10202686439E+01  0.10199942382E+01 0.  0.
     999903    2    3    3    0    0 -0.50723173107E-01 -0.14263496295E-01 -0.11586096339E+00  0.12847179387E+00  0.17462856714E-01 0.  0.
         14    1    1    2    0    0 -0.21610101642E-01 -0.57949688276E-02 -0.76994554778E-02  0.23661356076E-01  0.00000000000E+00 0.  1.
     999901    1    3    3    0    0  0.72333274749E-01  0.20058465123E-01  0.12356041887E+00  0.89179685006E+00  0.88000000000E+00 0. -1.
        -11    1    4    4    0    0 -0.37268243851E-01 -0.45116385879E-02 -0.92229262507E-01  0.99577983842E-01  0.51100000000E-03 0.  1.
         11    1    4    4    0    0 -0.13454929256E-01 -0.97518577072E-02 -0.23631700887E-01  0.28893810026E-01  0.51100000000E-03 0. -1.
</event>
<event>
 8    1  0.1041149E+005  0.1043930E+01  0.7957747E-01            NaN
         13   -1    0    0    0    0  0.00000000000E+00  0.00000000000E+00  0.74505805969E-08  0.10566000000E+00  0.10566000000E+00 0. -1.
     999900   -1    0    0    0    0 -0.00000000000E+00 -0.00000000000E+00 -0.74505805969E-08  0.93827000000E+00  0.93827000000E+00 0.  1.
     999902    2    1    2    0    0  0.15069627953E-01  0.20977085339E-01  0.68711991029E-02  0.10172027635E+01  0.10168515707E+01 0.  0.
     999903    2    3    3    0    0  0.58444331212E-01 -0.32797802440E-01  0.10802911279E+00  0.12871752051E+00  0.20161229650E-01 0.  0.
         14    1    1    2    0    0 -0.15069627953E-01 -0.20977085339E-01 -0.68711991029E-02  0.26727236540E-01  0.00000000000E+00 0. -1.
     999901    1    3    3    0    0 -0.43374703259E-01  0.53774887779E-01 -0.10115791368E+00  0.88848524295E+00  0.88000000000E+00 0.  1.
        -11    1    4    4    0    0  0.66126128314E-02 -0.93456243165E-02  0.92558335848E-02  0.14730883160E-01  0.51100000000E-03 0. -1.
         11    1    4    4    0    0  0.51831718381E-01 -0.23452178123E-01  0.98773279202E-01  0.11398663735E+00  0.51100000000E-03 0.  1.
</event>
<event>
 8    1  0.1041149E+005  0.1043930E+01  0.7957747E-01            NaN
         13   -1    0    0    0    0  0.00000000000E+00  0.00000000000E+00  0.74505805969E-08  0.10566000000E+00  0.10566000000E+00 0.  1.
     999900   -1    0    0    0    0 -0.00000000000E+00 -0.00000000000E+00 -0.74505805969E-08  0.93827000000E+00  0.93827000000E+00 0.  1.
     999902    2    1    2    0    0 -0.17161542878E-01 -0.13255365132E-01  0.11488135181E-01  0.10193902260E+01  0.10190948103E+01 0.  0.
     999903    2    3    3    0    0 -0.16137595976E-01  0.11988353924E+00  0.39397565283E-01  0.12893755874E+00  0.20981918814E-01 0.  0.
         14    1    1    2    0    0  0.17161542878E-01  0.13255365132E-01 -0.11488135181E-01  0.24539774014E-01  0.00000000000E+00 0. -1.
     999901    1    3    3    0    0 -0.10239469025E-02 -0.13313890437E+00 -0.27909430103E-01  0.89045266725E+00  0.88000000000E+00 0. -1.
        -11    1    4    4    0    0 -0.21100013892E-01  0.88784239432E-01  0.28386943547E-01  0.95571603747E-01  0.51100000000E-03 0.  1.
         11    1    4    4    0    0  0.49624179160E-02  0.31099299810E-01  0.11010621737E-01  0.33365954988E-01  0.51100000000E-03 0. -1.
</event>
<event>
 8    1  0.1041149E+005  0.1043930E+01  0.7957747E-01            NaN
         13   -1    0    0    0    0  0.00000000000E+00  0.00000000000E+00  0.74505805969E-08  0.10566000000E+00  0.10566000000E+00 0.  1.
     999900   -1    0    0    0    0 -0.00000000000E+00 -0.00000000000E+00 -0.74505805969E-08  0.93827000000E+00  0.93827000000E+00 0. -1.
     999902    2    1    2    0    0 -0.14667295813E-01  0.22582432797E-02  0.19043157174E-01  0.10197872772E+01  0.10195014564E+01 0.  0.
     999903    2    3    3    0    0  0.47627923064E-01 -0.53969447093E-01  0.10796992516E+00  0.13133344186E+00  0.20244701482E-01 0.  0.
         14    1    1    2    0    0  0.14667295813E-01 -0.22582432797E-02 -0.19043157174E-01  0.24142722803E-01  0.00000000000E+00 0. -1.
     999901    1    3    3    0    0 -0.62295218877E-01  0.56227690372E-01 -0.88926767982E-01  0.88845383534E+00  0.88000000000E+00 0. -1.
        -11    1    4    4    0    0  0.16759454570E-01 -0.25058439671E-01  0.61523829737E-01  0.68514578469E-01  0.51100000000E-03 0. -1.
         11    1    4    4    0    0  0.30868468494E-01 -0.28911007421E-01  0.46446095419E-01  0.62818863392E-01  0.51100000000E-03 0.  1.
</event>
<event>
 8    1  0.1041149E+005  0.1043930E+01  0.7957747E-01            NaN
         13   -1    0    0    0    0  0.00000000000E+00  0.00000000000E+00  0.74505805969E-08  0.10566000000E+00  0.10566000000E+00 0. -1.
     999900   -1    0    0    0    0 -0.00000000000E+00 -0.00000000000E+00 -0.74505805969E-08  0.93827000000E+00  0.93827000000E+00 0. -1.
     999902    2    1    2    0    0  0.39506346546E-03 -0.13626644947E-01 -0.17769337458E-01  0.10215337753E+01  0.10212882371E+01 0.  0.
     999903    2    3    3    0    0 -0.74349879499E-01 -0.33028833273E-01 -0.10452048580E+00  0.13390265081E+00  0.19661625899E-01 0.  0.
         14    1    1    2    0    0 -0.39506346546E-03  0.13626644947E-01  0.17769337458E-01  0.22396224712E-01  0.00000000000E+00 0.  1.
     999901    1    3    3    0    0  0.74744942964E-01  0.19402188326E-01  0.86751148338E-01  0.88763112448E+00  0.88000000000E+00 0.  1.
        -11    1    4    4    0    0 -0.42635613878E-01 -0.10424177977E-01 -0.45789353940E-01  0.63430159329E-01  0.51100000000E-03 0.  1.
         11    1    4    4    0    0 -0.31714265621E-01 -0.22604655296E-01 -0.58731131856E-01  0.70472491477E-01  0.51100000000E-03 0. -1.
</event>
<event>
 8    1  0.1041149E+005  0.1043930E+01  0.7957747E-01            NaN
         13   -1    0    0    0    0  0.00000000000E+00  0.00000000000E+00  0.74505805969E-08  0.10566000000E+00  0.10566000000E+00 0. -1.
     999900   -1    0    0    0    0 -0.00000000000E+00 -0.00000000000E+00 -0.74505805969E-08  0.93827000000E+00  0.93827000000E+00 0. -1.
     999902    2    1    2    0    0  0.10432884738E-01 -0.16143220532E-01 -0.88005863501E-02  0.10227900148E+01  0.10225715209E+01 0.  0.
     999903    2    3    3    0    0  0.12606868306E+00  0.37721204223E-01  0.79606054436E-02  0.13343409526E+00  0.20617576059E-01 0.  0.
         14    1    1    2    0    0 -0.10432884738E-01  0.16143220532E-01  0.88005863501E-02  0.21139985175E-01  0.00000000000E+00 0. -1.
     999901    1    3    3    0    0 -0.11563579833E+00 -0.53864424755E-01 -0.16761191794E-01  0.88935591956E+00  0.88000000000E+00 0. -1.
        -11    1    4    4    0    0  0.22146241695E-01 -0.12538052560E-02  0.21213480741E-02  0.22288770435E-01  0.51100000000E-03 0.  1.
         11    1    4    4    0    0  0.10392244137E+00  0.38975009479E-01  0.58392573695E-02  0.11114532483E+00  0.51100000000E-03 0. -1.
</event>
<event>
 8    1  0.1041149E+005  0.1043930E+01  0.7957747E-01            NaN
         13   -1    0    0    0    0  0.00000000000E+00  0.00000000000E+00  0.74505805969E-08  0.10566000000E+00  0.10566000000E+00 0.  1.
     999900   -1    0    0    0    0 -0.00000000000E+00 -0.00000000000E+00 -0.74505805969E-08  0.93827000000E+00  0.93827000000E+00 0. -1.
     999902    2    1    2    0    0 -0.19862993273E-02 -0.23663279530E-01 -0.49883493042E-02  0.10196652146E+01  0.10193764614E+01 0.  0.
     999903    2    3    3    0    0  0.76117230941E-03 -0.12816629172E+00  0.29062476780E-01  0.13282369157E+00  0.19243902151E-01 0.  0.
         14    1    1    2    0    0  0.19862993273E-02  0.23663279530E-01  0.49883493042E-02  0.24264785429E-01  0.00000000000E+00 0.  1.
     999901    1    3    3    0    0 -0.27474716368E-02  0.10450301219E+00 -0.34050826084E-01  0.88684152300E+00  0.88000000000E+00 0. -1.
        -11    1    4    4    0    0 -0.25690012859E-02 -0.11445315453E+00  0.20484031002E-01  0.11630125105E+00  0.51100000000E-03 0. -1.
         11    1    4    4    0    0  0.33301735953E-02 -0.13713137190E-01  0.85784457779E-02  0.16522440520E-01  0.51100000000E-03 0.  1.
</event>
<event>
 8    1  0.1041149E+005  0.1043930E+01  0.7957747E-01            NaN
         13   -1    0    0    0    0  0.00000000000E+00  0.00000000000E+00  0.74505805969E-08  0.10566000000E+00  0.10566000000E+00 0.  1.
     999900   -1    0    0    0    0 -0.00000000000E+00 -0.00000000000E+00 -0.74505805969E-08  0.93827000000E+00  0.93827000000E+00 0. -1.
     999902    2    1    2    0    0  0.19586832218E-01  0.10030705687E-01  0.10134248559E-01  0.10197027004E+01  0.10194148494E+01 0.  0.
     999903    2    3    3    0    0  0.42361452472E-01 -0.11845908771E+00  0.25578335578E-01  0.12994608751E+00  0.20116816136E-01 0.  0.
         14    1    1    2    0    0 -0.19586832218E-01 -0.10030705687E-01 -0.10134248559E-01  0.24227299618E-01  0.00000000000E+00 0. -1.
     999901    1    3    3    0    0 -0.22774620254E-01  0.12848979339E+00 -0.15444087018E-01  0.88975661288E+00  0.88000000000E+00 0. -1.
        -11    1    4    4    0    0  0.76555006735E-02 -0.65839067004E-02  0.30542157858E-03  0.10114787261E-01  0.51100000000E-03 0.  1.
         11    1    4    4    0    0  0.34705951799E-01 -0.11187518100E+00  0.25272913999E-01  0.11983130024E+00  0.51100000000E-03 0. -1.
</event>
<event>
 8    1  0.1041149E+005  0.1043930E+01  0.7957747E-01            NaN
         13   -1    0    0    0    0  0.00000000000E+00  0.00000000000E+00  0.74505805969E-08  0.10566000000E+00  0.10566000000E+00 0. -1.
     999900   -1    0    0    0    0 -0.00000000000E+00 -0.00000000000E+00 -0.74505805969E-08  0.93827000000E+00  0.93827000000E+00 0.  1.
     999902    2    1    2    0    0 -0.59533012988E-02 -0.17655829948E-01 -0.14420214017E-01  0.10203691702E+01  0.10200971183E+01 0.  0.
     999903    2    3    3    0    0 -0.12068665103E+00  0.39441949105E-01 -0.25342166807E-01  0.13101930264E+00  0.20072298311E-01 0.  0.
         14    1    1    2    0    0  0.59533012988E-02  0.17655829948E-01  0.14420214017E-01  0.23560829778E-01  0.00000000000E+00 0.  1.
     999901    1    3    3    0    0  0.11473334973E+00 -0.57097779053E-01  0.10921952789E-01  0.88934986758E+00  0.88000000000E+00 0.  1.
        -11    1    4    4    0    0 -0.88817059399E-01  0.19493282222E-01 -0.17149707171E-01  0.92535569751E-01  0.51100000000E-03 0. -1.
         11    1    4    4    0    0 -0.31869591634E-01  0.19948666883E-01 -0.81924596355E-02  0.38483732890E-01  0.51100000000E-03 0.  1.
</event>
<event>
 8    1  0.1041149E+005  0.1043930E+01  0.7957747E-01            NaN
         13   -1    0    0    0    0  0.00000000000E+00  0.00000000000E+00  0.74505805969E-08  0.10566000000E+00  0.10566000000E+00 0.  1.
     999900   -1    0    0    0    0 -0.00000000000E+00 -0.00000000000E+00 -0.74505805969E-08  0.93827000000E+00  0.93827000000E+00 0.  1.
     999902    2    1    2    0    0 -0.11966790059E-01  0.76478966815E-03 -0.20630610400E-01  0.10200676646E+01  0.10197885218E+01 0.  0.
     999903    2    3    3    0    0  0.65935155373E-01 -0.42529075257E-01  0.98554759150E-01  0.12757216083E+00  0.20135757058E-01 0.  0.
         14    1    1    2    0    0  0.11966790059E-01 -0.76478966815E-03  0.20630610400E-01  0.23862335448E-01  0.00000000000E+00 0.  1.
     999901    1    3    3    0    0 -0.77901945432E-01  0.43293864926E-01 -0.11918536955E+00  0.89249550372E+00  0.88000000000E+00 0.  1.
        -11    1    4    4    0    0  0.42559696088E-01 -0.24150776022E-01  0.75367593728E-01  0.89861688271E-01  0.51100000000E-03 0. -1.
         11    1    4    4    0    0  0.23375459285E-01 -0.18378299236E-01  0.23187165422E-01  0.37710472563E-01  0.51100000000E-03 0.  1.
</event>
<event>
 8    1  0.1041149E+005  0.1043930E+01  0.7957747E-01            NaN
         13   -1    0    0    0    0  0.00000000000E+00  0.00000000000E+00  0.74505805969E-08  0.10566000000E+00  0.10566000000E+00 0. -1.
     999900   -1    0    0    0    0 -0.00000000000E+00 -0.00000000000E+00 -0.74505805969E-08  0.93827000000E+00  0.93827000000E+00 0. -1.
     999902    2    1    2    0    0 -0.22449910576E-02  0.14576267368E-01 -0.18175514792E-01  0.10205236570E+01  0.10202552022E+01 0.  0.
     999903    2    3    3    0    0  0.10142648456E+00  0.26991082777E-01 -0.77337188946E-01  0.13237839511E+00  0.22959712070E-01 0.  0.
         14    1    1    2    0    0  0.22449910576E-02 -0.14576267368E-01  0.18175514792E-01  0.23406343012E-01  0.00000000000E+00 0. -1.
     999901    1    3    3    0    0 -0.10367147562E+00 -0.12414815409E-01  0.59161674154E-01  0.88814526187E+00  0.88000000000E+00 0.  1.
        -11    1    4    4    0    0  0.35729847919E-01  0.14667430444E-01 -0.40864207206E-01  0.56230775379E-01  0.51100000000E-03 0.  1.
         11    1    4    4    0    0  0.65696636646E-01  0.12323652334E-01 -0.36472981741E-01  0.76147619736E-01  0.51100000000E-03 0. -1.
</event>
<event>
 8    1  0.1041149E+005  0.1043930E+01  0.7957747E-01            NaN
         13   -1    0    0    0    0  0.00000000000E+00  0.00000000000E+00  0.74505805969E-08  0.10566000000E+00  0.10566000000E+00 0.  1.
     999900   -1    0    0    0    0 -0.00000000000E+00 -0.00000000000E+00 -0.74505805969E-08  0.93827000000E+00  0.93827000000E+00 0. -1.
     999902    2    1    2    0    0 -0.73839976512E-02  0.22339720960E-01 -0.19482016702E-02  0.10203210601E+01  0.10200478830E+01 0.  0.
     999903    2    3    3    0    0 -0.80720433966E-01  0.10391036561E+00  0.95232111162E-02  0.13343685329E+00  0.20038705691E-01 0.  0.
         14    1    1    2    0    0  0.73839976512E-02 -0.22339720960E-01  0.19482016702E-02  0.23608939909E-01  0.00000000000E+00 0. -1.
     999901    1    3    3    0    0  0.73336436315E-01 -0.81570644648E-01 -0.11471412786E-01  0.88688420680E+00  0.88000000000E+00 0.  1.
        -11    1    4    4    0    0 -0.64566242492E-01  0.94194300005E-01  0.70485149660E-02  0.11441725616E+00  0.51100000000E-03 0. -1.
         11    1    4    4    0    0 -0.16154191474E-01  0.97160656033E-02  0.24746961502E-02  0.19019597131E-01  0.51100000000E-03 0.  1.
</event>
<event>
 8    1  0.1041149E+005  0.1043930E+01  0.7957747E-01            NaN
         13   -1    0    0    0    0  0.00000000000E+00  0.00000000000E+00  0.74505805969E-08  0.10566000000E+00  0.10566000000E+00 0. -1.
     999900   -1    0    0    0    0 -0.00000000000E+00 -0.00000000000E+00 -0.74505805969E-08  0.93827000000E+00  0.93827000000E+00 0.  1.
     999902    2    1    2    0    0 -0.19651874321E-01 -0.67182117932E-02  0.62172056574E-02  0.10222508815E+01  0.10220209785E+01 0.  0.
     999903    2    3    3    0    0  0.56760806852E-03  0.23039975997E-01  0.12943993123E+00  0.13293754113E+00  0.19660401157E-01 0.  0.
         14    1    1    2    0    0  0.19651874321E-01  0.67182117932E-02 -0.62172056574E-02  0.21679118529E-01  0.00000000000E+00 0.  1.
     999901    1    3    3    0    0 -0.20219482389E-01 -0.29758187790E-01 -0.12322272557E+00  0.88931334034E+00  0.88000000000E+00 0.  1.
        -11    1    4    4    0    0  0.94707911842E-02  0.16794710912E-01  0.76954903307E-01  0.79335215789E-01  0.51100000000E-03 0.  1.
         11    1    4    4    0    0 -0.89031831157E-02  0.62452650845E-02  0.52485027918E-01  0.53602325343E-01  0.51100000000E-03 0. -1.
</event>
<event>
 8    1  0.1041149E+005  0.1043930E+01  0.7957747E-01            NaN
         13   -1    0    0    0    0  0.00000000000E+00  0.00000000000E+00  0.74505805969E-08  0.10566000000E+00  0.10566000000E+00 0. -1.
     999900   -1    0    0    0    0 -0.00000000000E+00 -0.00000000000E+00 -0.74505805969E-08  0.93827000000E+00  0.93827000000E+00 0. -1.
     999902    2    1    2    0    0 -0.23033250485E-04  0.16951412871E-01 -0.16796419677E-01  0.10200664160E+01  0.10197872437E+01 0.  0.
     999903    2    3    3    0    0 -0.30919489820E-01 -0.12221708438E+00 -0.68983539601E-02  0.12853939262E+00  0.24119651769E-01 0.  0.
         14    1    1    2    0    0  0.23033250485E-04 -0.16951412871E-01  0.16796419677E-01  0.23863584032E-01  0.00000000000E+00 0. -1.
     999901    1    3    3    0    0  0.30896456570E-01  0.13916849726E+00 -0.98980657174E-02  0.89152702335E+00  0.88000000000E+00 0.  1.
        -11    1    4    4    0    0 -0.17470079459E-01 -0.29278957124E-01 -0.60298066919E-02  0.34627744604E-01  0.51100000000E-03 0.  1.
         11    1    4    4    0    0 -0.13449410361E-01 -0.92938127260E-01 -0.86854726818E-03  0.93911648015E-01  0.51100000000E-03 0. -1.
</event>
<event>
 8    1  0.1041149E+005  0.1043930E+01  0.7957747E-01            NaN
         13   -1    0    0    0    0  0.00000000000E+00  0.00000000000E+00  0.74505805969E-08  0.10566000000E+00  0.10566000000E+00 0. -1.
     999900   -1    0    0    0    0 -0.00000000000E+00 -0.00000000000E+00 -0.74505805969E-08  0.93827000000E+00  0.93827000000E+00 0. -1.
     999902    2    1    2    0    0 -0.16987051369E-01  0.15692235144E-01  0.45125729622E-02  0.10203679654E+01  0.10200958854E+01 0.  0.
     999903    2    3    3    0    0  0.36719137821E-01 -0.11379494873E+00  0.42618121562E-01  0.12845803816E+00  0.19686996789E-01 0.  0.
         14    1    1    2    0    0  0.16987051369E-01 -0.15692235144E-01 -0.45125729622E-02  0.23562034564E-01  0.00000000000E+00 0.  1.
     999901    1    3    3    0    0 -0.53706189190E-01  0.12948718388E+00 -0.38105548600E-01  0.89190992728E+00  0.88000000000E+00 0.  1.
        -11    1    4    4    0    0  0.15371646852E-01 -0.71880685165E-01  0.32344113464E-01  0.80308923685E-01  0.51100000000E-03 0. -1.
         11    1    4    4    0    0  0.21347490969E-01 -0.41914263567E-01  0.10274008098E-01  0.48149114472E-01  0.51100000000E-03 0.  1.
</event>
<event>
 8    1  0.1041149E+005  0.1043930E+01  0.7957747E-01            NaN
         13   -1    0    0    0    0  0.00000000000E+00  0.00000000000E+00  0.74505805969E-08  0.10566000000E+00  0.10566000000E+00 0.  1.
     999900   -1    0    0    0    0 -0.00000000000E+00 -0.00000000000E+00 -0.74505805969E-08  0.93827000000E+00  0.93827000000E+00 0.  1.
     999902    2    1    2    0    0 -0.16249252714E-01 -0.17129951440E-01 -0.40902237719E-02  0.10199674588E+01  0.10196859387E+01 0.  0.
     999903    2    3    3    0    0 -0.92629274516E-02 -0.12985460319E+00  0.16151227825E-01  0.13251865903E+00  0.18770003682E-01 0.  0.
         14    1    1    2    0    0  0.16249252714E-01  0.17129951440E-01  0.40902237719E-02  0.23962541197E-01  0.00000000000E+00 0.  1.
     999901    1    3    3    0    0 -0.69863252626E-02  0.11272465175E+00 -0.20241451597E-01  0.88744879977E+00  0.88000000000E+00 0. -1.
        -11    1    4    4    0    0 -0.29369688521E-02 -0.95491864757E-01  0.19176854124E-01  0.97444008927E-01  0.51100000000E-03 0.  1.
         11    1    4    4    0    0 -0.63259585995E-02 -0.34362738428E-01 -0.30256262989E-02  0.35074650105E-01  0.51100000000E-03 0. -1.
</event>
<event>
 8    1  0.1041149E+005  0.1043930E+01  0.7957747E-01            NaN
         13   -1    0    0    0    0  0.00000000000E+00  0.00000000000E+00  0.74505805969E-08  0.10566000000E+00  0.10566000000E+00 0. -1.
     999900   -1    0    0    0    0 -0.00000000000E+00 -0.00000000000E+00 -0.74505805969E-08  0.93827000000E+00  0.93827000000E+00 0.  1.
     999902    2    1    2    0    0  0.85833704851E-02 -0.22180490413E-01  0.23090108194E-02  0.10200348136E+01  0.10197548926E+01 0.  0.
     999903    2    3    3    0    0  0.73585899390E-01  0.42204098583E-01  0.96797294552E-01  0.13026026918E+00  0.20048714893E-01 0.  0.
         14    1    1    2    0    0 -0.85833704851E-02  0.22180490413E-01 -0.23090108194E-02  0.23895186436E-01  0.00000000000E+00 0. -1.
     999901    1    3    3    0    0 -0.65002528905E-01 -0.64384588997E-01 -0.94488283732E-01  0.88977454438E+00  0.88000000000E+00 0.  1.
        -11    1    4    4    0    0  0.26690527895E-01  0.22683570321E-01  0.50953825443E-01  0.61834311592E-01  0.51100000000E-03 0.  1.
         11    1    4    4    0    0  0.46895371495E-01  0.19520528263E-01  0.45843469109E-01  0.68425957591E-01  0.51100000000E-03 0. -1.
</event>
<event>
 8    1  0.1041149E+005  0.1043930E+01  0.7957747E-01            NaN
         13   -1    0    0    0    0  0.00000000000E+00  0.00000000000E+00  0.74505805969E-08  0.10566000000E+00  0.10566000000E+00 0.  1.
     999900   -1    0    0    0    0 -0.00000000000E+00 -0.00000000000E+00 -0.74505805969E-08  0.93827000000E+00  0.93827000000E+00 0.  1.
     999902    2    1    2    0    0 -0.54668739886E-02  0.17712095090E-01 -0.14137826033E-01  0.10206172750E+01  0.10203509880E+01 0.  0.
     999903    2    3    3    0    0  0.35220563446E-01  0.12713042868E+00 -0.14236252144E-02  0.13281690878E+00  0.15351565549E-01 0.  0.
         14    1    1    2    0    0  0.54668739886E-02 -0.17712095090E-01  0.14137826033E-01  0.23312725036E-01  0.00000000000E+00 0. -1.
     999901    1    3    3    0    0 -0.40687437434E-01 -0.10941833359E+00 -0.12714200818E-01  0.88780036618E+00  0.88000000000E+00 0.  1.
        -11    1    4    4    0    0  0.34020087169E-01  0.99659408452E-01 -0.11420920026E-02  0.10531348213E+00  0.51100000000E-03 0.  1.
         11    1    4    4    0    0  0.12004762771E-02  0.27471020225E-01 -0.28153321175E-03  0.27503426649E-01  0.51100000000E-03 0. -1.
</event>
<event>
 8    1  0.1041149E+005  0.1043930E+01  0.7957747E-01            NaN
         13   -1    0    0    0    0  0.00000000000E+00  0.00000000000E+00  0.74505805969E-08  0.10566000000E+00  0.10566000000E+00 0. -1.
     999900   -1    0    0    0    0 -0.00000000000E+00 -0.00000000000E+00 -0.74505805969E-08  0.93827000000E+00  0.93827000000E+00 0. -1.
     999902    2    1    2    0    0 -0.87894585310E-02 -0.59773293727E-02  0.20777725265E-01  0.10205912572E+01  0.10203243687E+01 0.  0.
     999903    2    3    3    0    0  0.11414736325E+00  0.49611751879E-02  0.60609198641E-01  0.13108596813E+00  0.21349994968E-01 0.  0.
         14    1    1    2    0    0  0.87894585310E-02  0.59773293727E-02 -0.20777725265E-01  0.23338742787E-01  0.00000000000E+00 0.  1.
     999901    1    3    3    0    0 -0.12293682178E+00 -0.10938504561E-01 -0.39831473376E-01  0.88950528908E+00  0.88000000000E+00 0. -1.
        -11    1    4    4    0    0  0.83565504502E-01  0.13006812391E-01  0.42716786616E-01  0.94748908654E-01  0.51100000000E-03 0.  1.
         11    1    4    4    0    0  0.30581858747E-01 -0.80456372034E-02  0.17892412025E-01  0.36337059478E-01  0.51100000000E-03 0. -1.
</event>
<event>
 8    1  0.1041149E+005  0.1043930E+01  0.7957747E-01            NaN
         13   -1    0    0    0    0  0.00000000000E+00  0.00000000000E+00  0.74505805969E-08  0.10566000000E+00  0.10566000000E+00 0. -1.
     999900   -1    0    0    0    0 -0.00000000000E+00 -0.00000000000E+00 -0.74505805969E-08  0.93827000000E+00  0.93827000000E+00 0.  1.
     999902    2    1    2    0    0 -0.23057153315E-01  0.52943462360E-05 -0.45952490361E-02  0.10204193926E+01  0.10201485128E+01 0.  0.
     999903    2    3    3    0    0 -0.64726513803E-01  0.99450014438E-01  0.54072182040E-01  0.13189958109E+00  0.19846200162E-01 0.  0.
         14    1    1    2    0    0  0.23057153315E-01 -0.52943462360E-05  0.45952490361E-02  0.23510607409E-01  0.00000000000E+00 0. -1.
     999901    1    3    3    0    0  0.41669360488E-01 -0.99444720092E-01 -0.58667431076E-01  0.88851981150E+00  0.88000000000E+00 0.  1.
        -11    1    4    4    0    0 -0.52874688534E-01  0.80267543071E-01  0.51913362337E-01  0.10924225130E+00  0.51100000000E-03 0. -1.
         11    1    4    4    0    0 -0.11851825269E-01  0.19182471367E-01  0.21588197032E-02  0.22657329795E-01  0.51100000000E-03 0.  1.
</event>
<event>
 8    1  0.1041149E+005  0.1043930E+01  0.7957747E-01            NaN
         13   -1    0    0    0    0  0.00000000000E+00  0.00000000000E+00  0.74505805969E-08  0.10566000000E+00  0.10566000000E+00 0.  1.
     999900   -1    0    0    0    0 -0.00000000000E+00 -0.00000000000E+00 -0.74505805969E-08  0.93827000000E+00  0.93827000000E+00 0.  1.
     999902    2    1    2    0    0  0.20626390139E-01 -0.19074693210E-02  0.11000811445E-01  0.10204756984E+01  0.10202061296E+01 0.  0.
     999903    2    3    3    0    0  0.41068081658E-01 -0.11927083029E-01 -0.12196351621E+00  0.13019609750E+00  0.15718838324E-01 0.  0.
         14    1    1    2    0    0 -0.20626390139E-01  0.19074693210E-02 -0.11000811445E-01  0.23454301564E-01  0.00000000000E+00 0. -1.
     999901    1    3    3    0    0 -0.20441691519E-01  0.10019613708E-01  0.13296432765E+00  0.89027960093E+00  0.88000000000E+00 0. -1.
        -11    1    4    4    0    0  0.27432523681E-01 -0.97702454928E-05 -0.74678785995E-01  0.79559572961E-01  0.51100000000E-03 0. -1.
         11    1    4    4    0    0  0.13635557977E-01 -0.11917312783E-01 -0.47284730213E-01  0.50636524541E-01  0.51100000000E-03 0.  1.
</event>
<event>
 8    1  0.1041149E+005  0.1043930E+01  0.7957747E-01            NaN
         13   -1    0    0    0    0  0.00000000000E+00  0.00000000000E+00  0.74505805969E-08  0.10566000000E+00  0.10566000000E+00 0.  1.
     999900   -1    0    0    0    0 -0.00000000000E+00 -0.00000000000E+00 -0.74505805969E-08  0.93827000000E+00  0.93827000000E+00 0.  1.
     999902    2    1    2    0    0  0.23476221747E-01 -0.69588070709E-03 -0.76978209917E-02  0.10192141410E+01  0.10189144182E+01 0.  0.
     999903    2    3    3    0    0  0.64937397727E-01  0.80920423456E-01  0.76714659535E-01  0.13044773915E+00  0.19144009631E-01 0.  0.
         14    1    1    2    0    0 -0.23476221747E-01  0.69588070709E-03  0.76978209917E-02  0.24715858987E-01  0.00000000000E+00 0.  1.
     999901    1    3    3    0    0 -0.41461175980E-01 -0.81616304163E-01 -0.84412480527E-01  0.88876640187E+00  0.88000000000E+00 0. -1.
        -11    1    4    4    0    0  0.16339653388E-01  0.34034915623E-01  0.31583272962E-01  0.49225237494E-01  0.51100000000E-03 0.  1.
         11    1    4    4    0    0  0.48597744339E-01  0.46885507834E-01  0.45131386572E-01  0.81222501652E-01  0.51100000000E-03 0. -1.
</event>
<event>
 8    1  0.1041149E+005  0.1043930E+01  0.7957747E-01            NaN
         13   -1    0    0    0    0  0.00000000000E+00  0.00000000000E+00  0.74505805969E-08  0.10566000000E+00  0.10566000000E+00 0.  1.
     999900   -1    0    0    0    0 -0.00000000000E+00 -0.00000000000E+00 -0.74505805969E-08  0.93827000000E+00  0.93827000000E+00 0.  1.
     999902    2    1    2    0    0 -0.10210722785E-01 -0.20191536776E-01  0.74994127500E-02  0.10200930915E+01  0.10198145503E+01 0.  0.
     999903    2    3    3    0    0  0.76953792839E-01 -0.10289762793E+00 -0.20116233787E-01  0.13149837269E+00  0.19425526791E-01 0.  0.
         14    1    1    2    0    0  0.10210722785E-01  0.20191536776E-01 -0.74994127500E-02  0.23836908540E-01  0.00000000000E+00 0.  1.
     999901    1    3    3    0    0 -0.87164515624E-01  0.82706091156E-01  0.27615646537E-01  0.88859471877E+00  0.88000000000E+00 0.  1.
        -11    1    4    4    0    0  0.71596351872E-01 -0.84810668088E-01 -0.15474186426E-01  0.11206515332E+00  0.51100000000E-03 0.  1.
         11    1    4    4    0    0  0.53574409678E-02 -0.18086959844E-01 -0.46420473606E-02  0.19433219363E-01  0.51100000000E-03 0. -1.
</event>
<event>
 8    1  0.1041149E+005  0.1043930E+01  0.7957747E-01            NaN
         13   -1    0    0    0    0  0.00000000000E+00  0.00000000000E+00  0.74505805969E-08  0.10566000000E+00  0.10566000000E+00 0. -1.
     999900   -1    0    0    0    0 -0.00000000000E+00 -0.00000000000E+00 -0.74505805969E-08  0.93827000000E+00  0.93827000000E+00 0.  1.
     999902    2    1    2    0    0  0.94876132783E-02  0.14793394715E-01  0.16196790005E-01  0.10200303067E+01  0.10197502789E+01 0.  0.
     999903    2    3    3    0    0 -0.35698748649E-01  0.10710653256E+00  0.66695884570E-01  0.13261063075E+00  0.19774437995E-01 0.  0.
         14    1    1    2    0    0 -0.94876132783E-02 -0.14793394715E-01 -0.16196790005E-01  0.23899693291E-01  0.00000000000E+00 0.  1.
     999901    1    3    3    0    0  0.45186361927E-01 -0.92313137844E-01 -0.50499094565E-01  0.88741967596E+00  0.88000000000E+00 0.  1.
        -11    1    4    4    0    0 -0.15308663687E-01  0.74349593635E-01  0.41342141295E-01  0.86438712539E-01  0.51100000000E-03 0. -1.
         11    1    4    4    0    0 -0.20390084962E-01  0.32756938925E-01  0.25353743275E-01  0.46171918214E-01  0.51100000000E-03 0.  1.
</event>
<event>
 8    1  0.1041149E+005  0.1043930E+01  0.7957747E-01            NaN
         13   -1    0    0    0    0  0.00000000000E+00  0.00000000000E+00  0.74505805969E-08  0.10566000000E+00  0.10566000000E+00 0. -1.
     999900   -1    0    0    0    0 -0.00000000000E+00 -0.00000000000E+00 -0.74505805969E-08  0.93827000000E+00  0.93827000000E+00 0. -1.
     999902    2    1    2    0    0  0.93258707300E-02  0.90282224865E-02 -0.24171501484E-01  0.10164938532E+01  0.10161235218E+01 0.  0.
     999903    2    3    3    0    0 -0.64579352155E-01  0.10097784127E+00  0.36078555078E-01  0.12657993397E+00  0.18809582488E-01 0.  0.
         14    1    1    2    0    0 -0.93258707300E-02 -0.90282224865E-02  0.24171501484E-01  0.27436146780E-01  0.00000000000E+00 0. -1.
     999901    1    3    3    0    0  0.73905222885E-01 -0.91949618789E-01 -0.60250056561E-01  0.88991391925E+00  0.88000000000E+00 0. -1.
        -11    1    4    4    0    0 -0.26099026382E-01  0.45982236411E-01  0.25228581324E-01  0.58585558631E-01  0.51100000000E-03 0. -1.
         11    1    4    4    0    0 -0.38480325773E-01  0.54995604864E-01  0.10849973753E-01  0.67994375336E-01  0.51100000000E-03 0.  1.
</event>
<event>
 8    1  0.1041149E+005  0.1043930E+01  0.7957747E-01            NaN
         13   -1    0    0    0    0  0.00000000000E+00  0.00000000000E+00  0.74505805969E-08  0.10566000000E+00  0.10566000000E+00 0.  1.
     999900   -1    0    0    0    0 -0.00000000000E+00 -0.00000000000E+00 -0.74505805969E-08  0.93827000000E+00  0.93827000000E+00 0.  1.
     999902    2    1    2    0    0  0.59572029740E-02  0.10134433104E-01  0.20472747190E-01  0.10203221966E+01  0.10200490462E+01 0.  0.
     999903    2    3    3    0    0 -0.49415426566E-01 -0.99664932243E-01 -0.59677708226E-01  0.12816406928E+00  0.22127283893E-01 0.  0.
         14    1    1    2    0    0 -0.59572029740E-02 -0.10134433104E-01 -0.20472747190E-01  0.23607803352E-01  0.00000000000E+00 0.  1.
     999901    1    3    3    0    0  0.55372629540E-01  0.10979936535E+00  0.80150455417E-01  0.89215812737E+00  0.88000000000E+00 0.  1.
        -11    1    4    4    0    0 -0.40670349606E-01 -0.60651122859E-01 -0.33290000051E-01  0.80256596399E-01  0.51100000000E-03 0. -1.
         11    1    4    4    0    0 -0.87450769592E-02 -0.39013809383E-01 -0.26387708175E-01  0.47907472876E-01  0.51100000000E-03 0.  1.
</event>
<event>
 8    1  0.1041149E+005  0.1043930E+01  0.7957747E-01            NaN
         13   -1    0    0    0    0  0.00000000000E+00  0.00000000000E+00  0.74505805969E-08  0.10566000000E+00  0.10566000000E+00 0. -1.
     999900   -1    0    0    0    0 -0.00000000000E+00 -0.00000000000E+00 -0.74505805969E-08  0.93827000000E+00  0.93827000000E+00 0.  1.
     999902    2    1    2    0    0 -0.16545304559E-01  0.14913544584E-01 -0.13763737404E-01  0.10177460090E+01  0.10174091299E+01 0.  0.
     999903    2    3    3    0    0  0.12380558117E+00 -0.54459199592E-02 -0.14935276188E-01  0.12639071993E+00  0.19851237671E-01 0.  0.
         14    1    1    2    0    0  0.16545304559E-01 -0.14913544584E-01  0.13763737404E-01  0.26183990956E-01  0.00000000000E+00 0.  1.
     999901    1    3    3    0    0 -0.14035088573E+00  0.20359464544E-01  0.11715387843E-02  0.89135528911E+00  0.88000000000E+00 0.  1.
        -11    1    4    4    0    0  0.61330284277E-01 -0.11296926983E-01 -0.12424619029E-01  0.63589752380E-01  0.51100000000E-03 0.  1.
         11    1    4    4    0    0  0.62475296895E-01  0.58510070239E-02 -0.25106571588E-02  0.62800967554E-01  0.51100000000E-03 0. -1.
</event>
<event>
 8    1  0.1041149E+005  0.1043930E+01  0.7957747E-01            NaN
         13   -1    0    0    0    0  0.00000000000E+00  0.00000000000E+00  0.74505805969E-08  0.10566000000E+00  0.10566000000E+00 0.  1.
     999900   -1    0    0    0    0 -0.00000000000E+00 -0.00000000000E+00 -0.74505805969E-08  0.93827000000E+00  0.93827000000E+00 0. -1.
     999902    2    1    2    0    0  0.16737276394E-01 -0.50247491896E-02  0.15060291415E-01  0.10208606068E+01  0.10205999126E+01 0.  0.
     999903    2    3    3    0    0 -0.50221644463E-01 -0.11313692505E+00  0.39111032395E-01  0.13139437483E+00  0.20313333046E-01 0.  0.
         14    1    1    2    0    0 -0.16737276394E-01  0.50247491896E-02 -0.15060291415E-01  0.23069393209E-01  0.00000000000E+00 0. -1.
     999901    1    3    3    0    0  0.66958920858E-01  0.10811217586E+00 -0.24050740980E-01  0.88946623196E+00  0.88000000000E+00 0. -1.
        -11    1    4    4    0    0 -0.72836316067E-02 -0.38322659763E-01  0.90826235403E-02  0.40055370577E-01  0.51100000000E-03 0. -1.
         11    1    4    4    0    0 -0.42938012857E-01 -0.74814265291E-01  0.30028408855E-01  0.91339004256E-01  0.51100000000E-03 0.  1.
</event>
<event>
 8    1  0.1041149E+005  0.1043930E+01  0.7957747E-01            NaN
         13   -1    0    0    0    0  0.00000000000E+00  0.00000000000E+00  0.74505805969E-08  0.10566000000E+00  0.10566000000E+00 0. -1.
     999900   -1    0    0    0    0 -0.00000000000E+00 -0.00000000000E+00 -0.74505805969E-08  0.93827000000E+00  0.93827000000E+00 0. -1.
     999902    2    1    2    0    0 -0.20914172004E-02  0.17397220803E-01  0.16040817560E-01  0.10201740503E+01  0.10198974202E+01 0.  0.
     999903    2    3    3    0    0  0.10857118026E+00  0.66681609038E-01  0.27586183770E-01  0.13179999797E+00  0.19393394792E-01 0.  0.
         14    1    1    2    0    0  0.20914172004E-02 -0.17397220803E-01 -0.16040817560E-01  0.23755949687E-01  0.00000000000E+00 0.  1.
     999901    1    3    3    0    0 -0.11066259746E+00 -0.49284388235E-01 -0.11545366210E-01  0.88837405235E+00  0.88000000000E+00 0.  1.
        -11    1    4    4    0    0  0.65651181037E-01  0.42062811828E-01  0.72716531412E-02  0.78310253293E-01  0.51100000000E-03 0. -1.
         11    1    4    4    0    0  0.42919999225E-01  0.24618797210E-01  0.20314530628E-01  0.53489744673E-01  0.51100000000E-03 0.  1.
</event>
<event>
 8    1  0.1041149E+005  0.1043930E+01  0.7957747E-01            NaN
         13   -1    0    0    0    0  0.00000000000E+00  0.00000000000E+00  0.74505805969E-08  0.10566000000E+00  0.10566000000E+00 0.  1.
     999900   -1    0    0    0    0 -0.00000000000E+00 -0.00000000000E+00 -0.74505805969E-08  0.93827000000E+00  0.93827000000E+00 0.  1.
     999902    2    1    2    0    0 -0.27217788814E-02 -0.23495715464E-01 -0.62019292928E-02  0.10194775839E+01  0.10191842932E+01 0.  0.
     999903    2    3    3    0    0  0.92327367576E-01  0.76109202917E-01  0.39727236012E-01  0.12758915578E+00  0.19590452280E-01 0.  0.
         14    1    1    2    0    0  0.27217788814E-02  0.23495715464E-01  0.62019292928E-02  0.24452416085E-01  0.00000000000E+00 0.  1.
     999901    1    3    3    0    0 -0.95049146457E-01 -0.99604918381E-01 -0.45929165305E-01  0.89188842813E+00  0.88000000000E+00 0.  1.
        -11    1    4    4    0    0  0.14501496206E-01  0.21349951636E-01  0.12024191394E-01  0.28477291422E-01  0.51100000000E-03 0.  1.
         11    1    4    4    0    0  0.77825871369E-01  0.54759251281E-01  0.27703044619E-01  0.99111864362E-01  0.51100000000E-03 0. -1.
</event>
<event>
 8    1  0.1041149E+005  0.1043930E+01  0.7957747E-01            NaN
         13   -1    0    0    0    0  0.00000000000E+00  0.00000000000E+00  0.74505805969E-08  0.10566000000E+00  0.10566000000E+00 0.  1.
     999900   -1    0    0    0    0 -0.00000000000E+00 -0.00000000000E+00 -0.74505805969E-08  0.93827000000E+00  0.93827000000E+00 0. -1.
     999902    2    1    2    0    0  0.17869442349E-01  0.10353864696E-01 -0.41216252461E-02  0.10228703875E+01  0.10226535691E+01 0.  0.
     999903    2    3    3    0    0  0.12278179751E+00 -0.17152101978E-01  0.47699274611E-01  0.13469890286E+00  0.22338514493E-01 0.  0.
         14    1    1    2    0    0 -0.17869442349E-01 -0.10353864696E-01  0.41216252461E-02  0.21059612501E-01  0.00000000000E+00 0.  1.
     999901    1    3    3    0    0 -0.10491235516E+00  0.27505966674E-01 -0.51820899857E-01  0.88817148464E+00  0.88000000000E+00 0.  1.
        -11    1    4    4    0    0  0.10198140296E+00 -0.19574682068E-01  0.32475488605E-01  0.10880392093E+00  0.51100000000E-03 0. -1.
         11    1    4    4    0    0  0.20800394553E-01  0.24225800902E-02  0.15223786006E-01  0.25894981931E-01  0.51100000000E-03 0.  1.
</event>
<event>
 8    1  0.1041149E+005  0.1043930E+01  0.7957747E-01            NaN
         13   -1    0    0    0    0  0.00000000000E+00  0.00000000000E+00  0.74505805969E-08  0.10566000000E+00  0.10566000000E+00 0. -1.
     999900   -1    0    0    0    0 -0.00000000000E+00 -0.00000000000E+00 -0.74505805969E-08  0.93827000000E+00  0.93827000000E+00 0.  1.
     999902    2    1    2    0    0  0.13338916189E-01  0.27479742482E-02 -0.20653114335E-01  0.10191907765E+01  0.10188904798E+01 0.  0.
     999903    2    3    3    0    0  0.69425835434E-01  0.74095090723E-01  0.77285090728E-01  0.12911884371E+00  0.19714498633E-01 0.  0.
         14    1    1    2    0    0 -0.13338916189E-01 -0.27479742482E-02  0.20653114335E-01  0.24739223498E-01  0.00000000000E+00 0. -1.
     999901    1    3    3    0    0 -0.56086919245E-01 -0.71347116474E-01 -0.97938205063E-01  0.89007193280E+00  0.88000000000E+00 0.  1.
        -11    1    4    4    0    0  0.27489238521E-01  0.24127831534E-01  0.17170873549E-01  0.40409287404E-01  0.51100000000E-03 0. -1.
         11    1    4    4    0    0  0.41936596912E-01  0.49967259188E-01  0.60114217178E-01  0.88709556302E-01  0.51100000000E-03 0.  1.
</event>
<event>
 8    1  0.1041149E+005  0.1043930E+01  0.7957747E-01            NaN
         13   -1    0    0    0    0  0.00000000000E+00  0.00000000000E+00  0.74505805969E-08  0.10566000000E+00  0.10566000000E+00 0.  1.
     999900   -1    0    0    0    0 -0.00000000000E+00 -0.00000000000E+00 -0.74505805969E-08  0.93827000000E+00  0.93827000000E+00 0.  1.
     999902    2    1    2    0    0  0.16850205586E-02  0.86491504243E-02  0.18830636803E-01  0.10231396181E+01  0.10229283641E+01 0.  0.
     999903    2    3    3    0    0  0.61517188985E-01  0.96888123876E-01  0.68573956384E-01  0.13531057900E+00  0.20854069314E-01 0.  0.
         14    1    1    2    0    0 -0.16850205586E-02 -0.86491504243E-02 -0.18830636803E-01  0.20790381905E-01  0.00000000000E+00 0. -1.
     999901    1    3    3    0    0 -0.59832168427E-01 -0.88238973452E-01 -0.49743319581E-01  0.88782903909E+00  0.88000000000E+00 0. -1.
        -11    1    4    4    0    0  0.13905309426E-01  0.89203669107E-02  0.11631347335E-01  0.20210886618E-01  0.51100000000E-03 0.  1.
         11    1    4    4    0    0  0.47611879559E-01  0.87967756965E-01  0.56942609049E-01  0.11509969238E+00  0.51100000000E-03 0. -1.
</event>
<event>
 8    1  0.1041149E+005  0.1043930E+01  0.7957747E-01            NaN
         13   -1    0    0    0    0  0.00000000000E+00  0.00000000000E+00  0.74505805969E-08  0.10566000000E+00  0.10566000000E+00 0. -1.
     999900   -1    0    0    0    0 -0.00000000000E+00 -0.00000000000E+00 -0.74505805969E-08  0.93827000000E+00  0.93827000000E+00 0.  1.
     999902    2    1    2    0    0 -0.52306148702E-02 -0.23217391467E-01  0.22989526678E-02  0.10200199230E+01  0.10197396489E+01 0.  0.
     999903    2    3    3    0    0  0.53564906501E-01  0.10556685097E+00  0.46174706060E-01  0.12762574095E+00  0.11944330966E-01 0.  0.
         14    1    1    2    0    0  0.52306148702E-02  0.23217391467E-01 -0.22989526678E-02  0.23910076993E-01  0.00000000000E+00 0. -1.
     999901    1    3    3    0    0 -0.58795521371E-01 -0.12878424243E+00 -0.43875753392E-01  0.89239418206E+00  0.88000000000E+00 0. -1.
        -11    1    4    4    0    0  0.27457873661E-01  0.58022608844E-01  0.18938753916E-01  0.66929033192E-01  0.51100000000E-03 0.  1.
         11    1    4    4    0    0  0.26107032840E-01  0.47544242121E-01  0.27235952143E-01  0.60696707759E-01  0.51100000000E-03 0. -1.
</event>
<event>
 8    1  0.1041149E+005  0.1043930E+01  0.7957747E-01            NaN
         13   -1    0    0    0    0  0.00000000000E+00  0.00000000000E+00  0.74505805969E-08  0.10566000000E+00  0.10566000000E+00 0. -1.
     999900   -1    0    0    0    0 -0.00000000000E+00 -0.00000000000E+00 -0.74505805969E-08  0.93827000000E+00  0.93827000000E+00 0. -1.
     999902    2    1    2    0    0 -0.22578093230E-01 -0.68402228266E-02  0.20771113216E-02  0.10202472355E+01  0.10199723272E+01 0.  0.
     999903    2    3    3    0    0 -0.49189579943E-01  0.11641930583E+00 -0.27035888154E-01  0.13078186274E+00  0.19997170520E-01 0.  0.
         14    1    1    2    0    0  0.22578093230E-01  0.68402228266E-02 -0.20771113216E-02  0.23682764486E-01  0.00000000000E+00 0. -1.
     999901    1    3    3    0    0  0.26611486713E-01 -0.12325952865E+00  0.29112999476E-01  0.88946537278E+00  0.88000000000E+00 0.  1.
        -11    1    4    4    0    0 -0.16657086283E-01  0.55726926400E-01 -0.45626017055E-02  0.58344042582E-01  0.51100000000E-03 0. -1.
         11    1    4    4    0    0 -0.32532493660E-01  0.60692379427E-01 -0.22473286449E-01  0.72437820157E-01  0.51100000000E-03 0.  1.
</event>
<event>
 8    1  0.1041149E+005  0.1043930E+01  0.7957747E-01            NaN
         13   -1    0    0    0    0  0.00000000000E+00  0.00000000000E+00  0.74505805969E-08  0.10566000000E+00  0.10566000000E+00 0.  1.
     999900   -1    0    0    0    0 -0.00000000000E+00 -0.00000000000E+00 -0.74505805969E-08  0.93827000000E+00  0.93827000000E+00 0. -1.
     999902    2    1    2    0    0  0.12847535813E-01 -0.13218596949E-02 -0.19657131422E-01  0.10204095981E+01  0.10201384899E+01 0.  0.
     999903    2    3    3    0    0 -0.10271363532E+00  0.72807454936E-01 -0.23987060260E-01  0.12975349846E+00  0.20237957573E-01 0.  0.
         14    1    1    2    0    0 -0.12847535813E-01  0.13218596949E-02  0.19657131422E-01  0.23520401894E-01  0.00000000000E+00 0.  1.
     999901    1    3    3    0    0  0.11556117113E+00 -0.74129314631E-01  0.43299288382E-02  0.89065609965E+00  0.88000000000E+00 0. -1.
        -11    1    4    4    0    0 -0.49147363422E-02  0.10261976814E-01 -0.12488995649E-02  0.11457908734E-01  0.51100000000E-03 0. -1.
         11    1    4    4    0    0 -0.97798898977E-01  0.62545478123E-01 -0.22738160695E-01  0.11829558972E+00  0.51100000000E-03 0.  1.
</event>
<event>
 8    1  0.1041149E+005  0.1043930E+01  0.7957747E-01            NaN
         13   -1    0    0    0    0  0.00000000000E+00  0.00000000000E+00  0.74505805969E-08  0.10566000000E+00  0.10566000000E+00 0. -1.
     999900   -1    0    0    0    0 -0.00000000000E+00 -0.00000000000E+00 -0.74505805969E-08  0.93827000000E+00  0.93827000000E+00 0. -1.
     999902    2    1    2    0    0  0.44150091696E-02 -0.64270078538E-02  0.22569451400E-01  0.10200515815E+01  0.10197720578E+01 0.  0.
     999903    2    3    3    0    0 -0.58622997779E-01 -0.38177982068E-01 -0.10590247686E+00  0.12792661765E+00  0.15989706550E-01 0.  0.
         14    1    1    2    0    0 -0.44150091696E-02  0.64270078538E-02 -0.22569451400E-01  0.23878418549E-01  0.00000000000E+00 0.  1.
     999901    1    3    3    0    0  0.63038006949E-01  0.31750974214E-01  0.12847192826E+00  0.89212496380E+00  0.88000000000E+00 0.  1.
        -11    1    4    4    0    0 -0.15784408338E-01 -0.34547120488E-02 -0.18362781240E-01  0.24464983912E-01  0.51100000000E-03 0. -1.
         11    1    4    4    0    0 -0.42838589441E-01 -0.34723270019E-01 -0.87539695619E-01  0.10346163374E+00  0.51100000000E-03 0.  1.
</event>
<event>
 8    1  0.1041149E+005  0.1043930E+01  0.7957747E-01            NaN
         13   -1    0    0    0    0  0.00000000000E+00  0.00000000000E+00  0.74505805969E-08  0.10566000000E+00  0.10566000000E+00 0.  1.
     999900   -1    0    0    0    0 -0.00000000000E+00 -0.00000000000E+00 -0.74505805969E-08  0.93827000000E+00  0.93827000000E+00 0.  1.
     999902    2    1    2    0    0 -0.15480250885E-01  0.15322656885E-02 -0.17205352520E-01  0.10207349540E+01  0.10204713793E+01 0.  0.
     999903    2    3    3    0    0  0.16624553439E-02  0.77366107119E-01  0.10170287891E+00  0.12934064649E+00  0.19931105512E-01 0.  0.
         14    1    1    2    0    0  0.15480250885E-01 -0.15322656885E-02  0.17205352520E-01  0.23195046043E-01  0.00000000000E+00 0.  1.
     999901    1    3    3    0    0 -0.17142706229E-01 -0.75833841430E-01 -0.11890823143E+00  0.89139430747E+00  0.88000000000E+00 0.  1.
        -11    1    4    4    0    0  0.80265920298E-02  0.62149454255E-01  0.72790742657E-01  0.96050685481E-01  0.51100000000E-03 0.  1.
         11    1    4    4    0    0 -0.63641366859E-02  0.15216652863E-01  0.28912136255E-01  0.33289961009E-01  0.51100000000E-03 0. -1.
</event>
<event>
 8    1  0.1041149E+005  0.1043930E+01  0.7957747E-01            NaN
         13   -1    0    0    0    0  0.00000000000E+00  0.00000000000E+00  0.74505805969E-08  0.10566000000E+00  0.10566000000E+00 0.  1.
     999900   -1    0    0    0    0 -0.00000000000E+00 -0.00000000000E+00 -0.74505805969E-08  0.93827000000E+00  0.93827000000E+00 0. -1.
     999902    2    1    2    0    0  0.16790721055E-02 -0.23802680279E-01 -0.44359433882E-02  0.10196593497E+01  0.10193704552E+01 0.  0.
     999903    2    3    3    0    0 -0.71140703943E-01 -0.59866470517E-01  0.89848335388E-01  0.13090019112E+00  0.20424069497E-01 0.  0.
         14    1    1    2    0    0 -0.16790721055E-02  0.23802680279E-01  0.44359433882E-02  0.24270650287E-01  0.00000000000E+00 0.  1.
     999901    1    3    3    0    0  0.72819776048E-01  0.36063790238E-01 -0.94284278776E-01  0.88875915859E+00  0.88000000000E+00 0. -1.
        -11    1    4    4    0    0 -0.17985021936E-02 -0.90067996337E-02  0.88033089969E-02  0.12732494653E-01  0.51100000000E-03 0.  1.
         11    1    4    4    0    0 -0.69342201749E-01 -0.50859670884E-01  0.81045026391E-01  0.11816769647E+00  0.51100000000E-03 0. -1.
</event>
<event>
 8    1  0.1041149E+005  0.1043930E+01  0.7957747E-01            NaN
         13   -1    0    0    0    0  0.00000000000E+00  0.00000000000E+00  0.74505805969E-08  0.10566000000E+00  0.10566000000E+00 0.  1.
     999900   -1    0    0    0    0 -0.00000000000E+00 -0.00000000000E+00 -0.74505805969E-08  0.93827000000E+00  0.93827000000E+00 0.  1.
     999902    2    1    2    0    0  0.20761646716E-01 -0.11531874839E-01  0.26676225978E-02  0.10200313322E+01  0.10197513287E+01 0.  0.
     999903    2    3    3    0    0  0.10343415875E+00  0.68110775018E-01 -0.40248332164E-01  0.13153852127E+00  0.18567484111E-01 0.  0.
         14    1    1    2    0    0 -0.20761646716E-01  0.11531874839E-01 -0.26676225978E-02  0.23898667787E-01  0.00000000000E+00 0.  1.
     999901    1    3    3    0    0 -0.82672512035E-01 -0.79642649858E-01  0.42915954761E-01  0.88849281094E+00  0.88000000000E+00 0.  1.
        -11    1    4    4    0    0  0.17111410378E-01  0.40294000270E-02 -0.35783825042E-02  0.17947210704E-01  0.51100000000E-03 0.  1.
         11    1    4    4    0    0  0.86322748373E-01  0.64081374991E-01 -0.36669949659E-01  0.11359131057E+00  0.51100000000E-03 0. -1.
</event>
<event>
 8    1  0.1041149E+005  0.1043930E+01  0.7957747E-01            NaN
         13   -1    0    0    0    0  0.00000000000E+00  0.00000000000E+00  0.74505805969E-08  0.10566000000E+00  0.10566000000E+00 0.  1.
     999900   -1    0    0    0    0 -0.00000000000E+00 -0.00000000000E+00 -0.74505805969E-08  0.93827000000E+00  0.93827000000E+00 0.  1.
     999902    2    1    2    0    0  0.42664964089E-02  0.21943682392E-01  0.71089664802E-02  0.10204722594E+01  0.10202026106E+01 0.  0.
     999903    2    3    3    0    0 -0.59576550360E-01 -0.35541605263E-01  0.10868369583E+00  0.13047342877E+00  0.19964939720E-01 0.  0.
         14    1    1    2    0    0 -0.42664964089E-02 -0.21943682392E-01 -0.71089664802E-02  0.23457740576E-01  0.00000000000E+00 0. -1.
     999901    1    3    3    0    0  0.63843046769E-01  0.57485287655E-01 -0.10157472935E+00  0.88999883065E+00  0.88000000000E+00 0.  1.
        -11    1    4    4    0    0 -0.23163664353E-01 -0.11046554624E-01  0.24235130738E-01  0.35301337059E-01  0.51100000000E-03 0. -1.
         11    1    4    4    0    0 -0.36412886007E-01 -0.24495050639E-01  0.84448565096E-01  0.95172091713E-01  0.51100000000E-03 0.  1.
</event>
<event>
 8    1  0.1041149E+005  0.1043930E+01  0.7957747E-01            NaN
         13   -1    0    0    0    0  0.00000000000E+00  0.00000000000E+00  0.74505805969E-08  0.10566000000E+00  0.10566000000E+00 0. -1.
     999900   -1    0    0    0    0 -0.00000000000E+00 -0.00000000000E+00 -0.74505805969E-08  0.93827000000E+00  0.93827000000E+00 0. -1.
     999902    2    1    2    0    0 -0.67084228248E-02  0.95715075062E-02  0.21113717948E-01  0.10197969153E+01  0.10195113254E+01 0.  0.
     999903    2    3    3    0    0  0.61142643671E-01 -0.49876852636E-01  0.10348826229E+00  0.13135814963E+00  0.17861123641E-01 0.  0.
         14    1    1    2    0    0  0.67084228248E-02 -0.95715075062E-02 -0.21113717948E-01  0.24133084724E-01  0.00000000000E+00 0.  1.
     999901    1    3    3    0    0 -0.67851066496E-01  0.59448360142E-01 -0.82374544344E-01  0.88843876565E+00  0.88000000000E+00 0. -1.
        -11    1    4    4    0    0  0.27297117774E-01 -0.26463619845E-01  0.36313841756E-01  0.52577676234E-01  0.51100000000E-03 0.  1.
         11    1    4    4    0    0  0.33845525897E-01 -0.23413232791E-01  0.67174420536E-01  0.78780473395E-01  0.51100000000E-03 0. -1.
</event>
<event>
 8    1  0.1041149E+005  0.1043930E+01  0.7957747E-01            NaN
         13   -1    0    0    0    0  0.00000000000E+00  0.00000000000E+00  0.74505805969E-08  0.10566000000E+00  0.10566000000E+00 0. -1.
     999900   -1    0    0    0    0 -0.00000000000E+00 -0.00000000000E+00 -0.74505805969E-08  0.93827000000E+00  0.93827000000E+00 0.  1.
     999902    2    1    2    0    0 -0.15689155426E-01 -0.17353251381E-01  0.44483653510E-02  0.10201167078E+01  0.10198387248E+01 0.  0.
     999903    2    3    3    0    0  0.44652145195E-01 -0.46164748265E-01 -0.11136147858E+00  0.13001385145E+00  0.19422270886E-01 0.  0.
         14    1    1    2    0    0  0.15689155426E-01  0.17353251381E-01 -0.44483653510E-02  0.23813292208E-01  0.00000000000E+00 0.  1.
     999901    1    3    3    0    0 -0.60341300620E-01  0.28811496884E-01  0.11580984393E+00  0.89010285634E+00  0.88000000000E+00 0. -1.
        -11    1    4    4    0    0  0.39456492889E-01 -0.47369125790E-01 -0.10050914374E+00  0.11791097492E+00  0.51100000000E-03 0.  1.
         11    1    4    4    0    0  0.51956523053E-02  0.12043775252E-02 -0.10852334835E-01  0.12102876537E-01  0.51100000000E-03 0. -1.
</event>
<event>
 8    1  0.1041149E+005  0.1043930E+01  0.7957747E-01            NaN
         13   -1    0    0    0    0  0.00000000000E+00  0.00000000000E+00  0.74505805969E-08  0.10566000000E+00  0.10566000000E+00 0. -1.
     999900   -1    0    0    0    0 -0.00000000000E+00 -0.00000000000E+00 -0.74505805969E-08  0.93827000000E+00  0.93827000000E+00 0.  1.
     999902    2    1    2    0    0 -0.20588425042E-01 -0.61577757321E-02 -0.92132505847E-02  0.10205486948E+01  0.10202808206E+01 0.  0.
     999903    2    3    3    0    0 -0.27730875568E-01  0.13421298535E-01  0.12461487016E+00  0.13018679046E+00  0.21693359197E-01 0.  0.
         14    1    1    2    0    0  0.20588425042E-01  0.61577757321E-02  0.92132505847E-02  0.23381305225E-01  0.00000000000E+00 0. -1.
     999901    1    3    3    0    0  0.71424505254E-02 -0.19579074267E-01 -0.13382812074E+00  0.89036190431E+00  0.88000000000E+00 0.  1.
        -11    1    4    4    0    0 -0.48926150157E-02  0.13921499207E-01  0.52690546463E-01  0.54720203119E-01  0.51100000000E-03 0.  1.
         11    1    4    4    0    0 -0.22838260552E-01 -0.50020067184E-03  0.71924323692E-01  0.75466587344E-01  0.51100000000E-03 0. -1.
</event>
<event>
 8    1  0.1041149E+005  0.1043930E+01  0.7957747E-01            NaN
         13   -1    0    0    0    0  0.00000000000E+00  0.00000000000E+00  0.74505805969E-08  0.10566000000E+00  0.10566000000E+00 0.  1.
     999900   -1    0    0    0    0 -0.00000000000E+00 -0.00000000000E+00 -0.74505805969E-08  0.93827000000E+00  0.93827000000E+00 0. -1.
     999902    2    1    2    0    0 -0.23119352511E-02 -0.27838213614E-02  0.23364724561E-01  0.10202867122E+01  0.10200127303E+01 0.  0.
     999903    2    3    3    0    0 -0.49169946210E-01 -0.10071060808E+00 -0.62072544674E-01  0.12950904309E+00  0.18954715760E-01 0.  0.
         14    1    1    2    0    0  0.23119352511E-02  0.27838213614E-02 -0.23364724561E-01  0.23643287838E-01  0.00000000000E+00 0. -1.
     999901    1    3    3    0    0  0.46858010959E-01  0.97926786716E-01  0.85437269235E-01  0.89077766907E+00  0.88000000000E+00 0.  1.
        -11    1    4    4    0    0 -0.11106705114E-01 -0.27404591278E-01 -0.75043923313E-02  0.30511433052E-01  0.51100000000E-03 0.  1.
         11    1    4    4    0    0 -0.38063241097E-01 -0.73306016799E-01 -0.54568152343E-01  0.98997610036E-01  0.51100000000E-03 0. -1.
</event>
<event>
 8    1  0.1041149E+005  0.1043930E+01  0.7957747E-01            NaN
         13   -1    0    0    0    0  0.00000000000E+00  0.00000000000E+00  0.74505805969E-08  0.10566000000E+00  0.10566000000E+00 0.  1.
     999900   -1    0    0    0    0 -0.00000000000E+00 -0.00000000000E+00 -0.74505805969E-08  0.93827000000E+00  0.93827000000E+00 0. -1.
     999902    2    1    2    0    0 -0.26184602632E-02  0.11699016617E-01  0.19811278399E-01  0.10207737897E+01  0.10205111071E+01 0.  0.
     999903    2    3    3    0    0 -0.24670622694E-01  0.96761600042E-01  0.86529091467E-01  0.13388416435E+00  0.21592566458E-01 0.  0.
         14    1    1    2    0    0  0.26184602632E-02 -0.11699016617E-01 -0.19811278399E-01  0.23156210306E-01  0.00000000000E+00 0. -1.
     999901    1    3    3    0    0  0.22052162431E-01 -0.85062583424E-01 -0.66717813068E-01  0.88688962535E+00  0.88000000000E+00 0. -1.
        -11    1    4    4    0    0 -0.87465127310E-03  0.23712977504E-01  0.31221319689E-01  0.39218646599E-01  0.51100000000E-03 0.  1.
         11    1    4    4    0    0 -0.23795971421E-01  0.73048622538E-01  0.55307771777E-01  0.94665517748E-01  0.51100000000E-03 0. -1.
</event>
<event>
 8    1  0.1041149E+005  0.1043930E+01  0.7957747E-01            NaN
         13   -1    0    0    0    0  0.00000000000E+00  0.00000000000E+00  0.74505805969E-08  0.10566000000E+00  0.10566000000E+00 0.  1.
     999900   -1    0    0    0    0 -0.00000000000E+00 -0.00000000000E+00 -0.74505805969E-08  0.93827000000E+00  0.93827000000E+00 0. -1.
     999902    2    1    2    0    0 -0.15696801619E-01  0.72655542902E-02  0.16108200877E-01  0.10202941798E+01  0.10200203730E+01 0.  0.
     999903    2    3    3    0    0 -0.11578487841E+00 -0.54893774235E-01 -0.23326718878E-01  0.13156670858E+00  0.18606409499E-01 0.  0.
         14    1    1    2    0    0  0.15696801619E-01 -0.72655542902E-02 -0.16108200877E-01  0.23635820182E-01  0.00000000000E+00 0. -1.
     999901    1    3    3    0    0  0.10008807679E+00  0.62159328525E-01  0.39434919755E-01  0.88872747124E+00  0.88000000000E+00 0. -1.
        -11    1    4    4    0    0 -0.73629749915E-01 -0.27531415012E-01 -0.20440946573E-01  0.81224456310E-01  0.51100000000E-03 0. -1.
         11    1    4    4    0    0 -0.42155128496E-01 -0.27362359222E-01 -0.28857723052E-02  0.50342252269E-01  0.51100000000E-03 0.  1.
</event>
<event>
 8    1  0.1041149E+005  0.1043930E+01  0.7957747E-01            NaN
         13   -1    0    0    0    0  0.00000000000E+00  0.00000000000E+00  0.74505805969E-08  0.10566000000E+00  0.10566000000E+00 0. -1.
     999900   -1    0    0    0    0 -0.00000000000E+00 -0.00000000000E+00 -0.74505805969E-08  0.93827000000E+00  0.93827000000E+00 0.  1.
     999902    2    1    2    0    0  0.80379356520E-02  0.28309075027E-02 -0.21115480436E-01  0.10211597132E+01  0.10209058105E+01 0.  0.
     999903    2    3    3    0    0  0.11781567710E+00  0.18516849526E-01  0.50929960356E-01  0.13127896454E+00  0.20418084685E-01 0.  0.
         14    1    1    2    0    0 -0.80379356520E-02 -0.28309075027E-02  0.21115480436E-01  0.22770286799E-01  0.00000000000E+00 0. -1.
     999901    1    3    3    0    0 -0.10977774145E+00 -0.15685942023E-01 -0.72045440792E-01  0.88988074866E+00  0.88000000000E+00 0.  1.
        -11    1    4    4    0    0  0.51745402834E-01  0.13870756572E-01  0.13704982611E-01  0.55299839708E-01  0.51100000000E-03 0.  1.
         11    1    4    4    0    0  0.66070274267E-01  0.46460929540E-02  0.37224977745E-01  0.75979124834E-01  0.51100000000E-03 0. -1.
</event>
<event>
 8    1  0.1041149E+005  0.1043930E+01  0.7957747E-01            NaN
         13   -1    0    0    0    0  0.00000000000E+00  0.00000000000E+00  0.74505805969E-08  0.10566000000E+00  0.10566000000E+00 0. -1.
     999900   -1    0    0    0    0 -0.00000000000E+00 -0.00000000000E+00 -0.74505805969E-08  0.93827000000E+00  0.93827000000E+00 0.  1.
     999902    2    1    2    0    0  0.43567812896E-03 -0.24511176075E-01  0.87951079710E-03  0.10193991805E+01  0.10191039829E+01 0.  0.
     999903    2    3    3    0    0  0.35147338138E-01 -0.82681349724E-01 -0.94176542698E-01  0.13169184032E+00  0.20049404996E-01 0.  0.
         14    1    1    2    0    0 -0.43567812896E-03  0.24511176075E-01 -0.87951079710E-03  0.24530819539E-01  0.00000000000E+00 0.  1.
     999901    1    3    3    0    0 -0.34711660009E-01  0.58170173649E-01  0.95056053495E-01  0.88770734015E+00  0.88000000000E+00 0. -1.
        -11    1    4    4    0    0  0.18025221814E-01 -0.64756734946E-01 -0.70452893530E-01  0.97376663888E-01  0.51100000000E-03 0.  1.
         11    1    4    4    0    0  0.17122116324E-01 -0.17924614778E-01 -0.23723649169E-01  0.34315176427E-01  0.51100000000E-03 0. -1.
</event>
<event>
 8    1  0.1041149E+005  0.1043930E+01  0.7957747E-01            NaN
         13   -1    0    0    0    0  0.00000000000E+00  0.00000000000E+00  0.74505805969E-08  0.10566000000E+00  0.10566000000E+00 0.  1.
     999900   -1    0    0    0    0 -0.00000000000E+00 -0.00000000000E+00 -0.74505805969E-08  0.93827000000E+00  0.93827000000E+00 0. -1.
     999902    2    1    2    0    0 -0.18148253995E-01  0.37231635085E-03  0.15758797055E-01  0.10198917507E+01  0.10196084277E+01 0.  0.
     999903    2    3    3    0    0 -0.94403086171E-01  0.81832283107E-01  0.39395671784E-01  0.13253092929E+00  0.20098831444E-01 0.  0.
         14    1    1    2    0    0  0.18148253995E-01 -0.37231635085E-03 -0.15758797055E-01  0.24038249253E-01  0.00000000000E+00 0. -1.
     999901    1    3    3    0    0  0.76254832176E-01 -0.81459966756E-01 -0.23636874729E-01  0.88736082146E+00  0.88000000000E+00 0. -1.
        -11    1    4    4    0    0 -0.13993155805E-01  0.21672419934E-01  0.43510032456E-02  0.26166668596E-01  0.51100000000E-03 0. -1.
         11    1    4    4    0    0 -0.80409930366E-01  0.60159863172E-01  0.35044668538E-01  0.10636426069E+00  0.51100000000E-03 0.  1.
</event>
<event>
 8    1  0.1041149E+005  0.1043930E+01  0.7957747E-01            NaN
         13   -1    0    0    0    0  0.00000000000E+00  0.00000000000E+00  0.74505805969E-08  0.10566000000E+00  0.10566000000E+00 0. -1.
     999900   -1    0    0    0    0 -0.00000000000E+00 -0.00000000000E+00 -0.74505805969E-08  0.93827000000E+00  0.93827000000E+00 0.  1.
     999902    2    1    2    0    0 -0.90335195129E-02  0.22003301318E-01 -0.66326508677E-03  0.10201352597E+01  0.10198577148E+01 0.  0.
     999903    2    3    3    0    0  0.58386231930E-01  0.10635739809E+00  0.48169158811E-01  0.13219064313E+00  0.20814659826E-01 0.  0.
         14    1    1    2    0    0  0.90335195129E-02 -0.22003301318E-01  0.66326508677E-03  0.23794740265E-01  0.00000000000E+00 0. -1.
     999901    1    3    3    0    0 -0.67419751443E-01 -0.84354096775E-01 -0.48832423898E-01  0.88794461660E+00  0.88000000000E+00 0.  1.
        -11    1    4    4    0    0  0.28467866312E-01  0.69429634402E-01  0.23462614823E-01  0.78623463170E-01  0.51100000000E-03 0.  1.
         11    1    4    4    0    0  0.29918365618E-01  0.36927763690E-01  0.24706543989E-01  0.53567179964E-01  0.51100000000E-03 0. -1.
</event>
<event>
 8    1  0.1041149E+005  0.1043930E+01  0.7957747E-01            NaN
         13   -1    0    0    0    0  0.00000000000E+00  0.00000000000E+00  0.74505805969E-08  0.10566000000E+00  0.10566000000E+00 0.  1.
     999900   -1    0    0    0    0 -0.00000000000E+00 -0.00000000000E+00 -0.74505805969E-08  0.93827000000E+00  0.93827000000E+00 0.  1.
     999902    2    1    2    0    0  0.17602943674E-01 -0.12188588594E-01  0.98338639057E-02  0.10203687989E+01  0.10200967383E+01 0.  0.
     999903    2    3    3    0    0 -0.21061473906E-01  0.10700645443E+00  0.67037181385E-01  0.12965301090E+00  0.20541484224E-01 0.  0.
         14    1    1    2    0    0 -0.17602943674E-01  0.12188588594E-01 -0.98338639057E-02  0.23561201099E-01  0.00000000000E+00 0. -1.
     999901    1    3    3    0    0  0.38664417579E-01 -0.11919504302E+00 -0.57203317479E-01  0.89071578800E+00  0.88000000000E+00 0.  1.
        -11    1    4    4    0    0 -0.21915736049E-01  0.60494523144E-01  0.41751126292E-01  0.76702701938E-01  0.51100000000E-03 0. -1.
         11    1    4    4    0    0  0.85426214350E-03  0.46511931286E-01  0.25286055093E-01  0.52950308960E-01  0.51100000000E-03 0.  1.
</event>
<event>
 8    1  0.1041149E+005  0.1043930E+01  0.7957747E-01            NaN
         13   -1    0    0    0    0  0.00000000000E+00  0.00000000000E+00  0.74505805969E-08  0.10566000000E+00  0.10566000000E+00 0.  1.
     999900   -1    0    0    0    0 -0.00000000000E+00 -0.00000000000E+00 -0.74505805969E-08  0.93827000000E+00  0.93827000000E+00 0. -1.
     999902    2    1    2    0    0 -0.81503434635E-03  0.14334680811E-01 -0.16741087149E-01  0.10218752646E+01  0.10216372375E+01 0.  0.
     999903    2    3    3    0    0  0.92185038466E-01  0.17341929739E-01 -0.93053620568E-01  0.13368516115E+00  0.20345077246E-01 0.  0.
         14    1    1    2    0    0  0.81503434635E-03 -0.14334680811E-01  0.16741087149E-01  0.22054735407E-01  0.00000000000E+00 0.  1.
     999901    1    3    3    0    0 -0.93000072812E-01 -0.30072489277E-02  0.76312533419E-01  0.88819010344E+00  0.88000000000E+00 0.  1.
        -11    1    4    4    0    0  0.68098250326E-01  0.17868760458E-01 -0.78868667848E-01  0.10572224074E+00  0.51100000000E-03 0. -1.
         11    1    4    4    0    0  0.24086788140E-01 -0.52683071888E-03 -0.14184952720E-01  0.27962920416E-01  0.51100000000E-03 0.  1.
</event>
<event>
 8    1  0.1041149E+005  0.1043930E+01  0.7957747E-01            NaN
         13   -1    0    0    0    0  0.00000000000E+00  0.00000000000E+00  0.74505805969E-08  0.10566000000E+00  0.10566000000E+00 0.  1.
     999900   -1    0    0    0    0 -0.00000000000E+00 -0.00000000000E+00 -0.74505805969E-08  0.93827000000E+00  0.93827000000E+00 0. -1.
     999902    2    1    2    0    0 -0.73854847436E-02  0.15126717818E-01  0.17535338810E-01  0.10196225714E+01  0.10193327901E+01 0.  0.
     999903    2    3    3    0    0  0.23135160305E-01 -0.12449969753E+00 -0.44043168347E-02  0.12782192435E+00  0.16841496623E-01 0.  0.
         14    1    1    2    0    0  0.73854847436E-02 -0.15126717818E-01 -0.17535338810E-01  0.24307428577E-01  0.00000000000E+00 0. -1.
     999901    1    3    3    0    0 -0.30520645049E-01  0.13962641535E+00  0.21939655644E-01  0.89180064708E+00  0.88000000000E+00 0. -1.
        -11    1    4    4    0    0  0.39206988778E-02 -0.39630040184E-01 -0.84324316399E-02  0.40709691586E-01  0.51100000000E-03 0. -1.
         11    1    4    4    0    0  0.19214461427E-01 -0.84869657349E-01  0.40281148052E-02  0.87112232760E-01  0.51100000000E-03 0.  1.
</event>
<event>
 8    1  0.1041149E+005  0.1043930E+01  0.7957747E-01            NaN
         13   -1    0    0    0    0  0.00000000000E+00  0.00000000000E+00  0.74505805969E-08  0.10566000000E+00  0.10566000000E+00 0.  1.
     999900   -1    0    0    0    0 -0.00000000000E+00 -0.00000000000E+00 -0.74505805969E-08  0.93827000000E+00  0.93827000000E+00 0. -1.
     999902    2    1    2    0    0 -0.16058668959E-01 -0.17925273404E-01  0.46827124464E-02  0.10194121683E+01  0.10191172871E+01 0.  0.
     999903    2    3    3    0    0  0.73164929308E-01 -0.97763258229E-02 -0.10308014893E+00  0.12832289661E+00  0.19813259787E-01 0.  0.
         14    1    1    2    0    0  0.16058668959E-01  0.17925273404E-01 -0.46827124464E-02  0.24517831698E-01  0.00000000000E+00 0. -1.
     999901    1    3    3    0    0 -0.89223598267E-01 -0.81489475810E-02  0.10776286138E+00  0.89108927169E+00  0.88000000000E+00 0.  1.
        -11    1    4    4    0    0  0.29665468890E-01  0.57154979171E-02 -0.38905060371E-01  0.49260245679E-01  0.51100000000E-03 0. -1.
         11    1    4    4    0    0  0.43499460418E-01 -0.15491823740E-01 -0.64175088558E-01  0.79062650929E-01  0.51100000000E-03 0.  1.
</event>
<event>
 8    1  0.1041149E+005  0.1043930E+01  0.7957747E-01            NaN
         13   -1    0    0    0    0  0.00000000000E+00  0.00000000000E+00  0.74505805969E-08  0.10566000000E+00  0.10566000000E+00 0. -1.
     999900   -1    0    0    0    0 -0.00000000000E+00 -0.00000000000E+00 -0.74505805969E-08  0.93827000000E+00  0.93827000000E+00 0.  1.
     999902    2    1    2    0    0  0.19647066496E-01  0.70197290491E-02  0.11775597532E-01  0.10199727774E+01  0.10196913838E+01 0.  0.
     999903    2    3    3    0    0 -0.70489056615E-01 -0.53840530434E-01  0.92305639264E-01  0.12962813654E+00  0.20386586845E-01 0.  0.
         14    1    1    2    0    0 -0.19647066496E-01 -0.70197290491E-02 -0.11775597532E-01  0.23957222607E-01  0.00000000000E+00 0.  1.
     999901    1    3    3    0    0  0.90136123110E-01  0.60860259483E-01 -0.80530041731E-01  0.89034464085E+00  0.88000000000E+00 0.  1.
        -11    1    4    4    0    0 -0.25741852239E-01 -0.32379930611E-01  0.43058704918E-01  0.59711104941E-01  0.51100000000E-03 0.  1.
         11    1    4    4    0    0 -0.44747204376E-01 -0.21460599823E-01  0.49246934346E-01  0.69917031599E-01  0.51100000000E-03 0. -1.
</event>
<event>
 8    1  0.1041149E+005  0.1043930E+01  0.7957747E-01            NaN
         13   -1    0    0    0    0  0.00000000000E+00  0.00000000000E+00  0.74505805969E-08  0.10566000000E+00  0.10566000000E+00 0. -1.
     999900   -1    0    0    0    0 -0.00000000000E+00 -0.00000000000E+00 -0.74505805969E-08  0.93827000000E+00  0.93827000000E+00 0. -1.
     999902    2    1    2    0    0  0.98541225936E-02 -0.14436447377E-01  0.15672532527E-01  0.10204535646E+01  0.10201834808E+01 0.  0.
     999903    2    3    3    0    0  0.10504657834E-01  0.23808069442E-01  0.12841700344E+00  0.13243645776E+00  0.19269576136E-01 0.  0.
         14    1    1    2    0    0 -0.98541225936E-02  0.14436447377E-01 -0.15672532527E-01  0.23476435435E-01  0.00000000000E+00 0.  1.
     999901    1    3    3    0    0 -0.65053524015E-03 -0.38244516819E-01 -0.11274447091E+00  0.88801710681E+00  0.88000000000E+00 0. -1.
        -11    1    4    4    0    0 -0.29124034354E-02  0.12545892581E-01  0.78063796823E-01  0.79120787470E-01  0.51100000000E-03 0. -1.
         11    1    4    4    0    0  0.13417061269E-01  0.11262176862E-01  0.50353206614E-01  0.53315670286E-01  0.51100000000E-03 0.  1.
</event>
<event>
 8    1  0.1041149E+005  0.1043930E+01  0.7957747E-01            NaN
         13   -1    0    0    0    0  0.00000000000E+00  0.00000000000E+00  0.74505805969E-08  0.10566000000E+00  0.10566000000E+00 0.  1.
     999900   -1    0    0    0    0 -0.00000000000E+00 -0.00000000000E+00 -0.74505805969E-08  0.93827000000E+00  0.93827000000E+00 0.  1.
     999902    2    1    2    0    0  0.17910164615E-01 -0.15454493675E-01  0.51818781808E-02  0.10197129144E+01  0.10194253090E+01 0.  0.
     999903    2    3    3    0    0 -0.86053745867E-01  0.28690251532E-01 -0.87894992867E-01  0.12762516252E+00  0.18283178775E-01 0.  0.
         14    1    1    2    0    0 -0.17910164615E-01  0.15454493675E-01 -0.51818781808E-02  0.24217085555E-01  0.00000000000E+00 0. -1.
     999901    1    3    3    0    0  0.10396391048E+00 -0.44144745208E-01  0.93076871048E-01  0.89208775193E+00  0.88000000000E+00 0. -1.
        -11    1    4    4    0    0 -0.73520271944E-01  0.18047033020E-01 -0.67540626405E-01  0.10145404439E+00  0.51100000000E-03 0.  1.
         11    1    4    4    0    0 -0.12533473923E-01  0.10643218512E-01 -0.20354366462E-01  0.26171118126E-01  0.51100000000E-03 0. -1.
</event>
<event>
 8    1  0.1041149E+005  0.1043930E+01  0.7957747E-01            NaN
         13   -1    0    0    0    0  0.00000000000E+00  0.00000000000E+00  0.74505805969E-08  0.10566000000E+00  0.10566000000E+00 0.  1.
     999900   -1    0    0    0    0 -0.00000000000E+00 -0.00000000000E+00 -0.74505805969E-08  0.93827000000E+00  0.93827000000E+00 0.  1.
     999902    2    1    2    0    0 -0.20215680159E-01 -0.60686857254E-02  0.62058438152E-02  0.10219296553E+01  0.10216928135E+01 0.  0.
     999903    2    3    3    0    0 -0.49871506327E-01  0.93951152721E-01  0.76927429780E-01  0.13294991488E+00  0.21068084219E-01 0.  0.
         14    1    1    2    0    0  0.20215680159E-01  0.60686857254E-02 -0.62058438152E-02  0.22000344729E-01  0.00000000000E+00 0. -1.
     999901    1    3    3    0    0  0.29655826168E-01 -0.10001983845E+00 -0.70721585965E-01  0.88897974039E+00  0.88000000000E+00 0.  1.
        -11    1    4    4    0    0 -0.23481685829E-01  0.65086036662E-01  0.46047053935E-01  0.83115425974E-01  0.51100000000E-03 0.  1.
         11    1    4    4    0    0 -0.26389820498E-01  0.28865116058E-01  0.30880375845E-01  0.49834488904E-01  0.51100000000E-03 0. -1.
</event>
<event>
 8    1  0.1041149E+005  0.1043930E+01  0.7957747E-01            NaN
         13   -1    0    0    0    0  0.00000000000E+00  0.00000000000E+00  0.74505805969E-08  0.10566000000E+00  0.10566000000E+00 0.  1.
     999900   -1    0    0    0    0 -0.00000000000E+00 -0.00000000000E+00 -0.74505805969E-08  0.93827000000E+00  0.93827000000E+00 0. -1.
     999902    2    1    2    0    0 -0.19902851658E-01 -0.44728200831E-02 -0.10921552506E-01  0.10207910732E+01  0.10205287871E+01 0.  0.
     999903    2    3    3    0    0 -0.12689845016E+00  0.10576889695E-01 -0.34781429474E-01  0.13386162529E+00  0.22228352207E-01 0.  0.
         14    1    1    2    0    0  0.19902851658E-01  0.44728200831E-02  0.10921552506E-01  0.23138926785E-01  0.00000000000E+00 0. -1.
     999901    1    3    3    0    0  0.10699559850E+00 -0.15049709778E-01  0.23859876968E-01  0.88692944792E+00  0.88000000000E+00 0.  1.
        -11    1    4    4    0    0 -0.85704669167E-01 -0.23466398700E-02 -0.27743947975E-01  0.90115397163E-01  0.51100000000E-03 0. -1.
         11    1    4    4    0    0 -0.41193780991E-01  0.12923529565E-01 -0.70374814989E-02  0.43746228129E-01  0.51100000000E-03 0.  1.
</event>
<event>
 8    1  0.1041149E+005  0.1043930E+01  0.7957747E-01            NaN
         13   -1    0    0    0    0  0.00000000000E+00  0.00000000000E+00  0.74505805969E-08  0.10566000000E+00  0.10566000000E+00 0. -1.
     999900   -1    0    0    0    0 -0.00000000000E+00 -0.00000000000E+00 -0.74505805969E-08  0.93827000000E+00  0.93827000000E+00 0. -1.
     999902    2    1    2    0    0 -0.61804210094E-02 -0.16449496432E-01 -0.15731170853E-01  0.10203449778E+01  0.10200723604E+01 0.  0.
     999903    2    3    3    0    0 -0.31623588242E-01  0.58995567138E-01 -0.11101567288E+00  0.13162767250E+00  0.22821837508E-01 0.  0.
         14    1    1    2    0    0  0.61804210094E-02  0.16449496432E-01  0.15731170853E-01  0.23585022220E-01  0.00000000000E+00 0. -1.
     999901    1    3    3    0    0  0.25443167233E-01 -0.75445063570E-01  0.95284502029E-01  0.88871730528E+00  0.88000000000E+00 0.  1.
        -11    1    4    4    0    0 -0.11824613856E-02  0.21574616166E-01 -0.25352482127E-01  0.33314737709E-01  0.51100000000E-03 0. -1.
         11    1    4    4    0    0 -0.30441126856E-01  0.37420950972E-01 -0.85663190755E-01  0.98312934791E-01  0.51100000000E-03 0.  1.
</event>
<event>
 8    1  0.1041149E+005  0.1043930E+01  0.7957747E-01            NaN
         13   -1    0    0    0    0  0.00000000000E+00  0.00000000000E+00  0.74505805969E-08  0.10566000000E+00  0.10566000000E+00 0.  1.
     999900   -1    0    0    0    0 -0.00000000000E+00 -0.00000000000E+00 -0.74505805969E-08  0.93827000000E+00  0.93827000000E+00 0.  1.
     999902    2    1    2    0    0 -0.20941208233E-01  0.11466804035E-01  0.64914473839E-02  0.10191881188E+01  0.10188877567E+01 0.  0.
     999903    2    3    3    0    0  0.10864273909E-01 -0.47250301257E-01 -0.11682249910E+00  0.12808452405E+00  0.20187263039E-01 0.  0.
         14    1    1    2    0    0  0.20941208233E-01 -0.11466804035E-01 -0.64914473839E-02  0.24741881217E-01  0.00000000000E+00 0.  1.
     999901    1    3    3    0    0 -0.31805482142E-01  0.58717105292E-01  0.12331394648E+00  0.89110359473E+00  0.88000000000E+00 0. -1.
        -11    1    4    4    0    0  0.97689512613E-02 -0.10300888711E-01 -0.46710274795E-01  0.48822654674E-01  0.51100000000E-03 0.  1.
         11    1    4    4    0    0  0.10953226481E-02 -0.36949412546E-01 -0.70112224304E-01  0.79261869376E-01  0.51100000000E-03 0. -1.
</event>
<event>
 8    1  0.1041149E+005  0.1043930E+01  0.7957747E-01            NaN
         13   -1    0    0    0    0  0.00000000000E+00  0.00000000000E+00  0.74505805969E-08  0.10566000000E+00  0.10566000000E+00 0. -1.
     999900   -1    0    0    0    0 -0.00000000000E+00 -0.00000000000E+00 -0.74505805969E-08  0.93827000000E+00  0.93827000000E+00 0. -1.
     999902    2    1    2    0    0  0.69112205638E-02 -0.22196218452E-01 -0.69768122587E-02  0.10196583500E+01  0.10193694315E+01 0.  0.
     999903    2    3    3    0    0 -0.84288312739E-01  0.93098627682E-01  0.10616617359E-01  0.12729083314E+00  0.17842911686E-01 0.  0.
         14    1    1    2    0    0 -0.69112205638E-02  0.22196218452E-01  0.69768122587E-02  0.24271649975E-01  0.00000000000E+00 0. -1.
     999901    1    3    3    0    0  0.91199533302E-01 -0.11529484613E+00 -0.17593429617E-01  0.89236751688E+00  0.88000000000E+00 0. -1.
        -11    1    4    4    0    0 -0.31055626780E-01  0.46275953872E-01  0.97576771887E-03  0.55741628117E-01  0.51100000000E-03 0. -1.
         11    1    4    4    0    0 -0.53232685959E-01  0.46822673810E-01  0.96408496397E-02  0.71549205026E-01  0.51100000000E-03 0.  1.
</event>
<event>
 8    1  0.1041149E+005  0.1043930E+01  0.7957747E-01            NaN
         13   -1    0    0    0    0  0.00000000000E+00  0.00000000000E+00  0.74505805969E-08  0.10566000000E+00  0.10566000000E+00 0. -1.
     999900   -1    0    0    0    0 -0.00000000000E+00 -0.00000000000E+00 -0.74505805969E-08  0.93827000000E+00  0.93827000000E+00 0. -1.
     999902    2    1    2    0    0 -0.12050315780E-01  0.20420651427E-01  0.24249446825E-02  0.10200952885E+01  0.10198167993E+01 0.  0.
     999903    2    3    3    0    0 -0.88113308933E-01  0.97932716171E-01 -0.55368490310E-02  0.13338389845E+00  0.20145360755E-01 0.  0.
         14    1    1    2    0    0  0.12050315780E-01 -0.20420651427E-01 -0.24249446825E-02  0.23834711490E-01  0.00000000000E+00 0.  1.
     999901    1    3    3    0    0  0.76062993153E-01 -0.77512064744E-01  0.79617937135E-02  0.88671139006E+00  0.88000000000E+00 0.  1.
        -11    1    4    4    0    0 -0.40698476890E-01  0.36401385102E-01  0.56659660455E-02  0.54898006801E-01  0.51100000000E-03 0.  1.
         11    1    4    4    0    0 -0.47414832043E-01  0.61531331069E-01 -0.11202815076E-01  0.78485891646E-01  0.51100000000E-03 0. -1.
</event>
<event>
 8    1  0.1041149E+005  0.1043930E+01  0.7957747E-01            NaN
         13   -1    0    0    0    0  0.00000000000E+00  0.00000000000E+00  0.74505805969E-08  0.10566000000E+00  0.10566000000E+00 0. -1.
     999900   -1    0    0    0    0 -0.00000000000E+00 -0.00000000000E+00 -0.74505805969E-08  0.93827000000E+00  0.93827000000E+00 0.  1.
     999902    2    1    2    0    0 -0.74887861219E-02  0.86346699339E-03 -0.22010677764E-01  0.10206642005E+01  0.10203989968E+01 0.  0.
     999903    2    3    3    0    0  0.10062464716E+00  0.62831316698E-01 -0.52560717370E-01  0.13136007150E+00  0.20487689027E-01 0.  0.
         14    1    1    2    0    0  0.74887861219E-02 -0.86346699339E-03  0.22010677764E-01  0.23265799545E-01  0.00000000000E+00 0.  1.
     999901    1    3    3    0    0 -0.10811343328E+00 -0.61967849704E-01  0.30550039606E-01  0.88930412895E+00  0.88000000000E+00 0.  1.
        -11    1    4    4    0    0  0.76944767606E-01  0.48530295302E-01 -0.49379465398E-01  0.10350980412E+00  0.51100000000E-03 0.  1.
         11    1    4    4    0    0  0.23679879550E-01  0.14301021395E-01 -0.31812519722E-02  0.27850267387E-01  0.51100000000E-03 0. -1.
</event>
<event>
 8    1  0.1041149E+005  0.1043930E+01  0.7957747E-01            NaN
         13   -1    0    0    0    0  0.00000000000E+00  0.00000000000E+00  0.74505805969E-08  0.10566000000E+00  0.10566000000E+00 0. -1.
     999900   -1    0    0    0    0 -0.00000000000E+00 -0.00000000000E+00 -0.74505805969E-08  0.93827000000E+00  0.93827000000E+00 0.  1.
     999902    2    1    2    0    0  0.38889733497E-02 -0.17621704016E-01  0.15253213862E-01  0.10203014347E+01  0.10200277979E+01 0.  0.
     999903    2    3    3    0    0  0.30454538792E-01 -0.54775942340E-01 -0.11214497404E+00  0.12995517340E+00  0.19595129474E-01 0.  0.
         14    1    1    2    0    0 -0.38889733497E-02  0.17621704016E-01 -0.15253213862E-01  0.23628565324E-01  0.00000000000E+00 0.  1.
     999901    1    3    3    0    0 -0.26565565442E-01  0.37154238325E-01  0.12739818790E+00  0.89034626128E+00  0.88000000000E+00 0. -1.
        -11    1    4    4    0    0 -0.19331709140E-02 -0.10639696069E-01 -0.16067338305E-01  0.19374229364E-01  0.51100000000E-03 0.  1.
         11    1    4    4    0    0  0.32387709706E-01 -0.44136246271E-01 -0.96077635731E-01  0.11058094403E+00  0.51100000000E-03 0. -1.
</event>
<event>
 8    1  0.1041149E+005  0.1043930E+01  0.7957747E-01            NaN
         13   -1    0    0    0    0  0.00000000000E+00  0.00000000000E+00  0.74505805969E-08  0.10566000000E+00  0.10566000000E+00 0.  1.
     999900   -1    0    0    0    0 -0.00000000000E+00 -0.00000000000E+00 -0.74505805969E-08  0.93827000000E+00  0.93827000000E+00 0.  1.
     999902    2    1    2    0    0 -0.91637801751E-02  0.20343366912E-01 -0.81783429580E-02  0.10201663147E+01  0.10198895023E+01 0.  0.
     999903    2    3    3    0    0 -0.18294355890E-01 -0.12467313450E+00 -0.13365160282E-01  0.12823579267E+00  0.19690532970E-01 0.  0.
         14    1    1    2    0    0  0.91637801751E-02 -0.20343366912E-01  0.81783429580E-02  0.23763685277E-01  0.00000000000E+00 0.  1.
     999901    1    3    3    0    0  0.91305757145E-02  0.14501650141E+00  0.51868173243E-02  0.89193052205E+00  0.88000000000E+00 0.  1.
        -11    1    4    4    0    0 -0.37608449336E-02 -0.83725942436E-01 -0.12767084765E-01  0.84778753032E-01  0.51100000000E-03 0. -1.
         11    1    4    4    0    0 -0.14533510956E-01 -0.40947192066E-01 -0.59807551742E-03  0.43457039638E-01  0.51100000000E-03 0.  1.
</event>
<event>
 8    1  0.1041149E+005  0.1043930E+01  0.7957747E-01            NaN
         13   -1    0    0    0    0  0.00000000000E+00  0.00000000000E+00  0.74505805969E-08  0.10566000000E+00  0.10566000000E+00 0.  1.
     999900   -1    0    0    0    0 -0.00000000000E+00 -0.00000000000E+00 -0.74505805969E-08  0.93827000000E+00  0.93827000000E+00 0.  1.
     999902    2    1    2    0    0 -0.18408728477E-01 -0.11024311895E-01  0.99537280882E-02  0.10202763863E+01  0.10200021623E+01 0.  0.
     999903    2    3    3    0    0  0.94212401767E-01 -0.86047264608E-01 -0.12393133163E-01  0.12965225426E+00  0.19390948722E-01 0.  0.
         14    1    1    2    0    0  0.18408728477E-01  0.11024311895E-01 -0.99537280882E-02  0.23653613672E-01  0.00000000000E+00 0. -1.
     999901    1    3    3    0    0 -0.11262113024E+00  0.75022952713E-01  0.22346861251E-01  0.89062413207E+00  0.88000000000E+00 0.  1.
        -11    1    4    4    0    0  0.26349611003E-01 -0.28069968720E-01  0.46463398491E-02  0.38782402439E-01  0.51100000000E-03 0.  1.
         11    1    4    4    0    0  0.67862790764E-01 -0.57977295887E-01 -0.17039473012E-01  0.90869851823E-01  0.51100000000E-03 0. -1.
</event>
<event>
 8    1  0.1041149E+005  0.1043930E+01  0.7957747E-01            NaN
         13   -1    0    0    0    0  0.00000000000E+00  0.00000000000E+00  0.74505805969E-08  0.10566000000E+00  0.10566000000E+00 0.  1.
     999900   -1    0    0    0    0 -0.00000000000E+00 -0.00000000000E+00 -0.74505805969E-08  0.93827000000E+00  0.93827000000E+00 0. -1.
     999902    2    1    2    0    0  0.70989689396E-02 -0.82996432128E-02  0.21324981413E-01  0.10199709877E+01  0.10196895515E+01 0.  0.
     999903    2    3    3    0    0 -0.10462366342E+00  0.40966360034E-01  0.63345542256E-01  0.13054712184E+00  0.20138016156E-01 0.  0.
         14    1    1    2    0    0 -0.70989689396E-02  0.82996432128E-02 -0.21324981413E-01  0.23959012286E-01  0.00000000000E+00 0. -1.
     999901    1    3    3    0    0  0.11172263236E+00 -0.49266003247E-01 -0.42020560843E-01  0.88942386588E+00  0.88000000000E+00 0. -1.
        -11    1    4    4    0    0 -0.60485025901E-01  0.25579088282E-01  0.48004620860E-01  0.81347605131E-01  0.51100000000E-03 0. -1.
         11    1    4    4    0    0 -0.44138637517E-01  0.15387271752E-01  0.15340921396E-01  0.49199516706E-01  0.51100000000E-03 0.  1.
</event>
<event>
 8    1  0.1041149E+005  0.1043930E+01  0.7957747E-01            NaN
         13   -1    0    0    0    0  0.00000000000E+00  0.00000000000E+00  0.74505805969E-08  0.10566000000E+00  0.10566000000E+00 0. -1.
     999900   -1    0    0    0    0 -0.00000000000E+00 -0.00000000000E+00 -0.74505805969E-08  0.93827000000E+00  0.93827000000E+00 0.  1.
     999902    2    1    2    0    0 -0.26873703124E-01  0.12727288501E-01  0.20381237627E-01  0.10078803864E+01  0.10072354733E+01 0.  0.
     999903    2    3    3    0    0 -0.41151114197E-01 -0.10983889998E+00 -0.22028385294E-02  0.11898424202E+00  0.19859486486E-01 0.  0.
         14    1    1    2    0    0  0.26873703124E-01 -0.12727288501E-01 -0.20381237627E-01  0.36049613582E-01  0.00000000000E+00 0. -1.
     999901    1    3    3    0    0  0.14277411072E-01  0.12256618848E+00  0.22584076156E-01  0.88889614440E+00  0.88000000000E+00 0. -1.
        -11    1    4    4    0    0 -0.10455420540E-01 -0.11544108001E-01 -0.36145164011E-02  0.15997127805E-01  0.51100000000E-03 0. -1.
         11    1    4    4    0    0 -0.30695693657E-01 -0.98294791979E-01  0.14116778717E-02  0.10298711422E+00  0.51100000000E-03 0.  1.
</event>
<event>
 8    1  0.1041149E+005  0.1043930E+01  0.7957747E-01            NaN
         13   -1    0    0    0    0  0.00000000000E+00  0.00000000000E+00  0.74505805969E-08  0.10566000000E+00  0.10566000000E+00 0.  1.
     999900   -1    0    0    0    0 -0.00000000000E+00 -0.00000000000E+00 -0.74505805969E-08  0.93827000000E+00  0.93827000000E+00 0.  1.
     999902    2    1    2    0    0 -0.37363046237E-02  0.20772983203E-01  0.11606789165E-01  0.10198427760E+01  0.10195582835E+01 0.  0.
     999903    2    3    3    0    0 -0.40599919122E-01  0.33000194599E-01 -0.11691860618E+00  0.12965897029E+00  0.20102781643E-01 0.  0.
         14    1    1    2    0    0  0.37363046237E-02 -0.20772983203E-01 -0.11606789165E-01  0.24087223960E-01  0.00000000000E+00 0. -1.
     999901    1    3    3    0    0  0.36863614498E-01 -0.12227211396E-01  0.12852539534E+00  0.89018380575E+00  0.88000000000E+00 0. -1.
        -11    1    4    4    0    0  0.90752771404E-03 -0.15098941205E-02 -0.64568792325E-02  0.67123615241E-02  0.51100000000E-03 0.  1.
         11    1    4    4    0    0 -0.41507446836E-01  0.34510088719E-01 -0.11046172695E+00  0.12294660877E+00  0.51100000000E-03 0. -1.
</event>
<event>
 8    1  0.1041149E+005  0.1043930E+01  0.7957747E-01            NaN
         13   -1    0    0    0    0  0.00000000000E+00  0.00000000000E+00  0.74505805969E-08  0.10566000000E+00  0.10566000000E+00 0.  1.
     999900   -1    0    0    0    0 -0.00000000000E+00 -0.00000000000E+00 -0.74505805969E-08  0.93827000000E+00  0.93827000000E+00 0. -1.
     999902    2    1    2    0    0  0.19523609494E-01  0.28550585586E-03  0.13443095017E-01  0.10202241011E+01  0.10199486491E+01 0.  0.
     999903    2    3    3    0    0 -0.50191217373E-01  0.88341255926E-01 -0.76244963569E-01  0.12856389668E+00  0.19800132841E-01 0.  0.
         14    1    1    2    0    0 -0.19523609494E-01 -0.28550585586E-03 -0.13443095017E-01  0.23705898947E-01  0.00000000000E+00 0. -1.
     999901    1    3    3    0    0  0.69714826867E-01 -0.88055750070E-01  0.89688058586E-01  0.89166020437E+00  0.88000000000E+00 0.  1.
        -11    1    4    4    0    0 -0.39237508133E-01  0.81828364691E-01 -0.66247903307E-01  0.11235884089E+00  0.51100000000E-03 0.  1.
         11    1    4    4    0    0 -0.10953709241E-01  0.65128912352E-02 -0.99970602619E-02  0.16205055793E-01  0.51100000000E-03 0. -1.
</event>
<event>
 8    1  0.1041149E+005  0.1043930E+01  0.7957747E-01            NaN
         13   -1    0    0    0    0  0.00000000000E+00  0.00000000000E+00  0.74505805969E-08  0.10566000000E+00  0.10566000000E+00 0. -1.
     999900   -1    0    0    0    0 -0.00000000000E+00 -0.00000000000E+00 -0.74505805969E-08  0.93827000000E+00  0.93827000000E+00 0.  1.
     999902    2    1    2    0    0  0.17341917958E-01  0.67906608216E-02  0.13328131755E-01  0.10210281597E+01  0.10207712812E+01 0.  0.
     999903    2    3    3    0    0 -0.13181322461E-01  0.17369833433E-01 -0.12597297233E+00  0.12948546039E+00  0.20538654281E-01 0.  0.
         14    1    1    2    0    0 -0.17341917958E-01 -0.67906608216E-02 -0.13328131755E-01  0.22901840296E-01  0.00000000000E+00 0. -1.
     999901    1    3    3    0    0  0.30523240418E-01 -0.10579172612E-01  0.13930110409E+00  0.89154269931E+00  0.88000000000E+00 0. -1.
        -11    1    4    4    0    0 -0.16205635209E-01  0.15336915261E-01 -0.71824993703E-01  0.75212594848E-01  0.51100000000E-03 0.  1.
         11    1    4    4    0    0  0.30243127487E-02  0.20329181721E-02 -0.54147978627E-01  0.54272865544E-01  0.51100000000E-03 0. -1.
</event>
<event>
 8    1  0.1041149E+005  0.1043930E+01  0.7957747E-01            NaN
         13   -1    0    0    0    0  0.00000000000E+00  0.00000000000E+00  0.74505805969E-08  0.10566000000E+00  0.10566000000E+00 0. -1.
     999900   -1    0    0    0    0 -0.00000000000E+00 -0.00000000000E+00 -0.74505805969E-08  0.93827000000E+00  0.93827000000E+00 0.  1.
     999902    2    1    2    0    0 -0.32620159380E-03 -0.25703141205E-01 -0.79116026518E-02  0.10170348084E+01  0.10166791284E+01 0.  0.
     999903    2    3    3    0    0  0.11902573522E+00  0.19836171157E-01  0.33358697666E-01  0.12685395515E+00  0.20457856588E-01 0.  0.
         14    1    1    2    0    0  0.32620159380E-03  0.25703141205E-01  0.79116026518E-02  0.26895191611E-01  0.00000000000E+00 0. -1.
     999901    1    3    3    0    0 -0.11935193681E+00 -0.45539312362E-01 -0.41270300318E-01  0.89018085324E+00  0.88000000000E+00 0.  1.
        -11    1    4    4    0    0  0.98457914365E-01  0.22785249260E-01  0.32077822952E-01  0.10603007277E+00  0.51100000000E-03 0.  1.
         11    1    4    4    0    0  0.20567820852E-01 -0.29490781028E-02  0.12808747140E-02  0.20823882378E-01  0.51100000000E-03 0. -1.
</event>
<event>
 8    1  0.1041149E+005  0.1043930E+01  0.7957747E-01            NaN
         13   -1    0    0    0    0  0.00000000000E+00  0.00000000000E+00  0.74505805969E-08  0.10566000000E+00  0.10566000000E+00 0.  1.
     999900   -1    0    0    0    0 -0.00000000000E+00 -0.00000000000E+00 -0.74505805969E-08  0.93827000000E+00  0.93827000000E+00 0.  1.
     999902    2    1    2    0    0 -0.18346374173E-01 -0.51277721609E-02  0.14761619071E-01  0.10198304380E+01  0.10195456504E+01 0.  0.
     999903    2    3    3    0    0  0.67553655031E-01  0.58222759799E-01 -0.88575651922E-01  0.12737836839E+00  0.20645012791E-01 0.  0.
         14    1    1    2    0    0  0.18346374173E-01  0.51277721609E-02 -0.14761619071E-01  0.24099562034E-01  0.00000000000E+00 0. -1.
     999901    1    3    3    0    0 -0.85900029204E-01 -0.63350531960E-01  0.10333727099E+00  0.89245206958E+00  0.88000000000E+00 0. -1.
        -11    1    4    4    0    0  0.23086946062E-01  0.15125053514E-01 -0.40346009898E-01  0.48885948472E-01  0.51100000000E-03 0.  1.
         11    1    4    4    0    0  0.44466708969E-01  0.43097706286E-01 -0.48229642024E-01  0.78492419917E-01  0.51100000000E-03 0. -1.
</event>
<event>
 8    1  0.1041149E+005  0.1043930E+01  0.7957747E-01            NaN
         13   -1    0    0    0    0  0.00000000000E+00  0.00000000000E+00  0.74505805969E-08  0.10566000000E+00  0.10566000000E+00 0. -1.
     999900   -1    0    0    0    0 -0.00000000000E+00 -0.00000000000E+00 -0.74505805969E-08  0.93827000000E+00  0.93827000000E+00 0.  1.
     999902    2    1    2    0    0 -0.60913962928E-02  0.23845374710E-01 -0.98600014767E-03  0.10192991413E+01  0.10190015016E+01 0.  0.
     999903    2    3    3    0    0 -0.12599905637E+00 -0.21370712631E-01 -0.12675064293E-01  0.12994039720E+00  0.19783326433E-01 0.  0.
         14    1    1    2    0    0  0.60913962928E-02 -0.23845374710E-01  0.98600014767E-03  0.24630858697E-01  0.00000000000E+00 0. -1.
     999901    1    3    3    0    0  0.11990766007E+00  0.45216087342E-01  0.11689064146E-01  0.88935874411E+00  0.88000000000E+00 0.  1.
        -11    1    4    4    0    0 -0.54626837906E-01 -0.81501939680E-03 -0.26670756653E-03  0.54635958216E-01  0.51100000000E-03 0.  1.
         11    1    4    4    0    0 -0.71372218461E-01 -0.20555693235E-01 -0.12408356727E-01  0.75304438980E-01  0.51100000000E-03 0. -1.
</event>
<event>
 8    1  0.1041149E+005  0.1043930E+01  0.7957747E-01            NaN
         13   -1    0    0    0    0  0.00000000000E+00  0.00000000000E+00  0.74505805969E-08  0.10566000000E+00  0.10566000000E+00 0.  1.
     999900   -1    0    0    0    0 -0.00000000000E+00 -0.00000000000E+00 -0.74505805969E-08  0.93827000000E+00  0.93827000000E+00 0. -1.
     999902    2    1    2    0    0  0.95921283785E-02  0.47927317254E-02  0.15646254493E-01  0.10249620142E+01  0.10247864881E+01 0.  0.
     999903    2    3    3    0    0  0.11155955530E+00 -0.59268839853E-01 -0.42399293085E-01  0.13486621788E+00  0.20805453942E-01 0.  0.
         14    1    1    2    0    0 -0.95921283785E-02 -0.47927317254E-02 -0.15646254493E-01  0.18967985762E-01  0.00000000000E+00 0.  1.
     999901    1    3    3    0    0 -0.10196742692E+00  0.64061571579E-01  0.58045547578E-01  0.89009579636E+00  0.88000000000E+00 0.  1.
        -11    1    4    4    0    0  0.29900528369E-01 -0.69204930025E-02 -0.14412726842E-01  0.33910509229E-01  0.51100000000E-03 0. -1.
         11    1    4    4    0    0  0.81659026932E-01 -0.52348346851E-01 -0.27986566243E-01  0.10095570865E+00  0.51100000000E-03 0.  1.
</event>
<event>
 8    1  0.1041149E+005  0.1043930E+01  0.7957747E-01            NaN
         13   -1    0    0    0    0  0.00000000000E+00  0.00000000000E+00  0.74505805969E-08  0.10566000000E+00  0.10566000000E+00 0. -1.
     999900   -1    0    0    0    0 -0.00000000000E+00 -0.00000000000E+00 -0.74505805969E-08  0.93827000000E+00  0.93827000000E+00 0. -1.
     999902    2    1    2    0    0  0.23771627852E-01 -0.33361528897E-02 -0.46158962685E-02  0.10194856406E+01  0.10191925455E+01 0.  0.
     999903    2    3    3    0    0 -0.96142896814E-01  0.78654549122E-01  0.18679337993E-01  0.12727230494E+00  0.20477481059E-01 0.  0.
         14    1    1    2    0    0 -0.23771627852E-01  0.33361528897E-02  0.46158962685E-02  0.24444359374E-01  0.00000000000E+00 0. -1.
     999901    1    3    3    0    0  0.11991452467E+00 -0.81990702012E-01 -0.23295234261E-01  0.89221333569E+00  0.88000000000E+00 0.  1.
        -11    1    4    4    0    0 -0.41451258288E-01  0.46881231116E-01  0.73204883818E-02  0.63007200507E-01  0.51100000000E-03 0. -1.
         11    1    4    4    0    0 -0.54691638526E-01  0.31773318006E-01  0.11358849611E-01  0.64265104429E-01  0.51100000000E-03 0.  1.
</event>
<event>
 8    1  0.1041149E+005  0.1043930E+01  0.7957747E-01            NaN
         13   -1    0    0    0    0  0.00000000000E+00  0.00000000000E+00  0.74505805969E-08  0.10566000000E+00  0.10566000000E+00 0.  1.
     999900   -1    0    0    0    0 -0.00000000000E+00 -0.00000000000E+00 -0.74505805969E-08  0.93827000000E+00  0.93827000000E+00 0.  1.
     999902    2    1    2    0    0 -0.18359995361E-01  0.89547945296E-04  0.13674255530E-01  0.10210371471E+01  0.10207804725E+01 0.  0.
     999903    2    3    3    0    0 -0.21150278764E-01  0.11458615091E+00  0.60319375931E-01  0.13239040908E+00  0.17648598622E-01 0.  0.
         14    1    1    2    0    0  0.18359995361E-01 -0.89547945296E-04 -0.13674255530E-01  0.22892852876E-01  0.00000000000E+00 0. -1.
     999901    1    3    3    0    0  0.27902834029E-02 -0.11449660296E+00 -0.46645120401E-01  0.88864673804E+00  0.88000000000E+00 0. -1.
        -11    1    4    4    0    0 -0.64793258341E-02  0.60718816584E-01  0.39882361900E-01  0.72935726927E-01  0.51100000000E-03 0. -1.
         11    1    4    4    0    0 -0.14670952930E-01  0.53867334323E-01  0.20437014031E-01  0.59454682158E-01  0.51100000000E-03 0.  1.
</event>
<event>
 8    1  0.1041149E+005  0.1043930E+01  0.7957747E-01            NaN
         13   -1    0    0    0    0  0.00000000000E+00  0.00000000000E+00  0.74505805969E-08  0.10566000000E+00  0.10566000000E+00 0.  1.
     999900   -1    0    0    0    0 -0.00000000000E+00 -0.00000000000E+00 -0.74505805969E-08  0.93827000000E+00  0.93827000000E+00 0.  1.
     999902    2    1    2    0    0  0.62760306375E-02 -0.91227114536E-02 -0.20945454006E-01  0.10202377129E+01  0.10199625809E+01 0.  0.
     999903    2    3    3    0    0 -0.22813438219E-02  0.57584549816E-01  0.11219695563E+00  0.12768519981E+00  0.19853676993E-01 0.  0.
         14    1    1    2    0    0 -0.62760306375E-02  0.91227114536E-02  0.20945454006E-01  0.23692287107E-01  0.00000000000E+00 0.  1.
     999901    1    3    3    0    0  0.85573744594E-02 -0.66707261269E-01 -0.13314240964E+00  0.89255251308E+00  0.88000000000E+00 0.  1.
        -11    1    4    4    0    0  0.26820774629E-02  0.35583892647E-01  0.86014429543E-01  0.93124380084E-01  0.51100000000E-03 0.  1.
         11    1    4    4    0    0 -0.49634212847E-02  0.22000657168E-01  0.26182526091E-01  0.34560819727E-01  0.51100000000E-03 0. -1.
</event>
<event>
 7    1  0.1041149E+005  0.1043930E+01  0.7957747E-01            NaN
         13   -1    0    0    0    0  0.00000000000E+00  0.00000000000E+00  0.74505805969E-08  0.10566000000E+00  0.10566000000E+00 0. -1.
     999900   -1    0    0    0    0 -0.00000000000E+00 -0.00000000000E+00 -0.74505805969E-08  0.93827000000E+00  0.93827000000E+00 0. -1.
     999903    2    1    2    0    0 -0.93550729928E-01 -0.12385895023E-01 -0.59267964217E-01  0.11337282289E+00  0.20869976553E-01 0.  0.
         14    1    1    2    0    0 -0.18579467338E-01 -0.29953569708E-01 -0.17058143215E-01  0.39158564769E-01  0.00000000000E+00 0. -1.
     999901    1    1    2    0    0  0.11213019727E+00  0.42339464731E-01  0.76326107432E-01  0.89139861234E+00  0.88000000000E+00 0.  1.
        -11    1    3    3    0    0 -0.49700489075E-01 -0.73151564900E-03 -0.41085666891E-01  0.64490052522E-01  0.51100000000E-03 0.  1.
         11    1    3    3    0    0 -0.43850240854E-01 -0.11654379374E-01 -0.18182297326E-01  0.48882770365E-01  0.51100000000E-03 0. -1.
</event>
<event>
 8    1  0.1041149E+005  0.1043930E+01  0.7957747E-01            NaN
         13   -1    0    0    0    0  0.00000000000E+00  0.00000000000E+00  0.74505805969E-08  0.10566000000E+00  0.10566000000E+00 0.  1.
     999900   -1    0    0    0    0 -0.00000000000E+00 -0.00000000000E+00 -0.74505805969E-08  0.93827000000E+00  0.93827000000E+00 0.  1.
     999902    2    1    2    0    0  0.17586749298E-01  0.40184082268E-02  0.16893659744E-01  0.10192148812E+01  0.10189151766E+01 0.  0.
     999903    2    3    3    0    0 -0.11896500173E+00 -0.30297435413E-01  0.30593595052E-01  0.12791714981E+00  0.18873868926E-01 0.  0.
         14    1    1    2    0    0 -0.17586749298E-01 -0.40184082268E-02 -0.16893659744E-01  0.24715118755E-01  0.00000000000E+00 0. -1.
     999901    1    3    3    0    0  0.13655175103E+00  0.34315843640E-01 -0.13699935308E-01  0.89129773143E+00  0.88000000000E+00 0.  1.
        -11    1    4    4    0    0 -0.53825674841E-01 -0.14647646761E-01  0.43127006891E-02  0.55951919859E-01  0.51100000000E-03 0. -1.
         11    1    4    4    0    0 -0.65139326889E-01 -0.15649788653E-01  0.26280894363E-01  0.71965229951E-01  0.51100000000E-03 0.  1.
</event>
<event>
 8    1  0.1041149E+005  0.1043930E+01  0.7957747E-01            NaN
         13   -1    0    0    0    0  0.00000000000E+00  0.00000000000E+00  0.74505805969E-08  0.10566000000E+00  0.10566000000E+00 0. -1.
     999900   -1    0    0    0    0 -0.00000000000E+00 -0.00000000000E+00 -0.74505805969E-08  0.93827000000E+00  0.93827000000E+00 0. -1.
     999902    2    1    2    0    0 -0.80536996803E-02  0.12043070985E-01  0.19201960041E-01  0.10198756260E+01  0.10195919182E+01 0.  0.
     999903    2    3    3    0    0  0.32711542482E-01 -0.34264933930E-01 -0.11660563349E+00  0.12732314089E+00  0.19240003498E-01 0.  0.
         14    1    1    2    0    0  0.80536996803E-02 -0.12043070985E-01 -0.19201960041E-01  0.24054373962E-01  0.00000000000E+00 0.  1.
     999901    1    3    3    0    0 -0.40765242162E-01  0.46308004915E-01  0.13580759353E+00  0.89255248515E+00  0.88000000000E+00 0.  1.
        -11    1    4    4    0    0  0.26956665604E-01 -0.16208424403E-01 -0.62080872642E-01  0.69596484904E-01  0.51100000000E-03 0.  1.
         11    1    4    4    0    0  0.57548768777E-02 -0.18056509527E-01 -0.54524760851E-01  0.57726655983E-01  0.51100000000E-03 0. -1.
</event>
<event>
 8    1  0.1041149E+005  0.1043930E+01  0.7957747E-01            NaN
         13   -1    0    0    0    0  0.00000000000E+00  0.00000000000E+00  0.74505805969E-08  0.10566000000E+00  0.10566000000E+00 0. -1.
     999900   -1    0    0    0    0 -0.00000000000E+00 -0.00000000000E+00 -0.74505805969E-08  0.93827000000E+00  0.93827000000E+00 0.  1.
     999902    2    1    2    0    0  0.20803437793E-01 -0.97958439747E-02  0.67701116571E-02  0.10199596851E+01  0.10196779802E+01 0.  0.
     999903    2    3    3    0    0  0.23970831175E-01  0.74352844793E-01  0.10253431899E+00  0.13076801985E+00  0.22000958335E-01 0.  0.
         14    1    1    2    0    0 -0.20803437793E-01  0.97958439747E-02 -0.67701116571E-02  0.23970314872E-01  0.00000000000E+00 0. -1.
     999901    1    3    3    0    0 -0.31673933813E-02 -0.84148688767E-01 -0.95764207333E-01  0.88919166528E+00  0.88000000000E+00 0.  1.
        -11    1    4    4    0    0  0.80367710496E-02  0.44651075207E-01  0.72996565012E-01  0.85948053093E-01  0.51100000000E-03 0. -1.
         11    1    4    4    0    0  0.15934060125E-01  0.29701769586E-01  0.29537753978E-01  0.44819966752E-01  0.51100000000E-03 0.  1.
</event>
<event>
 8    1  0.1041149E+005  0.1043930E+01  0.7957747E-01            NaN
         13   -1    0    0    0    0  0.00000000000E+00  0.00000000000E+00  0.74505805969E-08  0.10566000000E+00  0.10566000000E+00 0. -1.
     999900   -1    0    0    0    0 -0.00000000000E+00 -0.00000000000E+00 -0.74505805969E-08  0.93827000000E+00  0.93827000000E+00 0.  1.
     999902    2    1    2    0    0  0.10771146795E-01 -0.20719270746E-01  0.72216509380E-02  0.10194870455E+01  0.10191939844E+01 0.  0.
     999903    2    3    3    0    0  0.10100796913E+00  0.40353929731E-01 -0.67976195298E-01  0.12958405301E+00  0.18444896164E-01 0.  0.
         14    1    1    2    0    0 -0.10771146795E-01  0.20719270746E-01 -0.72216509380E-02  0.24442954523E-01  0.00000000000E+00 0.  1.
     999901    1    3    3    0    0 -0.90236822338E-01 -0.61073200478E-01  0.75197846236E-01  0.88990299247E+00  0.88000000000E+00 0. -1.
        -11    1    4    4    0    0  0.19360165282E-01  0.31954225279E-03 -0.12829154212E-01  0.23232873817E-01  0.51100000000E-03 0. -1.
         11    1    4    4    0    0  0.81647803850E-01  0.40034387478E-01 -0.55147041086E-01  0.10635117919E+00  0.51100000000E-03 0.  1.
</event>
<event>
 8    1  0.1041149E+005  0.1043930E+01  0.7957747E-01            NaN
         13   -1    0    0    0    0  0.00000000000E+00  0.00000000000E+00  0.74505805969E-08  0.10566000000E+00  0.10566000000E+00 0.  1.
     999900   -1    0    0    0    0 -0.00000000000E+00 -0.00000000000E+00 -0.74505805969E-08  0.93827000000E+00  0.93827000000E+00 0. -1.
     999902    2    1    2    0    0 -0.21736440781E-01  0.42206749115E-03  0.11106563789E-01  0.10195167504E+01  0.10192244098E+01 0.  0.
     999903    2    3    3    0    0  0.74198390493E-01  0.10074415133E+00  0.22856002360E-01  0.12855880429E+00  0.18713207596E-01 0.  0.
         14    1    1    2    0    0  0.21736440781E-01 -0.42206749115E-03 -0.11106563789E-01  0.24413249640E-01  0.00000000000E+00 0.  1.
     999901    1    3    3    0    0 -0.95934831274E-01 -0.10032208384E+00 -0.11749438571E-01  0.89095794607E+00  0.88000000000E+00 0. -1.
        -11    1    4    4    0    0  0.21376497638E-01  0.35013707980E-01  0.15705780799E-01  0.43930024690E-01  0.51100000000E-03 0. -1.
         11    1    4    4    0    0  0.52821892855E-01  0.65730443347E-01  0.71502215617E-02  0.84628779601E-01  0.51100000000E-03 0.  1.
</event>
<event>
 8    1  0.1041149E+005  0.1043930E+01  0.7957747E-01            NaN
         13   -1    0    0    0    0  0.00000000000E+00  0.00000000000E+00  0.74505805969E-08  0.10566000000E+00  0.10566000000E+00 0. -1.
     999900   -1    0    0    0    0 -0.00000000000E+00 -0.00000000000E+00 -0.74505805969E-08  0.93827000000E+00  0.93827000000E+00 0.  1.
     999902    2    1    2    0    0  0.24647684797E-02  0.14679698361E-01 -0.18680325759E-01  0.10200443726E+01  0.10197646781E+01 0.  0.
     999903    2    3    3    0    0  0.74240900161E-01 -0.97095478214E-01  0.34656442266E-01  0.12847815853E+00  0.19139620763E-01 0.  0.
         14    1    1    2    0    0 -0.24647684797E-02 -0.14679698361E-01  0.18680325759E-01  0.23885627437E-01  0.00000000000E+00 0. -1.
     999901    1    3    3    0    0 -0.71776131681E-01  0.11177517657E+00 -0.53336768025E-01  0.89156621403E+00  0.88000000000E+00 0.  1.
        -11    1    4    4    0    0  0.22418282291E-01 -0.35214391750E-01  0.20575357810E-01  0.46542875257E-01  0.51100000000E-03 0. -1.
         11    1    4    4    0    0  0.51822617870E-01 -0.61881086464E-01  0.14081084456E-01  0.81935283275E-01  0.51100000000E-03 0.  1.
</event>
<event>
 8    1  0.1041149E+005  0.1043930E+01  0.7957747E-01            NaN
         13   -1    0    0    0    0  0.00000000000E+00  0.00000000000E+00  0.74505805969E-08  0.10566000000E+00  0.10566000000E+00 0.  1.
     999900   -1    0    0    0    0 -0.00000000000E+00 -0.00000000000E+00 -0.74505805969E-08  0.93827000000E+00  0.93827000000E+00 0.  1.
     999902    2    1    2    0    0  0.22641007769E-02  0.14798123591E-01  0.19145267664E-01  0.10196266692E+01  0.10193369868E+01 0.  0.
     999903    2    3    3    0    0  0.14910293220E-01  0.55434921959E-01  0.11818430739E+00  0.13304897550E+00  0.20955952691E-01 0.  0.
         14    1    1    2    0    0 -0.22641007769E-02 -0.14798123591E-01 -0.19145267664E-01  0.24303330802E-01  0.00000000000E+00 0. -1.
     999901    1    3    3    0    0 -0.12646192443E-01 -0.40636798369E-01 -0.99039039725E-01  0.88657769369E+00  0.88000000000E+00 0.  1.
        -11    1    4    4    0    0  0.51158039452E-03  0.33081423959E-01  0.79436262046E-01  0.86052444326E-01  0.51100000000E-03 0.  1.
         11    1    4    4    0    0  0.14398712825E-01  0.22353498000E-01  0.38748045343E-01  0.46996531178E-01  0.51100000000E-03 0. -1.
</event>
<event>
 8    1  0.1041149E+005  0.1043930E+01  0.7957747E-01            NaN
         13   -1    0    0    0    0  0.00000000000E+00  0.00000000000E+00  0.74505805969E-08  0.10566000000E+00  0.10566000000E+00 0.  1.
     999900   -1    0    0    0    0 -0.00000000000E+00 -0.00000000000E+00 -0.74505805969E-08  0.93827000000E+00  0.93827000000E+00 0. -1.
     999902    2    1    2    0    0 -0.55002226078E-02 -0.23188292808E-01 -0.22672435229E-03  0.10200972331E+01  0.10198187899E+01 0.  0.
     999903    2    3    3    0    0 -0.60265057307E-01  0.65058534393E-02 -0.11391342433E+00  0.13059984968E+00  0.20145700112E-01 0.  0.
         14    1    1    2    0    0  0.55002226078E-02  0.23188292808E-01  0.22672435229E-03  0.23832766856E-01  0.00000000000E+00 0.  1.
     999901    1    3    3    0    0  0.54764834699E-01 -0.29694146247E-01  0.11368669997E+00  0.88949738347E+00  0.88000000000E+00 0.  1.
        -11    1    4    4    0    0 -0.53701752216E-01  0.29038485153E-02 -0.83867285023E-01  0.99630784125E-01  0.51100000000E-03 0. -1.
         11    1    4    4    0    0 -0.65633050910E-02  0.36020049240E-02 -0.30046139303E-01  0.30969065553E-01  0.51100000000E-03 0.  1.
</event>
<event>
 8    1  0.1041149E+005  0.1043930E+01  0.7957747E-01            NaN
         13   -1    0    0    0    0  0.00000000000E+00  0.00000000000E+00  0.74505805969E-08  0.10566000000E+00  0.10566000000E+00 0.  1.
     999900   -1    0    0    0    0 -0.00000000000E+00 -0.00000000000E+00 -0.74505805969E-08  0.93827000000E+00  0.93827000000E+00 0.  1.
     999902    2    1    2    0    0  0.17085564007E-01  0.10543314072E-01 -0.49846960357E-02  0.10232436479E+01  0.10230345242E+01 0.  0.
     999903    2    3    3    0    0 -0.12937202199E+00 -0.45093129509E-03 -0.41750446428E-03  0.13106005851E+00  0.20958082288E-01 0.  0.
         14    1    1    2    0    0 -0.17085564007E-01 -0.10543314072E-01  0.49846960357E-02  0.20686352110E-01  0.00000000000E+00 0.  1.
     999901    1    3    3    0    0  0.14645758600E+00  0.10994245368E-01 -0.45671915715E-02  0.89218358938E+00  0.88000000000E+00 0.  1.
        -11    1    4    4    0    0 -0.95170267307E-01 -0.93968186559E-02 -0.21916970655E-02  0.95659524551E-01  0.51100000000E-03 0.  1.
         11    1    4    4    0    0 -0.34201754681E-01  0.89458873608E-02  0.17741926012E-02  0.35400533955E-01  0.51100000000E-03 0. -1.
</event>
<event>
 8    1  0.1041149E+005  0.1043930E+01  0.7957747E-01            NaN
         13   -1    0    0    0    0  0.00000000000E+00  0.00000000000E+00  0.74505805969E-08  0.10566000000E+00  0.10566000000E+00 0. -1.
     999900   -1    0    0    0    0 -0.00000000000E+00 -0.00000000000E+00 -0.74505805969E-08  0.93827000000E+00  0.93827000000E+00 0.  1.
     999902    2    1    2    0    0  0.95201741770E-02 -0.19095740367E-01 -0.92305129242E-02  0.10206817015E+01  0.10204169012E+01 0.  0.
     999903    2    3    3    0    0 -0.47386303066E-01 -0.10388709681E+00 -0.65759978595E-01  0.13297482316E+00  0.17886816609E-01 0.  0.
         14    1    1    2    0    0 -0.95201741770E-02  0.19095740367E-01  0.92305129242E-02  0.23248298548E-01  0.00000000000E+00 0. -1.
     999901    1    3    3    0    0  0.56906477243E-01  0.84791356439E-01  0.56529465671E-01  0.88770687829E+00  0.88000000000E+00 0. -1.
        -11    1    4    4    0    0 -0.28975096805E-01 -0.56791482649E-01 -0.46277515943E-01  0.78782601754E-01  0.51100000000E-03 0.  1.
         11    1    4    4    0    0 -0.18411206260E-01 -0.47095614158E-01 -0.19482462652E-01  0.54192221405E-01  0.51100000000E-03 0. -1.
</event>
<event>
 8    1  0.1041149E+005  0.1043930E+01  0.7957747E-01            NaN
         13   -1    0    0    0    0  0.00000000000E+00  0.00000000000E+00  0.74505805969E-08  0.10566000000E+00  0.10566000000E+00 0.  1.
     999900   -1    0    0    0    0 -0.00000000000E+00 -0.00000000000E+00 -0.74505805969E-08  0.93827000000E+00  0.93827000000E+00 0.  1.
     999902    2    1    2    0    0 -0.20882597202E-01 -0.65136809933E-02 -0.92739223776E-02  0.10201704431E+01  0.10198937280E+01 0.  0.
     999903    2    3    3    0    0  0.60501472792E-01  0.11153493912E+00 -0.33094542290E-03  0.12852094900E+00  0.20421898831E-01 0.  0.
         14    1    1    2    0    0  0.20882597202E-01  0.65136809933E-02  0.92739223776E-02  0.23759556862E-01  0.00000000000E+00 0.  1.
     999901    1    3    3    0    0 -0.81384069994E-01 -0.11804862012E+00 -0.89429769547E-02  0.89164949414E+00  0.88000000000E+00 0. -1.
        -11    1    4    4    0    0  0.47609876015E-01  0.68993934338E-01  0.35064981137E-02  0.83901251002E-01  0.51100000000E-03 0.  1.
         11    1    4    4    0    0  0.12891596776E-01  0.42541004785E-01 -0.38374435366E-02  0.44619697998E-01  0.51100000000E-03 0. -1.
</event>
<event>
 8    1  0.1041149E+005  0.1043930E+01  0.7957747E-01            NaN
         13   -1    0    0    0    0  0.00000000000E+00  0.00000000000E+00  0.74505805969E-08  0.10566000000E+00  0.10566000000E+00 0. -1.
     999900   -1    0    0    0    0 -0.00000000000E+00 -0.00000000000E+00 -0.74505805969E-08  0.93827000000E+00  0.93827000000E+00 0.  1.
     999902    2    1    2    0    0 -0.38419170211E-02 -0.21997433227E-01 -0.64385088730E-02  0.10206899098E+01  0.10204252987E+01 0.  0.
     999903    2    3    3    0    0  0.83019438164E-01 -0.48397827619E-01  0.86839045288E-01  0.13111552959E+00  0.20388366362E-01 0.  0.
         14    1    1    2    0    0  0.38419170211E-02  0.21997433227E-01  0.64385088730E-02  0.23240090178E-01  0.00000000000E+00 0.  1.
     999901    1    3    3    0    0 -0.86861355185E-01  0.26400394392E-01 -0.93277554161E-01  0.88957438023E+00  0.88000000000E+00 0.  1.
        -11    1    4    4    0    0  0.44825811953E-01 -0.35065037383E-01  0.42071550568E-01  0.70775608455E-01  0.51100000000E-03 0.  1.
         11    1    4    4    0    0  0.38193626211E-01 -0.13332790236E-01  0.44767494720E-01  0.60339921139E-01  0.51100000000E-03 0. -1.
</event>
<event>
 8    1  0.1041149E+005  0.1043930E+01  0.7957747E-01            NaN
         13   -1    0    0    0    0  0.00000000000E+00  0.00000000000E+00  0.74505805969E-08  0.10566000000E+00  0.10566000000E+00 0. -1.
     999900   -1    0    0    0    0 -0.00000000000E+00 -0.00000000000E+00 -0.74505805969E-08  0.93827000000E+00  0.93827000000E+00 0. -1.
     999902    2    1    2    0    0  0.89589589815E-02  0.22519156328E-01 -0.95924269578E-03  0.10196751965E+01  0.10193866836E+01 0.  0.
     999903    2    3    3    0    0 -0.62546551290E-02 -0.47116977799E-01 -0.11722805064E+00  0.12917023807E+00  0.26142001451E-01 0.  0.
         14    1    1    2    0    0 -0.89589589815E-02 -0.22519156328E-01  0.95924269578E-03  0.24254803531E-01  0.00000000000E+00 0. -1.
     999901    1    3    3    0    0  0.15213614110E-01  0.69636134127E-01  0.11626880794E+00  0.89050495840E+00  0.88000000000E+00 0.  1.
        -11    1    4    4    0    0  0.77823828455E-02 -0.24723070739E-01 -0.74965270012E-01  0.79321173331E-01  0.51100000000E-03 0.  1.
         11    1    4    4    0    0 -0.14037037974E-01 -0.22393907060E-01 -0.42262780624E-01  0.49849064741E-01  0.51100000000E-03 0. -1.
</event>
<event>
 8    1  0.1041149E+005  0.1043930E+01  0.7957747E-01            NaN
         13   -1    0    0    0    0  0.00000000000E+00  0.00000000000E+00  0.74505805969E-08  0.10566000000E+00  0.10566000000E+00 0. -1.
     999900   -1    0    0    0    0 -0.00000000000E+00 -0.00000000000E+00 -0.74505805969E-08  0.93827000000E+00  0.93827000000E+00 0.  1.
     999902    2    1    2    0    0 -0.56212389506E-02 -0.18332843168E-01 -0.10043235834E-01  0.10222837982E+01  0.10220546003E+01 0.  0.
     999903    2    3    3    0    0 -0.24002112982E-01  0.83012264745E-01 -0.97747930486E-01  0.13194633360E+00  0.19698718475E-01 0.  0.
         14    1    1    2    0    0  0.56212389506E-02  0.18332843168E-01  0.10043235834E-01  0.21646201791E-01  0.00000000000E+00 0. -1.
     999901    1    3    3    0    0  0.18380874031E-01 -0.10134510791E+00  0.87704694651E-01  0.89033746461E+00  0.88000000000E+00 0. -1.
        -11    1    4    4    0    0 -0.16615999226E-01  0.71582176413E-01 -0.90302332222E-01  0.11642539129E+00  0.51100000000E-03 0.  1.
         11    1    4    4    0    0 -0.73861137564E-02  0.11430088332E-01 -0.74455982635E-02  0.15520942310E-01  0.51100000000E-03 0. -1.
</event>
<event>
 8    1  0.1041149E+005  0.1043930E+01  0.7957747E-01            NaN
         13   -1    0    0    0    0  0.00000000000E+00  0.00000000000E+00  0.74505805969E-08  0.10566000000E+00  0.10566000000E+00 0.  1.
     999900   -1    0    0    0    0 -0.00000000000E+00 -0.00000000000E+00 -0.74505805969E-08  0.93827000000E+00  0.93827000000E+00 0.  1.
     999902    2    1    2    0    0 -0.18612684409E-01  0.10095144453E-01 -0.10800547269E-01  0.10201603600E+01  0.10198834073E+01 0.  0.
     999903    2    3    3    0    0  0.80866719073E-01  0.41863659502E-01  0.88839044797E-01  0.12840173879E+00  0.17396505508E-01 0.  0.
         14    1    1    2    0    0  0.18612684409E-01 -0.10095144453E-01  0.10800547269E-01  0.23769639958E-01  0.00000000000E+00 0.  1.
     999901    1    3    3    0    0 -0.99479403481E-01 -0.31768515049E-01 -0.99639592067E-01  0.89175862125E+00  0.88000000000E+00 0.  1.
        -11    1    4    4    0    0  0.45866779115E-01  0.19354304592E-01  0.58971613979E-01  0.77176828834E-01  0.51100000000E-03 0. -1.
         11    1    4    4    0    0  0.34999939958E-01  0.22509354910E-01  0.29867430818E-01  0.51224909958E-01  0.51100000000E-03 0.  1.
</event>
<event>
 8    1  0.1041149E+005  0.1043930E+01  0.7957747E-01            NaN
         13   -1    0    0    0    0  0.00000000000E+00  0.00000000000E+00  0.74505805969E-08  0.10566000000E+00  0.10566000000E+00 0. -1.
     999900   -1    0    0    0    0 -0.00000000000E+00 -0.00000000000E+00 -0.74505805969E-08  0.93827000000E+00  0.93827000000E+00 0.  1.
     999902    2    1    2    0    0  0.16506982272E-01  0.56455214960E-02  0.13070985352E-01  0.10221308478E+01  0.10218983644E+01 0.  0.
     999903    2    3    3    0    0 -0.74166551620E-01  0.10665868215E+00 -0.60731240205E-02  0.13151766284E+00  0.19577051546E-01 0.  0.
         14    1    1    2    0    0 -0.16506982272E-01 -0.56455214960E-02 -0.13070985352E-01  0.21799152157E-01  0.00000000000E+00 0.  1.
     999901    1    3    3    0    0  0.90673533892E-01 -0.10101316065E+00  0.19144109373E-01  0.89061318500E+00  0.88000000000E+00 0. -1.
        -11    1    4    4    0    0 -0.39951918864E-01  0.44927525100E-01 -0.94206451739E-02  0.60857604365E-01  0.51100000000E-03 0.  1.
         11    1    4    4    0    0 -0.34214632757E-01  0.61731157048E-01  0.33475211535E-02  0.70660058477E-01  0.51100000000E-03 0. -1.
</event>
<event>
 8    1  0.1041149E+005  0.1043930E+01  0.7957747E-01            NaN
         13   -1    0    0    0    0  0.00000000000E+00  0.00000000000E+00  0.74505805969E-08  0.10566000000E+00  0.10566000000E+00 0.  1.
     999900   -1    0    0    0    0 -0.00000000000E+00 -0.00000000000E+00 -0.74505805969E-08  0.93827000000E+00  0.93827000000E+00 0.  1.
     999902    2    1    2    0    0  0.49386861279E-02 -0.37764205057E-02 -0.22843748529E-01  0.10202553549E+01  0.10199806373E+01 0.  0.
     999903    2    3    3    0    0 -0.49206800677E-01 -0.11186398826E+00  0.38996370087E-01  0.12984036386E+00  0.20073417896E-01 0.  0.
         14    1    1    2    0    0 -0.49386861279E-02  0.37764205057E-02  0.22843748529E-01  0.23674645073E-01  0.00000000000E+00 0.  1.
     999901    1    3    3    0    0  0.54145486805E-01  0.10808756775E+00 -0.61840118616E-01  0.89041499107E+00  0.88000000000E+00 0. -1.
        -11    1    4    4    0    0 -0.19128721520E-01 -0.23135868338E-01  0.12064846346E-01  0.32357348919E-01  0.51100000000E-03 0. -1.
         11    1    4    4    0    0 -0.30078079157E-01 -0.88728119919E-01  0.26931523741E-01  0.97483014942E-01  0.51100000000E-03 0.  1.
</event>
<event>
 8    1  0.1041149E+005  0.1043930E+01  0.7957747E-01            NaN
         13   -1    0    0    0    0  0.00000000000E+00  0.00000000000E+00  0.74505805969E-08  0.10566000000E+00  0.10566000000E+00 0. -1.
     999900   -1    0    0    0    0 -0.00000000000E+00 -0.00000000000E+00 -0.74505805969E-08  0.93827000000E+00  0.93827000000E+00 0.  1.
     999902    2    1    2    0    0  0.33739913258E-02 -0.13087381199E-01 -0.19907182446E-01  0.10198684274E+01  0.10195845477E+01 0.  0.
     999903    2    3    3    0    0 -0.12197683545E+00 -0.27177874882E-01 -0.32682914250E-01  0.13078204737E+00  0.20464255733E-01 0.  0.
         14    1    1    2    0    0 -0.33739913258E-02  0.13087381199E-01  0.19907182446E-01  0.24061572622E-01  0.00000000000E+00 0. -1.
     999901    1    3    3    0    0  0.12535082677E+00  0.14090493684E-01  0.12775731804E-01  0.88908638000E+00  0.88000000000E+00 0. -1.
        -11    1    4    4    0    0 -0.62917855576E-01 -0.55105905687E-02 -0.10222950743E-01  0.63982755502E-01  0.51100000000E-03 0.  1.
         11    1    4    4    0    0 -0.59058979871E-01 -0.21667284314E-01 -0.22459963507E-01  0.66799291873E-01  0.51100000000E-03 0. -1.
</event>
<event>
 8    1  0.1041149E+005  0.1043930E+01  0.7957747E-01            NaN
         13   -1    0    0    0    0  0.00000000000E+00  0.00000000000E+00  0.74505805969E-08  0.10566000000E+00  0.10566000000E+00 0.  1.
     999900   -1    0    0    0    0 -0.00000000000E+00 -0.00000000000E+00 -0.74505805969E-08  0.93827000000E+00  0.93827000000E+00 0. -1.
     999902    2    1    2    0    0 -0.12185660593E-01  0.17473961567E-01  0.15659075305E-01  0.10174907054E+01  0.10171471375E+01 0.  0.
     999903    2    3    3    0    0  0.69354145170E-01  0.55065562999E-01  0.92553788565E-01  0.12958605666E+00  0.19599199502E-01 0.  0.
         14    1    1    2    0    0  0.12185660593E-01 -0.17473961567E-01 -0.15659075305E-01  0.26439294551E-01  0.00000000000E+00 0. -1.
     999901    1    3    3    0    0 -0.81539805763E-01 -0.37591601432E-01 -0.76894713260E-01  0.88790464879E+00  0.88000000000E+00 0. -1.
        -11    1    4    4    0    0  0.57899125992E-01  0.53169373366E-01  0.84706455483E-01  0.11556269197E+00  0.51100000000E-03 0.  1.
         11    1    4    4    0    0  0.11455019178E-01  0.18961896330E-02  0.78473330816E-02  0.14023364681E-01  0.51100000000E-03 0. -1.
</event>
<event>
 8    1  0.1041149E+005  0.1043930E+01  0.7957747E-01            NaN
         13   -1    0    0    0    0  0.00000000000E+00  0.00000000000E+00  0.74505805969E-08  0.10566000000E+00  0.10566000000E+00 0.  1.
     999900   -1    0    0    0    0 -0.00000000000E+00 -0.00000000000E+00 -0.74505805969E-08  0.93827000000E+00  0.93827000000E+00 0.  1.
     999902    2    1    2    0    0  0.95543771918E-02  0.19429145515E-01 -0.12203644003E-01  0.10190762931E+01  0.10187731762E+01 0.  0.
     999903    2    3    3    0    0 -0.10700106492E+00  0.66760135555E-01 -0.28106338855E-01  0.12998783328E+00  0.14167812956E-01 0.  0.
         14    1    1    2    0    0 -0.95543771918E-02 -0.19429145515E-01  0.12203644003E-01  0.24853706885E-01  0.00000000000E+00 0. -1.
     999901    1    3    3    0    0  0.11655544211E+00 -0.47330990040E-01  0.15902694852E-01  0.88908845983E+00  0.88000000000E+00 0.  1.
        -11    1    4    4    0    0 -0.39976193418E-01  0.17173665534E-01 -0.83972950410E-02  0.44314856572E-01  0.51100000000E-03 0.  1.
         11    1    4    4    0    0 -0.67024871504E-01  0.49586470021E-01 -0.19709043814E-01  0.85672976710E-01  0.51100000000E-03 0. -1.
</event>
<event>
 8    1  0.1041149E+005  0.1043930E+01  0.7957747E-01            NaN
         13   -1    0    0    0    0  0.00000000000E+00  0.00000000000E+00  0.74505805969E-08  0.10566000000E+00  0.10566000000E+00 0.  1.
     999900   -1    0    0    0    0 -0.00000000000E+00 -0.00000000000E+00 -0.74505805969E-08  0.93827000000E+00  0.93827000000E+00 0.  1.
     999902    2    1    2    0    0 -0.22458016650E-01  0.12334627921E-02  0.56236683422E-02  0.10207457470E+01  0.10204824204E+01 0.  0.
     999903    2    3    3    0    0 -0.98242593530E-01 -0.65743190673E-01  0.58467322754E-01  0.13337793936E+00  0.19936714205E-01 0.  0.
         14    1    1    2    0    0  0.22458016650E-01 -0.12334627921E-02 -0.56236683422E-02  0.23184253017E-01  0.00000000000E+00 0.  1.
     999901    1    3    3    0    0  0.75784576880E-01  0.66976653465E-01 -0.52843654412E-01  0.88736780763E+00  0.88000000000E+00 0.  1.
        -11    1    4    4    0    0 -0.49688023390E-01 -0.30713404805E-01  0.39706887890E-01  0.70633639083E-01  0.51100000000E-03 0. -1.
         11    1    4    4    0    0 -0.48554570140E-01 -0.35029785869E-01  0.18760434864E-01  0.62744300273E-01  0.51100000000E-03 0.  1.
</event>
<event>
 8    1  0.1230719E+005  0.1043930E+01  0.7957747E-01            NaN
         13   -1    0    0    0    0  0.00000000000E+00  0.00000000000E+00  0.74505805969E-08  0.10566000000E+00  0.10566000000E+00 0. -1.
     999900   -1    0    0    0    0 -0.00000000000E+00 -0.00000000000E+00 -0.74505805969E-08  0.93827000000E+00  0.93827000000E+00 0. -1.
     999902    2    1    2    0    0 -0.20469106744E-01 -0.10568121349E-01 -0.44612097726E-02  0.10204657312E+01  0.10201959305E+01 0.  0.
     999903    2    3    3    0    0  0.34861681960E-01 -0.39058343875E-01  0.11777734922E+00  0.12983929192E+00  0.15679497489E-01 0.  0.
         14    1    1    2    0    0  0.20469106744E-01  0.10568121349E-01  0.44612097726E-02  0.23464268844E-01  0.00000000000E+00 0. -1.
     999901    1    3    3    0    0 -0.55330788705E-01  0.28490222525E-01 -0.12223855899E+00  0.89062643923E+00  0.88000000000E+00 0. -1.
        -11    1    4    4    0    0  0.15126089817E-01 -0.13302779923E-01  0.63290136231E-01  0.66420365943E-01  0.51100000000E-03 0. -1.
         11    1    4    4    0    0  0.19735592143E-01 -0.25755563952E-01  0.54487212991E-01  0.63418925978E-01  0.51100000000E-03 0.  1.
</event>
<event>
 8    1  0.1041149E+005  0.1043930E+01  0.7957747E-01            NaN
         13   -1    0    0    0    0  0.00000000000E+00  0.00000000000E+00  0.74505805969E-08  0.10566000000E+00  0.10566000000E+00 0. -1.
     999900   -1    0    0    0    0 -0.00000000000E+00 -0.00000000000E+00 -0.74505805969E-08  0.93827000000E+00  0.93827000000E+00 0.  1.
     999902    2    1    2    0    0  0.17153216004E-01 -0.93414857277E-02  0.11987587655E-01  0.10210127918E+01  0.10207555645E+01 0.  0.
     999903    2    3    3    0    0 -0.87261439774E-01  0.69320559421E-01  0.64048946271E-01  0.12983350412E+00  0.18291321555E-01 0.  0.
         14    1    1    2    0    0 -0.17153216004E-01  0.93414857277E-02 -0.11987587655E-01  0.22917208221E-01  0.00000000000E+00 0.  1.
     999901    1    3    3    0    0  0.10441465578E+00 -0.78662045148E-01 -0.52061358616E-01  0.89117928766E+00  0.88000000000E+00 0.  1.
        -11    1    4    4    0    0 -0.25598099503E-02 -0.12624807372E-03  0.43850320212E-02  0.51047225571E-02  0.51100000000E-03 0. -1.
         11    1    4    4    0    0 -0.84701629824E-01  0.69446807494E-01  0.59663914250E-01  0.12472878156E+00  0.51100000000E-03 0.  1.
</event>
<event>
 8    1  0.1041149E+005  0.1043930E+01  0.7957747E-01            NaN
         13   -1    0    0    0    0  0.00000000000E+00  0.00000000000E+00  0.74505805969E-08  0.10566000000E+00  0.10566000000E+00 0.  1.
     999900   -1    0    0    0    0 -0.00000000000E+00 -0.00000000000E+00 -0.74505805969E-08  0.93827000000E+00  0.93827000000E+00 0.  1.
     999902    2    1    2    0    0  0.13972690627E-01  0.10032812547E-01  0.81009461020E-02  0.10249163539E+01  0.10247399737E+01 0.  0.
     999903    2    3    3    0    0 -0.12786261216E+00  0.22062655035E-01  0.22168178032E-01  0.13336722050E+00  0.21442459030E-01 0.  0.
         14    1    1    2    0    0 -0.13972690627E-01 -0.10032812547E-01 -0.81009461020E-02  0.19013646118E-01  0.00000000000E+00 0. -1.
     999901    1    3    3    0    0  0.14183530279E+00 -0.12029842488E-01 -0.14067231930E-01  0.89154913339E+00  0.88000000000E+00 0.  1.
        -11    1    4    4    0    0 -0.10389761062E+00  0.23369227027E-01  0.11554529033E-01  0.10711957117E+00  0.51100000000E-03 0. -1.
         11    1    4    4    0    0 -0.23965001538E-01 -0.13065719917E-02  0.10613648999E-01  0.26247649327E-01  0.51100000000E-03 0.  1.
</event>
<event>
 8    1  0.1041149E+005  0.1043930E+01  0.7957747E-01            NaN
         13   -1    0    0    0    0  0.00000000000E+00  0.00000000000E+00  0.74505805969E-08  0.10566000000E+00  0.10566000000E+00 0. -1.
     999900   -1    0    0    0    0 -0.00000000000E+00 -0.00000000000E+00 -0.74505805969E-08  0.93827000000E+00  0.93827000000E+00 0. -1.
     999902    2    1    2    0    0  0.76566605851E-02 -0.22075685037E-01 -0.10258584115E-02  0.10205416972E+01  0.10202736609E+01 0.  0.
     999903    2    3    3    0    0 -0.14455142864E-01  0.12293335360E+00 -0.26035793165E-01  0.12804965246E+00  0.19932144577E-01 0.  0.
         14    1    1    2    0    0 -0.76566605851E-02  0.22075685037E-01  0.10258584115E-02  0.23388302774E-01  0.00000000000E+00 0. -1.
     999901    1    3    3    0    0  0.22111803449E-01 -0.14500903863E+00  0.25009934754E-01  0.89249204477E+00  0.88000000000E+00 0.  1.
        -11    1    4    4    0    0 -0.21407886833E-02  0.67413646628E-01 -0.58521199478E-02  0.67702962688E-01  0.51100000000E-03 0.  1.
         11    1    4    4    0    0 -0.12314354181E-01  0.55519706969E-01 -0.20183673217E-01  0.60346689771E-01  0.51100000000E-03 0. -1.
</event>
<event>
 8    1  0.1041149E+005  0.1043930E+01  0.7957747E-01            NaN
         13   -1    0    0    0    0  0.00000000000E+00  0.00000000000E+00  0.74505805969E-08  0.10566000000E+00  0.10566000000E+00 0. -1.
     999900   -1    0    0    0    0 -0.00000000000E+00 -0.00000000000E+00 -0.74505805969E-08  0.93827000000E+00  0.93827000000E+00 0.  1.
     999902    2    1    2    0    0  0.10034021964E-01 -0.20597513663E-02 -0.19899546975E-01  0.10215488440E+01  0.10213036398E+01 0.  0.
     999903    2    3    3    0    0  0.95121066649E-01 -0.78933347612E-01 -0.46851990189E-01  0.13369987649E+00  0.20051366629E-01 0.  0.
         14    1    1    2    0    0 -0.10034021964E-01  0.20597513663E-02  0.19899546975E-01  0.22381155964E-01  0.00000000000E+00 0. -1.
     999901    1    3    3    0    0 -0.85087044685E-01  0.76873596246E-01  0.26952443214E-01  0.88784896754E+00  0.88000000000E+00 0.  1.
        -11    1    4    4    0    0  0.36860888916E-01 -0.43333762356E-01 -0.23204960477E-01  0.61443237246E-01  0.51100000000E-03 0. -1.
         11    1    4    4    0    0  0.58260177733E-01 -0.35599585257E-01 -0.23647029712E-01  0.72256639247E-01  0.51100000000E-03 0.  1.
</event>
<event>
 8    1  0.1041149E+005  0.1043930E+01  0.7957747E-01            NaN
         13   -1    0    0    0    0  0.00000000000E+00  0.00000000000E+00  0.74505805969E-08  0.10566000000E+00  0.10566000000E+00 0. -1.
     999900   -1    0    0    0    0 -0.00000000000E+00 -0.00000000000E+00 -0.74505805969E-08  0.93827000000E+00  0.93827000000E+00 0. -1.
     999902    2    1    2    0    0  0.12756032263E-01  0.17015733884E-01  0.96444323247E-02  0.10205790550E+01  0.10203118841E+01 0.  0.
     999903    2    3    3    0    0  0.40218897009E-01  0.72604434123E-01 -0.10013562711E+00  0.13159313046E+00  0.20016109431E-01 0.  0.
         14    1    1    2    0    0 -0.12756032263E-01 -0.17015733884E-01 -0.96444323247E-02  0.23350945025E-01  0.00000000000E+00 0. -1.
     999901    1    3    3    0    0 -0.27462864746E-01 -0.55588700239E-01  0.10978005943E+00  0.88898592451E+00  0.88000000000E+00 0. -1.
        -11    1    4    4    0    0  0.41144948568E-01  0.60771732000E-01 -0.83805915131E-01  0.11139929414E+00  0.51100000000E-03 0.  1.
         11    1    4    4    0    0 -0.92605155922E-03  0.11832702123E-01 -0.16329711980E-01  0.20193836321E-01  0.51100000000E-03 0. -1.
</event>
<event>
 8    1  0.1041149E+005  0.1043930E+01  0.7957747E-01            NaN
         13   -1    0    0    0    0  0.00000000000E+00  0.00000000000E+00  0.74505805969E-08  0.10566000000E+00  0.10566000000E+00 0. -1.
     999900   -1    0    0    0    0 -0.00000000000E+00 -0.00000000000E+00 -0.74505805969E-08  0.93827000000E+00  0.93827000000E+00 0. -1.
     999902    2    1    2    0    0  0.86011050853E-02 -0.17089502468E-01  0.16387171079E-01  0.10187393375E+01  0.10184278414E+01 0.  0.
     999903    2    3    3    0    0  0.65843852848E-01 -0.16952081435E-01 -0.10691623855E+00  0.12830097245E+00  0.20180967357E-01 0.  0.
         14    1    1    2    0    0 -0.86011050853E-02  0.17089502468E-01 -0.16387171079E-01  0.25190662541E-01  0.00000000000E+00 0.  1.
     999901    1    3    3    0    0 -0.57242747763E-01 -0.13742103266E-03  0.12330340963E+00  0.89043836501E+00  0.88000000000E+00 0.  1.
        -11    1    4    4    0    0  0.53989021938E-01 -0.13363131542E-01 -0.70294710791E-01  0.89638135080E-01  0.51100000000E-03 0. -1.
         11    1    4    4    0    0  0.11854830910E-01 -0.35889498935E-02 -0.36621527756E-01  0.38662837369E-01  0.51100000000E-03 0.  1.
</event>
<event>
 8    1  0.1041149E+005  0.1043930E+01  0.7957747E-01            NaN
         13   -1    0    0    0    0  0.00000000000E+00  0.00000000000E+00  0.74505805969E-08  0.10566000000E+00  0.10566000000E+00 0.  1.
     999900   -1    0    0    0    0 -0.00000000000E+00 -0.00000000000E+00 -0.74505805969E-08  0.93827000000E+00  0.93827000000E+00 0. -1.
     999902    2    1    2    0    0 -0.10779744735E-01  0.24114975354E-02 -0.20371512533E-01  0.10207563784E+01  0.10204932960E+01 0.  0.
     999903    2    3    3    0    0 -0.85085076302E-01  0.98978707338E-01  0.23784022388E-02  0.13206966926E+00  0.20012146968E-01 0.  0.
         14    1    1    2    0    0  0.10779744735E-01 -0.24114975354E-02  0.20371512533E-01  0.23173621637E-01  0.00000000000E+00 0.  1.
     999901    1    3    3    0    0  0.74305331567E-01 -0.96567209803E-01 -0.22749914772E-01  0.88868670910E+00  0.88000000000E+00 0. -1.
        -11    1    4    4    0    0 -0.48291860287E-01  0.44414256053E-01 -0.52213589168E-02  0.65819857343E-01  0.51100000000E-03 0.  1.
         11    1    4    4    0    0 -0.36793216016E-01  0.54564451285E-01  0.75997611556E-02  0.66249811920E-01  0.51100000000E-03 0. -1.
</event>
<event>
 8    1  0.1041149E+005  0.1043930E+01  0.7957747E-01            NaN
         13   -1    0    0    0    0  0.00000000000E+00  0.00000000000E+00  0.74505805969E-08  0.10566000000E+00  0.10566000000E+00 0.  1.
     999900   -1    0    0    0    0 -0.00000000000E+00 -0.00000000000E+00 -0.74505805969E-08  0.93827000000E+00  0.93827000000E+00 0. -1.
     999902    2    1    2    0    0  0.19617819978E-01 -0.10311395639E-01  0.86432489448E-02  0.10201415681E+01  0.10198641721E+01 0.  0.
     999903    2    3    3    0    0  0.26502899136E-01  0.11871846864E+00  0.41581397177E-01  0.13009604577E+00  0.19987247802E-01 0.  0.
         14    1    1    2    0    0 -0.19617819978E-01  0.10311395639E-01 -0.86432489448E-02  0.23788431916E-01  0.00000000000E+00 0. -1.
     999901    1    3    3    0    0 -0.68850791586E-02 -0.12902986428E+00 -0.32938148232E-01  0.89004552232E+00  0.88000000000E+00 0.  1.
        -11    1    4    4    0    0  0.77234002518E-02  0.14581702356E-01  0.30115779502E-03  0.16511473952E-01  0.51100000000E-03 0.  1.
         11    1    4    4    0    0  0.18779498884E-01  0.10413676628E+00  0.41280239382E-01  0.11358457181E+00  0.51100000000E-03 0. -1.
</event>
<event>
 8    1  0.1041149E+005  0.1043930E+01  0.7957747E-01            NaN
         13   -1    0    0    0    0  0.00000000000E+00  0.00000000000E+00  0.74505805969E-08  0.10566000000E+00  0.10566000000E+00 0. -1.
     999900   -1    0    0    0    0 -0.00000000000E+00 -0.00000000000E+00 -0.74505805969E-08  0.93827000000E+00  0.93827000000E+00 0.  1.
     999902    2    1    2    0    0  0.86447035114E-02 -0.20710956910E-01  0.75190504720E-02  0.10202612283E+01  0.10199866485E+01 0.  0.
     999903    2    3    3    0    0  0.90654892341E-01  0.71793626455E-01 -0.53875430762E-01  0.12950197273E+00  0.22261280200E-01 0.  0.
         14    1    1    2    0    0 -0.86447035114E-02  0.20710956910E-01 -0.75190504720E-02  0.23668771724E-01  0.00000000000E+00 0.  1.
     999901    1    3    3    0    0 -0.82010188830E-01 -0.92504583365E-01  0.61394481234E-01  0.89075925555E+00  0.88000000000E+00 0.  1.
        -11    1    4    4    0    0  0.49850049403E-01  0.46897622042E-01 -0.41794039365E-01  0.80196117275E-01  0.51100000000E-03 0.  1.
         11    1    4    4    0    0  0.40804842938E-01  0.24896004414E-01 -0.12081391397E-01  0.49305855454E-01  0.51100000000E-03 0. -1.
</event>
<event>
 8    1  0.1041149E+005  0.1043930E+01  0.7957747E-01            NaN
         13   -1    0    0    0    0  0.00000000000E+00  0.00000000000E+00  0.74505805969E-08  0.10566000000E+00  0.10566000000E+00 0. -1.
     999900   -1    0    0    0    0 -0.00000000000E+00 -0.00000000000E+00 -0.74505805969E-08  0.93827000000E+00  0.93827000000E+00 0. -1.
     999902    2    1    2    0    0  0.21317949059E-01 -0.12704698785E-01  0.12483462950E-01  0.10161504901E+01  0.10157707012E+01 0.  0.
     999903    2    3    3    0    0 -0.77375060237E-01 -0.54948566433E-01 -0.79045493276E-01  0.12491404320E+00  0.18683770572E-01 0.  0.
         14    1    1    2    0    0 -0.21317949059E-01  0.12704698785E-01 -0.12483462950E-01  0.27779509905E-01  0.00000000000E+00 0.  1.
     999901    1    3    3    0    0  0.98693009296E-01  0.42243867647E-01  0.91528956227E-01  0.89123644689E+00  0.88000000000E+00 0.  1.
        -11    1    4    4    0    0 -0.49990293932E-01 -0.44943580634E-01 -0.59819626434E-01  0.89986686545E-01  0.51100000000E-03 0. -1.
         11    1    4    4    0    0 -0.27384766305E-01 -0.10004985798E-01 -0.19225866843E-01  0.34927356660E-01  0.51100000000E-03 0.  1.
</event>
<event>
 8    1  0.1041149E+005  0.1043930E+01  0.7957747E-01            NaN
         13   -1    0    0    0    0  0.00000000000E+00  0.00000000000E+00  0.74505805969E-08  0.10566000000E+00  0.10566000000E+00 0. -1.
     999900   -1    0    0    0    0 -0.00000000000E+00 -0.00000000000E+00 -0.74505805969E-08  0.93827000000E+00  0.93827000000E+00 0.  1.
     999902    2    1    2    0    0 -0.23842964448E-01 -0.23880685575E-02 -0.71422581190E-04  0.10199676352E+01  0.10196861193E+01 0.  0.
     999903    2    3    3    0    0 -0.73880084153E-01  0.48467068494E-01 -0.95869028581E-01  0.13189830254E+00  0.19974183567E-01 0.  0.
         14    1    1    2    0    0  0.23842964448E-01  0.23880685575E-02  0.71422581190E-04  0.23962364789E-01  0.00000000000E+00 0. -1.
     999901    1    3    3    0    0  0.50037119705E-01 -0.50855137052E-01  0.95797606000E-01  0.88806933267E+00  0.88000000000E+00 0.  1.
        -11    1    4    4    0    0 -0.34337471532E-01  0.12248800955E-01 -0.45718337795E-01  0.58476684309E-01  0.51100000000E-03 0.  1.
         11    1    4    4    0    0 -0.39542612621E-01  0.36218267539E-01 -0.50150690787E-01  0.73421618232E-01  0.51100000000E-03 0. -1.
</event>
<event>
 8    1  0.1041149E+005  0.1043930E+01  0.7957747E-01            NaN
         13   -1    0    0    0    0  0.00000000000E+00  0.00000000000E+00  0.74505805969E-08  0.10566000000E+00  0.10566000000E+00 0.  1.
     999900   -1    0    0    0    0 -0.00000000000E+00 -0.00000000000E+00 -0.74505805969E-08  0.93827000000E+00  0.93827000000E+00 0.  1.
     999902    2    1    2    0    0  0.20878796675E-01  0.11742304384E-02 -0.11322727640E-01  0.10201496062E+01  0.10198723998E+01 0.  0.
     999903    2    3    3    0    0 -0.59886398439E-01  0.39060128243E-01  0.10421598563E+00  0.12812519384E+00  0.21048023667E-01 0.  0.
         14    1    1    2    0    0 -0.20878796675E-01 -0.11742304384E-02  0.11322727640E-01  0.23780393793E-01  0.00000000000E+00 0.  1.
     999901    1    3    3    0    0  0.80765195114E-01 -0.37885897804E-01 -0.11553871327E+00  0.89202441237E+00  0.88000000000E+00 0.  1.
        -11    1    4    4    0    0 -0.23327663534E-01  0.26395934594E-01  0.57867652213E-01  0.67748443102E-01  0.51100000000E-03 0. -1.
         11    1    4    4    0    0 -0.36558734905E-01  0.12664193649E-01  0.46348333414E-01  0.60376750739E-01  0.51100000000E-03 0.  1.
</event>
<event>
 8    1  0.1041149E+005  0.1043930E+01  0.7957747E-01            NaN
         13   -1    0    0    0    0  0.00000000000E+00  0.00000000000E+00  0.74505805969E-08  0.10566000000E+00  0.10566000000E+00 0.  1.
     999900   -1    0    0    0    0 -0.00000000000E+00 -0.00000000000E+00 -0.74505805969E-08  0.93827000000E+00  0.93827000000E+00 0. -1.
     999902    2    1    2    0    0  0.99630599371E-02 -0.19437631015E-01 -0.83679602309E-02  0.10205396853E+01  0.10202716023E+01 0.  0.
     999903    2    3    3    0    0 -0.75654586764E-01 -0.26685136297E-01 -0.10209042408E+00  0.13140144635E+00  0.20203277363E-01 0.  0.
         14    1    1    2    0    0 -0.99630599371E-02  0.19437631015E-01  0.83679602309E-02  0.23390314688E-01  0.00000000000E+00 0.  1.
     999901    1    3    3    0    0  0.85617646701E-01  0.72475052820E-02  0.93722463847E-01  0.88913823896E+00  0.88000000000E+00 0.  1.
        -11    1    4    4    0    0 -0.36181398021E-01 -0.33594753197E-02 -0.37807934390E-01  0.52441211475E-01  0.51100000000E-03 0. -1.
         11    1    4    4    0    0 -0.39473188743E-01 -0.23325660977E-01 -0.64282489688E-01  0.78960234872E-01  0.51100000000E-03 0.  1.
</event>
<event>
 8    1  0.1041149E+005  0.1043930E+01  0.7957747E-01            NaN
         13   -1    0    0    0    0  0.00000000000E+00  0.00000000000E+00  0.74505805969E-08  0.10566000000E+00  0.10566000000E+00 0.  1.
     999900   -1    0    0    0    0 -0.00000000000E+00 -0.00000000000E+00 -0.74505805969E-08  0.93827000000E+00  0.93827000000E+00 0. -1.
     999902    2    1    2    0    0  0.11979931021E-01 -0.62487210871E-02 -0.18207258313E-01  0.10212568988E+01  0.10210051831E+01 0.  0.
     999903    2    3    3    0    0  0.73053197294E-01  0.10568205749E+00  0.17361335115E-01  0.13135602349E+00  0.21154716724E-01 0.  0.
         14    1    1    2    0    0 -0.11979931021E-01  0.62487210871E-02  0.18207258313E-01  0.22673101194E-01  0.00000000000E+00 0.  1.
     999901    1    3    3    0    0 -0.61073266273E-01 -0.11193077858E+00 -0.35568593428E-01  0.88990087531E+00  0.88000000000E+00 0. -1.
        -11    1    4    4    0    0  0.71425963657E-02  0.22116317485E-02  0.16397105921E-02  0.76718817548E-02  0.51100000000E-03 0.  1.
         11    1    4    4    0    0  0.65910600928E-01  0.10347042574E+00  0.15721624523E-01  0.12368414174E+00  0.51100000000E-03 0. -1.
</event>
<event>
 8    1  0.1041149E+005  0.1043930E+01  0.7957747E-01            NaN
         13   -1    0    0    0    0  0.00000000000E+00  0.00000000000E+00  0.74505805969E-08  0.10566000000E+00  0.10566000000E+00 0. -1.
     999900   -1    0    0    0    0 -0.00000000000E+00 -0.00000000000E+00 -0.74505805969E-08  0.93827000000E+00  0.93827000000E+00 0. -1.
     999902    2    1    2    0    0  0.58611030105E-02  0.12555884396E-01 -0.19568757389E-01  0.10199521138E+01  0.10196702287E+01 0.  0.
     999903    2    3    3    0    0 -0.42098263476E-01 -0.11824230684E+00  0.15781084084E-01  0.12829193246E+00  0.21360487021E-01 0.  0.
         14    1    1    2    0    0 -0.58611030105E-02 -0.12555884396E-01  0.19568757389E-01  0.23977886212E-01  0.00000000000E+00 0. -1.
     999901    1    3    3    0    0  0.47959366487E-01  0.13079819124E+00 -0.35349841472E-01  0.89166018132E+00  0.88000000000E+00 0.  1.
        -11    1    4    4    0    0 -0.19552921606E-01 -0.63169338546E-01 -0.20713375649E-02  0.66160665323E-01  0.51100000000E-03 0. -1.
         11    1    4    4    0    0 -0.22545341871E-01 -0.55072968295E-01  0.17852421648E-01  0.62131267142E-01  0.51100000000E-03 0.  1.
</event>
<event>
 8    1  0.1041149E+005  0.1043930E+01  0.7957747E-01            NaN
         13   -1    0    0    0    0  0.00000000000E+00  0.00000000000E+00  0.74505805969E-08  0.10566000000E+00  0.10566000000E+00 0.  1.
     999900   -1    0    0    0    0 -0.00000000000E+00 -0.00000000000E+00 -0.74505805969E-08  0.93827000000E+00  0.93827000000E+00 0. -1.
     999902    2    1    2    0    0 -0.69085258214E-03 -0.39827596303E-03 -0.24015145612E-01  0.10199016185E+01  0.10196185307E+01 0.  0.
     999903    2    3    3    0    0  0.11076530305E+00  0.59104065926E-01 -0.30876124573E-01  0.13085152068E+00  0.20162897259E-01 0.  0.
         14    1    1    2    0    0  0.69085258214E-03  0.39827596303E-03  0.24015145612E-01  0.24028381548E-01  0.00000000000E+00 0.  1.
     999901    1    3    3    0    0 -0.11145615563E+00 -0.59502341889E-01  0.68609789604E-02  0.88905009777E+00  0.88000000000E+00 0.  1.
        -11    1    4    4    0    0  0.22585200009E-01  0.20288334184E-01 -0.27746809701E-02  0.30490453242E-01  0.51100000000E-03 0.  1.
         11    1    4    4    0    0  0.88180103044E-01  0.38815731742E-01 -0.28101443603E-01  0.10036106744E+00  0.51100000000E-03 0. -1.
</event>
<event>
 8    1  0.1041149E+005  0.1043930E+01  0.7957747E-01            NaN
         13   -1    0    0    0    0  0.00000000000E+00  0.00000000000E+00  0.74505805969E-08  0.10566000000E+00  0.10566000000E+00 0. -1.
     999900   -1    0    0    0    0 -0.00000000000E+00 -0.00000000000E+00 -0.74505805969E-08  0.93827000000E+00  0.93827000000E+00 0. -1.
     999902    2    1    2    0    0 -0.59745462078E-02  0.13960247238E-01  0.18811261250E-01  0.10197546560E+01  0.10194680531E+01 0.  0.
     999903    2    3    3    0    0  0.83294035541E-01 -0.47508335117E-01 -0.81710797614E-01  0.12742514817E+00  0.19120033432E-01 0.  0.
         14    1    1    2    0    0  0.59745462078E-02 -0.13960247238E-01 -0.18811261250E-01  0.24175343951E-01  0.00000000000E+00 0.  1.
     999901    1    3    3    0    0 -0.89268581748E-01  0.61468582355E-01  0.10052205886E+00  0.89232950787E+00  0.88000000000E+00 0. -1.
        -11    1    4    4    0    0  0.63484052895E-01 -0.44765744211E-01 -0.62717620961E-01  0.99839661090E-01  0.51100000000E-03 0. -1.
         11    1    4    4    0    0  0.19809982646E-01 -0.27425909069E-02 -0.18993176653E-01  0.27585487084E-01  0.51100000000E-03 0.  1.
</event>
<event>
 8    1  0.1041149E+005  0.1043930E+01  0.7957747E-01            NaN
         13   -1    0    0    0    0  0.00000000000E+00  0.00000000000E+00  0.74505805969E-08  0.10566000000E+00  0.10566000000E+00 0. -1.
     999900   -1    0    0    0    0 -0.00000000000E+00 -0.00000000000E+00 -0.74505805969E-08  0.93827000000E+00  0.93827000000E+00 0.  1.
     999902    2    1    2    0    0 -0.76920161697E-02  0.15361074076E-01 -0.16353862321E-01  0.10202112622E+01  0.10199355083E+01 0.  0.
     999903    2    3    3    0    0 -0.95475734347E-01 -0.22362316523E-01  0.81649697723E-01  0.12963070260E+00  0.22841997918E-01 0.  0.
         14    1    1    2    0    0  0.76920161697E-02 -0.15361074076E-01  0.16353862321E-01  0.23718737790E-01  0.00000000000E+00 0. -1.
     999901    1    3    3    0    0  0.87783718177E-01  0.37723390599E-01 -0.98003560044E-01  0.89058055961E+00  0.88000000000E+00 0.  1.
        -11    1    4    4    0    0 -0.50231407501E-01 -0.10516517485E-01  0.28031727261E-01  0.58479315093E-01  0.51100000000E-03 0.  1.
         11    1    4    4    0    0 -0.45244326845E-01 -0.11845799038E-01  0.53617970462E-01  0.71151387506E-01  0.51100000000E-03 0. -1.
</event>
<event>
 8    1  0.1041149E+005  0.1043930E+01  0.7957747E-01            NaN
         13   -1    0    0    0    0  0.00000000000E+00  0.00000000000E+00  0.74505805969E-08  0.10566000000E+00  0.10566000000E+00 0. -1.
     999900   -1    0    0    0    0 -0.00000000000E+00 -0.00000000000E+00 -0.74505805969E-08  0.93827000000E+00  0.93827000000E+00 0. -1.
     999902    2    1    2    0    0 -0.10899309215E-01  0.79024464122E-02  0.19548807412E-01  0.10201939626E+01  0.10199178015E+01 0.  0.
     999903    2    3    3    0    0  0.32448235649E-01  0.63394425165E-01  0.11027137324E+00  0.13273187703E+00  0.19652844238E-01 0.  0.
         14    1    1    2    0    0  0.10899309215E-01 -0.79024464122E-02 -0.19548807412E-01  0.23736037409E-01  0.00000000000E+00 0.  1.
     999901    1    3    3    0    0 -0.43347544864E-01 -0.55491978753E-01 -0.90722565825E-01  0.88746208556E+00  0.88000000000E+00 0. -1.
        -11    1    4    4    0    0  0.21927470887E-01  0.43022630172E-01  0.56824680223E-01  0.74572555876E-01  0.51100000000E-03 0. -1.
         11    1    4    4    0    0  0.10520764761E-01  0.20371794993E-01  0.53446693014E-01  0.58159321158E-01  0.51100000000E-03 0.  1.
</event>
<event>
 8    1  0.1041149E+005  0.1043930E+01  0.7957747E-01            NaN
         13   -1    0    0    0    0  0.00000000000E+00  0.00000000000E+00  0.74505805969E-08  0.10566000000E+00  0.10566000000E+00 0.  1.
     999900   -1    0    0    0    0 -0.00000000000E+00 -0.00000000000E+00 -0.74505805969E-08  0.93827000000E+00  0.93827000000E+00 0.  1.
     999902    2    1    2    0    0  0.53031520342E-02 -0.12356799918E-02 -0.26206839035E-01  0.10171634399E+01  0.10168111992E+01 0.  0.
     999903    2    3    3    0    0  0.11255906109E+00 -0.54941544697E-01 -0.23483237225E-01  0.12902180260E+00  0.20175419420E-01 0.  0.
         14    1    1    2    0    0 -0.53031520342E-02  0.12356799918E-02  0.26206839035E-01  0.26766560084E-01  0.00000000000E+00 0.  1.
     999901    1    3    3    0    0 -0.10725590905E+00  0.53705864705E-01 -0.27236018096E-02  0.88814163732E+00  0.88000000000E+00 0.  1.
        -11    1    4    4    0    0  0.97925766025E-01 -0.54695617851E-01 -0.19538452877E-01  0.11385551601E+00  0.51100000000E-03 0.  1.
         11    1    4    4    0    0  0.14633295062E-01 -0.24592684572E-03 -0.39447843483E-02  0.15166286590E-01  0.51100000000E-03 0. -1.
</event>
<event>
 8    1  0.1041149E+005  0.1043930E+01  0.7957747E-01            NaN
         13   -1    0    0    0    0  0.00000000000E+00  0.00000000000E+00  0.74505805969E-08  0.10566000000E+00  0.10566000000E+00 0.  1.
     999900   -1    0    0    0    0 -0.00000000000E+00 -0.00000000000E+00 -0.74505805969E-08  0.93827000000E+00  0.93827000000E+00 0. -1.
     999902    2    1    2    0    0 -0.53098239869E-03  0.21584262861E-01 -0.77389810640E-02  0.10209941291E+01  0.10207364780E+01 0.  0.
     999903    2    3    3    0    0  0.12860355837E+00 -0.71985180043E-02 -0.15554503355E-01  0.13106982869E+00  0.18618902551E-01 0.  0.
         14    1    1    2    0    0  0.53098239869E-03 -0.21584262861E-01  0.77389810640E-02  0.22935870889E-01  0.00000000000E+00 0. -1.
     999901    1    3    3    0    0 -0.12913454076E+00  0.28782780865E-01  0.78155222911E-02  0.88992430042E+00  0.88000000000E+00 0. -1.
        -11    1    4    4    0    0  0.54835076783E-01  0.88553713443E-03  0.17292510536E-02  0.54871862115E-01  0.51100000000E-03 0. -1.
         11    1    4    4    0    0  0.73768481582E-01 -0.80840551387E-02 -0.17283754409E-01  0.76197966573E-01  0.51100000000E-03 0.  1.
</event>
<event>
 8    1  0.1041149E+005  0.1043930E+01  0.7957747E-01            NaN
         13   -1    0    0    0    0  0.00000000000E+00  0.00000000000E+00  0.74505805969E-08  0.10566000000E+00  0.10566000000E+00 0. -1.
     999900   -1    0    0    0    0 -0.00000000000E+00 -0.00000000000E+00 -0.74505805969E-08  0.93827000000E+00  0.93827000000E+00 0.  1.
     999902    2    1    2    0    0 -0.19041899313E-01 -0.14312688481E-01 -0.57557404831E-02  0.10194233574E+01  0.10191287486E+01 0.  0.
     999903    2    3    3    0    0 -0.47142038203E-01 -0.11980487858E+00  0.22490512786E-01  0.13222773595E+00  0.20069137774E-01 0.  0.
         14    1    1    2    0    0  0.19041899313E-01  0.14312688481E-01  0.57557404831E-02  0.24506642559E-01  0.00000000000E+00 0.  1.
     999901    1    3    3    0    0  0.28100138890E-01  0.10549219010E+00 -0.28246253270E-01  0.88719562150E+00  0.88000000000E+00 0.  1.
        -11    1    4    4    0    0 -0.40515543279E-01 -0.10204958619E+00  0.11718874052E-01  0.11042291619E+00  0.51100000000E-03 0. -1.
         11    1    4    4    0    0 -0.66264949235E-02 -0.17755292383E-01  0.10771638735E-01  0.21804819757E-01  0.51100000000E-03 0.  1.
</event>
<event>
 8    1  0.1041149E+005  0.1043930E+01  0.7957747E-01            NaN
         13   -1    0    0    0    0  0.00000000000E+00  0.00000000000E+00  0.74505805969E-08  0.10566000000E+00  0.10566000000E+00 0.  1.
     999900   -1    0    0    0    0 -0.00000000000E+00 -0.00000000000E+00 -0.74505805969E-08  0.93827000000E+00  0.93827000000E+00 0.  1.
     999902    2    1    2    0    0  0.77229916194E-02  0.24943483810E-01  0.18073288952E-02  0.10177558062E+01  0.10174191823E+01 0.  0.
     999903    2    3    3    0    0  0.28213400558E-02 -0.30155625156E-01 -0.12215005669E+00  0.12734838739E+00  0.19484705138E-01 0.  0.
         14    1    1    2    0    0 -0.77229916194E-02 -0.24943483810E-01 -0.18073288952E-02  0.26174193815E-01  0.00000000000E+00 0. -1.
     999901    1    3    3    0    0  0.49016515636E-02  0.55099108966E-01  0.12395738559E+00  0.89040741879E+00  0.88000000000E+00 0. -1.
        -11    1    4    4    0    0  0.25547979868E-02 -0.12767964149E-01 -0.21010494887E-01  0.24723468965E-01  0.51100000000E-03 0.  1.
         11    1    4    4    0    0  0.26654206898E-03 -0.17387661008E-01 -0.10113956180E+00  0.10262491843E+00  0.51100000000E-03 0. -1.
</event>
<event>
 8    1  0.1041149E+005  0.1043930E+01  0.7957747E-01            NaN
         13   -1    0    0    0    0  0.00000000000E+00  0.00000000000E+00  0.74505805969E-08  0.10566000000E+00  0.10566000000E+00 0.  1.
     999900   -1    0    0    0    0 -0.00000000000E+00 -0.00000000000E+00 -0.74505805969E-08  0.93827000000E+00  0.93827000000E+00 0. -1.
     999902    2    1    2    0    0 -0.38785584859E-02  0.77476436988E-02  0.24032049918E-01  0.10183837944E+01  0.10180633301E+01 0.  0.
     999903    2    3    3    0    0 -0.11490705399E+00  0.52287087105E-01 -0.18214261595E-01  0.12928546479E+00  0.21104538490E-01 0.  0.
         14    1    1    2    0    0  0.38785584859E-02 -0.77476436988E-02 -0.24032049918E-01  0.25546205630E-01  0.00000000000E+00 0. -1.
     999901    1    3    3    0    0  0.11102849550E+00 -0.44539443406E-01  0.42246311513E-01  0.88909832958E+00  0.88000000000E+00 0.  1.
        -11    1    4    4    0    0 -0.47085611094E-01  0.32689439803E-01 -0.59612315550E-02  0.57632036658E-01  0.51100000000E-03 0.  1.
         11    1    4    4    0    0 -0.67821442896E-01  0.19597647302E-01 -0.12253030040E-01  0.71653428127E-01  0.51100000000E-03 0. -1.
</event>
<event>
 8    1  0.1041149E+005  0.1043930E+01  0.7957747E-01            NaN
         13   -1    0    0    0    0  0.00000000000E+00  0.00000000000E+00  0.74505805969E-08  0.10566000000E+00  0.10566000000E+00 0.  1.
     999900   -1    0    0    0    0 -0.00000000000E+00 -0.00000000000E+00 -0.74505805969E-08  0.93827000000E+00  0.93827000000E+00 0. -1.
     999902    2    1    2    0    0  0.33106534234E-01  0.10504474634E-01 -0.11679708657E-01  0.10072857345E+01  0.10066189690E+01 0.  0.
     999903    2    3    3    0    0 -0.64590543802E-01  0.87891370526E-01 -0.41094422384E-01  0.11801711591E+00  0.18505586578E-01 0.  0.
         14    1    1    2    0    0 -0.33106534234E-01 -0.10504474634E-01  0.11679708657E-01  0.36644265453E-01  0.00000000000E+00 0. -1.
     999901    1    3    3    0    0  0.97697078036E-01 -0.77386895892E-01  0.29414713727E-01  0.88926861864E+00  0.88000000000E+00 0. -1.
        -11    1    4    4    0    0 -0.30587483478E-01  0.30175902704E-01 -0.97744272586E-02  0.44067899867E-01  0.51100000000E-03 0.  1.
         11    1    4    4    0    0 -0.34003060324E-01  0.57715467822E-01 -0.31319995125E-01  0.73949216040E-01  0.51100000000E-03 0. -1.
</event>
<event>
 8    1  0.1041149E+005  0.1043930E+01  0.7957747E-01            NaN
         13   -1    0    0    0    0  0.00000000000E+00  0.00000000000E+00  0.74505805969E-08  0.10566000000E+00  0.10566000000E+00 0.  1.
     999900   -1    0    0    0    0 -0.00000000000E+00 -0.00000000000E+00 -0.74505805969E-08  0.93827000000E+00  0.93827000000E+00 0.  1.
     999902    2    1    2    0    0  0.21632944145E-01 -0.65494078830E-02  0.58950875065E-02  0.10205712528E+01  0.10203039012E+01 0.  0.
     999903    2    3    3    0    0 -0.12138637389E+00  0.31789983036E-01 -0.15505334956E-01  0.12794456018E+00  0.19599496894E-01 0.  0.
         14    1    1    2    0    0 -0.21632944145E-01  0.65494078830E-02 -0.58950875065E-02  0.23358747242E-01  0.00000000000E+00 0.  1.
     999901    1    3    3    0    0  0.14301931804E+00 -0.38339390919E-01  0.21400422463E-01  0.89262669258E+00  0.88000000000E+00 0. -1.
        -11    1    4    4    0    0 -0.72460457158E-01  0.28680200799E-01 -0.11130841140E-01  0.78722477825E-01  0.51100000000E-03 0. -1.
         11    1    4    4    0    0 -0.48925916734E-01  0.31097822364E-02 -0.43744938167E-02  0.49222082351E-01  0.51100000000E-03 0.  1.
</event>
<event>
 8    1  0.1041149E+005  0.1043930E+01  0.7957747E-01            NaN
         13   -1    0    0    0    0  0.00000000000E+00  0.00000000000E+00  0.74505805969E-08  0.10566000000E+00  0.10566000000E+00 0.  1.
     999900   -1    0    0    0    0 -0.00000000000E+00 -0.00000000000E+00 -0.74505805969E-08  0.93827000000E+00  0.93827000000E+00 0. -1.
     999902    2    1    2    0    0 -0.21066214349E-01  0.80571460706E-02 -0.13152550151E-02  0.10213372382E+01  0.10210873230E+01 0.  0.
     999903    2    3    3    0    0 -0.12020602480E+00  0.86543876715E-02 -0.55293125997E-01  0.13412662664E+00  0.20204835226E-01 0.  0.
         14    1    1    2    0    0  0.21066214349E-01 -0.80571460706E-02  0.13152550151E-02  0.22592761796E-01  0.00000000000E+00 0.  1.
     999901    1    3    3    0    0  0.99139810454E-01 -0.59724160085E-03  0.53977870982E-01  0.88721061156E+00  0.88000000000E+00 0.  1.
        -11    1    4    4    0    0 -0.96692113317E-01  0.14972366556E-01 -0.44321401573E-01  0.10741594061E+00  0.51100000000E-03 0.  1.
         11    1    4    4    0    0 -0.23513911487E-01 -0.63179788849E-02 -0.10971724424E-01  0.26710686035E-01  0.51100000000E-03 0. -1.
</event>
<event>
 8    1  0.1245552E+005  0.1043930E+01  0.7957747E-01            NaN
         13   -1    0    0    0    0  0.00000000000E+00  0.00000000000E+00  0.74505805969E-08  0.10566000000E+00  0.10566000000E+00 0. -1.
     999900   -1    0    0    0    0 -0.00000000000E+00 -0.00000000000E+00 -0.74505805969E-08  0.93827000000E+00  0.93827000000E+00 0. -1.
     999902    2    1    2    0    0 -0.15847040769E-01  0.68933287843E-02  0.15757024986E-01  0.10205434543E+01  0.10202754587E+01 0.  0.
     999903    2    3    3    0    0 -0.40071949843E-01  0.16316455471E-01  0.12466083803E+00  0.13344950098E+00  0.19911225237E-01 0.  0.
         14    1    1    2    0    0  0.15847040769E-01 -0.68933287843E-02 -0.15757024986E-01  0.23386545689E-01  0.00000000000E+00 0. -1.
     999901    1    3    3    0    0  0.24224909074E-01 -0.94231266863E-02 -0.10890381305E+00  0.88709395333E+00  0.88000000000E+00 0. -1.
        -11    1    4    4    0    0 -0.15290288060E-01  0.16940839179E-01  0.58614554508E-01  0.62902401084E-01  0.51100000000E-03 0.  1.
         11    1    4    4    0    0 -0.24781661783E-01 -0.62438370808E-03  0.66046283524E-01  0.70547099898E-01  0.51100000000E-03 0. -1.
</event>
<event>
 8    1  0.1041149E+005  0.1043930E+01  0.7957747E-01            NaN
         13   -1    0    0    0    0  0.00000000000E+00  0.00000000000E+00  0.74505805969E-08  0.10566000000E+00  0.10566000000E+00 0. -1.
     999900   -1    0    0    0    0 -0.00000000000E+00 -0.00000000000E+00 -0.74505805969E-08  0.93827000000E+00  0.93827000000E+00 0. -1.
     999902    2    1    2    0    0  0.21983608871E-01  0.89312356433E-02 -0.30810799423E-02  0.10200022111E+01  0.10197215167E+01 0.  0.
     999903    2    3    3    0    0 -0.95464520340E-01  0.74058680911E-01 -0.41042374906E-01  0.12900462012E+00  0.18961872581E-01 0.  0.
         14    1    1    2    0    0 -0.21983608871E-01 -0.89312356433E-02  0.30810799423E-02  0.23927788922E-01  0.00000000000E+00 0. -1.
     999901    1    3    3    0    0  0.11744812921E+00 -0.65127445268E-01  0.37961294964E-01  0.89099759096E+00  0.88000000000E+00 0.  1.
        -11    1    4    4    0    0 -0.54276800099E-01  0.44386355693E-01 -0.33405398246E-01  0.77667891394E-01  0.51100000000E-03 0.  1.
         11    1    4    4    0    0 -0.41187720241E-01  0.29672325218E-01 -0.76369766599E-02  0.51336728723E-01  0.51100000000E-03 0. -1.
</event>
<event>
 8    1  0.1041149E+005  0.1043930E+01  0.7957747E-01            NaN
         13   -1    0    0    0    0  0.00000000000E+00  0.00000000000E+00  0.74505805969E-08  0.10566000000E+00  0.10566000000E+00 0. -1.
     999900   -1    0    0    0    0 -0.00000000000E+00 -0.00000000000E+00 -0.74505805969E-08  0.93827000000E+00  0.93827000000E+00 0.  1.
     999902    2    1    2    0    0 -0.12752580253E-01 -0.16033123504E-03  0.19841561155E-01  0.10203431062E+01  0.10200704450E+01 0.  0.
     999903    2    3    3    0    0 -0.10501009723E+00 -0.36615843916E-01 -0.64122892875E-01  0.13079800709E+00  0.25070554870E-01 0.  0.
         14    1    1    2    0    0  0.12752580253E-01  0.16033123504E-03 -0.19841561155E-01  0.23586893782E-01  0.00000000000E+00 0. -1.
     999901    1    3    3    0    0  0.92257516978E-01  0.36455512681E-01  0.83964454030E-01  0.88954509913E+00  0.88000000000E+00 0. -1.
        -11    1    4    4    0    0 -0.62534329670E-02 -0.54344775629E-02 -0.12696012591E-01  0.15168679144E-01  0.51100000000E-03 0. -1.
         11    1    4    4    0    0 -0.98756664265E-01 -0.31181366353E-01 -0.51426880284E-01  0.11562932795E+00  0.51100000000E-03 0.  1.
</event>
<event>
 8    1  0.1041149E+005  0.1043930E+01  0.7957747E-01            NaN
         13   -1    0    0    0    0  0.00000000000E+00  0.00000000000E+00  0.74505805969E-08  0.10566000000E+00  0.10566000000E+00 0.  1.
     999900   -1    0    0    0    0 -0.00000000000E+00 -0.00000000000E+00 -0.74505805969E-08  0.93827000000E+00  0.93827000000E+00 0. -1.
     999902    2    1    2    0    0 -0.13880349207E-01 -0.50997332755E-02 -0.19038627362E-01  0.10198231399E+01  0.10195381778E+01 0.  0.
     999903    2    3    3    0    0  0.75120741845E-01 -0.10259349489E+00 -0.16218475523E-01  0.12997248891E+00  0.21476914941E-01 0.  0.
         14    1    1    2    0    0  0.13880349207E-01  0.50997332755E-02  0.19038627362E-01  0.24106860131E-01  0.00000000000E+00 0.  1.
     999901    1    3    3    0    0 -0.89001091052E-01  0.97493761613E-01 -0.28201518390E-02  0.88985065096E+00  0.88000000000E+00 0. -1.
        -11    1    4    4    0    0  0.47403966967E-01 -0.65934343797E-01 -0.20668735656E-01  0.83796966119E-01  0.51100000000E-03 0.  1.
         11    1    4    4    0    0  0.27716774879E-01 -0.36659151091E-01  0.44502601337E-02  0.46175522787E-01  0.51100000000E-03 0. -1.
</event>
<event>
 8    1  0.1041149E+005  0.1043930E+01  0.7957747E-01            NaN
         13   -1    0    0    0    0  0.00000000000E+00  0.00000000000E+00  0.74505805969E-08  0.10566000000E+00  0.10566000000E+00 0.  1.
     999900   -1    0    0    0    0 -0.00000000000E+00 -0.00000000000E+00 -0.74505805969E-08  0.93827000000E+00  0.93827000000E+00 0.  1.
     999902    2    1    2    0    0  0.26299911023E-01  0.21645586355E-01 -0.84623330706E-02  0.10088325954E+01  0.10082218891E+01 0.  0.
     999903    2    3    3    0    0  0.18745998019E-01 -0.91952513445E-01 -0.70740681000E-01  0.11931577010E+00  0.20623575707E-01 0.  0.
         14    1    1    2    0    0 -0.26299911023E-01 -0.21645586355E-01  0.84623330706E-02  0.35097404597E-01  0.00000000000E+00 0. -1.
     999901    1    3    3    0    0  0.75539130044E-02  0.11359809980E+00  0.62278347930E-01  0.88951682531E+00  0.88000000000E+00 0.  1.
        -11    1    4    4    0    0  0.21585916144E-01 -0.84609502475E-01 -0.59831714682E-01  0.10585279820E+00  0.51100000000E-03 0.  1.
         11    1    4    4    0    0 -0.28399181251E-02 -0.73430109705E-02 -0.10908966319E-01  0.13462971894E-01  0.51100000000E-03 0. -1.
</event>
<event>
 8    1  0.1041149E+005  0.1043930E+01  0.7957747E-01            NaN
         13   -1    0    0    0    0  0.00000000000E+00  0.00000000000E+00  0.74505805969E-08  0.10566000000E+00  0.10566000000E+00 0. -1.
     999900   -1    0    0    0    0 -0.00000000000E+00 -0.00000000000E+00 -0.74505805969E-08  0.93827000000E+00  0.93827000000E+00 0. -1.
     999902    2    1    2    0    0  0.15149522374E-01 -0.48171010489E-02  0.18024502080E-01  0.10198967904E+01  0.10196135875E+01 0.  0.
     999903    2    3    3    0    0  0.30383918284E-02  0.92319596286E-01 -0.86581911001E-01  0.12831128177E+00  0.20861879941E-01 0.  0.
         14    1    1    2    0    0 -0.15149522374E-01  0.48171010489E-02 -0.18024502080E-01  0.24033209646E-01  0.00000000000E+00 0.  1.
     999901    1    3    3    0    0  0.12111130545E-01 -0.97136697334E-01  0.10460641308E+00  0.89158550858E+00  0.88000000000E+00 0.  1.
        -11    1    4    4    0    0  0.69589897749E-02  0.51163159288E-01 -0.35833219968E-01  0.62852026071E-01  0.51100000000E-03 0.  1.
         11    1    4    4    0    0 -0.39205979465E-02  0.41156436998E-01 -0.50748691033E-01  0.65459255703E-01  0.51100000000E-03 0. -1.
</event>
<event>
 8    1  0.1041149E+005  0.1043930E+01  0.7957747E-01            NaN
         13   -1    0    0    0    0  0.00000000000E+00  0.00000000000E+00  0.74505805969E-08  0.10566000000E+00  0.10566000000E+00 0. -1.
     999900   -1    0    0    0    0 -0.00000000000E+00 -0.00000000000E+00 -0.74505805969E-08  0.93827000000E+00  0.93827000000E+00 0. -1.
     999902    2    1    2    0    0 -0.89908454605E-03  0.26089611258E-01 -0.18276291988E-02  0.10177610031E+01  0.10174245147E+01 0.  0.
     999903    2    3    3    0    0 -0.40127693216E-01  0.97479895329E-02 -0.12033230172E+00  0.12880133602E+00  0.20116318268E-01 0.  0.
         14    1    1    2    0    0  0.89908454605E-03 -0.26089611258E-01  0.18276291988E-02  0.26168996868E-01  0.00000000000E+00 0. -1.
     999901    1    3    3    0    0  0.39228608670E-01  0.16341621725E-01  0.11850467252E+00  0.88895966711E+00  0.88000000000E+00 0.  1.
        -11    1    4    4    0    0 -0.22216204693E-01  0.83313262871E-02 -0.40242559077E-01  0.46719326094E-01  0.51100000000E-03 0. -1.
         11    1    4    4    0    0 -0.17911488524E-01  0.14166632458E-02 -0.80089742645E-01  0.82082009928E-01  0.51100000000E-03 0.  1.
</event>
<event>
 8    1  0.1041149E+005  0.1043930E+01  0.7957747E-01            NaN
         13   -1    0    0    0    0  0.00000000000E+00  0.00000000000E+00  0.74505805969E-08  0.10566000000E+00  0.10566000000E+00 0.  1.
     999900   -1    0    0    0    0 -0.00000000000E+00 -0.00000000000E+00 -0.74505805969E-08  0.93827000000E+00  0.93827000000E+00 0.  1.
     999902    2    1    2    0    0  0.20982251706E-01 -0.82062944521E-02 -0.17559244464E-02  0.10213317384E+01  0.10210817002E+01 0.  0.
     999903    2    3    3    0    0  0.78282221984E-01 -0.58753859041E-03  0.10553560693E+00  0.13293272631E+00  0.20121975860E-01 0.  0.
         14    1    1    2    0    0 -0.20982251706E-01  0.82062944521E-02  0.17559244464E-02  0.22598261570E-01  0.00000000000E+00 0.  1.
     999901    1    3    3    0    0 -0.57299970278E-01 -0.76187558616E-02 -0.10729153138E+00  0.88839901212E+00  0.88000000000E+00 0.  1.
        -11    1    4    4    0    0  0.24577214972E-01  0.74316100449E-02  0.43242684291E-01  0.50293729125E-01  0.51100000000E-03 0.  1.
         11    1    4    4    0    0  0.53705007012E-01 -0.80191486353E-02  0.62292922642E-01  0.82638997182E-01  0.51100000000E-03 0. -1.
</event>
<event>
 8    1  0.1041149E+005  0.1043930E+01  0.7957747E-01            NaN
         13   -1    0    0    0    0  0.00000000000E+00  0.00000000000E+00  0.74505805969E-08  0.10566000000E+00  0.10566000000E+00 0. -1.
     999900   -1    0    0    0    0 -0.00000000000E+00 -0.00000000000E+00 -0.74505805969E-08  0.93827000000E+00  0.93827000000E+00 0.  1.
     999902    2    1    2    0    0  0.23428996052E-02  0.89024787349E-02  0.20938279863E-01  0.10210574210E+01  0.10208012060E+01 0.  0.
     999903    2    3    3    0    0  0.86281845019E-02 -0.88572423170E-01 -0.91066559843E-01  0.12859680819E+00  0.18013912449E-01 0.  0.
         14    1    1    2    0    0 -0.23428996052E-02 -0.89024787349E-02 -0.20938279863E-01  0.22872578993E-01  0.00000000000E+00 0.  1.
     999901    1    3    3    0    0 -0.62852848967E-02  0.97474901905E-01  0.11200483971E+00  0.89246061281E+00  0.88000000000E+00 0.  1.
        -11    1    4    4    0    0 -0.54674677501E-03 -0.68068397963E-01 -0.64173791543E-01  0.93552885446E-01  0.51100000000E-03 0. -1.
         11    1    4    4    0    0  0.91749312769E-02 -0.20504025206E-01 -0.26892768300E-01  0.35043922746E-01  0.51100000000E-03 0.  1.
</event>
<event>
 8    1  0.1041149E+005  0.1043930E+01  0.7957747E-01            NaN
         13   -1    0    0    0    0  0.00000000000E+00  0.00000000000E+00  0.74505805969E-08  0.10566000000E+00  0.10566000000E+00 0. -1.
     999900   -1    0    0    0    0 -0.00000000000E+00 -0.00000000000E+00 -0.74505805969E-08  0.93827000000E+00  0.93827000000E+00 0.  1.
     999902    2    1    2    0    0 -0.10402865253E-01 -0.41393796598E-02 -0.21364767703E-01  0.10198093166E+01  0.10195240237E+01 0.  0.
     999903    2    3    3    0    0 -0.13679673761E-03 -0.25804054671E-01  0.12342694786E+00  0.12765496267E+00  0.19892463039E-01 0.  0.
         14    1    1    2    0    0  0.10402865253E-01  0.41393796598E-02  0.21364767703E-01  0.24120683416E-01  0.00000000000E+00 0. -1.
     999901    1    3    3    0    0 -0.10266068515E-01  0.21664675011E-01 -0.14479171557E+00  0.89215435391E+00  0.88000000000E+00 0.  1.
        -11    1    4    4    0    0  0.51214930675E-02 -0.82885360965E-02  0.79122915111E-01  0.79722182224E-01  0.51100000000E-03 0.  1.
         11    1    4    4    0    0 -0.52582898051E-02 -0.17515518574E-01  0.44304032751E-01  0.47932780449E-01  0.51100000000E-03 0. -1.
</event>
<event>
 8    1  0.1041149E+005  0.1043930E+01  0.7957747E-01            NaN
         13   -1    0    0    0    0  0.00000000000E+00  0.00000000000E+00  0.74505805969E-08  0.10566000000E+00  0.10566000000E+00 0.  1.
     999900   -1    0    0    0    0 -0.00000000000E+00 -0.00000000000E+00 -0.74505805969E-08  0.93827000000E+00  0.93827000000E+00 0. -1.
     999902    2    1    2    0    0 -0.13850258733E-01  0.10922366853E-01 -0.18713358019E-01  0.10182139052E+01  0.10178891095E+01 0.  0.
     999903    2    3    3    0    0 -0.34395108797E-01  0.11873951095E+00 -0.38942717140E-01  0.13116494689E+00  0.20139838733E-01 0.  0.
         14    1    1    2    0    0  0.13850258733E-01 -0.10922366853E-01  0.18713358019E-01  0.25716094823E-01  0.00000000000E+00 0. -1.
     999901    1    3    3    0    0  0.20544850065E-01 -0.10781714410E+00  0.20229359122E-01  0.88704895829E+00  0.88000000000E+00 0.  1.
        -11    1    4    4    0    0 -0.12833953094E-01  0.32591062566E-01 -0.20076767510E-01  0.40376050151E-01  0.51100000000E-03 0.  1.
         11    1    4    4    0    0 -0.21561155703E-01  0.86148448386E-01 -0.18865949630E-01  0.90788896739E-01  0.51100000000E-03 0. -1.
</event>
<event>
 8    1  0.1041149E+005  0.1043930E+01  0.7957747E-01            NaN
         13   -1    0    0    0    0  0.00000000000E+00  0.00000000000E+00  0.74505805969E-08  0.10566000000E+00  0.10566000000E+00 0.  1.
     999900   -1    0    0    0    0 -0.00000000000E+00 -0.00000000000E+00 -0.74505805969E-08  0.93827000000E+00  0.93827000000E+00 0.  1.
     999902    2    1    2    0    0 -0.62021197466E-02 -0.32687083506E-02  0.22334642195E-01  0.10205208782E+01  0.10202523589E+01 0.  0.
     999903    2    3    3    0    0  0.92601537809E-01  0.55716197251E-01 -0.66740866773E-01  0.12857030322E+00  0.19915826132E-01 0.  0.
         14    1    1    2    0    0  0.62021197466E-02  0.32687083506E-02 -0.22334642195E-01  0.23409121846E-01  0.00000000000E+00 0. -1.
     999901    1    3    3    0    0 -0.98803657555E-01 -0.58984905602E-01  0.89075508969E-01  0.89195057494E+00  0.88000000000E+00 0. -1.
        -11    1    4    4    0    0  0.57635621640E-01  0.28867655227E-01 -0.29646619548E-01  0.70953432417E-01  0.51100000000E-03 0.  1.
         11    1    4    4    0    0  0.34965916169E-01  0.26848542024E-01 -0.37094247226E-01  0.57616870798E-01  0.51100000000E-03 0. -1.
</event>
<event>
 8    1  0.1041149E+005  0.1043930E+01  0.7957747E-01            NaN
         13   -1    0    0    0    0  0.00000000000E+00  0.00000000000E+00  0.74505805969E-08  0.10566000000E+00  0.10566000000E+00 0.  1.
     999900   -1    0    0    0    0 -0.00000000000E+00 -0.00000000000E+00 -0.74505805969E-08  0.93827000000E+00  0.93827000000E+00 0. -1.
     999902    2    1    2    0    0 -0.14024062137E-01 -0.18121523650E-01 -0.27848725152E-01  0.10078659538E+01  0.10072205147E+01 0.  0.
     999903    2    3    3    0    0  0.17595262858E-01 -0.91367395906E-01  0.70027181188E-01  0.11885277470E+00  0.23760926717E-01 0.  0.
         14    1    1    2    0    0  0.14024062137E-01  0.18121523650E-01  0.27848725152E-01  0.36064046234E-01  0.00000000000E+00 0.  1.
     999901    1    3    3    0    0 -0.31619324995E-01  0.73245872256E-01 -0.97875906340E-01  0.88901317907E+00  0.88000000000E+00 0. -1.
        -11    1    4    4    0    0  0.18529326337E-01 -0.42428494569E-01  0.41614982636E-01  0.62254164412E-01  0.51100000000E-03 0. -1.
         11    1    4    4    0    0 -0.93406347866E-03 -0.48938901337E-01  0.28412198552E-01  0.56598610285E-01  0.51100000000E-03 0.  1.
</event>
<event>
 8    1  0.1041149E+005  0.1043930E+01  0.7957747E-01            NaN
         13   -1    0    0    0    0  0.00000000000E+00  0.00000000000E+00  0.74505805969E-08  0.10566000000E+00  0.10566000000E+00 0. -1.
     999900   -1    0    0    0    0 -0.00000000000E+00 -0.00000000000E+00 -0.74505805969E-08  0.93827000000E+00  0.93827000000E+00 0. -1.
     999902    2    1    2    0    0 -0.23108862448E-01 -0.54721894794E-02 -0.68573142742E-02  0.10192118459E+01  0.10189120667E+01 0.  0.
     999903    2    3    3    0    0  0.90576248131E-01 -0.87018114057E-01 -0.15089511453E-01  0.12812160850E+00  0.20279159475E-01 0.  0.
         14    1    1    2    0    0  0.23108862448E-01  0.54721894794E-02  0.68573142742E-02  0.24718154065E-01  0.00000000000E+00 0. -1.
     999901    1    3    3    0    0 -0.11368511058E+00  0.81545924578E-01  0.82321971791E-02  0.89109023744E+00  0.88000000000E+00 0. -1.
        -11    1    4    4    0    0  0.16860493958E-01 -0.27071317776E-01 -0.77418911925E-02  0.32822713216E-01  0.51100000000E-03 0.  1.
         11    1    4    4    0    0  0.73715754173E-01 -0.59946796281E-01 -0.73476202608E-02  0.95298895283E-01  0.51100000000E-03 0. -1.
</event>
<event>
 8    1  0.1041149E+005  0.1043930E+01  0.7957747E-01            NaN
         13   -1    0    0    0    0  0.00000000000E+00  0.00000000000E+00  0.74505805969E-08  0.10566000000E+00  0.10566000000E+00 0.  1.
     999900   -1    0    0    0    0 -0.00000000000E+00 -0.00000000000E+00 -0.74505805969E-08  0.93827000000E+00  0.93827000000E+00 0.  1.
     999902    2    1    2    0    0 -0.37783289154E-02 -0.17876562517E-01 -0.15186870256E-01  0.10201710378E+01  0.10198943367E+01 0.  0.
     999903    2    3    3    0    0 -0.73291930414E-02 -0.74601054873E-01  0.10519823250E+00  0.13015820102E+00  0.15982950638E-01 0.  0.
         14    1    1    2    0    0  0.37783289154E-02  0.17876562517E-01  0.15186870256E-01  0.23758962204E-01  0.00000000000E+00 0.  1.
     999901    1    3    3    0    0  0.35508641261E-02  0.56724492356E-01 -0.12038510276E+00  0.89001283678E+00  0.88000000000E+00 0.  1.
        -11    1    4    4    0    0 -0.10572767618E-01 -0.30123011874E-01  0.40365180668E-01  0.51466379228E-01  0.51100000000E-03 0.  1.
         11    1    4    4    0    0  0.32435745766E-02 -0.44478042999E-01  0.64833051834E-01  0.78691821787E-01  0.51100000000E-03 0. -1.
</event>
<event>
 8    1  0.1041149E+005  0.1043930E+01  0.7957747E-01            NaN
         13   -1    0    0    0    0  0.00000000000E+00  0.00000000000E+00  0.74505805969E-08  0.10566000000E+00  0.10566000000E+00 0.  1.
     999900   -1    0    0    0    0 -0.00000000000E+00 -0.00000000000E+00 -0.74505805969E-08  0.93827000000E+00  0.93827000000E+00 0.  1.
     999902    2    1    2    0    0 -0.19078855395E-01 -0.12639912764E-01  0.55857915311E-02  0.10203721736E+01  0.10201001919E+01 0.  0.
     999903    2    3    3    0    0 -0.36077958862E-01  0.95480629938E-01 -0.77529538368E-01  0.12970546863E+00  0.19862262301E-01 0.  0.
         14    1    1    2    0    0  0.19078855395E-01  0.12639912764E-01 -0.55857915311E-02  0.23557826404E-01  0.00000000000E+00 0.  1.
     999901    1    3    3    0    0  0.16999103467E-01 -0.10812054270E+00  0.83115329899E-01  0.89066670497E+00  0.88000000000E+00 0. -1.
        -11    1    4    4    0    0 -0.78165563507E-02  0.15139709156E-01 -0.22802466704E-01  0.28469684848E-01  0.51100000000E-03 0.  1.
         11    1    4    4    0    0 -0.28261402511E-01  0.80340920782E-01 -0.54727071664E-01  0.10123578378E+00  0.51100000000E-03 0. -1.
</event>
<event>
 8    1  0.1041149E+005  0.1043930E+01  0.7957747E-01            NaN
         13   -1    0    0    0    0  0.00000000000E+00  0.00000000000E+00  0.74505805969E-08  0.10566000000E+00  0.10566000000E+00 0.  1.
     999900   -1    0    0    0    0 -0.00000000000E+00 -0.00000000000E+00 -0.74505805969E-08  0.93827000000E+00  0.93827000000E+00 0.  1.
     999902    2    1    2    0    0  0.13098357503E-01  0.11780320021E-01 -0.14814138784E-01  0.10209125801E+01  0.10206530726E+01 0.  0.
     999903    2    3    3    0    0  0.95918277770E-01 -0.30923451533E-01 -0.84764567479E-01  0.13323256247E+00  0.20231360244E-01 0.  0.
         14    1    1    2    0    0 -0.13098357503E-01 -0.11780320021E-01  0.14814138784E-01  0.23017419860E-01  0.00000000000E+00 0.  1.
     999901    1    3    3    0    0 -0.82819920267E-01  0.42703771554E-01  0.69950428694E-01  0.88768001767E+00  0.88000000000E+00 0. -1.
        -11    1    4    4    0    0  0.61330951339E-01 -0.11913066577E-01 -0.60076950016E-01  0.86677031511E-01  0.51100000000E-03 0. -1.
         11    1    4    4    0    0  0.34587326431E-01 -0.19010384956E-01 -0.24687617463E-01  0.46555530958E-01  0.51100000000E-03 0.  1.
</event>
<event>
 8    1  0.1041149E+005  0.1043930E+01  0.7957747E-01            NaN
         13   -1    0    0    0    0  0.00000000000E+00  0.00000000000E+00  0.74505805969E-08  0.10566000000E+00  0.10566000000E+00 0.  1.
     999900   -1    0    0    0    0 -0.00000000000E+00 -0.00000000000E+00 -0.74505805969E-08  0.93827000000E+00  0.93827000000E+00 0.  1.
     999902    2    1    2    0    0 -0.39115344743E-03  0.10901907948E-01 -0.24313026833E-01  0.10172817754E+01  0.10169326835E+01 0.  0.
     999903    2    3    3    0    0  0.72336093134E-01  0.10449006769E+00  0.67059744923E-02  0.12879419845E+00  0.19806333473E-01 0.  0.
         14    1    1    2    0    0  0.39115344743E-03 -0.10901907948E-01  0.24313026833E-01  0.26648224551E-01  0.00000000000E+00 0.  1.
     999901    1    3    3    0    0 -0.72727246582E-01 -0.93588159737E-01 -0.31019001326E-01  0.88848757700E+00  0.88000000000E+00 0.  1.
        -11    1    4    4    0    0  0.68144554450E-01  0.86971506767E-01  0.76079754702E-02  0.11075136885E+00  0.51100000000E-03 0.  1.
         11    1    4    4    0    0  0.41915386841E-02  0.17518560918E-01 -0.90200097790E-03  0.18042829599E-01  0.51100000000E-03 0. -1.
</event>
<event>
 8    1  0.1041149E+005  0.1043930E+01  0.7957747E-01            NaN
         13   -1    0    0    0    0  0.00000000000E+00  0.00000000000E+00  0.74505805969E-08  0.10566000000E+00  0.10566000000E+00 0. -1.
     999900   -1    0    0    0    0 -0.00000000000E+00 -0.00000000000E+00 -0.74505805969E-08  0.93827000000E+00  0.93827000000E+00 0. -1.
     999902    2    1    2    0    0 -0.10612371666E-01 -0.33301118066E-02 -0.19973012063E-01  0.10210688258E+01  0.10208128691E+01 0.  0.
     999903    2    3    3    0    0 -0.96904287730E-01 -0.80486435120E-01  0.33671107392E-01  0.13186857578E+00  0.19674109541E-01 0.  0.
         14    1    1    2    0    0  0.10612371666E-01  0.33301118066E-02  0.19973012063E-01  0.22861174246E-01  0.00000000000E+00 0. -1.
     999901    1    3    3    0    0  0.86291916063E-01  0.77156323313E-01 -0.53644119454E-01  0.88920024998E+00  0.88000000000E+00 0. -1.
        -11    1    4    4    0    0 -0.38780280311E-01 -0.35502845263E-01  0.44301266910E-02  0.52765986262E-01  0.51100000000E-03 0. -1.
         11    1    4    4    0    0 -0.58124007419E-01 -0.44983589857E-01  0.29240980701E-01  0.79102589516E-01  0.51100000000E-03 0.  1.
</event>
<event>
 8    1  0.1041149E+005  0.1043930E+01  0.7957747E-01            NaN
         13   -1    0    0    0    0  0.00000000000E+00  0.00000000000E+00  0.74505805969E-08  0.10566000000E+00  0.10566000000E+00 0. -1.
     999900   -1    0    0    0    0 -0.00000000000E+00 -0.00000000000E+00 -0.74505805969E-08  0.93827000000E+00  0.93827000000E+00 0.  1.
     999902    2    1    2    0    0 -0.29396418698E-02 -0.89262914417E-02 -0.16794550685E-01  0.10246848160E+01  0.10245040728E+01 0.  0.
     999903    2    3    3    0    0 -0.41892569322E-01 -0.11050655931E+00  0.61688842937E-01  0.13451880654E+00  0.17975231726E-01 0.  0.
         14    1    1    2    0    0  0.29396418698E-02  0.89262914417E-02  0.16794550685E-01  0.19245183967E-01  0.00000000000E+00 0. -1.
     999901    1    3    3    0    0  0.38952927453E-01  0.10158026787E+00 -0.78483393622E-01  0.89016600949E+00  0.88000000000E+00 0.  1.
        -11    1    4    4    0    0 -0.29743564991E-01 -0.89319979365E-01  0.41746756432E-01  0.10298442196E+00  0.51100000000E-03 0. -1.
         11    1    4    4    0    0 -0.12149004331E-01 -0.21186579945E-01  0.19942086505E-01  0.31534384586E-01  0.51100000000E-03 0.  1.
</event>
<event>
 8    1  0.1041149E+005  0.1043930E+01  0.7957747E-01            NaN
         13   -1    0    0    0    0  0.00000000000E+00  0.00000000000E+00  0.74505805969E-08  0.10566000000E+00  0.10566000000E+00 0.  1.
     999900   -1    0    0    0    0 -0.00000000000E+00 -0.00000000000E+00 -0.74505805969E-08  0.93827000000E+00  0.93827000000E+00 0. -1.
     999902    2    1    2    0    0  0.10654046580E-01 -0.25667324315E-02  0.19840132449E-01  0.10212644385E+01  0.10210128920E+01 0.  0.
     999903    2    3    3    0    0 -0.11200483588E+00 -0.10072293073E-01 -0.59940830419E-01  0.12915091603E+00  0.20988606695E-01 0.  0.
         14    1    1    2    0    0 -0.10654046580E-01  0.25667324315E-02 -0.19840132449E-01  0.22665561530E-01  0.00000000000E+00 0. -1.
     999901    1    3    3    0    0  0.12265888246E+00  0.75055606412E-02  0.79780962868E-01  0.89211352244E+00  0.88000000000E+00 0. -1.
        -11    1    4    4    0    0 -0.99372964152E-01 -0.12641064642E-01 -0.46239168934E-01  0.11033179226E+00  0.51100000000E-03 0.  1.
         11    1    4    4    0    0 -0.12631871730E-01  0.25687715698E-02 -0.13701661486E-01  0.18819123764E-01  0.51100000000E-03 0. -1.
</event>
<event>
 8    1  0.1041149E+005  0.1043930E+01  0.7957747E-01            NaN
         13   -1    0    0    0    0  0.00000000000E+00  0.00000000000E+00  0.74505805969E-08  0.10566000000E+00  0.10566000000E+00 0. -1.
     999900   -1    0    0    0    0 -0.00000000000E+00 -0.00000000000E+00 -0.74505805969E-08  0.93827000000E+00  0.93827000000E+00 0.  1.
     999902    2    1    2    0    0  0.14869433655E-01 -0.12867282943E-01 -0.10196251598E-01  0.10217798177E+01  0.10215397033E+01 0.  0.
     999903    2    3    3    0    0 -0.88032542255E-01  0.68548510940E-01  0.61859202759E-01  0.12913804377E+00  0.20036130708E-01 0.  0.
         14    1    1    2    0    0 -0.14869433655E-01  0.12867282943E-01  0.10196251598E-01  0.22150182261E-01  0.00000000000E+00 0. -1.
     999901    1    3    3    0    0  0.10290197591E+00 -0.81415793883E-01 -0.72055454357E-01  0.89264177397E+00  0.88000000000E+00 0.  1.
        -11    1    4    4    0    0 -0.70897179564E-01  0.45828184973E-01  0.51269401596E-01  0.98769657633E-01  0.51100000000E-03 0. -1.
         11    1    4    4    0    0 -0.17135362691E-01  0.22720325967E-01  0.10589801162E-01  0.30368386132E-01  0.51100000000E-03 0.  1.
</event>
<event>
 8    1  0.1041149E+005  0.1043930E+01  0.7957747E-01            NaN
         13   -1    0    0    0    0  0.00000000000E+00  0.00000000000E+00  0.74505805969E-08  0.10566000000E+00  0.10566000000E+00 0.  1.
     999900   -1    0    0    0    0 -0.00000000000E+00 -0.00000000000E+00 -0.74505805969E-08  0.93827000000E+00  0.93827000000E+00 0.  1.
     999902    2    1    2    0    0  0.17478689632E-01  0.15238283518E-01 -0.47815872242E-02  0.10202535676E+01  0.10199788080E+01 0.  0.
     999903    2    3    3    0    0 -0.24601696818E-01  0.88357317992E-01  0.91419464357E-01  0.13100006354E+00  0.19779763751E-01 0.  0.
         14    1    1    2    0    0 -0.17478689632E-01 -0.15238283518E-01  0.47815872242E-02  0.23676432421E-01  0.00000000000E+00 0.  1.
     999901    1    3    3    0    0  0.42080386450E-01 -0.73119034475E-01 -0.96201051581E-01  0.88925350404E+00  0.88000000000E+00 0.  1.
        -11    1    4    4    0    0 -0.18996066241E-01  0.33639349608E-01  0.41792858360E-01  0.56915380220E-01  0.51100000000E-03 0. -1.
         11    1    4    4    0    0 -0.56056305767E-02  0.54717968384E-01  0.49626605997E-01  0.74084683316E-01  0.51100000000E-03 0.  1.
</event>
<event>
 8    1  0.1041149E+005  0.1043930E+01  0.7957747E-01            NaN
         13   -1    0    0    0    0  0.00000000000E+00  0.00000000000E+00  0.74505805969E-08  0.10566000000E+00  0.10566000000E+00 0. -1.
     999900   -1    0    0    0    0 -0.00000000000E+00 -0.00000000000E+00 -0.74505805969E-08  0.93827000000E+00  0.93827000000E+00 0.  1.
     999902    2    1    2    0    0  0.50660049890E-02 -0.82805707255E-02 -0.21251265145E-01  0.10205665985E+01  0.10202991392E+01 0.  0.
     999903    2    3    3    0    0  0.36230388662E-01  0.61949603910E-01 -0.10770805025E+00  0.13299785644E+00  0.30610639361E-01 0.  0.
         14    1    1    2    0    0 -0.50660049890E-02  0.82805707255E-02  0.21251265145E-01  0.23363401472E-01  0.00000000000E+00 0. -1.
     999901    1    3    3    0    0 -0.31164383673E-01 -0.70230174635E-01  0.86456785105E-01  0.88756874209E+00  0.88000000000E+00 0. -1.
        -11    1    4    4    0    0  0.30034124839E-01  0.51483055614E-01 -0.10466819673E+00  0.12045018140E+00  0.51100000000E-03 0. -1.
         11    1    4    4    0    0  0.61962638232E-02  0.10466548296E-01 -0.30398535158E-02  0.12547675043E-01  0.51100000000E-03 0.  1.
</event>
<event>
 8    1  0.1041149E+005  0.1043930E+01  0.7957747E-01            NaN
         13   -1    0    0    0    0  0.00000000000E+00  0.00000000000E+00  0.74505805969E-08  0.10566000000E+00  0.10566000000E+00 0.  1.
     999900   -1    0    0    0    0 -0.00000000000E+00 -0.00000000000E+00 -0.74505805969E-08  0.93827000000E+00  0.93827000000E+00 0.  1.
     999902    2    1    2    0    0 -0.17267588505E-01  0.17415800493E-01  0.13753388061E-01  0.10158117603E+01  0.10154225214E+01 0.  0.
     999903    2    3    3    0    0  0.72845140691E-01 -0.55658185589E-01 -0.79751420587E-01  0.12328542421E+00  0.20850865499E-01 0.  0.
         14    1    1    2    0    0  0.17267588505E-01 -0.17415800493E-01 -0.13753388061E-01  0.28118239681E-01  0.00000000000E+00 0. -1.
     999901    1    3    3    0    0 -0.90112729196E-01  0.73073986082E-01  0.93504808649E-01  0.89252633611E+00  0.88000000000E+00 0. -1.
        -11    1    4    4    0    0  0.43241138330E-01 -0.22303249081E-01 -0.49389661656E-01  0.69331311564E-01  0.51100000000E-03 0.  1.
         11    1    4    4    0    0  0.29604002360E-01 -0.33354936508E-01 -0.30361758931E-01  0.53954112648E-01  0.51100000000E-03 0. -1.
</event>
<event>
 8    1  0.1041149E+005  0.1043930E+01  0.7957747E-01            NaN
         13   -1    0    0    0    0  0.00000000000E+00  0.00000000000E+00  0.74505805969E-08  0.10566000000E+00  0.10566000000E+00 0.  1.
     999900   -1    0    0    0    0 -0.00000000000E+00 -0.00000000000E+00 -0.74505805969E-08  0.93827000000E+00  0.93827000000E+00 0.  1.
     999902    2    1    2    0    0 -0.51634923921E-02  0.15922743177E-01 -0.16976097305E-01  0.10200892097E+01  0.10198105767E+01 0.  0.
     999903    2    3    3    0    0  0.10515614802E+00  0.71201557647E-01  0.23051263263E-01  0.13057902986E+00  0.19800126869E-01 0.  0.
         14    1    1    2    0    0  0.51634923921E-02 -0.15922743177E-01  0.16976097305E-01  0.23840790332E-01  0.00000000000E+00 0.  1.
     999901    1    3    3    0    0 -0.11031964041E+00 -0.55278814471E-01 -0.40027360568E-01  0.88951017981E+00  0.88000000000E+00 0. -1.
        -11    1    4    4    0    0  0.43384626070E-01  0.40981846299E-01  0.84640469847E-02  0.60279670849E-01  0.51100000000E-03 0. -1.
         11    1    4    4    0    0  0.61771521946E-01  0.30219711348E-01  0.14587216278E-01  0.70299359010E-01  0.51100000000E-03 0.  1.
</event>
<event>
 8    1  0.1041149E+005  0.1043930E+01  0.7957747E-01            NaN
         13   -1    0    0    0    0  0.00000000000E+00  0.00000000000E+00  0.74505805969E-08  0.10566000000E+00  0.10566000000E+00 0.  1.
     999900   -1    0    0    0    0 -0.00000000000E+00 -0.00000000000E+00 -0.74505805969E-08  0.93827000000E+00  0.93827000000E+00 0.  1.
     999902    2    1    2    0    0  0.18476670350E-01  0.29346934218E-02 -0.13811961301E-01  0.10206755370E+01  0.10204105947E+01 0.  0.
     999903    2    3    3    0    0 -0.84161700290E-01 -0.95926341707E-01  0.28026844894E-02  0.12905668021E+00  0.19045126346E-01 0.  0.
         14    1    1    2    0    0 -0.18476670350E-01 -0.29346934218E-02  0.13811961301E-01  0.23254462963E-01  0.00000000000E+00 0.  1.
     999901    1    3    3    0    0  0.10263837064E+00  0.98861035129E-01 -0.16614645791E-01  0.89161885683E+00  0.88000000000E+00 0.  1.
        -11    1    4    4    0    0 -0.63944022876E-01 -0.61952903768E-01 -0.30555189186E-02  0.89087584229E-01  0.51100000000E-03 0. -1.
         11    1    4    4    0    0 -0.20217677414E-01 -0.33973437939E-01  0.58582034080E-02  0.39969095982E-01  0.51100000000E-03 0.  1.
</event>
<event>
 8    1  0.1041149E+005  0.1043930E+01  0.7957747E-01            NaN
         13   -1    0    0    0    0  0.00000000000E+00  0.00000000000E+00  0.74505805969E-08  0.10566000000E+00  0.10566000000E+00 0. -1.
     999900   -1    0    0    0    0 -0.00000000000E+00 -0.00000000000E+00 -0.74505805969E-08  0.93827000000E+00  0.93827000000E+00 0. -1.
     999902    2    1    2    0    0 -0.11751508582E-01 -0.22085798395E-01 -0.21787984817E-03  0.10189114486E+01  0.10186042470E+01 0.  0.
     999903    2    3    3    0    0  0.85442280159E-01  0.91113971166E-01 -0.51933208492E-03  0.12635281672E+00  0.19042731049E-01 0.  0.
         14    1    1    2    0    0  0.11751508582E-01  0.22085798395E-01  0.21787984817E-03  0.25018551444E-01  0.00000000000E+00 0.  1.
     999901    1    3    3    0    0 -0.97193788741E-01 -0.11319976956E+00  0.30145223675E-03  0.89255863184E+00  0.88000000000E+00 0.  1.
        -11    1    4    4    0    0  0.25024414780E-01  0.25434225872E-01  0.84147634808E-02  0.36663204255E-01  0.51100000000E-03 0. -1.
         11    1    4    4    0    0  0.60417865379E-01  0.65679745294E-01 -0.89340955657E-02  0.89689612461E-01  0.51100000000E-03 0.  1.
</event>
<event>
 8    1  0.1041149E+005  0.1043930E+01  0.7957747E-01            NaN
         13   -1    0    0    0    0  0.00000000000E+00  0.00000000000E+00  0.74505805969E-08  0.10566000000E+00  0.10566000000E+00 0. -1.
     999900   -1    0    0    0    0 -0.00000000000E+00 -0.00000000000E+00 -0.74505805969E-08  0.93827000000E+00  0.93827000000E+00 0. -1.
     999902    2    1    2    0    0 -0.18162018036E-01  0.10425123104E-01  0.11491027766E-01  0.10200430619E+01  0.10197633365E+01 0.  0.
     999903    2    3    3    0    0  0.99696849176E-01 -0.59397280112E-01  0.51371095148E-01  0.12855200739E+00  0.20472678525E-01 0.  0.
         14    1    1    2    0    0  0.18162018036E-01 -0.10425123104E-01 -0.11491027766E-01  0.23886938062E-01  0.00000000000E+00 0. -1.
     999901    1    3    3    0    0 -0.11785886721E+00  0.69822403216E-01 -0.39880067382E-01  0.89149105455E+00  0.88000000000E+00 0.  1.
        -11    1    4    4    0    0  0.37833902080E-01 -0.34240414971E-01  0.23617503795E-01  0.56230398989E-01  0.51100000000E-03 0.  1.
         11    1    4    4    0    0  0.61862947096E-01 -0.25156865141E-01  0.27753591353E-01  0.72321608397E-01  0.51100000000E-03 0. -1.
</event>
<event>
 8    1  0.1041149E+005  0.1043930E+01  0.7957747E-01            NaN
         13   -1    0    0    0    0  0.00000000000E+00  0.00000000000E+00  0.74505805969E-08  0.10566000000E+00  0.10566000000E+00 0.  1.
     999900   -1    0    0    0    0 -0.00000000000E+00 -0.00000000000E+00 -0.74505805969E-08  0.93827000000E+00  0.93827000000E+00 0.  1.
     999902    2    1    2    0    0 -0.80771416106E-02  0.22663927456E-01  0.72728256726E-02  0.10187946103E+01  0.10184844967E+01 0.  0.
     999903    2    3    3    0    0  0.11970822228E+00 -0.24201835215E-01 -0.30518773408E-01  0.12752938380E+00  0.20409823422E-01 0.  0.
         14    1    1    2    0    0  0.80771416106E-02 -0.22663927456E-01 -0.72728256726E-02  0.25135389744E-01  0.00000000000E+00 0. -1.
     999901    1    3    3    0    0 -0.12778536389E+00  0.46865762671E-01  0.37791599081E-01  0.89126522646E+00  0.88000000000E+00 0. -1.
        -11    1    4    4    0    0  0.52594757108E-01 -0.86026578716E-02 -0.31518107334E-02  0.53389223909E-01  0.51100000000E-03 0. -1.
         11    1    4    4    0    0  0.67113465170E-01 -0.15599177344E-01 -0.27366962675E-01  0.74140159887E-01  0.51100000000E-03 0.  1.
</event>
<event>
 8    1  0.1041149E+005  0.1043930E+01  0.7957747E-01            NaN
         13   -1    0    0    0    0  0.00000000000E+00  0.00000000000E+00  0.74505805969E-08  0.10566000000E+00  0.10566000000E+00 0.  1.
     999900   -1    0    0    0    0 -0.00000000000E+00 -0.00000000000E+00 -0.74505805969E-08  0.93827000000E+00  0.93827000000E+00 0. -1.
     999902    2    1    2    0    0  0.49317119611E-03 -0.11988915058E-01  0.19792901975E-01  0.10207840226E+01  0.10205215747E+01 0.  0.
     999903    2    3    3    0    0 -0.11506752009E+00  0.56844472398E-01  0.12901395261E-01  0.13053697739E+00  0.20040664810E-01 0.  0.
         14    1    1    2    0    0 -0.49317119611E-03  0.11988915058E-01 -0.19792901975E-01  0.23145977419E-01  0.00000000000E+00 0. -1.
     999901    1    3    3    0    0  0.11556069128E+00 -0.68833387456E-01  0.68915067149E-02  0.89024704519E+00  0.88000000000E+00 0.  1.
        -11    1    4    4    0    0 -0.36551753882E-01  0.18760306697E-01 -0.51915741524E-02  0.41414893243E-01  0.51100000000E-03 0.  1.
         11    1    4    4    0    0 -0.78515766207E-01  0.38084165701E-01  0.18092969413E-01  0.89122084151E-01  0.51100000000E-03 0. -1.
</event>
<event>
 8    1  0.1041149E+005  0.1043930E+01  0.7957747E-01            NaN
         13   -1    0    0    0    0  0.00000000000E+00  0.00000000000E+00  0.74505805969E-08  0.10566000000E+00  0.10566000000E+00 0. -1.
     999900   -1    0    0    0    0 -0.00000000000E+00 -0.00000000000E+00 -0.74505805969E-08  0.93827000000E+00  0.93827000000E+00 0.  1.
     999902    2    1    2    0    0 -0.21505912045E-01 -0.76962290712E-02  0.19004740792E-02  0.10210095289E+01  0.10207522276E+01 0.  0.
     999903    2    3    3    0    0  0.52802877719E-01 -0.11735163003E+00  0.18005310764E-01  0.13095027862E+00  0.16255315740E-01 0.  0.
         14    1    1    2    0    0  0.21505912045E-01  0.76962290712E-02 -0.19004740792E-02  0.22920471123E-01  0.00000000000E+00 0.  1.
     999901    1    3    3    0    0 -0.74308789764E-01  0.10965540096E+00 -0.16104836685E-01  0.89005925025E+00  0.88000000000E+00 0. -1.
        -11    1    4    4    0    0  0.18110129704E-01 -0.42064726040E-01 -0.13617969494E-02  0.45820667680E-01  0.51100000000E-03 0.  1.
         11    1    4    4    0    0  0.34692748016E-01 -0.75286903991E-01  0.19367107713E-01  0.85129610944E-01  0.51100000000E-03 0. -1.
</event>
<event>
 8    1  0.1041149E+005  0.1043930E+01  0.7957747E-01            NaN
         13   -1    0    0    0    0  0.00000000000E+00  0.00000000000E+00  0.74505805969E-08  0.10566000000E+00  0.10566000000E+00 0.  1.
     999900   -1    0    0    0    0 -0.00000000000E+00 -0.00000000000E+00 -0.74505805969E-08  0.93827000000E+00  0.93827000000E+00 0. -1.
     999902    2    1    2    0    0  0.22120785591E-01 -0.31167074745E-02 -0.11452484867E-01  0.10188261670E+01  0.10185168414E+01 0.  0.
     999903    2    3    3    0    0  0.15420752540E-01 -0.47562069688E-01  0.11671478611E+00  0.12840652999E+00  0.19129703748E-01 0.  0.
         14    1    1    2    0    0 -0.22120785591E-01  0.31167074745E-02  0.11452484867E-01  0.25103832979E-01  0.00000000000E+00 0.  1.
     999901    1    3    3    0    0  0.67000330509E-02  0.44445362213E-01 -0.12816727097E+00  0.89041963703E+00  0.88000000000E+00 0. -1.
        -11    1    4    4    0    0 -0.35058197362E-02 -0.16325184094E-01  0.43196504214E-01  0.46314160955E-01  0.51100000000E-03 0. -1.
         11    1    4    4    0    0  0.18926572276E-01 -0.31236885594E-01  0.73518281894E-01  0.82092369032E-01  0.51100000000E-03 0.  1.
</event>
<event>
 8    1  0.1041149E+005  0.1043930E+01  0.7957747E-01            NaN
         13   -1    0    0    0    0  0.00000000000E+00  0.00000000000E+00  0.74505805969E-08  0.10566000000E+00  0.10566000000E+00 0. -1.
     999900   -1    0    0    0    0 -0.00000000000E+00 -0.00000000000E+00 -0.74505805969E-08  0.93827000000E+00  0.93827000000E+00 0.  1.
     999902    2    1    2    0    0 -0.89940626588E-02 -0.15419408146E-01 -0.16080058935E-01  0.10199046050E+01  0.10196215885E+01 0.  0.
     999903    2    3    3    0    0 -0.97326421857E-01 -0.32691287528E-01 -0.81862964804E-01  0.13287117032E+00  0.20299020251E-01 0.  0.
         14    1    1    2    0    0  0.89940626588E-02  0.15419408146E-01  0.16080058935E-01  0.24025395024E-01  0.00000000000E+00 0.  1.
     999901    1    3    3    0    0  0.88332359198E-01  0.17271879383E-01  0.65782905868E-01  0.88703343466E+00  0.88000000000E+00 0. -1.
        -11    1    4    4    0    0 -0.86157608253E-01 -0.22318527489E-01 -0.65529222331E-01  0.11052416129E+00  0.51100000000E-03 0. -1.
         11    1    4    4    0    0 -0.11168813604E-01 -0.10372760039E-01 -0.16333742473E-01  0.22347009024E-01  0.51100000000E-03 0.  1.
</event>
<event>
 8    1  0.1041149E+005  0.1043930E+01  0.7957747E-01            NaN
         13   -1    0    0    0    0  0.00000000000E+00  0.00000000000E+00  0.74505805969E-08  0.10566000000E+00  0.10566000000E+00 0. -1.
     999900   -1    0    0    0    0 -0.00000000000E+00 -0.00000000000E+00 -0.74505805969E-08  0.93827000000E+00  0.93827000000E+00 0. -1.
     999902    2    1    2    0    0  0.14874684811E-01  0.16312379206E-01 -0.10918437337E-01  0.10193015157E+01  0.10190039341E+01 0.  0.
     999903    2    3    3    0    0 -0.31154290483E-01  0.34985763829E-01  0.11775103880E+00  0.12855845741E+00  0.21618888632E-01 0.  0.
         14    1    1    2    0    0 -0.14874684811E-01 -0.16312379206E-01  0.10918437337E-01  0.24628484271E-01  0.00000000000E+00 0. -1.
     999901    1    3    3    0    0  0.46028975294E-01 -0.18673384622E-01 -0.12866947614E+00  0.89074305832E+00  0.88000000000E+00 0. -1.
        -11    1    4    4    0    0 -0.31444301391E-01  0.27622174746E-01  0.11068973597E+00  0.11833937383E+00  0.51100000000E-03 0.  1.
         11    1    4    4    0    0  0.29001090871E-03  0.73635890823E-02  0.70613028282E-02  0.10219083576E-01  0.51100000000E-03 0. -1.
</event>
<event>
 8    1  0.1041149E+005  0.1043930E+01  0.7957747E-01            NaN
         13   -1    0    0    0    0  0.00000000000E+00  0.00000000000E+00  0.74505805969E-08  0.10566000000E+00  0.10566000000E+00 0. -1.
     999900   -1    0    0    0    0 -0.00000000000E+00 -0.00000000000E+00 -0.74505805969E-08  0.93827000000E+00  0.93827000000E+00 0.  1.
     999902    2    1    2    0    0  0.12284892527E-01 -0.38810509911E-02  0.16149759925E-01  0.10232709611E+01  0.10230623950E+01 0.  0.
     999903    2    3    3    0    0  0.10856065203E+00 -0.52743585429E-02 -0.74553579128E-01  0.13338441843E+00  0.20492264167E-01 0.  0.
         14    1    1    2    0    0 -0.12284892527E-01  0.38810509911E-02 -0.16149759925E-01  0.20659038865E-01  0.00000000000E+00 0.  1.
     999901    1    3    3    0    0 -0.96275759507E-01  0.13933075518E-02  0.90703339053E-01  0.88988654271E+00  0.88000000000E+00 0. -1.
        -11    1    4    4    0    0  0.88955721415E-01 -0.12132794822E-01 -0.62036916569E-01  0.10912912178E+00  0.51100000000E-03 0.  1.
         11    1    4    4    0    0  0.19604930618E-01  0.68584362794E-02 -0.12516662559E-01  0.24255296645E-01  0.51100000000E-03 0. -1.
</event>
<event>
 8    1  0.1041149E+005  0.1043930E+01  0.7957747E-01            NaN
         13   -1    0    0    0    0  0.00000000000E+00  0.00000000000E+00  0.74505805969E-08  0.10566000000E+00  0.10566000000E+00 0. -1.
     999900   -1    0    0    0    0 -0.00000000000E+00 -0.00000000000E+00 -0.74505805969E-08  0.93827000000E+00  0.93827000000E+00 0. -1.
     999902    2    1    2    0    0 -0.80228841655E-02 -0.20100958750E-01  0.99966981073E-02  0.10200899248E+01  0.10198113088E+01 0.  0.
     999903    2    3    3    0    0  0.85865841172E-01  0.89416663839E-01 -0.23159048507E-01  0.12772872778E+00  0.20248553510E-01 0.  0.
         14    1    1    2    0    0  0.80228841655E-02  0.20100958750E-01 -0.99966981073E-02  0.23840075210E-01  0.00000000000E+00 0.  1.
     999901    1    3    3    0    0 -0.93888725337E-01 -0.10951762259E+00  0.33155746614E-01  0.89236119701E+00  0.88000000000E+00 0. -1.
        -11    1    4    4    0    0  0.53295083076E-01  0.64635117779E-01 -0.83013194717E-02  0.84185731312E-01  0.51100000000E-03 0. -1.
         11    1    4    4    0    0  0.32570758095E-01  0.24781546059E-01 -0.14857729035E-01  0.43542996464E-01  0.51100000000E-03 0.  1.
</event>
<event>
 8    1  0.1041149E+005  0.1043930E+01  0.7957747E-01            NaN
         13   -1    0    0    0    0  0.00000000000E+00  0.00000000000E+00  0.74505805969E-08  0.10566000000E+00  0.10566000000E+00 0. -1.
     999900   -1    0    0    0    0 -0.00000000000E+00 -0.00000000000E+00 -0.74505805969E-08  0.93827000000E+00  0.93827000000E+00 0.  1.
     999902    2    1    2    0    0 -0.87788357880E-02  0.53718220647E-02  0.21636705725E-01  0.10199702115E+01  0.10196887569E+01 0.  0.
     999903    2    3    3    0    0 -0.10370278211E+00 -0.31701708137E-01  0.73615552496E-01  0.13256567989E+00  0.19878244345E-01 0.  0.
         14    1    1    2    0    0  0.87788357880E-02 -0.53718220647E-02 -0.21636705725E-01  0.23959788495E-01  0.00000000000E+00 0.  1.
     999901    1    3    3    0    0  0.94923946321E-01  0.37073530201E-01 -0.51978846771E-01  0.88740453162E+00  0.88000000000E+00 0.  1.
        -11    1    4    4    0    0 -0.15363207091E-01 -0.83040127999E-02  0.20221702757E-01  0.26723831015E-01  0.51100000000E-03 0. -1.
         11    1    4    4    0    0 -0.88339575018E-01 -0.23397695337E-01  0.53393849739E-01  0.10584184887E+00  0.51100000000E-03 0.  1.
</event>
<event>
 8    1  0.1041149E+005  0.1043930E+01  0.7957747E-01            NaN
         13   -1    0    0    0    0  0.00000000000E+00  0.00000000000E+00  0.74505805969E-08  0.10566000000E+00  0.10566000000E+00 0. -1.
     999900   -1    0    0    0    0 -0.00000000000E+00 -0.00000000000E+00 -0.74505805969E-08  0.93827000000E+00  0.93827000000E+00 0.  1.
     999902    2    1    2    0    0  0.65131698691E-02 -0.40298402166E-02 -0.22719579311E-01  0.10199541730E+01  0.10196723370E+01 0.  0.
     999903    2    3    3    0    0  0.60885232687E-01  0.41196913013E-01 -0.10893820850E+00  0.13291672601E+00  0.19877766009E-01 0.  0.
         14    1    1    2    0    0 -0.65131698691E-02  0.40298402166E-02  0.22719579311E-01  0.23975826951E-01  0.00000000000E+00 0. -1.
     999901    1    3    3    0    0 -0.54372062818E-01 -0.45226753230E-01  0.86218629191E-01  0.88703744703E+00  0.88000000000E+00 0. -1.
        -11    1    4    4    0    0  0.23608760242E-01  0.92292631293E-02 -0.24625757068E-01  0.35344616142E-01  0.51100000000E-03 0. -1.
         11    1    4    4    0    0  0.37276472445E-01  0.31967649884E-01 -0.84312451433E-01  0.97572109872E-01  0.51100000000E-03 0.  1.
</event>
<event>
 8    1  0.1041149E+005  0.1043930E+01  0.7957747E-01            NaN
         13   -1    0    0    0    0  0.00000000000E+00  0.00000000000E+00  0.74505805969E-08  0.10566000000E+00  0.10566000000E+00 0.  1.
     999900   -1    0    0    0    0 -0.00000000000E+00 -0.00000000000E+00 -0.74505805969E-08  0.93827000000E+00  0.93827000000E+00 0.  1.
     999902    2    1    2    0    0 -0.12548662882E-02 -0.14996451685E-01 -0.17206238709E-01  0.10210712401E+01  0.10208153381E+01 0.  0.
     999903    2    3    3    0    0 -0.49558419134E-01 -0.52943070865E-01  0.10635609378E+00  0.13031828384E+00  0.20303466670E-01 0.  0.
         14    1    1    2    0    0  0.12548662882E-02  0.14996451685E-01  0.17206238709E-01  0.22858759876E-01  0.00000000000E+00 0.  1.
     999901    1    3    3    0    0  0.48303552846E-01  0.37946619180E-01 -0.12356233249E+00  0.89075295629E+00  0.88000000000E+00 0.  1.
        -11    1    4    4    0    0 -0.94617171215E-02 -0.21720501792E-01  0.42997695804E-01  0.49095491182E-01  0.51100000000E-03 0. -1.
         11    1    4    4    0    0 -0.40096702012E-01 -0.31222569073E-01  0.63358397975E-01  0.81222792655E-01  0.51100000000E-03 0.  1.
</event>
<event>
 8    1  0.1041149E+005  0.1043930E+01  0.7957747E-01            NaN
         13   -1    0    0    0    0  0.00000000000E+00  0.00000000000E+00  0.74505805969E-08  0.10566000000E+00  0.10566000000E+00 0.  1.
     999900   -1    0    0    0    0 -0.00000000000E+00 -0.00000000000E+00 -0.74505805969E-08  0.93827000000E+00  0.93827000000E+00 0.  1.
     999902    2    1    2    0    0  0.65973218435E-02  0.16531657788E-01  0.15440027779E-01  0.10203670031E+01  0.10200949006E+01 0.  0.
     999903    2    3    3    0    0 -0.30879042090E-01 -0.71568136131E-01  0.10309487367E+00  0.13084498340E+00  0.20404493488E-01 0.  0.
         14    1    1    2    0    0 -0.65973218435E-02 -0.16531657788E-01 -0.15440027779E-01  0.23562996892E-01  0.00000000000E+00 0.  1.
     999901    1    3    3    0    0  0.37476363933E-01  0.88099793919E-01 -0.87654845887E-01  0.88952201971E+00  0.88000000000E+00 0.  1.
        -11    1    4    4    0    0 -0.44136343366E-02 -0.72100892236E-03  0.94976609220E-02  0.10510314263E-01  0.51100000000E-03 0. -1.
         11    1    4    4    0    0 -0.26465407753E-01 -0.70847127209E-01  0.93597212744E-01  0.12033466913E+00  0.51100000000E-03 0.  1.
</event>
<event>
 8    1  0.1041149E+005  0.1043930E+01  0.7957747E-01            NaN
         13   -1    0    0    0    0  0.00000000000E+00  0.00000000000E+00  0.74505805969E-08  0.10566000000E+00  0.10566000000E+00 0.  1.
     999900   -1    0    0    0    0 -0.00000000000E+00 -0.00000000000E+00 -0.74505805969E-08  0.93827000000E+00  0.93827000000E+00 0. -1.
     999902    2    1    2    0    0 -0.18256610444E-01 -0.12284382940E-01 -0.18070017294E-02  0.10218511607E+01  0.10216126074E+01 0.  0.
     999903    2    3    3    0    0 -0.33033712457E-01 -0.77001047642E-01  0.10171317209E+00  0.13330007280E+00  0.20073677677E-01 0.  0.
         14    1    1    2    0    0  0.18256610444E-01  0.12284382940E-01  0.18070017294E-02  0.22078839290E-01  0.00000000000E+00 0.  1.
     999901    1    3    3    0    0  0.14777102013E-01  0.64716664702E-01 -0.10352017382E+00  0.88855108791E+00  0.88000000000E+00 0. -1.
        -11    1    4    4    0    0 -0.27090966975E-01 -0.40926861274E-01  0.51028935058E-01  0.70803543693E-01  0.51100000000E-03 0.  1.
         11    1    4    4    0    0 -0.59427454821E-02 -0.36074186368E-01  0.50684237034E-01  0.62496529109E-01  0.51100000000E-03 0. -1.
</event>
<event>
 8    1  0.1041149E+005  0.1043930E+01  0.7957747E-01            NaN
         13   -1    0    0    0    0  0.00000000000E+00  0.00000000000E+00  0.74505805969E-08  0.10566000000E+00  0.10566000000E+00 0.  1.
     999900   -1    0    0    0    0 -0.00000000000E+00 -0.00000000000E+00 -0.74505805969E-08  0.93827000000E+00  0.93827000000E+00 0.  1.
     999902    2    1    2    0    0  0.14435175928E-01 -0.10918409285E-01 -0.13874583721E-01  0.10211245174E+01  0.10208698202E+01 0.  0.
     999903    2    3    3    0    0 -0.50884634930E-01 -0.12141211388E-02 -0.12037700205E+00  0.13224678897E+00  0.20195801789E-01 0.  0.
         14    1    1    2    0    0 -0.14435175928E-01  0.10918409285E-01  0.13874583721E-01  0.22805482649E-01  0.00000000000E+00 0.  1.
     999901    1    3    3    0    0  0.65319810858E-01 -0.97042881467E-02  0.10650241832E+00  0.88887772838E+00  0.88000000000E+00 0. -1.
        -11    1    4    4    0    0 -0.16074154231E-01  0.21850571208E-02 -0.62919400592E-01  0.64978958138E-01  0.51100000000E-03 0.  1.
         11    1    4    4    0    0 -0.34810480699E-01 -0.33991782596E-02 -0.57457601453E-01  0.67267830834E-01  0.51100000000E-03 0. -1.
</event>
<event>
 8    1  0.1041149E+005  0.1043930E+01  0.7957747E-01            NaN
         13   -1    0    0    0    0  0.00000000000E+00  0.00000000000E+00  0.74505805969E-08  0.10566000000E+00  0.10566000000E+00 0.  1.
     999900   -1    0    0    0    0 -0.00000000000E+00 -0.00000000000E+00 -0.74505805969E-08  0.93827000000E+00  0.93827000000E+00 0.  1.
     999902    2    1    2    0    0 -0.56675514754E-02 -0.13689323385E-01  0.18839610204E-01  0.10199623212E+01  0.10196806790E+01 0.  0.
     999903    2    3    3    0    0 -0.92545167617E-01  0.40560684461E-01  0.82177805755E-01  0.13176048009E+00  0.19946307452E-01 0.  0.
         14    1    1    2    0    0  0.56675514754E-02  0.13689323385E-01 -0.18839610204E-01  0.23967678801E-01  0.00000000000E+00 0. -1.
     999901    1    3    3    0    0  0.86877616142E-01 -0.54250007845E-01 -0.63338195551E-01  0.88820184111E+00  0.88000000000E+00 0. -1.
        -11    1    4    4    0    0 -0.28550815305E-01  0.51254808158E-02  0.31161769191E-01  0.42576244413E-01  0.51100000000E-03 0. -1.
         11    1    4    4    0    0 -0.63994352312E-01  0.35435203645E-01  0.51016036564E-01  0.89184235675E-01  0.51100000000E-03 0.  1.
</event>
<event>
 8    1  0.1041149E+005  0.1043930E+01  0.7957747E-01            NaN
         13   -1    0    0    0    0  0.00000000000E+00  0.00000000000E+00  0.74505805969E-08  0.10566000000E+00  0.10566000000E+00 0.  1.
     999900   -1    0    0    0    0 -0.00000000000E+00 -0.00000000000E+00 -0.74505805969E-08  0.93827000000E+00  0.93827000000E+00 0.  1.
     999902    2    1    2    0    0  0.25067432366E-02 -0.24477597439E-01  0.37513867188E-02  0.10190400534E+01  0.10187360409E+01 0.  0.
     999903    2    3    3    0    0  0.75390639308E-01  0.14705086692E-01 -0.10156824860E+00  0.12890547336E+00  0.20013092440E-01 0.  0.
         14    1    1    2    0    0 -0.25067432366E-02  0.24477597439E-01 -0.37513867188E-02  0.24889946572E-01  0.00000000000E+00 0. -1.
     999901    1    3    3    0    0 -0.72883896071E-01 -0.39182684132E-01  0.10531963532E+00  0.89013458006E+00  0.88000000000E+00 0. -1.
        -11    1    4    4    0    0  0.43824943268E-01  0.19574106453E-02 -0.69155859598E-01  0.81897809169E-01  0.51100000000E-03 0. -1.
         11    1    4    4    0    0  0.31565696040E-01  0.12747676047E-01 -0.32412389004E-01  0.47007664195E-01  0.51100000000E-03 0.  1.
</event>
<event>
 8    1  0.1041149E+005  0.1043930E+01  0.7957747E-01            NaN
         13   -1    0    0    0    0  0.00000000000E+00  0.00000000000E+00  0.74505805969E-08  0.10566000000E+00  0.10566000000E+00 0. -1.
     999900   -1    0    0    0    0 -0.00000000000E+00 -0.00000000000E+00 -0.74505805969E-08  0.93827000000E+00  0.93827000000E+00 0.  1.
     999902    2    1    2    0    0  0.57974765163E-02  0.93732735488E-02  0.23889364936E-01  0.10176208619E+01  0.10172807124E+01 0.  0.
     999903    2    3    3    0    0  0.32279429432E-01  0.10063911765E+00 -0.67742131514E-01  0.12777420135E+00  0.23812949921E-01 0.  0.
         14    1    1    2    0    0 -0.57974765163E-02 -0.93732735488E-02 -0.23889364936E-01  0.26309138109E-01  0.00000000000E+00 0.  1.
     999901    1    3    3    0    0 -0.26481952916E-01 -0.91265844100E-01  0.91631496450E-01  0.88984666054E+00  0.88000000000E+00 0. -1.
        -11    1    4    4    0    0  0.29799903754E-01  0.99399051786E-01 -0.60774941536E-01  0.12025830699E+00  0.51100000000E-03 0.  1.
         11    1    4    4    0    0  0.24795256780E-02  0.12400658619E-02 -0.69671899781E-02  0.75158943659E-02  0.51100000000E-03 0. -1.
</event>
<event>
 8    1  0.1041149E+005  0.1043930E+01  0.7957747E-01            NaN
         13   -1    0    0    0    0  0.00000000000E+00  0.00000000000E+00  0.74505805969E-08  0.10566000000E+00  0.10566000000E+00 0. -1.
     999900   -1    0    0    0    0 -0.00000000000E+00 -0.00000000000E+00 -0.74505805969E-08  0.93827000000E+00  0.93827000000E+00 0.  1.
     999902    2    1    2    0    0  0.19785149537E-01 -0.21313598137E-02 -0.18340997633E-01  0.10168673499E+01  0.10165071668E+01 0.  0.
     999903    2    3    3    0    0  0.94072516223E-01  0.85058559692E-01  0.11572682693E-01  0.12893969339E+00  0.20172274543E-01 0.  0.
         14    1    1    2    0    0 -0.19785149537E-01  0.21313598137E-02  0.18340997633E-01  0.27062650111E-01  0.00000000000E+00 0. -1.
     999901    1    3    3    0    0 -0.74287366686E-01 -0.87189919506E-01 -0.29913680326E-01  0.88792765650E+00  0.88000000000E+00 0. -1.
        -11    1    4    4    0    0  0.34865675799E-01  0.30985572304E-01 -0.54599054546E-02  0.46965867697E-01  0.51100000000E-03 0. -1.
         11    1    4    4    0    0  0.59206840424E-01  0.54072987388E-01  0.17032588148E-01  0.81973825689E-01  0.51100000000E-03 0.  1.
</event>
<event>
 8    1  0.1041149E+005  0.1043930E+01  0.7957747E-01            NaN
         13   -1    0    0    0    0  0.00000000000E+00  0.00000000000E+00  0.74505805969E-08  0.10566000000E+00  0.10566000000E+00 0.  1.
     999900   -1    0    0    0    0 -0.00000000000E+00 -0.00000000000E+00 -0.74505805969E-08  0.93827000000E+00  0.93827000000E+00 0.  1.
     999902    2    1    2    0    0  0.18240386439E-01  0.23079667412E-02  0.14452048785E-01  0.10205441042E+01  0.10202761237E+01 0.  0.
     999903    2    3    3    0    0 -0.83471550312E-01  0.95481538887E-01 -0.14049434418E-01  0.12934324740E+00  0.21167547374E-01 0.  0.
         14    1    1    2    0    0 -0.18240386439E-01 -0.23079667412E-02 -0.14452048785E-01  0.23385895792E-01  0.00000000000E+00 0.  1.
     999901    1    3    3    0    0  0.10171193675E+00 -0.93173572146E-01  0.28501483203E-01  0.89120085680E+00  0.88000000000E+00 0.  1.
        -11    1    4    4    0    0 -0.52544440864E-01  0.64255674616E-01 -0.18881167170E-01  0.85126197970E-01  0.51100000000E-03 0. -1.
         11    1    4    4    0    0 -0.30927109447E-01  0.31225864271E-01  0.48317327525E-02  0.44217049434E-01  0.51100000000E-03 0.  1.
</event>
<event>
 8    1  0.1041149E+005  0.1043930E+01  0.7957747E-01            NaN
         13   -1    0    0    0    0  0.00000000000E+00  0.00000000000E+00  0.74505805969E-08  0.10566000000E+00  0.10566000000E+00 0. -1.
     999900   -1    0    0    0    0 -0.00000000000E+00 -0.00000000000E+00 -0.74505805969E-08  0.93827000000E+00  0.93827000000E+00 0. -1.
     999902    2    1    2    0    0 -0.13026867266E-01 -0.16812662079E-01  0.10835092182E-01  0.10200602681E+01  0.10197809503E+01 0.  0.
     999903    2    3    3    0    0  0.10319155269E+00  0.72037265402E-01 -0.10581514415E-01  0.12772641705E+00  0.19084156024E-01 0.  0.
         14    1    1    2    0    0  0.13026867266E-01  0.16812662079E-01 -0.10835092182E-01  0.23869731870E-01  0.00000000000E+00 0.  1.
     999901    1    3    3    0    0 -0.11621841996E+00 -0.88849927481E-01  0.21416606596E-01  0.89233385108E+00  0.88000000000E+00 0.  1.
        -11    1    4    4    0    0  0.57595772206E-01  0.40844873304E-01 -0.15398807063E-01  0.72270056256E-01  0.51100000000E-03 0.  1.
         11    1    4    4    0    0  0.45595780484E-01  0.31192392098E-01  0.48172926489E-02  0.55456360791E-01  0.51100000000E-03 0. -1.
</event>
<event>
 8    1  0.1041149E+005  0.1043930E+01  0.7957747E-01            NaN
         13   -1    0    0    0    0  0.00000000000E+00  0.00000000000E+00  0.74505805969E-08  0.10566000000E+00  0.10566000000E+00 0. -1.
     999900   -1    0    0    0    0 -0.00000000000E+00 -0.00000000000E+00 -0.74505805969E-08  0.93827000000E+00  0.93827000000E+00 0. -1.
     999902    2    1    2    0    0  0.84623879505E-02 -0.19110560444E-01 -0.12334250177E-01  0.10196615172E+01  0.10193726749E+01 0.  0.
     999903    2    3    3    0    0  0.33320140467E-01 -0.88535871726E-01  0.88140980531E-01  0.13087973650E+00  0.20293857064E-01 0.  0.
         14    1    1    2    0    0 -0.84623879505E-02  0.19110560444E-01  0.12334250177E-01  0.24268482806E-01  0.00000000000E+00 0.  1.
     999901    1    3    3    0    0 -0.24857752516E-01  0.69425311282E-01 -0.10047523071E+00  0.88878178069E+00  0.88000000000E+00 0. -1.
        -11    1    4    4    0    0  0.19488506344E-01 -0.73877338409E-01  0.66362457497E-01  0.10120227219E+00  0.51100000000E-03 0. -1.
         11    1    4    4    0    0  0.13831634122E-01 -0.14658533316E-01  0.21778523034E-01  0.29677464312E-01  0.51100000000E-03 0.  1.
</event>
<event>
 8    1  0.1041149E+005  0.1043930E+01  0.7957747E-01            NaN
         13   -1    0    0    0    0  0.00000000000E+00  0.00000000000E+00  0.74505805969E-08  0.10566000000E+00  0.10566000000E+00 0. -1.
     999900   -1    0    0    0    0 -0.00000000000E+00 -0.00000000000E+00 -0.74505805969E-08  0.93827000000E+00  0.93827000000E+00 0.  1.
     999902    2    1    2    0    0 -0.96338975364E-02 -0.19552291441E-01 -0.19953265689E-02  0.10220419802E+01  0.10218075767E+01 0.  0.
     999903    2    3    3    0    0  0.10243438613E+00  0.49160614355E-01 -0.60276641051E-01  0.13037081030E+00  0.21300358135E-01 0.  0.
         14    1    1    2    0    0  0.96338975364E-02  0.19552291441E-01  0.19953265689E-02  0.21888019793E-01  0.00000000000E+00 0. -1.
     999901    1    3    3    0    0 -0.11206828366E+00 -0.68712905796E-01  0.58281314482E-01  0.89167116991E+00  0.88000000000E+00 0.  1.
        -11    1    4    4    0    0  0.61035019940E-01  0.40367672316E-01 -0.35625508986E-01  0.81389560994E-01  0.51100000000E-03 0. -1.
         11    1    4    4    0    0  0.41399366188E-01  0.87929420385E-02 -0.24651132066E-01  0.48981249306E-01  0.51100000000E-03 0.  1.
</event>
<event>
 8    1  0.1041149E+005  0.1043930E+01  0.7957747E-01            NaN
         13   -1    0    0    0    0  0.00000000000E+00  0.00000000000E+00  0.74505805969E-08  0.10566000000E+00  0.10566000000E+00 0. -1.
     999900   -1    0    0    0    0 -0.00000000000E+00 -0.00000000000E+00 -0.74505805969E-08  0.93827000000E+00  0.93827000000E+00 0.  1.
     999902    2    1    2    0    0 -0.82079983184E-02 -0.12645132191E-01  0.18443815168E-01  0.10201088975E+01  0.10198307300E+01 0.  0.
     999903    2    3    3    0    0 -0.96442930904E-01 -0.60880100666E-01 -0.61967890011E-01  0.13073942547E+00  0.15657343391E-01 0.  0.
         14    1    1    2    0    0  0.82079983184E-02  0.12645132191E-01 -0.18443815168E-01  0.23821102462E-01  0.00000000000E+00 0.  1.
     999901    1    3    3    0    0  0.88234932585E-01  0.48234968475E-01  0.80411705180E-01  0.88936947207E+00  0.88000000000E+00 0. -1.
        -11    1    4    4    0    0 -0.61439501734E-01 -0.30990984512E-01 -0.32678721678E-01  0.76180138264E-01  0.51100000000E-03 0. -1.
         11    1    4    4    0    0 -0.35003429170E-01 -0.29889116154E-01 -0.29289168334E-01  0.54559287209E-01  0.51100000000E-03 0.  1.
</event>
<event>
 8    1  0.1041149E+005  0.1043930E+01  0.7957747E-01            NaN
         13   -1    0    0    0    0  0.00000000000E+00  0.00000000000E+00  0.74505805969E-08  0.10566000000E+00  0.10566000000E+00 0. -1.
     999900   -1    0    0    0    0 -0.00000000000E+00 -0.00000000000E+00 -0.74505805969E-08  0.93827000000E+00  0.93827000000E+00 0.  1.
     999902    2    1    2    0    0 -0.99794878234E-02 -0.10883478537E-01 -0.18766768365E-01  0.10200504716E+01  0.10197709217E+01 0.  0.
     999903    2    3    3    0    0 -0.76095403785E-01 -0.55062231450E-01 -0.92748045049E-01  0.13337335682E+00  0.19075970218E-01 0.  0.
         14    1    1    2    0    0  0.99794878234E-02  0.10883478537E-01  0.18766768365E-01  0.23879528412E-01  0.00000000000E+00 0. -1.
     999901    1    3    3    0    0  0.66115915962E-01  0.44178752913E-01  0.73981276684E-01  0.88667711477E+00  0.88000000000E+00 0. -1.
        -11    1    4    4    0    0 -0.29199874036E-01 -0.19200565744E-01 -0.47585924327E-01  0.59042151753E-01  0.51100000000E-03 0. -1.
         11    1    4    4    0    0 -0.46895529750E-01 -0.35861665706E-01 -0.45162120722E-01  0.74331205068E-01  0.51100000000E-03 0.  1.
</event>
<event>
 8    1  0.1041149E+005  0.1043930E+01  0.7957747E-01            NaN
         13   -1    0    0    0    0  0.00000000000E+00  0.00000000000E+00  0.74505805969E-08  0.10566000000E+00  0.10566000000E+00 0.  1.
     999900   -1    0    0    0    0 -0.00000000000E+00 -0.00000000000E+00 -0.74505805969E-08  0.93827000000E+00  0.93827000000E+00 0. -1.
     999902    2    1    2    0    0  0.32184474032E-02  0.21579701404E-01  0.82905500799E-02  0.10205895815E+01  0.10203226542E+01 0.  0.
     999903    2    3    3    0    0  0.60504512297E-01 -0.67248174020E-03 -0.11411073539E+00  0.12999487704E+00  0.14702376873E-01 0.  0.
         14    1    1    2    0    0 -0.32184474032E-02 -0.21579701404E-01 -0.82905500799E-02  0.23340418526E-01  0.00000000000E+00 0.  1.
     999901    1    3    3    0    0 -0.57286064894E-01  0.22252183144E-01  0.12240128547E+00  0.89059470444E+00  0.88000000000E+00 0.  1.
        -11    1    4    4    0    0  0.21433669546E-01  0.70085290996E-03 -0.55878583857E-01  0.59854579105E-01  0.51100000000E-03 0. -1.
         11    1    4    4    0    0  0.39070842751E-01 -0.13733346502E-02 -0.58232151529E-01  0.70140297932E-01  0.51100000000E-03 0.  1.
</event>
<event>
 8    1  0.1041149E+005  0.1043930E+01  0.7957747E-01            NaN
         13   -1    0    0    0    0  0.00000000000E+00  0.00000000000E+00  0.74505805969E-08  0.10566000000E+00  0.10566000000E+00 0. -1.
     999900   -1    0    0    0    0 -0.00000000000E+00 -0.00000000000E+00 -0.74505805969E-08  0.93827000000E+00  0.93827000000E+00 0. -1.
     999902    2    1    2    0    0 -0.20494364506E-01 -0.12612171411E-01 -0.10411441988E-03  0.10198655722E+01  0.10195816244E+01 0.  0.
     999903    2    3    3    0    0  0.55922667692E-01 -0.11033225890E+00  0.36033933943E-01  0.13043050611E+00  0.20325363779E-01 0.  0.
         14    1    1    2    0    0  0.20494364506E-01  0.12612171411E-01  0.10411441988E-03  0.24064427773E-01  0.00000000000E+00 0. -1.
     999901    1    3    3    0    0 -0.76417032198E-01  0.97720087484E-01 -0.36138048363E-01  0.88943506612E+00  0.88000000000E+00 0. -1.
        -11    1    4    4    0    0  0.27866982900E-01 -0.33628045406E-01  0.12246255698E-01  0.45361283860E-01  0.51100000000E-03 0. -1.
         11    1    4    4    0    0  0.28055684791E-01 -0.76704213490E-01  0.23787678245E-01  0.85069222245E-01  0.51100000000E-03 0.  1.
</event>
<event>
 8    1  0.1041149E+005  0.1043930E+01  0.7957747E-01            NaN
         13   -1    0    0    0    0  0.00000000000E+00  0.00000000000E+00  0.74505805969E-08  0.10566000000E+00  0.10566000000E+00 0. -1.
     999900   -1    0    0    0    0 -0.00000000000E+00 -0.00000000000E+00 -0.74505805969E-08  0.93827000000E+00  0.93827000000E+00 0.  1.
     999902    2    1    2    0    0  0.91085196730E-02  0.12432499218E-02 -0.21626874491E-01  0.10204303723E+01  0.10201597484E+01 0.  0.
     999903    2    3    3    0    0  0.80818695678E-01 -0.35594653522E-01  0.92576472277E-01  0.12939626248E+00  0.19348090216E-01 0.  0.
         14    1    1    2    0    0 -0.91085196730E-02 -0.12432499218E-02  0.21626874491E-01  0.23499627683E-01  0.00000000000E+00 0. -1.
     999901    1    3    3    0    0 -0.71710176005E-01  0.36837903444E-01 -0.11420334677E+00  0.89103410983E+00  0.88000000000E+00 0.  1.
        -11    1    4    4    0    0  0.36896274151E-01 -0.26135643247E-01  0.51283048524E-01  0.68371186044E-01  0.51100000000E-03 0. -1.
         11    1    4    4    0    0  0.43922421527E-01 -0.94590102746E-02  0.41293423753E-01  0.61025076439E-01  0.51100000000E-03 0.  1.
</event>
<event>
 8    1  0.1041149E+005  0.1043930E+01  0.7957747E-01            NaN
         13   -1    0    0    0    0  0.00000000000E+00  0.00000000000E+00  0.74505805969E-08  0.10566000000E+00  0.10566000000E+00 0. -1.
     999900   -1    0    0    0    0 -0.00000000000E+00 -0.00000000000E+00 -0.74505805969E-08  0.93827000000E+00  0.93827000000E+00 0. -1.
     999902    2    1    2    0    0  0.10660642906E-01 -0.40336961525E-02  0.19470019536E-01  0.10213689346E+01  0.10211197280E+01 0.  0.
     999903    2    3    3    0    0  0.10444032338E+00  0.75738085232E-01 -0.20039913850E-01  0.13192011627E+00  0.18901857754E-01 0.  0.
         14    1    1    2    0    0 -0.10660642906E-01  0.40336961525E-02 -0.19470019536E-01  0.22561065412E-01  0.00000000000E+00 0.  1.
     999901    1    3    3    0    0 -0.93779680474E-01 -0.79771781384E-01  0.39509933386E-01  0.88944881832E+00  0.88000000000E+00 0.  1.
        -11    1    4    4    0    0  0.85107184275E-01  0.54793995974E-01 -0.10079617420E-01  0.10172253742E+00  0.51100000000E-03 0. -1.
         11    1    4    4    0    0  0.19333139105E-01  0.20944089258E-01 -0.99602964307E-02  0.30197578851E-01  0.51100000000E-03 0.  1.
</event>
<event>
 8    1  0.1041149E+005  0.1043930E+01  0.7957747E-01            NaN
         13   -1    0    0    0    0  0.00000000000E+00  0.00000000000E+00  0.74505805969E-08  0.10566000000E+00  0.10566000000E+00 0.  1.
     999900   -1    0    0    0    0 -0.00000000000E+00 -0.00000000000E+00 -0.74505805969E-08  0.93827000000E+00  0.93827000000E+00 0. -1.
     999902    2    1    2    0    0 -0.24347810355E-01 -0.84227290511E-03 -0.28953635408E-02  0.10193961780E+01  0.10191009073E+01 0.  0.
     999903    2    3    3    0    0  0.25111926214E-01 -0.11081524214E+00  0.57902321794E-01  0.12909472452E+00  0.20053485988E-01 0.  0.
         14    1    1    2    0    0  0.24347810355E-01  0.84227290511E-03  0.28953635408E-02  0.24533822017E-01  0.00000000000E+00 0.  1.
     999901    1    3    3    0    0 -0.49459736569E-01  0.10997296923E+00 -0.60797685335E-01  0.89030145347E+00  0.88000000000E+00 0.  1.
        -11    1    4    4    0    0  0.12753847319E-01 -0.21403601494E-01  0.94738482563E-02  0.26660639530E-01  0.51100000000E-03 0.  1.
         11    1    4    4    0    0  0.12358078895E-01 -0.89411640645E-01  0.48428473538E-01  0.10243408499E+00  0.51100000000E-03 0. -1.
</event>
<event>
 8    1  0.1041149E+005  0.1043930E+01  0.7957747E-01            NaN
         13   -1    0    0    0    0  0.00000000000E+00  0.00000000000E+00  0.74505805969E-08  0.10566000000E+00  0.10566000000E+00 0.  1.
     999900   -1    0    0    0    0 -0.00000000000E+00 -0.00000000000E+00 -0.74505805969E-08  0.93827000000E+00  0.93827000000E+00 0. -1.
     999902    2    1    2    0    0 -0.39422360800E-02  0.54888429223E-02  0.23070860585E-01  0.10198897581E+01  0.10196063875E+01 0.  0.
     999903    2    3    3    0    0  0.49501155735E-01  0.11680763645E+00 -0.20786246015E-01  0.13018670893E+00  0.20545627428E-01 0.  0.
         14    1    1    2    0    0  0.39422360800E-02 -0.54888429223E-02 -0.23070860585E-01  0.24040241889E-01  0.00000000000E+00 0. -1.
     999901    1    3    3    0    0 -0.53443391815E-01 -0.11131879353E+00  0.43857106600E-01  0.88970304918E+00  0.88000000000E+00 0. -1.
        -11    1    4    4    0    0 -0.69426341282E-03  0.13810956018E-01 -0.38513478093E-02  0.14363791588E-01  0.51100000000E-03 0.  1.
         11    1    4    4    0    0  0.50195419147E-01  0.10299668043E+00 -0.16934898206E-01  0.11582291734E+00  0.51100000000E-03 0. -1.
</event>
<event>
 8    1  0.1041149E+005  0.1043930E+01  0.7957747E-01            NaN
         13   -1    0    0    0    0  0.00000000000E+00  0.00000000000E+00  0.74505805969E-08  0.10566000000E+00  0.10566000000E+00 0. -1.
     999900   -1    0    0    0    0 -0.00000000000E+00 -0.00000000000E+00 -0.74505805969E-08  0.93827000000E+00  0.93827000000E+00 0.  1.
     999902    2    1    2    0    0 -0.87917454194E-02 -0.16131756977E-02  0.21627319799E-01  0.10205283316E+01  0.10202599852E+01 0.  0.
     999903    2    3    3    0    0 -0.59266178704E-01 -0.86880402194E-01  0.79368282473E-01  0.13308696050E+00  0.18765142374E-01 0.  0.
         14    1    1    2    0    0  0.87917454194E-02  0.16131756977E-02 -0.21627319799E-01  0.23401668424E-01  0.00000000000E+00 0.  1.
     999901    1    3    3    0    0  0.50474433285E-01  0.85267226496E-01 -0.57740962674E-01  0.88744137108E+00  0.88000000000E+00 0. -1.
        -11    1    4    4    0    0 -0.29457693425E-01 -0.35614651039E-01  0.24591782940E-01  0.52356241077E-01  0.51100000000E-03 0.  1.
         11    1    4    4    0    0 -0.29808485279E-01 -0.51265751154E-01  0.54776499533E-01  0.80730719421E-01  0.51100000000E-03 0. -1.
</event>
<event>
 8    1  0.1041149E+005  0.1043930E+01  0.7957747E-01            NaN
         13   -1    0    0    0    0  0.00000000000E+00  0.00000000000E+00  0.74505805969E-08  0.10566000000E+00  0.10566000000E+00 0.  1.
     999900   -1    0    0    0    0 -0.00000000000E+00 -0.00000000000E+00 -0.74505805969E-08  0.93827000000E+00  0.93827000000E+00 0.  1.
     999902    2    1    2    0    0 -0.29147927157E-02  0.23233720429E-01  0.32796644583E-03  0.10205118587E+01  0.10202431300E+01 0.  0.
     999903    2    3    3    0    0 -0.91040921960E-01 -0.15478534884E-01 -0.90072872871E-01  0.13065953096E+00  0.20754664327E-01 0.  0.
         14    1    1    2    0    0  0.29147927157E-02 -0.23233720429E-01 -0.32796644583E-03  0.23418141334E-01  0.00000000000E+00 0.  1.
     999901    1    3    3    0    0  0.88126129244E-01  0.38712255313E-01  0.90400839316E-01  0.88985232770E+00  0.88000000000E+00 0. -1.
        -11    1    4    4    0    0 -0.28787792527E-01 -0.42537689616E-02 -0.42490558443E-01  0.51502817659E-01  0.51100000000E-03 0. -1.
         11    1    4    4    0    0 -0.62253129432E-01 -0.11224765922E-01 -0.47582314428E-01  0.79156713306E-01  0.51100000000E-03 0.  1.
</event>
<event>
 8    1  0.1041149E+005  0.1043930E+01  0.7957747E-01            NaN
         13   -1    0    0    0    0  0.00000000000E+00  0.00000000000E+00  0.74505805969E-08  0.10566000000E+00  0.10566000000E+00 0. -1.
     999900   -1    0    0    0    0 -0.00000000000E+00 -0.00000000000E+00 -0.74505805969E-08  0.93827000000E+00  0.93827000000E+00 0. -1.
     999902    2    1    2    0    0 -0.17528579334E-01  0.11497721503E-02  0.15701963679E-01  0.10203689149E+01  0.10200968570E+01 0.  0.
     999903    2    3    3    0    0 -0.32883588117E-01 -0.31742081146E-01 -0.11958241446E+00  0.12929118914E+00  0.18093304226E-01 0.  0.
         14    1    1    2    0    0  0.17528579334E-01 -0.11497721503E-02 -0.15701963679E-01  0.23561085137E-01  0.00000000000E+00 0.  1.
     999901    1    3    3    0    0  0.15355008783E-01  0.32891853296E-01  0.13528437814E+00  0.89107772572E+00  0.88000000000E+00 0.  1.
        -11    1    4    4    0    0 -0.23648770765E-01 -0.14442902018E-01 -0.52068358033E-01  0.58985055791E-01  0.51100000000E-03 0. -1.
         11    1    4    4    0    0 -0.92348173516E-02 -0.17299179128E-01 -0.67514056430E-01  0.70306133350E-01  0.51100000000E-03 0.  1.
</event>
<event>
 8    1  0.1041149E+005  0.1043930E+01  0.7957747E-01            NaN
         13   -1    0    0    0    0  0.00000000000E+00  0.00000000000E+00  0.74505805969E-08  0.10566000000E+00  0.10566000000E+00 0. -1.
     999900   -1    0    0    0    0 -0.00000000000E+00 -0.00000000000E+00 -0.74505805969E-08  0.93827000000E+00  0.93827000000E+00 0. -1.
     999902    2    1    2    0    0 -0.36230363345E-02 -0.14452291670E-01  0.17694926128E-01  0.10207976517E+01  0.10205355164E+01 0.  0.
     999903    2    3    3    0    0  0.16577569274E-01 -0.79054377325E-01 -0.10035077789E+00  0.13033918430E+00  0.19839706749E-01 0.  0.
         14    1    1    2    0    0  0.36230363345E-02  0.14452291670E-01 -0.17694926128E-01  0.23132348291E-01  0.00000000000E+00 0.  1.
     999901    1    3    3    0    0 -0.20200605608E-01  0.64602085655E-01  0.11804570402E+00  0.89045846741E+00  0.88000000000E+00 0.  1.
        -11    1    4    4    0    0 -0.34430015392E-02 -0.23708670660E-01 -0.23761486830E-01  0.33746476875E-01  0.51100000000E-03 0.  1.
         11    1    4    4    0    0  0.20020570813E-01 -0.55345706664E-01 -0.76589291062E-01  0.96592707428E-01  0.51100000000E-03 0. -1.
</event>
<event>
 8    1  0.1041149E+005  0.1043930E+01  0.7957747E-01            NaN
         13   -1    0    0    0    0  0.00000000000E+00  0.00000000000E+00  0.74505805969E-08  0.10566000000E+00  0.10566000000E+00 0.  1.
     999900   -1    0    0    0    0 -0.00000000000E+00 -0.00000000000E+00 -0.74505805969E-08  0.93827000000E+00  0.93827000000E+00 0.  1.
     999902    2    1    2    0    0 -0.18215421927E-03  0.22938026584E-01  0.61724832561E-02  0.10201752996E+01  0.10198986989E+01 0.  0.
     999903    2    3    3    0    0  0.12230017436E+00 -0.34841876353E-01 -0.16609807709E-01  0.12952414968E+00  0.18147469247E-01 0.  0.
         14    1    1    2    0    0  0.18215421927E-03 -0.22938026584E-01 -0.61724832561E-02  0.23754700446E-01  0.00000000000E+00 0.  1.
     999901    1    3    3    0    0 -0.12248232858E+00  0.57779902937E-01  0.22782290965E-01  0.89065114988E+00  0.88000000000E+00 0. -1.
        -11    1    4    4    0    0  0.47301155987E-01 -0.77030106069E-02 -0.13109312491E-01  0.49687532894E-01  0.51100000000E-03 0. -1.
         11    1    4    4    0    0  0.74999018376E-01 -0.27138865746E-01 -0.35004952179E-02  0.79836616782E-01  0.51100000000E-03 0.  1.
</event>
<event>
 8    1  0.1041149E+005  0.1043930E+01  0.7957747E-01            NaN
         13   -1    0    0    0    0  0.00000000000E+00  0.00000000000E+00  0.74505805969E-08  0.10566000000E+00  0.10566000000E+00 0. -1.
     999900   -1    0    0    0    0 -0.00000000000E+00 -0.00000000000E+00 -0.74505805969E-08  0.93827000000E+00  0.93827000000E+00 0. -1.
     999902    2    1    2    0    0 -0.17530489224E-01 -0.96827162294E-02  0.89232280301E-02  0.10220051957E+01  0.10217699951E+01 0.  0.
     999903    2    3    3    0    0 -0.25041836446E-01 -0.28606509133E-01 -0.12453708777E+00  0.13170963455E+00  0.19812008138E-01 0.  0.
         14    1    1    2    0    0  0.17530489224E-01  0.96827162294E-02 -0.89232280301E-02  0.21924804321E-01  0.00000000000E+00 0. -1.
     999901    1    3    3    0    0  0.75113472220E-02  0.18923792904E-01  0.13346031580E+00  0.89029556113E+00  0.88000000000E+00 0.  1.
        -11    1    4    4    0    0 -0.23101385156E-01 -0.13370442903E-01 -0.90679485067E-01  0.94527630207E-01  0.51100000000E-03 0. -1.
         11    1    4    4    0    0 -0.19404512903E-02 -0.15236066230E-01 -0.33857602700E-01  0.37182004343E-01  0.51100000000E-03 0.  1.
</event>
<event>
 8    1  0.1041149E+005  0.1043930E+01  0.7957747E-01            NaN
         13   -1    0    0    0    0  0.00000000000E+00  0.00000000000E+00  0.74505805969E-08  0.10566000000E+00  0.10566000000E+00 0. -1.
     999900   -1    0    0    0    0 -0.00000000000E+00 -0.00000000000E+00 -0.74505805969E-08  0.93827000000E+00  0.93827000000E+00 0. -1.
     999902    2    1    2    0    0 -0.20914279774E-01  0.56177706834E-02  0.10712908147E-01  0.10197694361E+01  0.10194831877E+01 0.  0.
     999903    2    3    3    0    0  0.54882903372E-01  0.70647656485E-02  0.11636883779E+00  0.13021309601E+00  0.18753665463E-01 0.  0.
         14    1    1    2    0    0  0.20914279774E-01 -0.56177706834E-02 -0.10712908147E-01  0.24160563878E-01  0.00000000000E+00 0.  1.
     999901    1    3    3    0    0 -0.75797183147E-01 -0.14469949651E-02 -0.10565592964E+00  0.88955634011E+00  0.88000000000E+00 0.  1.
        -11    1    4    4    0    0  0.12819034521E-01  0.97892472973E-02  0.36290379768E-01  0.39716618605E-01  0.51100000000E-03 0.  1.
         11    1    4    4    0    0  0.42063868851E-01 -0.27244816488E-02  0.80078458018E-01  0.90496477404E-01  0.51100000000E-03 0. -1.
</event>
<event>
 8    1  0.1041149E+005  0.1043930E+01  0.7957747E-01            NaN
         13   -1    0    0    0    0  0.00000000000E+00  0.00000000000E+00  0.74505805969E-08  0.10566000000E+00  0.10566000000E+00 0. -1.
     999900   -1    0    0    0    0 -0.00000000000E+00 -0.00000000000E+00 -0.74505805969E-08  0.93827000000E+00  0.93827000000E+00 0. -1.
     999902    2    1    2    0    0  0.14014345804E-01  0.59940681674E-02 -0.11301097486E-01  0.10249551338E+01  0.10247794791E+01 0.  0.
     999903    2    3    3    0    0 -0.12516819708E+00  0.21157529063E-01  0.33452706550E-01  0.13276422727E+00  0.19812568480E-01 0.  0.
         14    1    1    2    0    0 -0.14014345804E-01 -0.59940681674E-02  0.11301097486E-01  0.18974866163E-01  0.00000000000E+00 0.  1.
     999901    1    3    3    0    0  0.13918254288E+00 -0.15163460895E-01 -0.44753804036E-01  0.89219090657E+00  0.88000000000E+00 0.  1.
        -11    1    4    4    0    0 -0.55648531402E-01  0.15236095186E-01  0.23430815578E-01  0.62274889670E-01  0.51100000000E-03 0. -1.
         11    1    4    4    0    0 -0.69519665679E-01  0.59214338764E-02  0.10021890972E-01  0.70489337598E-01  0.51100000000E-03 0.  1.
</event>
<event>
 8    1  0.1041149E+005  0.1043930E+01  0.7957747E-01            NaN
         13   -1    0    0    0    0  0.00000000000E+00  0.00000000000E+00  0.74505805969E-08  0.10566000000E+00  0.10566000000E+00 0. -1.
     999900   -1    0    0    0    0 -0.00000000000E+00 -0.00000000000E+00 -0.74505805969E-08  0.93827000000E+00  0.93827000000E+00 0.  1.
     999902    2    1    2    0    0  0.11992651814E-01 -0.10152456220E-01  0.18211175524E-01  0.10198770796E+01  0.10195934065E+01 0.  0.
     999903    2    3    3    0    0  0.29289703496E-01  0.11538215239E+00 -0.43466323111E-01  0.12866316602E+00  0.22225238434E-01 0.  0.
         14    1    1    2    0    0 -0.11992651814E-01  0.10152456220E-01 -0.18211175524E-01  0.24052920380E-01  0.00000000000E+00 0.  1.
     999901    1    3    3    0    0 -0.17297051682E-01 -0.12553460861E+00  0.61677498635E-01  0.89121391360E+00  0.88000000000E+00 0. -1.
        -11    1    4    4    0    0  0.10447666774E-02  0.34914980808E-01 -0.19813587389E-01  0.40162006778E-01  0.51100000000E-03 0. -1.
         11    1    4    4    0    0  0.28244936818E-01  0.80467171586E-01 -0.23652735722E-01  0.88501159241E-01  0.51100000000E-03 0.  1.
</event>
<event>
 8    1  0.1041149E+005  0.1043930E+01  0.7957747E-01            NaN
         13   -1    0    0    0    0  0.00000000000E+00  0.00000000000E+00  0.74505805969E-08  0.10566000000E+00  0.10566000000E+00 0.  1.
     999900   -1    0    0    0    0 -0.00000000000E+00 -0.00000000000E+00 -0.74505805969E-08  0.93827000000E+00  0.93827000000E+00 0.  1.
     999902    2    1    2    0    0 -0.10847883795E-01 -0.15984988480E-01  0.15640322951E-01  0.10190740924E+01  0.10187709211E+01 0.  0.
     999903    2    3    3    0    0 -0.11457984800E+00  0.31875365731E-01  0.50663695177E-01  0.13099888699E+00  0.21197119531E-01 0.  0.
         14    1    1    2    0    0  0.10847883795E-01  0.15984988480E-01 -0.15640322951E-01  0.24855907578E-01  0.00000000000E+00 0. -1.
     999901    1    3    3    0    0  0.10373196420E+00 -0.47860354211E-01 -0.35023372226E-01  0.88807520543E+00  0.88000000000E+00 0.  1.
        -11    1    4    4    0    0 -0.38625908822E-01  0.21239187126E-01  0.17203668834E-01  0.47321150075E-01  0.51100000000E-03 0.  1.
         11    1    4    4    0    0 -0.75953939173E-01  0.10636178605E-01  0.33460026343E-01  0.83677736914E-01  0.51100000000E-03 0. -1.
</event>
<event>
 8    1  0.1041149E+005  0.1043930E+01  0.7957747E-01            NaN
         13   -1    0    0    0    0  0.00000000000E+00  0.00000000000E+00  0.74505805969E-08  0.10566000000E+00  0.10566000000E+00 0.  1.
     999900   -1    0    0    0    0 -0.00000000000E+00 -0.00000000000E+00 -0.74505805969E-08  0.93827000000E+00  0.93827000000E+00 0. -1.
     999902    2    1    2    0    0 -0.16035625086E-01  0.15379000314E-01  0.65218215690E-02  0.10207742431E+01  0.10205115708E+01 0.  0.
     999903    2    3    3    0    0 -0.36006329775E-01 -0.45833280749E-01  0.11660083863E+00  0.13158182160E+00  0.17912978470E-01 0.  0.
         14    1    1    2    0    0  0.16035625086E-01 -0.15379000314E-01 -0.65218215690E-02  0.23155756932E-01  0.00000000000E+00 0. -1.
     999901    1    3    3    0    0  0.19970704689E-01  0.61212281063E-01 -0.11007901706E+00  0.88919242147E+00  0.88000000000E+00 0. -1.
        -11    1    4    4    0    0 -0.28957332421E-01 -0.22734106703E-01  0.70138367367E-01  0.79215013769E-01  0.51100000000E-03 0. -1.
         11    1    4    4    0    0 -0.70489973538E-02 -0.23099174046E-01  0.46462471265E-01  0.52366807831E-01  0.51100000000E-03 0.  1.
</event>
<event>
 8    1  0.1041149E+005  0.1043930E+01  0.7957747E-01            NaN
         13   -1    0    0    0    0  0.00000000000E+00  0.00000000000E+00  0.74505805969E-08  0.10566000000E+00  0.10566000000E+00 0. -1.
     999900   -1    0    0    0    0 -0.00000000000E+00 -0.00000000000E+00 -0.74505805969E-08  0.93827000000E+00  0.93827000000E+00 0.  1.
     999902    2    1    2    0    0  0.11639773186E-01  0.24101963136E-01  0.19648657879E-02  0.10170925328E+01  0.10167383984E+01 0.  0.
     999903    2    3    3    0    0 -0.28000052940E-01  0.49314592710E-01 -0.11363030304E+00  0.12829039761E+00  0.18183738102E-01 0.  0.
         14    1    1    2    0    0 -0.11639773186E-01 -0.24101963136E-01 -0.19648657879E-02  0.26837467176E-01  0.00000000000E+00 0. -1.
     999901    1    3    3    0    0  0.39639826126E-01 -0.25212629574E-01  0.11559516883E+00  0.88880213521E+00  0.88000000000E+00 0. -1.
        -11    1    4    4    0    0 -0.16337875366E-01  0.41921407467E-01 -0.77600609553E-01  0.89701986040E-01  0.51100000000E-03 0.  1.
         11    1    4    4    0    0 -0.11662177574E-01  0.73931852431E-02 -0.36029693486E-01  0.38588411570E-01  0.51100000000E-03 0. -1.
</event>
<event>
 8    1  0.1041149E+005  0.1043930E+01  0.7957747E-01            NaN
         13   -1    0    0    0    0  0.00000000000E+00  0.00000000000E+00  0.74505805969E-08  0.10566000000E+00  0.10566000000E+00 0.  1.
     999900   -1    0    0    0    0 -0.00000000000E+00 -0.00000000000E+00 -0.74505805969E-08  0.93827000000E+00  0.93827000000E+00 0.  1.
     999902    2    1    2    0    0  0.89091778623E-02 -0.12777469611E-01 -0.17620926408E-01  0.10204111942E+01  0.10201401232E+01 0.  0.
     999903    2    3    3    0    0  0.35071196506E-01  0.12301607152E+00  0.10211719267E-02  0.12941632053E+00  0.19611184334E-01 0.  0.
         14    1    1    2    0    0 -0.89091778623E-02  0.12777469611E-01  0.17620926408E-01  0.23518805822E-01  0.00000000000E+00 0.  1.
     999901    1    3    3    0    0 -0.26162018644E-01 -0.13579354113E+00 -0.18642098335E-01  0.89099487365E+00  0.88000000000E+00 0. -1.
        -11    1    4    4    0    0  0.15113181621E-02  0.26794914876E-01  0.55443445896E-02  0.27408984362E-01  0.51100000000E-03 0. -1.
         11    1    4    4    0    0  0.33559878344E-01  0.96221156645E-01 -0.45231726629E-02  0.10200733617E+00  0.51100000000E-03 0.  1.
</event>
<event>
 8    1  0.1041149E+005  0.1043930E+01  0.7957747E-01            NaN
         13   -1    0    0    0    0  0.00000000000E+00  0.00000000000E+00  0.74505805969E-08  0.10566000000E+00  0.10566000000E+00 0.  1.
     999900   -1    0    0    0    0 -0.00000000000E+00 -0.00000000000E+00 -0.74505805969E-08  0.93827000000E+00  0.93827000000E+00 0. -1.
     999902    2    1    2    0    0  0.15610172366E-02  0.21427872398E-01  0.94478604272E-02  0.10204597517E+01  0.10201898119E+01 0.  0.
     999903    2    3    3    0    0 -0.82456870274E-01 -0.58813609149E-01  0.79123504491E-01  0.13009331240E+00  0.20138641789E-01 0.  0.
         14    1    1    2    0    0 -0.15610172366E-02 -0.21427872398E-01 -0.94478604272E-02  0.23470248336E-01  0.00000000000E+00 0. -1.
     999901    1    3    3    0    0  0.84017887510E-01  0.80241481547E-01 -0.69675644063E-01  0.89036643926E+00  0.88000000000E+00 0. -1.
        -11    1    4    4    0    0 -0.33743861219E-01 -0.18252853604E-01  0.40857003072E-01  0.56047931770E-01  0.51100000000E-03 0.  1.
         11    1    4    4    0    0 -0.48713009055E-01 -0.40560755545E-01  0.38266501418E-01  0.74045380635E-01  0.51100000000E-03 0. -1.
</event>
<event>
 8    1  0.1041149E+005  0.1043930E+01  0.7957747E-01            NaN
         13   -1    0    0    0    0  0.00000000000E+00  0.00000000000E+00  0.74505805969E-08  0.10566000000E+00  0.10566000000E+00 0.  1.
     999900   -1    0    0    0    0 -0.00000000000E+00 -0.00000000000E+00 -0.74505805969E-08  0.93827000000E+00  0.93827000000E+00 0. -1.
     999902    2    1    2    0    0 -0.11391526369E-02  0.21318430282E-01 -0.49719967464E-02  0.10220098292E+01  0.10217747291E+01 0.  0.
     999903    2    3    3    0    0 -0.70280749304E-01 -0.66218191760E-01 -0.86567419574E-01  0.13122307935E+00  0.20033616265E-01 0.  0.
         14    1    1    2    0    0  0.11391526369E-02 -0.21318430282E-01  0.49719967464E-02  0.21920170849E-01  0.00000000000E+00 0.  1.
     999901    1    3    3    0    0  0.69141596667E-01  0.87536622042E-01  0.81595422827E-01  0.89078674980E+00  0.88000000000E+00 0.  1.
        -11    1    4    4    0    0 -0.32489172212E-01 -0.25163678064E-01 -0.48999337164E-01  0.63952741679E-01  0.51100000000E-03 0.  1.
         11    1    4    4    0    0 -0.37791577092E-01 -0.41054513696E-01 -0.37568082410E-01  0.67270337675E-01  0.51100000000E-03 0. -1.
</event>
<event>
 8    1  0.1041149E+005  0.1043930E+01  0.7957747E-01            NaN
         13   -1    0    0    0    0  0.00000000000E+00  0.00000000000E+00  0.74505805969E-08  0.10566000000E+00  0.10566000000E+00 0. -1.
     999900   -1    0    0    0    0 -0.00000000000E+00 -0.00000000000E+00 -0.74505805969E-08  0.93827000000E+00  0.93827000000E+00 0.  1.
     999902    2    1    2    0    0 -0.17115307662E-01 -0.98575213227E-04  0.98209869948E-03  0.10267862550E+01  0.10266431247E+01 0.  0.
     999903    2    3    3    0    0 -0.10127900471E+00  0.39601977472E-01 -0.82864189740E-01  0.13791626349E+00  0.18129213466E-01 0.  0.
         14    1    1    2    0    0  0.17115307662E-01  0.98575213227E-04 -0.98209869948E-03  0.17143744961E-01  0.00000000000E+00 0.  1.
     999901    1    3    3    0    0  0.84163697044E-01 -0.39700552685E-01  0.83846288440E-01  0.88886999154E+00  0.88000000000E+00 0. -1.
        -11    1    4    4    0    0 -0.27012750602E-01  0.12397795681E-01 -0.33008202942E-01  0.44420677790E-01  0.51100000000E-03 0.  1.
         11    1    4    4    0    0 -0.74266254104E-01  0.27204181791E-01 -0.49855986798E-01  0.93495585704E-01  0.51100000000E-03 0. -1.
</event>
<event>
 8    1  0.1041149E+005  0.1043930E+01  0.7957747E-01            NaN
         13   -1    0    0    0    0  0.00000000000E+00  0.00000000000E+00  0.74505805969E-08  0.10566000000E+00  0.10566000000E+00 0.  1.
     999900   -1    0    0    0    0 -0.00000000000E+00 -0.00000000000E+00 -0.74505805969E-08  0.93827000000E+00  0.93827000000E+00 0. -1.
     999902    2    1    2    0    0 -0.14571257462E-01 -0.77815266228E-03  0.22802917129E-01  0.10168578724E+01  0.10164974336E+01 0.  0.
     999903    2    3    3    0    0  0.19641507752E-01  0.11673689029E+00  0.44889878588E-01  0.12811261499E+00  0.19607410314E-01 0.  0.
         14    1    1    2    0    0  0.14571257462E-01  0.77815266228E-03 -0.22802917129E-01  0.27072127644E-01  0.00000000000E+00 0. -1.
     999901    1    3    3    0    0 -0.34212765214E-01 -0.11751504295E+00 -0.22086961459E-01  0.88874525737E+00  0.88000000000E+00 0.  1.
        -11    1    4    4    0    0  0.76360861370E-02  0.79986635395E-01  0.37816408853E-01  0.88806044573E-01  0.51100000000E-03 0.  1.
         11    1    4    4    0    0  0.12005421615E-01  0.36750254893E-01  0.70734697354E-02  0.39306570417E-01  0.51100000000E-03 0. -1.
</event>
<event>
 8    1  0.1041149E+005  0.1043930E+01  0.7957747E-01            NaN
         13   -1    0    0    0    0  0.00000000000E+00  0.00000000000E+00  0.74505805969E-08  0.10566000000E+00  0.10566000000E+00 0.  1.
     999900   -1    0    0    0    0 -0.00000000000E+00 -0.00000000000E+00 -0.74505805969E-08  0.93827000000E+00  0.93827000000E+00 0. -1.
     999902    2    1    2    0    0  0.90760344816E-02  0.34790167872E-02 -0.22969889976E-01  0.10189881916E+01  0.10186828951E+01 0.  0.
     999903    2    3    3    0    0  0.10596596323E+00 -0.32855614819E-02 -0.76245856362E-01  0.13204301496E+00  0.19553692953E-01 0.  0.
         14    1    1    2    0    0 -0.90760344816E-02 -0.34790167872E-02  0.22969889976E-01  0.24941808379E-01  0.00000000000E+00 0.  1.
     999901    1    3    3    0    0 -0.96889928753E-01  0.67645782692E-02  0.53275966386E-01  0.88694517666E+00  0.88000000000E+00 0.  1.
        -11    1    4    4    0    0  0.18905179216E-01 -0.81475357572E-02 -0.15428354614E-01  0.25730981077E-01  0.51100000000E-03 0. -1.
         11    1    4    4    0    0  0.87060784019E-01  0.48619742753E-02 -0.60817501748E-01  0.10631203388E+00  0.51100000000E-03 0.  1.
</event>
<event>
 8    1  0.1041149E+005  0.1043930E+01  0.7957747E-01            NaN
         13   -1    0    0    0    0  0.00000000000E+00  0.00000000000E+00  0.74505805969E-08  0.10566000000E+00  0.10566000000E+00 0. -1.
     999900   -1    0    0    0    0 -0.00000000000E+00 -0.00000000000E+00 -0.74505805969E-08  0.93827000000E+00  0.93827000000E+00 0.  1.
     999902    2    1    2    0    0  0.19445309450E-01  0.60415748557E-02  0.13099741766E-01  0.10197179385E+01  0.10194304539E+01 0.  0.
     999903    2    3    3    0    0 -0.39444696289E-01  0.31370298209E-01  0.11960803214E+00  0.13098086103E+00  0.17604684828E-01 0.  0.
         14    1    1    2    0    0 -0.19445309450E-01 -0.60415748557E-02 -0.13099741766E-01  0.24212061471E-01  0.00000000000E+00 0.  1.
     999901    1    3    3    0    0  0.58890005740E-01 -0.25328723353E-01 -0.10650829038E+00  0.88873707750E+00  0.88000000000E+00 0.  1.
        -11    1    4    4    0    0 -0.15346861931E-01  0.15640895950E-01  0.72837695822E-01  0.76064149577E-01  0.51100000000E-03 0. -1.
         11    1    4    4    0    0 -0.24097834358E-01  0.15729402259E-01  0.46770336321E-01  0.54916711453E-01  0.51100000000E-03 0.  1.
</event>
<event>
 8    1  0.1041149E+005  0.1043930E+01  0.7957747E-01            NaN
         13   -1    0    0    0    0  0.00000000000E+00  0.00000000000E+00  0.74505805969E-08  0.10566000000E+00  0.10566000000E+00 0.  1.
     999900   -1    0    0    0    0 -0.00000000000E+00 -0.00000000000E+00 -0.74505805969E-08  0.93827000000E+00  0.93827000000E+00 0.  1.
     999902    2    1    2    0    0 -0.11915821930E-01  0.20157688245E-01  0.23491131090E-02  0.10203962468E+01  0.10201248271E+01 0.  0.
     999903    2    3    3    0    0 -0.27721507631E-01  0.74788011185E-01 -0.10392456750E+00  0.13217983900E+00  0.17591631648E-01 0.  0.
         14    1    1    2    0    0  0.11915821930E-01 -0.20157688245E-01 -0.23491131090E-02  0.23533753208E-01  0.00000000000E+00 0. -1.
     999901    1    3    3    0    0  0.15805685701E-01 -0.54630322940E-01  0.10627368061E+00  0.88821640779E+00  0.88000000000E+00 0. -1.
        -11    1    4    4    0    0 -0.10190902042E-01  0.11519687206E-01 -0.26712127068E-01  0.30827853173E-01  0.51100000000E-03 0.  1.
         11    1    4    4    0    0 -0.17530605588E-01  0.63268323978E-01 -0.77212440437E-01  0.10135198582E+00  0.51100000000E-03 0. -1.
</event>
<event>
 8    1  0.1041149E+005  0.1043930E+01  0.7957747E-01            NaN
         13   -1    0    0    0    0  0.00000000000E+00  0.00000000000E+00  0.74505805969E-08  0.10566000000E+00  0.10566000000E+00 0.  1.
     999900   -1    0    0    0    0 -0.00000000000E+00 -0.00000000000E+00 -0.74505805969E-08  0.93827000000E+00  0.93827000000E+00 0. -1.
     999902    2    1    2    0    0  0.77644248287E-02 -0.13291220498E-01 -0.18298298809E-01  0.10200182754E+01  0.10197379622E+01 0.  0.
     999903    2    3    3    0    0 -0.68211473701E-01 -0.79055097438E-01  0.74013980235E-01  0.12950225557E+00  0.19754780488E-01 0.  0.
         14    1    1    2    0    0 -0.77644248287E-02  0.13291220498E-01  0.18298298809E-01  0.23911724625E-01  0.00000000000E+00 0.  1.
     999901    1    3    3    0    0  0.75975898530E-01  0.65763876940E-01 -0.92312279044E-01  0.89051601981E+00  0.88000000000E+00 0. -1.
        -11    1    4    4    0    0 -0.40582108036E-01 -0.50157425685E-01  0.56837197148E-01  0.85984899515E-01  0.51100000000E-03 0. -1.
         11    1    4    4    0    0 -0.27629365665E-01 -0.28897671753E-01  0.17176783087E-01  0.43517356055E-01  0.51100000000E-03 0.  1.
</event>
<event>
 8    1  0.1041149E+005  0.1043930E+01  0.7957747E-01            NaN
         13   -1    0    0    0    0  0.00000000000E+00  0.00000000000E+00  0.74505805969E-08  0.10566000000E+00  0.10566000000E+00 0.  1.
     999900   -1    0    0    0    0 -0.00000000000E+00 -0.00000000000E+00 -0.74505805969E-08  0.93827000000E+00  0.93827000000E+00 0.  1.
     999902    2    1    2    0    0  0.16888605706E-01 -0.16501489866E-01  0.20421106574E-02  0.10202299075E+01  0.10199545920E+01 0.  0.
     999903    2    3    3    0    0  0.36364783277E-01 -0.33007033241E-01 -0.12011550545E+00  0.13142495831E+00  0.20806809267E-01 0.  0.
         14    1    1    2    0    0 -0.16888605706E-01  0.16501489866E-01 -0.20421106574E-02  0.23700092540E-01  0.00000000000E+00 0. -1.
     999901    1    3    3    0    0 -0.19476177572E-01  0.16505543374E-01  0.12215761611E+00  0.88880494915E+00  0.88000000000E+00 0. -1.
        -11    1    4    4    0    0  0.14426261201E-01 -0.22594938326E-01 -0.81580663410E-01  0.85873826127E-01  0.51100000000E-03 0. -1.
         11    1    4    4    0    0  0.21938522076E-01 -0.10412094915E-01 -0.38534842040E-01  0.45551132186E-01  0.51100000000E-03 0.  1.
</event>
<event>
 8    1  0.1041149E+005  0.1043930E+01  0.7957747E-01            NaN
         13   -1    0    0    0    0  0.00000000000E+00  0.00000000000E+00  0.74505805969E-08  0.10566000000E+00  0.10566000000E+00 0. -1.
     999900   -1    0    0    0    0 -0.00000000000E+00 -0.00000000000E+00 -0.74505805969E-08  0.93827000000E+00  0.93827000000E+00 0.  1.
     999902    2    1    2    0    0  0.74126502549E-02  0.14692794349E-01  0.15245339783E-01  0.10214968554E+01  0.10212504980E+01 0.  0.
     999903    2    3    3    0    0  0.65056063511E-01 -0.95880627001E-01 -0.55150120104E-01  0.12992253696E+00  0.20321019412E-01 0.  0.
         14    1    1    2    0    0 -0.74126502549E-02 -0.14692794349E-01 -0.15245339783E-01  0.22433144556E-01  0.00000000000E+00 0.  1.
     999901    1    3    3    0    0 -0.57643413256E-01  0.11057342135E+00  0.70395459887E-01  0.89157431848E+00  0.88000000000E+00 0. -1.
        -11    1    4    4    0    0  0.48412294263E-01 -0.53979819564E-01 -0.32411942177E-01  0.79425224410E-01  0.51100000000E-03 0.  1.
         11    1    4    4    0    0  0.16643769248E-01 -0.41900807438E-01 -0.22738177927E-01  0.50497312554E-01  0.51100000000E-03 0. -1.
</event>
<event>
 8    1  0.1041149E+005  0.1043930E+01  0.7957747E-01            NaN
         13   -1    0    0    0    0  0.00000000000E+00  0.00000000000E+00  0.74505805969E-08  0.10566000000E+00  0.10566000000E+00 0. -1.
     999900   -1    0    0    0    0 -0.00000000000E+00 -0.00000000000E+00 -0.74505805969E-08  0.93827000000E+00  0.93827000000E+00 0. -1.
     999902    2    1    2    0    0 -0.28232722448E-02  0.65553577684E-02  0.23405795884E-01  0.10194601234E+01  0.10191664085E+01 0.  0.
     999903    2    3    3    0    0 -0.84876558913E-01  0.82489240014E-01  0.54880168721E-01  0.13182881901E+00  0.18934086495E-01 0.  0.
         14    1    1    2    0    0  0.28232722448E-02 -0.65553577684E-02 -0.23405795884E-01  0.24469876636E-01  0.00000000000E+00 0.  1.
     999901    1    3    3    0    0  0.82053286668E-01 -0.75933882246E-01 -0.31474372837E-01  0.88763130436E+00  0.88000000000E+00 0. -1.
        -11    1    4    4    0    0 -0.71872184075E-01  0.77490699981E-01  0.45779669470E-01  0.11518011410E+00  0.51100000000E-03 0.  1.
         11    1    4    4    0    0 -0.13004374838E-01  0.49985400331E-02  0.91004992508E-02  0.16648704905E-01  0.51100000000E-03 0. -1.
</event>
<event>
 8    1  0.1041149E+005  0.1043930E+01  0.7957747E-01            NaN
         13   -1    0    0    0    0  0.00000000000E+00  0.00000000000E+00  0.74505805969E-08  0.10566000000E+00  0.10566000000E+00 0. -1.
     999900   -1    0    0    0    0 -0.00000000000E+00 -0.00000000000E+00 -0.74505805969E-08  0.93827000000E+00  0.93827000000E+00 0.  1.
     999902    2    1    2    0    0  0.68285611876E-03  0.18589939654E-01 -0.16028286179E-01  0.10193747947E+01  0.10190790028E+01 0.  0.
     999903    2    3    3    0    0  0.17708942295E-01  0.28981911707E-01  0.12232991601E+00  0.12834119669E+00  0.18796185096E-01 0.  0.
         14    1    1    2    0    0 -0.68285611876E-03 -0.18589939654E-01  0.16028286179E-01  0.24555205286E-01  0.00000000000E+00 0.  1.
     999901    1    3    3    0    0 -0.17026086177E-01 -0.10391972054E-01 -0.13835820219E+00  0.89103359802E+00  0.88000000000E+00 0.  1.
        -11    1    4    4    0    0  0.11523688346E-02 -0.25021113330E-02  0.15278464888E-01  0.15533226497E-01  0.51100000000E-03 0.  1.
         11    1    4    4    0    0  0.16556573461E-01  0.31484023040E-01  0.10705145112E+00  0.11280797019E+00  0.51100000000E-03 0. -1.
</event>
<event>
 8    1  0.1041149E+005  0.1043930E+01  0.7957747E-01            NaN
         13   -1    0    0    0    0  0.00000000000E+00  0.00000000000E+00  0.74505805969E-08  0.10566000000E+00  0.10566000000E+00 0.  1.
     999900   -1    0    0    0    0 -0.00000000000E+00 -0.00000000000E+00 -0.74505805969E-08  0.93827000000E+00  0.93827000000E+00 0.  1.
     999902    2    1    2    0    0 -0.69113084964E-02  0.68557165033E-02 -0.21505208753E-01  0.10203240466E+01  0.10200509394E+01 0.  0.
     999903    2    3    3    0    0 -0.77610296619E-02  0.11995705699E+00 -0.53221805886E-01  0.13251856237E+00  0.16693700791E-01 0.  0.
         14    1    1    2    0    0  0.69113084964E-02 -0.68557165033E-02  0.21505208753E-01  0.23605953432E-01  0.00000000000E+00 0.  1.
     999901    1    3    3    0    0  0.84972116553E-03 -0.11310134049E+00  0.31716597133E-01  0.88780548420E+00  0.88000000000E+00 0. -1.
        -11    1    4    4    0    0 -0.82558712811E-02  0.31244960693E-01 -0.99863348962E-02  0.33828907534E-01  0.51100000000E-03 0.  1.
         11    1    4    4    0    0  0.49484161918E-03  0.88712096299E-01 -0.43235470990E-01  0.98689654832E-01  0.51100000000E-03 0. -1.
</event>
<event>
 8    1  0.1041149E+005  0.1043930E+01  0.7957747E-01            NaN
         13   -1    0    0    0    0  0.00000000000E+00  0.00000000000E+00  0.74505805969E-08  0.10566000000E+00  0.10566000000E+00 0.  1.
     999900   -1    0    0    0    0 -0.00000000000E+00 -0.00000000000E+00 -0.74505805969E-08  0.93827000000E+00  0.93827000000E+00 0. -1.
     999902    2    1    2    0    0 -0.16631130388E-02  0.13527645956E-01  0.19947581601E-01  0.10197707541E+01  0.10194845373E+01 0.  0.
     999903    2    3    3    0    0  0.51609534471E-01 -0.10339372973E+00 -0.44209702646E-01  0.12812915561E+00  0.33298277940E-01 0.  0.
         14    1    1    2    0    0  0.16631130388E-02 -0.13527645956E-01 -0.19947581601E-01  0.24159245887E-01  0.00000000000E+00 0. -1.
     999901    1    3    3    0    0 -0.53272647510E-01  0.11692137568E+00  0.64157284246E-01  0.89164159851E+00  0.88000000000E+00 0. -1.
        -11    1    4    4    0    0  0.21363213876E-01 -0.50804415034E-01 -0.38418699649E-01  0.67184321816E-01  0.51100000000E-03 0. -1.
         11    1    4    4    0    0  0.30246320595E-01 -0.52589314691E-01 -0.57910029969E-02  0.60944833792E-01  0.51100000000E-03 0.  1.
</event>
<event>
 8    1  0.1041149E+005  0.1043930E+01  0.7957747E-01            NaN
         13   -1    0    0    0    0  0.00000000000E+00  0.00000000000E+00  0.74505805969E-08  0.10566000000E+00  0.10566000000E+00 0. -1.
     999900   -1    0    0    0    0 -0.00000000000E+00 -0.00000000000E+00 -0.74505805969E-08  0.93827000000E+00  0.93827000000E+00 0.  1.
     999902    2    1    2    0    0  0.97017088092E-02 -0.89460250865E-02  0.18239370220E-01  0.10214171338E+01  0.10211690027E+01 0.  0.
     999903    2    3    3    0    0 -0.12350717530E+00  0.80876653411E-02 -0.32004281646E-01  0.12981230094E+00  0.22528354390E-01 0.  0.
         14    1    1    2    0    0 -0.97017088092E-02  0.89460250865E-02 -0.18239370220E-01  0.22512866203E-01  0.00000000000E+00 0. -1.
     999901    1    3    3    0    0  0.13320888411E+00 -0.17033690428E-01  0.50243651866E-01  0.89160483285E+00  0.88000000000E+00 0. -1.
        -11    1    4    4    0    0 -0.45474309300E-01  0.15468134227E-02 -0.78465837456E-03  0.45510243329E-01  0.51100000000E-03 0. -1.
         11    1    4    4    0    0 -0.78032865998E-01  0.65408519184E-02 -0.31219623272E-01  0.84302057614E-01  0.51100000000E-03 0.  1.
</event>
<event>
 8    1  0.1041149E+005  0.1043930E+01  0.7957747E-01            NaN
         13   -1    0    0    0    0  0.00000000000E+00  0.00000000000E+00  0.74505805969E-08  0.10566000000E+00  0.10566000000E+00 0.  1.
     999900   -1    0    0    0    0 -0.00000000000E+00 -0.00000000000E+00 -0.74505805969E-08  0.93827000000E+00  0.93827000000E+00 0.  1.
     999902    2    1    2    0    0  0.35293320911E-02 -0.23406200300E-01 -0.60312234549E-03  0.10202515255E+01  0.10199767179E+01 0.  0.
     999903    2    3    3    0    0  0.30385453792E-01  0.10130365922E+00 -0.69882565607E-01  0.12835834716E+00  0.20163956378E-01 0.  0.
         14    1    1    2    0    0 -0.35293320911E-02  0.23406200300E-01  0.60312234549E-03  0.23678474487E-01  0.00000000000E+00 0.  1.
     999901    1    3    3    0    0 -0.26856121700E-01 -0.12470985952E+00  0.69279443262E-01  0.89189317835E+00  0.88000000000E+00 0.  1.
        -11    1    4    4    0    0  0.10649550430E-01  0.61186867502E-01 -0.48472123547E-01  0.78784856166E-01  0.51100000000E-03 0.  1.
         11    1    4    4    0    0  0.19735903362E-01  0.40116791716E-01 -0.21410442060E-01  0.49573490994E-01  0.51100000000E-03 0. -1.
</event>
<event>
 8    1  0.1041149E+005  0.1043930E+01  0.7957747E-01            NaN
         13   -1    0    0    0    0  0.00000000000E+00  0.00000000000E+00  0.74505805969E-08  0.10566000000E+00  0.10566000000E+00 0.  1.
     999900   -1    0    0    0    0 -0.00000000000E+00 -0.00000000000E+00 -0.74505805969E-08  0.93827000000E+00  0.93827000000E+00 0.  1.
     999902    2    1    2    0    0  0.13104748977E-01  0.15110357618E-01  0.13164143570E-01  0.10199852296E+01  0.10197041319E+01 0.  0.
     999903    2    3    3    0    0 -0.86774156245E-01 -0.31128823577E-02  0.95213160399E-01  0.13035613648E+00  0.19690916073E-01 0.  0.
         14    1    1    2    0    0 -0.13104748977E-01 -0.15110357618E-01 -0.13164143570E-01  0.23944770390E-01  0.00000000000E+00 0. -1.
     999901    1    3    3    0    0  0.99878905222E-01  0.18223239976E-01 -0.82049016829E-01  0.88962909313E+00  0.88000000000E+00 0. -1.
        -11    1    4    4    0    0 -0.48803077882E-01 -0.66852537708E-02  0.41121848899E-01  0.64169312031E-01  0.51100000000E-03 0.  1.
         11    1    4    4    0    0 -0.37971078364E-01  0.35723714131E-02  0.54091311500E-01  0.66186824448E-01  0.51100000000E-03 0. -1.
</event>
<event>
 8    1  0.1041149E+005  0.1043930E+01  0.7957747E-01            NaN
         13   -1    0    0    0    0  0.00000000000E+00  0.00000000000E+00  0.74505805969E-08  0.10566000000E+00  0.10566000000E+00 0.  1.
     999900   -1    0    0    0    0 -0.00000000000E+00 -0.00000000000E+00 -0.74505805969E-08  0.93827000000E+00  0.93827000000E+00 0.  1.
     999902    2    1    2    0    0  0.14795374579E-01  0.15719096093E-01 -0.10953174999E-01  0.10197232833E+01  0.10194359271E+01 0.  0.
     999903    2    3    3    0    0 -0.10061407032E+00 -0.73113228992E-01  0.16983471664E-01  0.12731587736E+00  0.21264028707E-01 0.  0.
         14    1    1    2    0    0 -0.14795374579E-01 -0.15719096093E-01  0.10953174999E-01  0.24206716702E-01  0.00000000000E+00 0.  1.
     999901    1    3    3    0    0  0.11540944490E+00  0.88832325085E-01 -0.27936646663E-01  0.89240740594E+00  0.88000000000E+00 0.  1.
        -11    1    4    4    0    0 -0.44550431621E-01 -0.45409265254E-01  0.98252236314E-02  0.64370322889E-01  0.51100000000E-03 0. -1.
         11    1    4    4    0    0 -0.56063638702E-01 -0.27703963738E-01  0.71582480330E-02  0.62945554467E-01  0.51100000000E-03 0.  1.
</event>
<event>
 8    1  0.1041149E+005  0.1043930E+01  0.7957747E-01            NaN
         13   -1    0    0    0    0  0.00000000000E+00  0.00000000000E+00  0.74505805969E-08  0.10566000000E+00  0.10566000000E+00 0.  1.
     999900   -1    0    0    0    0 -0.00000000000E+00 -0.00000000000E+00 -0.74505805969E-08  0.93827000000E+00  0.93827000000E+00 0.  1.
     999902    2    1    2    0    0  0.28629400952E-02 -0.49249809449E-02 -0.23205458383E-01  0.10200355412E+01  0.10197556375E+01 0.  0.
     999903    2    3    3    0    0 -0.30374117057E-01 -0.32695822112E-01 -0.12399096440E+00  0.13322460316E+00  0.19581416282E-01 0.  0.
         14    1    1    2    0    0 -0.28629400952E-02  0.49249809449E-02  0.23205458383E-01  0.23894458815E-01  0.00000000000E+00 0.  1.
     999901    1    3    3    0    0  0.33237057153E-01  0.27770841167E-01  0.10078550601E+00  0.88681093803E+00  0.88000000000E+00 0. -1.
        -11    1    4    4    0    0 -0.17218370367E-01 -0.21059118809E-01 -0.47487225945E-01  0.54728936697E-01  0.51100000000E-03 0.  1.
         11    1    4    4    0    0 -0.13155746691E-01 -0.11636703303E-01 -0.76503738451E-01  0.78495666458E-01  0.51100000000E-03 0. -1.
</event>
<event>
 8    1  0.1041149E+005  0.1043930E+01  0.7957747E-01            NaN
         13   -1    0    0    0    0  0.00000000000E+00  0.00000000000E+00  0.74505805969E-08  0.10566000000E+00  0.10566000000E+00 0.  1.
     999900   -1    0    0    0    0 -0.00000000000E+00 -0.00000000000E+00 -0.74505805969E-08  0.93827000000E+00  0.93827000000E+00 0.  1.
     999902    2    1    2    0    0 -0.21529094143E-01  0.60391659208E-02 -0.69189094449E-02  0.10205239169E+01  0.10202554681E+01 0.  0.
     999903    2    3    3    0    0  0.92821538064E-01  0.63662904249E-01 -0.62768107346E-01  0.12950444727E+00  0.12757870356E-01 0.  0.
         14    1    1    2    0    0  0.21529094143E-01 -0.60391659208E-02  0.69189094449E-02  0.23406083131E-01  0.00000000000E+00 0.  1.
     999901    1    3    3    0    0 -0.11435063221E+00 -0.57623738328E-01  0.55849197901E-01  0.89101946960E+00  0.88000000000E+00 0. -1.
        -11    1    4    4    0    0  0.54536811468E-01  0.34580828975E-01 -0.29249787124E-01  0.70893643619E-01  0.51100000000E-03 0. -1.
         11    1    4    4    0    0  0.38284726596E-01  0.29082075274E-01 -0.33518320222E-01  0.58610803648E-01  0.51100000000E-03 0.  1.
</event>
<event>
 8    1  0.1041149E+005  0.1043930E+01  0.7957747E-01            NaN
         13   -1    0    0    0    0  0.00000000000E+00  0.00000000000E+00  0.74505805969E-08  0.10566000000E+00  0.10566000000E+00 0. -1.
     999900   -1    0    0    0    0 -0.00000000000E+00 -0.00000000000E+00 -0.74505805969E-08  0.93827000000E+00  0.93827000000E+00 0.  1.
     999902    2    1    2    0    0  0.85311228061E-02 -0.24371868744E-01  0.43526680548E-02  0.10177438632E+01  0.10174069281E+01 0.  0.
     999903    2    3    3    0    0  0.10610660858E+00 -0.26039102003E-02 -0.70416885849E-01  0.12893268771E+00  0.19992684066E-01 0.  0.
         14    1    1    2    0    0 -0.85311228061E-02  0.24371868744E-01 -0.43526680548E-02  0.26186136821E-01  0.00000000000E+00 0.  1.
     999901    1    3    3    0    0 -0.97575485771E-01 -0.21767958544E-01  0.74769553904E-01  0.88881117547E+00  0.88000000000E+00 0.  1.
        -11    1    4    4    0    0  0.41670408404E-01 -0.20582490496E-02 -0.16344875116E-01  0.44811554194E-01  0.51100000000E-03 0.  1.
         11    1    4    4    0    0  0.64436200172E-01 -0.54566115075E-03 -0.54072010733E-01  0.84121133519E-01  0.51100000000E-03 0. -1.
</event>
<event>
 8    1  0.1041149E+005  0.1043930E+01  0.7957747E-01            NaN
         13   -1    0    0    0    0  0.00000000000E+00  0.00000000000E+00  0.74505805969E-08  0.10566000000E+00  0.10566000000E+00 0.  1.
     999900   -1    0    0    0    0 -0.00000000000E+00 -0.00000000000E+00 -0.74505805969E-08  0.93827000000E+00  0.93827000000E+00 0.  1.
     999902    2    1    2    0    0 -0.88158433146E-02  0.11039528828E-01 -0.20632176724E-01  0.10189244605E+01  0.10186175824E+01 0.  0.
     999903    2    3    3    0    0 -0.28207766916E-01  0.11285590983E+00  0.53719602985E-01  0.12972773912E+00  0.20281914460E-01 0.  0.
         14    1    1    2    0    0  0.88158433146E-02 -0.11039528828E-01  0.20632176724E-01  0.25005539515E-01  0.00000000000E+00 0.  1.
     999901    1    3    3    0    0  0.19391923601E-01 -0.10181638100E+00 -0.74351779709E-01  0.88919672137E+00  0.88000000000E+00 0.  1.
        -11    1    4    4    0    0  0.21849696548E-02  0.25311850167E-01  0.11678541972E-01  0.27966288900E-01  0.51100000000E-03 0.  1.
         11    1    4    4    0    0 -0.30392736571E-01  0.87544059663E-01  0.42041061013E-01  0.10176145022E+00  0.51100000000E-03 0. -1.
</event>
<event>
 8    1  0.1041149E+005  0.1043930E+01  0.7957747E-01            NaN
         13   -1    0    0    0    0  0.00000000000E+00  0.00000000000E+00  0.74505805969E-08  0.10566000000E+00  0.10566000000E+00 0. -1.
     999900   -1    0    0    0    0 -0.00000000000E+00 -0.00000000000E+00 -0.74505805969E-08  0.93827000000E+00  0.93827000000E+00 0. -1.
     999902    2    1    2    0    0  0.20021480936E-01  0.85866549851E-02  0.93928852736E-02  0.10202062432E+01  0.10199303712E+01 0.  0.
     999903    2    3    3    0    0 -0.19719344281E-01  0.47180939880E-01  0.11948896375E+00  0.13161747526E+00  0.20752197733E-01 0.  0.
         14    1    1    2    0    0 -0.20021480936E-01 -0.85866549851E-02 -0.93928852736E-02  0.23723756795E-01  0.00000000000E+00 0.  1.
     999901    1    3    3    0    0  0.39740825217E-01 -0.38594284895E-01 -0.11009607847E+00  0.88858876794E+00  0.88000000000E+00 0. -1.
        -11    1    4    4    0    0  0.31032895661E-03  0.19364435174E-01  0.29229770523E-01  0.35067338928E-01  0.51100000000E-03 0.  1.
         11    1    4    4    0    0 -0.20029673238E-01  0.27816504706E-01  0.90259193224E-01  0.96550136336E-01  0.51100000000E-03 0. -1.
</event>
<event>
 8    1  0.1041149E+005  0.1043930E+01  0.7957747E-01            NaN
         13   -1    0    0    0    0  0.00000000000E+00  0.00000000000E+00  0.74505805969E-08  0.10566000000E+00  0.10566000000E+00 0.  1.
     999900   -1    0    0    0    0 -0.00000000000E+00 -0.00000000000E+00 -0.74505805969E-08  0.93827000000E+00  0.93827000000E+00 0. -1.
     999902    2    1    2    0    0  0.13551631917E-03  0.24248999919E-01 -0.28678322857E-02  0.10195116294E+01  0.10192191647E+01 0.  0.
     999903    2    3    3    0    0  0.41596746771E-01 -0.58068700510E-01 -0.10531360952E+00  0.12878699477E+00  0.19820957345E-01 0.  0.
         14    1    1    2    0    0 -0.13551631917E-03 -0.24248999919E-01  0.28678322857E-02  0.24418370621E-01  0.00000000000E+00 0.  1.
     999901    1    3    3    0    0 -0.41461230452E-01  0.82317700429E-01  0.10244577723E+00  0.89072463461E+00  0.88000000000E+00 0. -1.
        -11    1    4    4    0    0  0.52239688705E-02 -0.74610591965E-02 -0.28184975337E-01  0.29624503554E-01  0.51100000000E-03 0. -1.
         11    1    4    4    0    0  0.36372777901E-01 -0.50607641313E-01 -0.77128634182E-01  0.99162491212E-01  0.51100000000E-03 0.  1.
</event>
<event>
 8    1  0.1041149E+005  0.1043930E+01  0.7957747E-01            NaN
         13   -1    0    0    0    0  0.00000000000E+00  0.00000000000E+00  0.74505805969E-08  0.10566000000E+00  0.10566000000E+00 0.  1.
     999900   -1    0    0    0    0 -0.00000000000E+00 -0.00000000000E+00 -0.74505805969E-08  0.93827000000E+00  0.93827000000E+00 0. -1.
     999902    2    1    2    0    0 -0.38267334898E-02 -0.20504603542E-01 -0.12379047070E-02  0.10230346641E+01  0.10228212497E+01 0.  0.
     999903    2    3    3    0    0  0.92620966527E-01 -0.93968101188E-01  0.18572102259E-01  0.13450133284E+00  0.18358596701E-01 0.  0.
         14    1    1    2    0    0  0.38267334898E-02  0.20504603542E-01  0.12379047070E-02  0.20895335931E-01  0.00000000000E+00 0. -1.
     999901    1    3    3    0    0 -0.96447700017E-01  0.73463497646E-01 -0.19810006966E-01  0.88853333123E+00  0.88000000000E+00 0. -1.
        -11    1    4    4    0    0  0.46872811141E-01 -0.52635978569E-01  0.18398246225E-01  0.72844788760E-01  0.51100000000E-03 0.  1.
         11    1    4    4    0    0  0.45748155385E-01 -0.41332122618E-01  0.17385603372E-03  0.61656544083E-01  0.51100000000E-03 0. -1.
</event>
<event>
 8    1  0.1041149E+005  0.1043930E+01  0.7957747E-01            NaN
         13   -1    0    0    0    0  0.00000000000E+00  0.00000000000E+00  0.74505805969E-08  0.10566000000E+00  0.10566000000E+00 0. -1.
     999900   -1    0    0    0    0 -0.00000000000E+00 -0.00000000000E+00 -0.74505805969E-08  0.93827000000E+00  0.93827000000E+00 0. -1.
     999902    2    1    2    0    0 -0.18883897090E-01  0.14270804127E-01 -0.14005914445E-02  0.10202188407E+01  0.10199432650E+01 0.  0.
     999903    2    3    3    0    0 -0.91604162873E-01  0.45848811531E-01 -0.81520550598E-01  0.13302967514E+00  0.23619020360E-01 0.  0.
         14    1    1    2    0    0  0.18883897090E-01 -0.14270804127E-01  0.14005914445E-02  0.23711159317E-01  0.00000000000E+00 0. -1.
     999901    1    3    3    0    0  0.72720265783E-01 -0.31578007404E-01  0.80119959154E-01  0.88718916555E+00  0.88000000000E+00 0.  1.
        -11    1    4    4    0    0 -0.75301221201E-01  0.31451700294E-01 -0.53608148236E-01  0.97640043241E-01  0.51100000000E-03 0. -1.
         11    1    4    4    0    0 -0.16302941672E-01  0.14397111237E-01 -0.27912402362E-01  0.35389631897E-01  0.51100000000E-03 0.  1.
</event>
<event>
 8    1  0.1041149E+005  0.1043930E+01  0.7957747E-01            NaN
         13   -1    0    0    0    0  0.00000000000E+00  0.00000000000E+00  0.74505805969E-08  0.10566000000E+00  0.10566000000E+00 0. -1.
     999900   -1    0    0    0    0 -0.00000000000E+00 -0.00000000000E+00 -0.74505805969E-08  0.93827000000E+00  0.93827000000E+00 0. -1.
     999902    2    1    2    0    0  0.20000395126E-01  0.19705007644E-02 -0.12536118260E-01  0.10202434439E+01  0.10199684465E+01 0.  0.
     999903    2    3    3    0    0 -0.46859100917E-01 -0.12805067792E-02  0.11758817660E+00  0.12815987530E+00  0.20013978217E-01 0.  0.
         14    1    1    2    0    0 -0.20000395126E-01 -0.19705007644E-02  0.12536118260E-01  0.23686556092E-01  0.00000000000E+00 0. -1.
     999901    1    3    3    0    0  0.66859496043E-01  0.32510075435E-02 -0.13012429486E+00  0.89208356861E+00  0.88000000000E+00 0. -1.
        -11    1    4    4    0    0 -0.17498375938E-01  0.90091454538E-02  0.50699292589E-01  0.54387841034E-01  0.51100000000E-03 0. -1.
         11    1    4    4    0    0 -0.29360724979E-01 -0.10289652233E-01  0.66888884016E-01  0.73772034269E-01  0.51100000000E-03 0.  1.
</event>
<event>
 8    1  0.1041149E+005  0.1043930E+01  0.7957747E-01            NaN
         13   -1    0    0    0    0  0.00000000000E+00  0.00000000000E+00  0.74505805969E-08  0.10566000000E+00  0.10566000000E+00 0.  1.
     999900   -1    0    0    0    0 -0.00000000000E+00 -0.00000000000E+00 -0.74505805969E-08  0.93827000000E+00  0.93827000000E+00 0. -1.
     999902    2    1    2    0    0  0.17037188301E-01 -0.29505745983E-02 -0.15923237974E-01  0.10204242309E+01  0.10201534638E+01 0.  0.
     999903    2    3    3    0    0 -0.12493356072E+00  0.16602630305E-02  0.14363653888E-01  0.12851938771E+00  0.26453116932E-01 0.  0.
         14    1    1    2    0    0 -0.17037188301E-01  0.29505745983E-02  0.15923237974E-01  0.23505769149E-01  0.00000000000E+00 0.  1.
     999901    1    3    3    0    0  0.14197074903E+00 -0.46108376289E-02 -0.30286891863E-01  0.89190484314E+00  0.88000000000E+00 0. -1.
        -11    1    4    4    0    0 -0.64980328734E-01  0.13776166688E-01  0.46913126583E-02  0.66592007227E-01  0.51100000000E-03 0. -1.
         11    1    4    4    0    0 -0.59953231990E-01 -0.12115903657E-01  0.96723412299E-02  0.61927380482E-01  0.51100000000E-03 0.  1.
</event>
<event>
 8    1  0.1041149E+005  0.1043930E+01  0.7957747E-01            NaN
         13   -1    0    0    0    0  0.00000000000E+00  0.00000000000E+00  0.74505805969E-08  0.10566000000E+00  0.10566000000E+00 0.  1.
     999900   -1    0    0    0    0 -0.00000000000E+00 -0.00000000000E+00 -0.74505805969E-08  0.93827000000E+00  0.93827000000E+00 0. -1.
     999902    2    1    2    0    0  0.24821010119E-01  0.28633505215E-02 -0.13987423617E-02  0.10189052563E+01  0.10185979008E+01 0.  0.
     999903    2    3    3    0    0 -0.10400207928E+00 -0.69341319636E-01  0.30393107273E-02  0.12658883307E+00  0.19769778593E-01 0.  0.
         14    1    1    2    0    0 -0.24821010119E-01 -0.28633505215E-02  0.13987423617E-02  0.25024743749E-01  0.00000000000E+00 0.  1.
     999901    1    3    3    0    0  0.12882308940E+00  0.72204670158E-01 -0.44380530890E-02  0.89231642318E+00  0.88000000000E+00 0. -1.
        -11    1    4    4    0    0 -0.67533704240E-01 -0.37943652017E-01 -0.57102926622E-02  0.77674902640E-01  0.51100000000E-03 0.  1.
         11    1    4    4    0    0 -0.36468375042E-01 -0.31397667619E-01  0.87496033896E-02  0.48913930435E-01  0.51100000000E-03 0. -1.
</event>
<event>
 8    1  0.1041149E+005  0.1043930E+01  0.7957747E-01            NaN
         13   -1    0    0    0    0  0.00000000000E+00  0.00000000000E+00  0.74505805969E-08  0.10566000000E+00  0.10566000000E+00 0.  1.
     999900   -1    0    0    0    0 -0.00000000000E+00 -0.00000000000E+00 -0.74505805969E-08  0.93827000000E+00  0.93827000000E+00 0.  1.
     999902    2    1    2    0    0  0.20938100779E-02  0.84933446417E-03  0.24161342908E-01  0.10196632346E+01  0.10193744338E+01 0.  0.
     999903    2    3    3    0    0 -0.51171312629E-01  0.93933570547E-01  0.73525251565E-01  0.13177887068E+00  0.22752785038E-01 0.  0.
         14    1    1    2    0    0 -0.20938100779E-02 -0.84933446417E-03 -0.24161342908E-01  0.24266765355E-01  0.00000000000E+00 0. -1.
     999901    1    3    3    0    0  0.53265122707E-01 -0.93084236082E-01 -0.49363908658E-01  0.88788436397E+00  0.88000000000E+00 0. -1.
        -11    1    4    4    0    0 -0.28832913083E-01  0.50012838340E-01  0.25993412964E-01  0.63313027998E-01  0.51100000000E-03 0. -1.
         11    1    4    4    0    0 -0.22338399546E-01  0.43920732207E-01  0.47531838601E-01  0.68465842678E-01  0.51100000000E-03 0.  1.
</event>
<event>
 7    1  0.1041149E+005  0.1043930E+01  0.7957747E-01            NaN
         13   -1    0    0    0    0  0.00000000000E+00  0.00000000000E+00  0.74505805969E-08  0.10566000000E+00  0.10566000000E+00 0.  1.
     999900   -1    0    0    0    0 -0.00000000000E+00 -0.00000000000E+00 -0.74505805969E-08  0.93827000000E+00  0.93827000000E+00 0.  1.
     999902    2    1    2    0    0  0.65861862352E-02 -0.20981689972E-01 -0.58033331674E-02  0.10211860373E+01  0.10209327279E+01 0.  0.
         14    1    1    2    0    0 -0.65861862352E-02  0.20981689972E-01  0.58033331674E-02  0.22743962695E-01  0.00000000000E+00 0.  1.
     999901    1    3    3    0    0 -0.15258454894E-01 -0.36857521057E-01  0.11868126465E+00  0.88886249774E+00  0.88000000000E+00 0. -1.
        -11    1    3    3    0    0 -0.94765044800E-02  0.49860900877E-02 -0.43716391168E-01  0.45011656371E-01  0.51100000000E-03 0. -1.
         11    1    3    3    0    0  0.31321145610E-01  0.10889740997E-01 -0.80768206648E-01  0.87311883197E-01  0.51100000000E-03 0.  1.
</event>
<event>
 8    1  0.1041149E+005  0.1043930E+01  0.7957747E-01            NaN
         13   -1    0    0    0    0  0.00000000000E+00  0.00000000000E+00  0.74505805969E-08  0.10566000000E+00  0.10566000000E+00 0. -1.
     999900   -1    0    0    0    0 -0.00000000000E+00 -0.00000000000E+00 -0.74505805969E-08  0.93827000000E+00  0.93827000000E+00 0.  1.
     999902    2    1    2    0    0  0.87609855989E-02  0.82217109359E-02 -0.19916647765E-01  0.10206700718E+01  0.10204050036E+01 0.  0.
     999903    2    3    3    0    0 -0.23497945535E-01  0.43279478473E-01  0.11726532589E+00  0.12876840709E+00  0.20121612930E-01 0.  0.
         14    1    1    2    0    0 -0.87609855989E-02 -0.82217109359E-02  0.19916647765E-01  0.23259928151E-01  0.00000000000E+00 0. -1.
     999901    1    3    3    0    0  0.32258931134E-01 -0.35057767537E-01 -0.13718197366E+00  0.89190166476E+00  0.88000000000E+00 0.  1.
        -11    1    4    4    0    0 -0.85735857739E-02  0.18418085841E-01  0.73564202721E-01  0.76319625930E-01  0.51100000000E-03 0. -1.
         11    1    4    4    0    0 -0.14924359761E-01  0.24861392632E-01  0.43701123170E-01  0.52448781160E-01  0.51100000000E-03 0.  1.
</event>
<event>
 8    1  0.1041149E+005  0.1043930E+01  0.7957747E-01            NaN
         13   -1    0    0    0    0  0.00000000000E+00  0.00000000000E+00  0.74505805969E-08  0.10566000000E+00  0.10566000000E+00 0.  1.
     999900   -1    0    0    0    0 -0.00000000000E+00 -0.00000000000E+00 -0.74505805969E-08  0.93827000000E+00  0.93827000000E+00 0. -1.
     999902    2    1    2    0    0 -0.91486169541E-02  0.21822874831E-01 -0.60369008129E-02  0.10195091231E+01  0.10192165976E+01 0.  0.
     999903    2    3    3    0    0 -0.12384525149E+00  0.22018932933E-01  0.31781408252E-01  0.13126051998E+00  0.19919499763E-01 0.  0.
         14    1    1    2    0    0  0.91486169541E-02 -0.21822874831E-01  0.60369008129E-02  0.24420876919E-01  0.00000000000E+00 0. -1.
     999901    1    3    3    0    0  0.11469663454E+00 -0.19605810271E-03 -0.37818309064E-01  0.88824860310E+00  0.88000000000E+00 0. -1.
        -11    1    4    4    0    0 -0.73914938652E-01  0.10123433535E-01  0.28364150486E-01  0.79816591109E-01  0.51100000000E-03 0.  1.
         11    1    4    4    0    0 -0.49930312838E-01  0.11895499398E-01  0.34172577653E-02  0.51443928871E-01  0.51100000000E-03 0. -1.
</event>
<event>
 8    1  0.1041149E+005  0.1043930E+01  0.7957747E-01            NaN
         13   -1    0    0    0    0  0.00000000000E+00  0.00000000000E+00  0.74505805969E-08  0.10566000000E+00  0.10566000000E+00 0.  1.
     999900   -1    0    0    0    0 -0.00000000000E+00 -0.00000000000E+00 -0.74505805969E-08  0.93827000000E+00  0.93827000000E+00 0. -1.
     999902    2    1    2    0    0 -0.21009111739E-01  0.80952204902E-02  0.79011037172E-02  0.10200690945E+01  0.10197899856E+01 0.  0.
     999903    2    3    3    0    0  0.19787308046E-01 -0.29147879892E-01  0.12416644016E+00  0.13070470077E+00  0.20622256910E-01 0.  0.
         14    1    1    2    0    0  0.21009111739E-01 -0.80952204902E-02 -0.79011037172E-02  0.23860905490E-01  0.00000000000E+00 0. -1.
     999901    1    3    3    0    0 -0.40796419785E-01  0.37243100382E-01 -0.11626533644E+00  0.88936439374E+00  0.88000000000E+00 0. -1.
        -11    1    4    4    0    0 -0.43413185253E-02 -0.54771159071E-02  0.22397223754E-01  0.23467905703E-01  0.51100000000E-03 0.  1.
         11    1    4    4    0    0  0.24128626572E-01 -0.23670763985E-01  0.10176921640E+00  0.10723679507E+00  0.51100000000E-03 0. -1.
</event>
<event>
 8    1  0.1041149E+005  0.1043930E+01  0.7957747E-01            NaN
         13   -1    0    0    0    0  0.00000000000E+00  0.00000000000E+00  0.74505805969E-08  0.10566000000E+00  0.10566000000E+00 0. -1.
     999900   -1    0    0    0    0 -0.00000000000E+00 -0.00000000000E+00 -0.74505805969E-08  0.93827000000E+00  0.93827000000E+00 0. -1.
     999902    2    1    2    0    0  0.15838992637E-01 -0.15922203125E-01  0.81716478747E-02  0.10200309191E+01  0.10197509058E+01 0.  0.
     999903    2    3    3    0    0  0.12673583815E+00  0.13728078412E-01 -0.27473896547E-01  0.13185984638E+00  0.19538968399E-01 0.  0.
         14    1    1    2    0    0 -0.15838992637E-01  0.15922203125E-01 -0.81716478747E-02  0.23899080926E-01  0.00000000000E+00 0. -1.
     999901    1    3    3    0    0 -0.11089684551E+00 -0.29650281537E-01  0.35645544421E-01  0.88817107270E+00  0.88000000000E+00 0.  1.
        -11    1    4    4    0    0  0.49054423621E-01 -0.24476742986E-02 -0.48996689512E-02  0.49361882694E-01  0.51100000000E-03 0. -1.
         11    1    4    4    0    0  0.77681414530E-01  0.16175752710E-01 -0.22574227595E-01  0.82497963682E-01  0.51100000000E-03 0.  1.
</event>
<event>
 8    1  0.1041149E+005  0.1043930E+01  0.7957747E-01            NaN
         13   -1    0    0    0    0  0.00000000000E+00  0.00000000000E+00  0.74505805969E-08  0.10566000000E+00  0.10566000000E+00 0.  1.
     999900   -1    0    0    0    0 -0.00000000000E+00 -0.00000000000E+00 -0.74505805969E-08  0.93827000000E+00  0.93827000000E+00 0. -1.
     999902    2    1    2    0    0  0.12778049654E-01  0.10426725422E-01  0.15568137742E-01  0.10212504482E+01  0.10209985876E+01 0.  0.
     999903    2    3    3    0    0  0.10210964183E+00 -0.42817248021E-01  0.71419283467E-01  0.13336847153E+00  0.20657673218E-01 0.  0.
         14    1    1    2    0    0 -0.12778049654E-01 -0.10426725422E-01 -0.15568137742E-01  0.22679551775E-01  0.00000000000E+00 0. -1.
     999901    1    3    3    0    0 -0.89331592178E-01  0.53243973443E-01 -0.55851145726E-01  0.88788197670E+00  0.88000000000E+00 0.  1.
        -11    1    4    4    0    0  0.81890155510E-01 -0.34379521866E-01  0.66381458078E-01  0.11088150518E+00  0.51100000000E-03 0. -1.
         11    1    4    4    0    0  0.20219486322E-01 -0.84377261553E-02  0.50378253890E-02  0.22486966346E-01  0.51100000000E-03 0.  1.
</event>
<event>
 8    1  0.1041149E+005  0.1043930E+01  0.7957747E-01            NaN
         13   -1    0    0    0    0  0.00000000000E+00  0.00000000000E+00  0.74505805969E-08  0.10566000000E+00  0.10566000000E+00 0.  1.
     999900   -1    0    0    0    0 -0.00000000000E+00 -0.00000000000E+00 -0.74505805969E-08  0.93827000000E+00  0.93827000000E+00 0. -1.
     999902    2    1    2    0    0  0.24240840826E-02  0.16915869731E-01  0.83660940021E-02  0.10249033250E+01  0.10247267008E+01 0.  0.
     999903    2    3    3    0    0 -0.12873480089E+00  0.14651663428E-01 -0.30501877130E-01  0.13433131842E+00  0.18089179037E-01 0.  0.
         14    1    1    2    0    0 -0.24240840826E-02 -0.16915869731E-01 -0.83660940021E-02  0.19026674992E-01  0.00000000000E+00 0. -1.
     999901    1    3    3    0    0  0.13115888497E+00  0.22642063029E-02  0.38867971132E-01  0.89057200659E+00  0.88000000000E+00 0.  1.
        -11    1    4    4    0    0 -0.10080585416E+00  0.17188249017E-01 -0.28757469332E-01  0.10622857102E+00  0.51100000000E-03 0.  1.
         11    1    4    4    0    0 -0.27928946727E-01 -0.25365855881E-02 -0.17444077978E-02  0.28102747398E-01  0.51100000000E-03 0. -1.
</event>
<event>
 8    1  0.1041149E+005  0.1043930E+01  0.7957747E-01            NaN
         13   -1    0    0    0    0  0.00000000000E+00  0.00000000000E+00  0.74505805969E-08  0.10566000000E+00  0.10566000000E+00 0. -1.
     999900   -1    0    0    0    0 -0.00000000000E+00 -0.00000000000E+00 -0.74505805969E-08  0.93827000000E+00  0.93827000000E+00 0. -1.
     999902    2    1    2    0    0  0.17351542971E-01  0.22882666145E-02 -0.17162085534E-01  0.10194177707E+01  0.10191230258E+01 0.  0.
     999903    2    3    3    0    0 -0.39202419141E-01  0.77194816378E-01  0.91753614236E-01  0.12774968696E+00  0.20134235779E-01 0.  0.
         14    1    1    2    0    0 -0.17351542971E-01 -0.22882666145E-02  0.17162085534E-01  0.24512229345E-01  0.00000000000E+00 0. -1.
     999901    1    3    3    0    0  0.56553962111E-01 -0.74906549764E-01 -0.10891569977E+00  0.89166808370E+00  0.88000000000E+00 0. -1.
        -11    1    4    4    0    0 -0.14868170670E-01  0.21985637774E-01  0.41313416098E-01  0.49106926579E-01  0.51100000000E-03 0.  1.
         11    1    4    4    0    0 -0.24334248471E-01  0.55209178604E-01  0.50440198138E-01  0.78642760379E-01  0.51100000000E-03 0. -1.
</event>
<event>
 7    1  0.1041149E+005  0.1043930E+01  0.7957747E-01            NaN
         13   -1    0    0    0    0  0.00000000000E+00  0.00000000000E+00  0.74505805969E-08  0.10566000000E+00  0.10566000000E+00 0.  1.
     999900   -1    0    0    0    0 -0.00000000000E+00 -0.00000000000E+00 -0.74505805969E-08  0.93827000000E+00  0.93827000000E+00 0.  1.
     999903    2    1    2    0    0  0.20352071435E-01 -0.66409249595E-01  0.89443046580E-01  0.11499718422E+00  0.19997463670E-01 0.  0.
         14    1    1    2    0    0  0.11672535481E-01  0.25072430409E-02 -0.43205679663E-01  0.44824826909E-01  0.00000000000E+00 0. -1.
     999901    1    1    2    0    0 -0.32024606916E-01  0.63902006554E-01 -0.46237366916E-01  0.88410798887E+00  0.88000000000E+00 0. -1.
        -11    1    3    3    0    0  0.23233423264E-01 -0.47247347100E-01  0.61064055355E-01  0.80629918404E-01  0.51100000000E-03 0.  1.
         11    1    3    3    0    0 -0.28813518287E-02 -0.19161902495E-01  0.28378991225E-01  0.34367265814E-01  0.51100000000E-03 0. -1.
</event>
<event>
 8    1  0.1041149E+005  0.1043930E+01  0.7957747E-01            NaN
         13   -1    0    0    0    0  0.00000000000E+00  0.00000000000E+00  0.74505805969E-08  0.10566000000E+00  0.10566000000E+00 0.  1.
     999900   -1    0    0    0    0 -0.00000000000E+00 -0.00000000000E+00 -0.74505805969E-08  0.93827000000E+00  0.93827000000E+00 0.  1.
     999902    2    1    2    0    0 -0.55577437865E-02 -0.21995167953E-01  0.78650700836E-02  0.10199188514E+01  0.10196361744E+01 0.  0.
     999903    2    3    3    0    0 -0.33654379142E-01  0.12114592013E+00 -0.87566257106E-02  0.12775570893E+00  0.20878014070E-01 0.  0.
         14    1    1    2    0    0  0.55577437865E-02  0.21995167953E-01 -0.78650700836E-02  0.24011148592E-01  0.00000000000E+00 0. -1.
     999901    1    3    3    0    0  0.28096635355E-01 -0.14314108809E+00  0.16621695794E-01  0.89216314247E+00  0.88000000000E+00 0.  1.
        -11    1    4    4    0    0 -0.16328443899E-01  0.27752015972E-01 -0.57963034611E-02  0.32720799585E-01  0.51100000000E-03 0. -1.
         11    1    4    4    0    0 -0.17325935243E-01  0.93393904160E-01 -0.29603222495E-02  0.95034909350E-01  0.51100000000E-03 0.  1.
</event>
<event>
 8    1  0.1041149E+005  0.1043930E+01  0.7957747E-01            NaN
         13   -1    0    0    0    0  0.00000000000E+00  0.00000000000E+00  0.74505805969E-08  0.10566000000E+00  0.10566000000E+00 0. -1.
     999900   -1    0    0    0    0 -0.00000000000E+00 -0.00000000000E+00 -0.74505805969E-08  0.93827000000E+00  0.93827000000E+00 0. -1.
     999902    2    1    2    0    0  0.22007168089E-01  0.18425609161E-01  0.59496148142E-02  0.10146176061E+01  0.10141940989E+01 0.  0.
     999903    2    3    3    0    0  0.10493914008E+00 -0.42634222848E-01  0.54546299586E-01  0.12728021094E+00  0.19875945747E-01 0.  0.
         14    1    1    2    0    0 -0.22007168089E-01 -0.18425609161E-01 -0.59496148142E-02  0.29312393909E-01  0.00000000000E+00 0.  1.
     999901    1    3    3    0    0 -0.82931971992E-01  0.61059832009E-01 -0.48596684772E-01  0.88733739515E+00  0.88000000000E+00 0. -1.
        -11    1    4    4    0    0  0.21251988714E-01 -0.77375478555E-03  0.75924537445E-02  0.22586548998E-01  0.51100000000E-03 0. -1.
         11    1    4    4    0    0  0.83687151367E-01 -0.41860468063E-01  0.46953845842E-01  0.10469366194E+00  0.51100000000E-03 0.  1.
</event>
<event>
 8    1  0.1041149E+005  0.1043930E+01  0.7957747E-01            NaN
         13   -1    0    0    0    0  0.00000000000E+00  0.00000000000E+00  0.74505805969E-08  0.10566000000E+00  0.10566000000E+00 0. -1.
     999900   -1    0    0    0    0 -0.00000000000E+00 -0.00000000000E+00 -0.74505805969E-08  0.93827000000E+00  0.93827000000E+00 0.  1.
     999902    2    1    2    0    0 -0.52993341301E-02 -0.21385936568E-01 -0.96460249964E-02  0.10198782428E+01  0.10195945975E+01 0.  0.
     999903    2    3    3    0    0  0.94211052515E-01 -0.84371416700E-01 -0.30781622739E-01  0.13178128795E+00  0.20604397197E-01 0.  0.
         14    1    1    2    0    0  0.52993341301E-02  0.21385936568E-01  0.96460249964E-02  0.24051757178E-01  0.00000000000E+00 0. -1.
     999901    1    3    3    0    0 -0.99510386645E-01  0.62985480133E-01  0.21135597743E-01  0.88809695487E+00  0.88000000000E+00 0. -1.
        -11    1    4    4    0    0  0.29287548165E-01 -0.33827523159E-01 -0.19190534954E-01  0.48688803163E-01  0.51100000000E-03 0.  1.
         11    1    4    4    0    0  0.64923504351E-01 -0.50543893541E-01 -0.11591087785E-01  0.83092484789E-01  0.51100000000E-03 0. -1.
</event>
<event>
 8    1  0.1041149E+005  0.1043930E+01  0.7957747E-01            NaN
         13   -1    0    0    0    0  0.00000000000E+00  0.00000000000E+00  0.74505805969E-08  0.10566000000E+00  0.10566000000E+00 0. -1.
     999900   -1    0    0    0    0 -0.00000000000E+00 -0.00000000000E+00 -0.74505805969E-08  0.93827000000E+00  0.93827000000E+00 0.  1.
     999902    2    1    2    0    0  0.37868309542E-02 -0.76084380325E-02  0.22030667036E-01  0.10203168954E+01  0.10200436208E+01 0.  0.
     999903    2    3    3    0    0  0.73593405315E-01 -0.29840957588E-01  0.10520887634E+00  0.13336376404E+00  0.20261141217E-01 0.  0.
         14    1    1    2    0    0 -0.37868309542E-02  0.76084380325E-02 -0.22030667036E-01  0.23613104582E-01  0.00000000000E+00 0.  1.
     999901    1    3    3    0    0 -0.69806574361E-01  0.22232519556E-01 -0.83178209306E-01  0.88695313137E+00  0.88000000000E+00 0.  1.
        -11    1    4    4    0    0  0.51920398013E-01 -0.14588141580E-01  0.57849069357E-01  0.79090565499E-01  0.51100000000E-03 0. -1.
         11    1    4    4    0    0  0.21673007303E-01 -0.15252816008E-01  0.47359806984E-01  0.54273198545E-01  0.51100000000E-03 0.  1.
</event>
<event>
 8    1  0.1041149E+005  0.1043930E+01  0.7957747E-01            NaN
         13   -1    0    0    0    0  0.00000000000E+00  0.00000000000E+00  0.74505805969E-08  0.10566000000E+00  0.10566000000E+00 0.  1.
     999900   -1    0    0    0    0 -0.00000000000E+00 -0.00000000000E+00 -0.74505805969E-08  0.93827000000E+00  0.93827000000E+00 0.  1.
     999902    2    1    2    0    0  0.31964872969E-02  0.20311618083E-01  0.13089491917E-01  0.10195555429E+01  0.10192641419E+01 0.  0.
     999903    2    3    3    0    0 -0.24409932568E-01  0.11466721051E+00  0.59373734771E-01  0.13287221534E+00  0.19630875032E-01 0.  0.
         14    1    1    2    0    0 -0.31964872969E-02 -0.20311618083E-01 -0.13089491917E-01  0.24374457098E-01  0.00000000000E+00 0. -1.
     999901    1    3    3    0    0  0.27606419865E-01 -0.94355592427E-01 -0.46284242855E-01  0.88668332756E+00  0.88000000000E+00 0. -1.
        -11    1    4    4    0    0 -0.14464951534E-01  0.27017571004E-01  0.15838932983E-01  0.34500969332E-01  0.51100000000E-03 0.  1.
         11    1    4    4    0    0 -0.99449810339E-02  0.87649639506E-01  0.43534801789E-01  0.98371246008E-01  0.51100000000E-03 0. -1.
</event>
<event>
 8    1  0.1041149E+005  0.1043930E+01  0.7957747E-01            NaN
         13   -1    0    0    0    0  0.00000000000E+00  0.00000000000E+00  0.74505805969E-08  0.10566000000E+00  0.10566000000E+00 0. -1.
     999900   -1    0    0    0    0 -0.00000000000E+00 -0.00000000000E+00 -0.74505805969E-08  0.93827000000E+00  0.93827000000E+00 0. -1.
     999902    2    1    2    0    0  0.65118934680E-02  0.22435827768E-01  0.28115884325E-02  0.10203996759E+01  0.10201283362E+01 0.  0.
     999903    2    3    3    0    0 -0.12867421219E-01  0.62425881605E-01 -0.11352255263E+00  0.13163176768E+00  0.19416258285E-01 0.  0.
         14    1    1    2    0    0 -0.65118934680E-02 -0.22435827768E-01 -0.28115884325E-02  0.23530324131E-01  0.00000000000E+00 0. -1.
     999901    1    3    3    0    0  0.19379314687E-01 -0.39990053836E-01  0.11633414106E+00  0.88876790819E+00  0.88000000000E+00 0.  1.
        -11    1    4    4    0    0 -0.11665886860E-01  0.23609821040E-01 -0.32922202906E-01  0.42162176544E-01  0.51100000000E-03 0.  1.
         11    1    4    4    0    0 -0.12015343585E-02  0.38816060565E-01 -0.80600349721E-01  0.89469591140E-01  0.51100000000E-03 0. -1.
</event>
<event>
 8    1  0.1041149E+005  0.1043930E+01  0.7957747E-01            NaN
         13   -1    0    0    0    0  0.00000000000E+00  0.00000000000E+00  0.74505805969E-08  0.10566000000E+00  0.10566000000E+00 0. -1.
     999900   -1    0    0    0    0 -0.00000000000E+00 -0.00000000000E+00 -0.74505805969E-08  0.93827000000E+00  0.93827000000E+00 0. -1.
     999902    2    1    2    0    0  0.16810839696E-02 -0.44649475065E-02  0.23186711381E-01  0.10202575395E+01  0.10199828732E+01 0.  0.
     999903    2    3    3    0    0  0.37145459394E-01  0.12019388919E+00  0.25697271631E-01  0.13076113685E+00  0.24733964272E-01 0.  0.
         14    1    1    2    0    0 -0.16810839696E-02  0.44649475065E-02 -0.23186711381E-01  0.23672460460E-01  0.00000000000E+00 0.  1.
     999901    1    3    3    0    0 -0.35464375424E-01 -0.12465883669E+00 -0.25105602492E-02  0.88949640269E+00  0.88000000000E+00 0. -1.
        -11    1    4    4    0    0  0.31409738465E-01  0.59900243150E-01  0.12955390915E-01  0.68867365818E-01  0.51100000000E-03 0. -1.
         11    1    4    4    0    0  0.57357209290E-02  0.60293646038E-01  0.12741880716E-01  0.61893771030E-01  0.51100000000E-03 0.  1.
</event>
<event>
 8    1  0.1041149E+005  0.1043930E+01  0.7957747E-01            NaN
         13   -1    0    0    0    0  0.00000000000E+00  0.00000000000E+00  0.74505805969E-08  0.10566000000E+00  0.10566000000E+00 0. -1.
     999900   -1    0    0    0    0 -0.00000000000E+00 -0.00000000000E+00 -0.74505805969E-08  0.93827000000E+00  0.93827000000E+00 0. -1.
     999902    2    1    2    0    0  0.18130342326E-01  0.14111847922E-01  0.53447399737E-02  0.10203414475E+01  0.10200687475E+01 0.  0.
     999903    2    3    3    0    0 -0.52560348145E-01 -0.37553963351E-01 -0.10936436637E+00  0.12858772091E+00  0.20033646141E-01 0.  0.
         14    1    1    2    0    0 -0.18130342326E-01 -0.14111847922E-01 -0.53447399737E-02  0.23588552521E-01  0.00000000000E+00 0.  1.
     999901    1    3    3    0    0  0.70690690472E-01  0.51665811273E-01  0.11470910634E+00  0.89175372657E+00  0.88000000000E+00 0.  1.
        -11    1    4    4    0    0 -0.44480885082E-02  0.23779224533E-02 -0.93687019378E-02  0.10652403652E-01  0.51100000000E-03 0.  1.
         11    1    4    4    0    0 -0.48112259637E-01 -0.39931885804E-01 -0.99995664427E-01  0.11793531726E+00  0.51100000000E-03 0. -1.
</event>
<event>
 8    1  0.1041149E+005  0.1043930E+01  0.7957747E-01            NaN
         13   -1    0    0    0    0  0.00000000000E+00  0.00000000000E+00  0.74505805969E-08  0.10566000000E+00  0.10566000000E+00 0. -1.
     999900   -1    0    0    0    0 -0.00000000000E+00 -0.00000000000E+00 -0.74505805969E-08  0.93827000000E+00  0.93827000000E+00 0.  1.
     999902    2    1    2    0    0  0.67238876446E-02 -0.12040633501E-01  0.20365050283E-01  0.10193348217E+01  0.10190380543E+01 0.  0.
     999903    2    3    3    0    0 -0.12665936659E+00 -0.15354059889E-01  0.35886477523E-02  0.12911938772E+00  0.19508859293E-01 0.  0.
         14    1    1    2    0    0 -0.67238876446E-02  0.12040633501E-01 -0.20365050283E-01  0.24595178251E-01  0.00000000000E+00 0.  1.
     999901    1    3    3    0    0  0.13338325424E+00  0.33134263875E-02  0.16776402531E-01  0.89021543403E+00  0.88000000000E+00 0. -1.
        -11    1    4    4    0    0 -0.14740994063E-01  0.43415122361E-02  0.16467767778E-02  0.15463461101E-01  0.51100000000E-03 0. -1.
         11    1    4    4    0    0 -0.11191837253E+00 -0.19695572125E-01  0.19418709745E-02  0.11365592662E+00  0.51100000000E-03 0.  1.
</event>
<event>
 8    1  0.1041149E+005  0.1043930E+01  0.7957747E-01            NaN
         13   -1    0    0    0    0  0.00000000000E+00  0.00000000000E+00  0.74505805969E-08  0.10566000000E+00  0.10566000000E+00 0. -1.
     999900   -1    0    0    0    0 -0.00000000000E+00 -0.00000000000E+00 -0.74505805969E-08  0.93827000000E+00  0.93827000000E+00 0.  1.
     999902    2    1    2    0    0 -0.11401236866E-02 -0.19942505451E-01  0.12412397918E-01  0.10204125378E+01  0.10201414982E+01 0.  0.
     999903    2    3    3    0    0 -0.13334072044E-01 -0.10008944620E+00 -0.82141696111E-01  0.13164220686E+00  0.19665138415E-01 0.  0.
         14    1    1    2    0    0  0.11401236866E-02  0.19942505451E-01 -0.12412397918E-01  0.23517462188E-01  0.00000000000E+00 0.  1.
     999901    1    3    3    0    0  0.12193948358E-01  0.80146940747E-01  0.94554094028E-01  0.88877033095E+00  0.88000000000E+00 0. -1.
        -11    1    4    4    0    0  0.15794760673E-02 -0.45773795040E-01 -0.44732157899E-01  0.64023137445E-01  0.51100000000E-03 0.  1.
         11    1    4    4    0    0 -0.14913548112E-01 -0.54315651158E-01 -0.37409538212E-01  0.67619069412E-01  0.51100000000E-03 0. -1.
</event>
<event>
 8    1  0.1041149E+005  0.1043930E+01  0.7957747E-01            NaN
         13   -1    0    0    0    0  0.00000000000E+00  0.00000000000E+00  0.74505805969E-08  0.10566000000E+00  0.10566000000E+00 0. -1.
     999900   -1    0    0    0    0 -0.00000000000E+00 -0.00000000000E+00 -0.74505805969E-08  0.93827000000E+00  0.93827000000E+00 0.  1.
     999902    2    1    2    0    0  0.18671926169E-01 -0.89022439465E-02  0.10639476616E-01  0.10206686751E+01  0.10204035746E+01 0.  0.
     999903    2    3    3    0    0 -0.49894425592E-01 -0.10458504739E+00 -0.55661794400E-01  0.13035839097E+00  0.21623803944E-01 0.  0.
         14    1    1    2    0    0 -0.18671926169E-01  0.89022439465E-02 -0.10639476616E-01  0.23261324915E-01  0.00000000000E+00 0. -1.
     999901    1    3    3    0    0  0.68566351760E-01  0.95682803443E-01  0.66301271016E-01  0.89031028412E+00  0.88000000000E+00 0. -1.
        -11    1    4    4    0    0 -0.21557445956E-01 -0.24388520979E-01 -0.19379881668E-01  0.37886202847E-01  0.51100000000E-03 0. -1.
         11    1    4    4    0    0 -0.28336979636E-01 -0.80196526411E-01 -0.36281912732E-01  0.92472188120E-01  0.51100000000E-03 0.  1.
</event>
<event>
 8    1  0.1041149E+005  0.1043930E+01  0.7957747E-01            NaN
         13   -1    0    0    0    0  0.00000000000E+00  0.00000000000E+00  0.74505805969E-08  0.10566000000E+00  0.10566000000E+00 0.  1.
     999900   -1    0    0    0    0 -0.00000000000E+00 -0.00000000000E+00 -0.74505805969E-08  0.93827000000E+00  0.93827000000E+00 0. -1.
     999902    2    1    2    0    0  0.16863248946E-01 -0.49906026799E-02  0.99694765162E-02  0.10237145173E+01  0.10235148983E+01 0.  0.
     999903    2    3    3    0    0 -0.12069549568E+00 -0.92171055582E-02  0.49278852591E-01  0.13215100377E+00  0.19573573325E-01 0.  0.
         14    1    1    2    0    0 -0.16863248946E-01  0.49906026799E-02 -0.99694765162E-02  0.20215482733E-01  0.00000000000E+00 0. -1.
     999901    1    3    3    0    0  0.13755874463E+00  0.42265028782E-02 -0.39309376075E-01  0.89156351350E+00  0.88000000000E+00 0. -1.
        -11    1    4    4    0    0 -0.38535207633E-01  0.42196636191E-02  0.21812700724E-01  0.44483961405E-01  0.51100000000E-03 0. -1.
         11    1    4    4    0    0 -0.82160288047E-01 -0.13436769177E-01  0.27466151867E-01  0.87667042366E-01  0.51100000000E-03 0.  1.
</event>
<event>
 8    1  0.1041149E+005  0.1043930E+01  0.7957747E-01            NaN
         13   -1    0    0    0    0  0.00000000000E+00  0.00000000000E+00  0.74505805969E-08  0.10566000000E+00  0.10566000000E+00 0.  1.
     999900   -1    0    0    0    0 -0.00000000000E+00 -0.00000000000E+00 -0.74505805969E-08  0.93827000000E+00  0.93827000000E+00 0. -1.
     999902    2    1    2    0    0 -0.17599125341E-01  0.37339863202E-03 -0.16450206542E-01  0.10198368903E+01  0.10195522571E+01 0.  0.
     999903    2    3    3    0    0 -0.12701347806E+00 -0.39490422603E-02  0.28955513302E-01  0.13188877050E+00  0.20204145366E-01 0.  0.
         14    1    1    2    0    0  0.17599125341E-01 -0.37339863202E-03  0.16450206542E-01  0.24093109691E-01  0.00000000000E+00 0.  1.
     999901    1    3    3    0    0  0.10941435272E+00  0.43224408923E-02 -0.45405719844E-01  0.88794811981E+00  0.88000000000E+00 0.  1.
        -11    1    4    4    0    0 -0.10267605280E+00 -0.11116939723E-01  0.24105851067E-01  0.10605334198E+00  0.51100000000E-03 0. -1.
         11    1    4    4    0    0 -0.24337425259E-01  0.71678974627E-02  0.48496622351E-02  0.25835428525E-01  0.51100000000E-03 0.  1.
</event>
<event>
 8    1  0.1041149E+005  0.1043930E+01  0.7957747E-01            NaN
         13   -1    0    0    0    0  0.00000000000E+00  0.00000000000E+00  0.74505805969E-08  0.10566000000E+00  0.10566000000E+00 0. -1.
     999900   -1    0    0    0    0 -0.00000000000E+00 -0.00000000000E+00 -0.74505805969E-08  0.93827000000E+00  0.93827000000E+00 0. -1.
     999902    2    1    2    0    0 -0.12823072087E-01  0.96851390374E-03  0.20190078500E-01  0.10199924047E+01  0.10197114775E+01 0.  0.
     999903    2    3    3    0    0 -0.84155663637E-01  0.15014360744E-01 -0.95219797241E-01  0.12948408707E+00  0.19791722155E-01 0.  0.
         14    1    1    2    0    0  0.12823072087E-01 -0.96851390374E-03 -0.20190078500E-01  0.23937595259E-01  0.00000000000E+00 0.  1.
     999901    1    3    3    0    0  0.71332591550E-01 -0.14045846840E-01  0.11540987574E+00  0.89050831768E+00  0.88000000000E+00 0.  1.
        -11    1    4    4    0    0 -0.31528538582E-01 -0.29916016906E-02 -0.40959338844E-01  0.51777668791E-01  0.51100000000E-03 0.  1.
         11    1    4    4    0    0 -0.52627125055E-01  0.18005962435E-01 -0.54260458397E-01  0.77706418275E-01  0.51100000000E-03 0. -1.
</event>
<event>
 8    1  0.1041149E+005  0.1043930E+01  0.7957747E-01            NaN
         13   -1    0    0    0    0  0.00000000000E+00  0.00000000000E+00  0.74505805969E-08  0.10566000000E+00  0.10566000000E+00 0. -1.
     999900   -1    0    0    0    0 -0.00000000000E+00 -0.00000000000E+00 -0.74505805969E-08  0.93827000000E+00  0.93827000000E+00 0.  1.
     999902    2    1    2    0    0 -0.79488226833E-02  0.68091912635E-03  0.19529260323E-01  0.10228340421E+01  0.10226164668E+01 0.  0.
     999903    2    3    3    0    0  0.94985826688E-01 -0.84308038780E-01  0.32626644869E-01  0.13267101963E+00  0.20172972509E-01 0.  0.
         14    1    1    2    0    0  0.79488226833E-02 -0.68091912635E-03 -0.19529260323E-01  0.21095957947E-01  0.00000000000E+00 0.  1.
     999901    1    3    3    0    0 -0.10293464937E+00  0.84988957906E-01 -0.13097384546E-01  0.89016302242E+00  0.88000000000E+00 0. -1.
        -11    1    4    4    0    0  0.93253587687E-01 -0.76820691038E-01  0.29593988861E-01  0.12439339004E+00  0.51100000000E-03 0. -1.
         11    1    4    4    0    0  0.17322390009E-02 -0.74873477416E-02  0.30326560082E-02  0.82776295897E-02  0.51100000000E-03 0.  1.
</event>
<event>
 8    1  0.1041149E+005  0.1043930E+01  0.7957747E-01            NaN
         13   -1    0    0    0    0  0.00000000000E+00  0.00000000000E+00  0.74505805969E-08  0.10566000000E+00  0.10566000000E+00 0.  1.
     999900   -1    0    0    0    0 -0.00000000000E+00 -0.00000000000E+00 -0.74505805969E-08  0.93827000000E+00  0.93827000000E+00 0.  1.
     999902    2    1    2    0    0  0.18063374301E-01  0.11154720939E-01 -0.11113092358E-01  0.10199672349E+01  0.10196857095E+01 0.  0.
     999903    2    3    3    0    0 -0.94482722358E-01 -0.61806192197E-01 -0.57229814168E-01  0.12861058867E+00  0.22769314213E-01 0.  0.
         14    1    1    2    0    0 -0.18063374301E-01 -0.11154720939E-01  0.11113092358E-01  0.23962765118E-01  0.00000000000E+00 0. -1.
     999901    1    3    3    0    0  0.11254609666E+00  0.72960913137E-01  0.46116721809E-01  0.89135664621E+00  0.88000000000E+00 0. -1.
        -11    1    4    4    0    0 -0.45303706621E-01 -0.43160886485E-01 -0.31622823720E-01  0.70110998116E-01  0.51100000000E-03 0.  1.
         11    1    4    4    0    0 -0.49179015737E-01 -0.18645305712E-01 -0.25606990448E-01  0.58499590552E-01  0.51100000000E-03 0. -1.
</event>
<event>
 8    1  0.1041149E+005  0.1043930E+01  0.7957747E-01            NaN
         13   -1    0    0    0    0  0.00000000000E+00  0.00000000000E+00  0.74505805969E-08  0.10566000000E+00  0.10566000000E+00 0. -1.
     999900   -1    0    0    0    0 -0.00000000000E+00 -0.00000000000E+00 -0.74505805969E-08  0.93827000000E+00  0.93827000000E+00 0. -1.
     999902    2    1    2    0    0 -0.17186215411E-01 -0.64748567837E-02  0.14319138001E-01  0.10206420743E+01  0.10203763601E+01 0.  0.
     999903    2    3    3    0    0 -0.40662970568E-01  0.11965915423E+00 -0.23719351721E-01  0.13052529911E+00  0.22415523539E-01 0.  0.
         14    1    1    2    0    0  0.17186215411E-01  0.64748567837E-02 -0.14319138001E-01  0.23287925704E-01  0.00000000000E+00 0. -1.
     999901    1    3    3    0    0  0.23476755157E-01 -0.12613401101E+00  0.38038489722E-01  0.89011677519E+00  0.88000000000E+00 0.  1.
        -11    1    4    4    0    0 -0.28836556267E-01  0.90102088536E-01 -0.77959359935E-02  0.94926134836E-01  0.51100000000E-03 0. -1.
         11    1    4    4    0    0 -0.11826414301E-01  0.29557065693E-01 -0.15923415727E-01  0.35599164274E-01  0.51100000000E-03 0.  1.
</event>
<event>
 8    1  0.1041149E+005  0.1043930E+01  0.7957747E-01            NaN
         13   -1    0    0    0    0  0.00000000000E+00  0.00000000000E+00  0.74505805969E-08  0.10566000000E+00  0.10566000000E+00 0. -1.
     999900   -1    0    0    0    0 -0.00000000000E+00 -0.00000000000E+00 -0.74505805969E-08  0.93827000000E+00  0.93827000000E+00 0. -1.
     999902    2    1    2    0    0 -0.59560977805E-02  0.37498403067E-02  0.21347647895E-01  0.10214520447E+01  0.10212046911E+01 0.  0.
     999903    2    3    3    0    0 -0.11298498057E+00 -0.11085004056E-01 -0.62240354969E-01  0.13091164216E+00  0.19378160866E-01 0.  0.
         14    1    1    2    0    0  0.59560977805E-02 -0.37498403067E-02 -0.21347647895E-01  0.22477955283E-01  0.00000000000E+00 0.  1.
     999901    1    3    3    0    0  0.10702888279E+00  0.14834844363E-01  0.83588002864E-01  0.89054040255E+00  0.88000000000E+00 0.  1.
        -11    1    4    4    0    0 -0.60078352618E-01  0.25952496006E-02 -0.37931221134E-01  0.71099806129E-01  0.51100000000E-03 0.  1.
         11    1    4    4    0    0 -0.52906627948E-01 -0.13680253657E-01 -0.24309133835E-01  0.59811836034E-01  0.51100000000E-03 0. -1.
</event>
<event>
 8    1  0.1041149E+005  0.1043930E+01  0.7957747E-01            NaN
         13   -1    0    0    0    0  0.00000000000E+00  0.00000000000E+00  0.74505805969E-08  0.10566000000E+00  0.10566000000E+00 0.  1.
     999900   -1    0    0    0    0 -0.00000000000E+00 -0.00000000000E+00 -0.74505805969E-08  0.93827000000E+00  0.93827000000E+00 0. -1.
     999902    2    1    2    0    0  0.22499702709E-01  0.80458873253E-03  0.89794941845E-02  0.10196912851E+01  0.10194031595E+01 0.  0.
     999903    2    3    3    0    0  0.52062588018E-01  0.76393853543E-01  0.92254430960E-01  0.13204134494E+00  0.19429431575E-01 0.  0.
         14    1    1    2    0    0 -0.22499702709E-01 -0.80458873253E-03 -0.89794941845E-02  0.24238714918E-01  0.00000000000E+00 0. -1.
     999901    1    3    3    0    0 -0.29562885308E-01 -0.75589264810E-01 -0.83274936775E-01  0.88764994014E+00  0.88000000000E+00 0. -1.
        -11    1    4    4    0    0  0.29216767839E-01  0.28124548695E-01  0.46640387379E-01  0.61807739145E-01  0.51100000000E-03 0.  1.
         11    1    4    4    0    0  0.22845820179E-01  0.48269304847E-01  0.45614043581E-01  0.70233605794E-01  0.51100000000E-03 0. -1.
</event>
<event>
 8    1  0.1041149E+005  0.1043930E+01  0.7957747E-01            NaN
         13   -1    0    0    0    0  0.00000000000E+00  0.00000000000E+00  0.74505805969E-08  0.10566000000E+00  0.10566000000E+00 0.  1.
     999900   -1    0    0    0    0 -0.00000000000E+00 -0.00000000000E+00 -0.74505805969E-08  0.93827000000E+00  0.93827000000E+00 0.  1.
     999902    2    1    2    0    0 -0.15724471667E-01 -0.55332208958E-02  0.17657022413E-01  0.10196473728E+01  0.10193581897E+01 0.  0.
     999903    2    3    3    0    0 -0.95780356821E-02  0.12712988783E+00 -0.81052634609E-02  0.12930981072E+00  0.20039578495E-01 0.  0.
         14    1    1    2    0    0  0.15724471667E-01  0.55332208958E-02 -0.17657022413E-01  0.24282627189E-01  0.00000000000E+00 0. -1.
     999901    1    3    3    0    0 -0.61464359854E-02 -0.13266310873E+00  0.25762285874E-01  0.89033756209E+00  0.88000000000E+00 0.  1.
        -11    1    4    4    0    0 -0.12667838701E-01  0.75261526987E-01 -0.11742083236E-01  0.77219875819E-01  0.51100000000E-03 0.  1.
         11    1    4    4    0    0  0.30898030193E-02  0.51868360842E-01  0.36368197750E-02  0.52089934904E-01  0.51100000000E-03 0. -1.
</event>
<event>
 8    1  0.1041149E+005  0.1043930E+01  0.7957747E-01            NaN
         13   -1    0    0    0    0  0.00000000000E+00  0.00000000000E+00  0.74505805969E-08  0.10566000000E+00  0.10566000000E+00 0. -1.
     999900   -1    0    0    0    0 -0.00000000000E+00 -0.00000000000E+00 -0.74505805969E-08  0.93827000000E+00  0.93827000000E+00 0. -1.
     999902    2    1    2    0    0  0.12240530936E-01  0.20062635545E-01  0.26598118509E-02  0.10202780542E+01  0.10200038692E+01 0.  0.
     999903    2    3    3    0    0  0.92370140065E-01 -0.88406396195E-01  0.21400528753E-01  0.12980767309E+00  0.66419649529E-02 0.  0.
         14    1    1    2    0    0 -0.12240530936E-01 -0.20062635545E-01 -0.26598118509E-02  0.23651945833E-01  0.00000000000E+00 0. -1.
     999901    1    3    3    0    0 -0.80129609129E-01  0.10846903174E+00 -0.18740716902E-01  0.89047038108E+00  0.88000000000E+00 0. -1.
        -11    1    4    4    0    0  0.77781093431E-01 -0.72440813387E-01  0.19758446355E-01  0.10811210507E+00  0.51100000000E-03 0. -1.
         11    1    4    4    0    0  0.14589046634E-01 -0.15965582808E-01  0.16420823975E-02  0.21695568019E-01  0.51100000000E-03 0.  1.
</event>
<event>
 8    1  0.1041149E+005  0.1043930E+01  0.7957747E-01            NaN
         13   -1    0    0    0    0  0.00000000000E+00  0.00000000000E+00  0.74505805969E-08  0.10566000000E+00  0.10566000000E+00 0.  1.
     999900   -1    0    0    0    0 -0.00000000000E+00 -0.00000000000E+00 -0.74505805969E-08  0.93827000000E+00  0.93827000000E+00 0. -1.
     999902    2    1    2    0    0 -0.59972509939E-02  0.35792480358E-02 -0.24171678535E-01  0.10187695533E+01  0.10184588134E+01 0.  0.
     999903    2    3    3    0    0 -0.11404594272E-01  0.53345679397E-01 -0.11873344440E+00  0.13228894739E+00  0.20661764235E-01 0.  0.
         14    1    1    2    0    0  0.59972509939E-02 -0.35792480358E-02  0.24171678535E-01  0.25160446721E-01  0.00000000000E+00 0.  1.
     999901    1    3    3    0    0  0.54073432776E-02 -0.49766431361E-01  0.94561765867E-01  0.88648060589E+00  0.88000000000E+00 0.  1.
        -11    1    4    4    0    0 -0.13772545998E-03  0.12357124232E-01 -0.49697777392E-01  0.51213745091E-01  0.51100000000E-03 0.  1.
         11    1    4    4    0    0 -0.11266868812E-01  0.40988555165E-01 -0.69035667010E-01  0.81075202300E-01  0.51100000000E-03 0. -1.
</event>
<event>
 8    1  0.1041149E+005  0.1043930E+01  0.7957747E-01            NaN
         13   -1    0    0    0    0  0.00000000000E+00  0.00000000000E+00  0.74505805969E-08  0.10566000000E+00  0.10566000000E+00 0. -1.
     999900   -1    0    0    0    0 -0.00000000000E+00 -0.00000000000E+00 -0.74505805969E-08  0.93827000000E+00  0.93827000000E+00 0.  1.
     999902    2    1    2    0    0 -0.47948265165E-02 -0.11025432490E-01  0.20974755346E-01  0.10197537537E+01  0.10194671291E+01 0.  0.
     999903    2    3    3    0    0  0.41369566821E-01 -0.73409276872E-01  0.10055670871E+00  0.13276097890E+00  0.20333786231E-01 0.  0.
         14    1    1    2    0    0  0.47948265165E-02  0.11025432490E-01 -0.20974755346E-01  0.24176246292E-01  0.00000000000E+00 0.  1.
     999901    1    3    3    0    0 -0.46164393338E-01  0.62383844381E-01 -0.79581953368E-01  0.88699277480E+00  0.88000000000E+00 0. -1.
        -11    1    4    4    0    0  0.31535878882E-01 -0.37329567927E-01  0.50483964310E-01  0.70263077587E-01  0.51100000000E-03 0. -1.
         11    1    4    4    0    0  0.98336879398E-02 -0.36079708945E-01  0.50072744404E-01  0.62497901318E-01  0.51100000000E-03 0.  1.
</event>
<event>
 8    1  0.1041149E+005  0.1043930E+01  0.7957747E-01            NaN
         13   -1    0    0    0    0  0.00000000000E+00  0.00000000000E+00  0.74505805969E-08  0.10566000000E+00  0.10566000000E+00 0.  1.
     999900   -1    0    0    0    0 -0.00000000000E+00 -0.00000000000E+00 -0.74505805969E-08  0.93827000000E+00  0.93827000000E+00 0.  1.
     999902    2    1    2    0    0 -0.19719698357E-01  0.12052765157E-01  0.33766031162E-02  0.10205732644E+01  0.10203059594E+01 0.  0.
     999903    2    3    3    0    0 -0.61035234847E-01  0.10063937599E+00 -0.58440741748E-01  0.13300583295E+00  0.20534054895E-01 0.  0.
         14    1    1    2    0    0  0.19719698357E-01 -0.12052765157E-01 -0.33766031162E-02  0.23356735641E-01  0.00000000000E+00 0.  1.
     999901    1    3    3    0    0  0.41315536490E-01 -0.88586610830E-01  0.61817344864E-01  0.88756743141E+00  0.88000000000E+00 0. -1.
        -11    1    4    4    0    0 -0.54856191947E-01  0.74515316695E-01 -0.47522547216E-01  0.10402109321E+00  0.51100000000E-03 0.  1.
         11    1    4    4    0    0 -0.61790428998E-02  0.26124059292E-01 -0.10918194532E-01  0.28984739741E-01  0.51100000000E-03 0. -1.
</event>
<event>
 8    1  0.1041149E+005  0.1043930E+01  0.7957747E-01            NaN
         13   -1    0    0    0    0  0.00000000000E+00  0.00000000000E+00  0.74505805969E-08  0.10566000000E+00  0.10566000000E+00 0. -1.
     999900   -1    0    0    0    0 -0.00000000000E+00 -0.00000000000E+00 -0.74505805969E-08  0.93827000000E+00  0.93827000000E+00 0.  1.
     999902    2    1    2    0    0  0.11824068201E-01 -0.99989130148E-02  0.17122436572E-01  0.10208439721E+01  0.10205828975E+01 0.  0.
     999903    2    3    3    0    0 -0.11945728482E+00 -0.36806286086E-01 -0.27296903543E-01  0.12959400341E+00  0.20609201452E-01 0.  0.
         14    1    1    2    0    0 -0.11824068201E-01  0.99989130148E-02 -0.17122436572E-01  0.23086027905E-01  0.00000000000E+00 0. -1.
     999901    1    3    3    0    0  0.13128135302E+00  0.26807373071E-01  0.44419340115E-01  0.89124996868E+00  0.88000000000E+00 0. -1.
        -11    1    4    4    0    0 -0.10135596873E+00 -0.33033470488E-01 -0.30363296629E-01  0.11084418556E+00  0.51100000000E-03 0.  1.
         11    1    4    4    0    0 -0.18101316096E-01 -0.37728155979E-02  0.30663930861E-02  0.18749817852E-01  0.51100000000E-03 0. -1.
</event>
<event>
 8    1  0.1041149E+005  0.1043930E+01  0.7957747E-01            NaN
         13   -1    0    0    0    0  0.00000000000E+00  0.00000000000E+00  0.74505805969E-08  0.10566000000E+00  0.10566000000E+00 0. -1.
     999900   -1    0    0    0    0 -0.00000000000E+00 -0.00000000000E+00 -0.74505805969E-08  0.93827000000E+00  0.93827000000E+00 0.  1.
     999902    2    1    2    0    0 -0.16983784753E-01 -0.80173840078E-02  0.13432167845E-01  0.10208399475E+01  0.10205787808E+01 0.  0.
     999903    2    3    3    0    0  0.54636164736E-01  0.85305853527E-01 -0.76387548828E-01  0.12848002835E+00  0.20245022233E-01 0.  0.
         14    1    1    2    0    0  0.16983784753E-01  0.80173840078E-02 -0.13432167845E-01  0.23090052487E-01  0.00000000000E+00 0. -1.
     999901    1    3    3    0    0 -0.71619949489E-01 -0.93323237535E-01  0.89819716673E-01  0.89235991916E+00  0.88000000000E+00 0. -1.
        -11    1    4    4    0    0  0.25406269961E-01  0.27337049013E-01 -0.36934520721E-01  0.52509168189E-01  0.51100000000E-03 0.  1.
         11    1    4    4    0    0  0.29229894775E-01  0.57968804514E-01 -0.39453028107E-01  0.75970860158E-01  0.51100000000E-03 0. -1.
</event>
<event>
 8    1  0.1041149E+005  0.1043930E+01  0.7957747E-01            NaN
         13   -1    0    0    0    0  0.00000000000E+00  0.00000000000E+00  0.74505805969E-08  0.10566000000E+00  0.10566000000E+00 0.  1.
     999900   -1    0    0    0    0 -0.00000000000E+00 -0.00000000000E+00 -0.74505805969E-08  0.93827000000E+00  0.93827000000E+00 0. -1.
     999902    2    1    2    0    0 -0.22304761645E-01  0.61768127337E-02 -0.13524306197E-02  0.10207462886E+01  0.10204829744E+01 0.  0.
     999903    2    3    3    0    0 -0.10457113209E+00  0.80526642998E-01 -0.92387415773E-02  0.13375257558E+00  0.19614668715E-01 0.  0.
         14    1    1    2    0    0  0.22304761645E-01 -0.61768127337E-02  0.13524306197E-02  0.23183711441E-01  0.00000000000E+00 0. -1.
     999901    1    3    3    0    0  0.82266370446E-01 -0.74349830264E-01  0.78863109576E-02  0.88699371298E+00  0.88000000000E+00 0.  1.
        -11    1    4    4    0    0 -0.32228939419E-01  0.22286570794E-01 -0.11536351256E-01  0.40850266769E-01  0.51100000000E-03 0. -1.
         11    1    4    4    0    0 -0.72342192672E-01  0.58240072204E-01  0.22976096789E-02  0.92902308809E-01  0.51100000000E-03 0.  1.
</event>
<event>
 8    1  0.1041149E+005  0.1043930E+01  0.7957747E-01            NaN
         13   -1    0    0    0    0  0.00000000000E+00  0.00000000000E+00  0.74505805969E-08  0.10566000000E+00  0.10566000000E+00 0. -1.
     999900   -1    0    0    0    0 -0.00000000000E+00 -0.00000000000E+00 -0.74505805969E-08  0.93827000000E+00  0.93827000000E+00 0.  1.
     999902    2    1    2    0    0  0.11026139314E-01 -0.14288462195E-01 -0.14861033118E-01  0.10205508168E+01  0.10202829919E+01 0.  0.
     999903    2    3    3    0    0  0.52427249170E-01  0.26659585594E-01  0.11349995968E+00  0.12933404243E+00  0.19639341192E-01 0.  0.
         14    1    1    2    0    0 -0.11026139314E-01  0.14288462195E-01  0.14861033118E-01  0.23379183164E-01  0.00000000000E+00 0.  1.
     999901    1    3    3    0    0 -0.41401109856E-01 -0.40948047789E-01 -0.12836099280E+00  0.89121677441E+00  0.88000000000E+00 0.  1.
        -11    1    4    4    0    0  0.15866874594E-01  0.75015241381E-02  0.55014004209E-01  0.57748007359E-01  0.51100000000E-03 0.  1.
         11    1    4    4    0    0  0.36560374576E-01  0.19158061456E-01  0.58485955476E-01  0.71586035068E-01  0.51100000000E-03 0. -1.
</event>
<event>
 8    1  0.1041149E+005  0.1043930E+01  0.7957747E-01            NaN
         13   -1    0    0    0    0  0.00000000000E+00  0.00000000000E+00  0.74505805969E-08  0.10566000000E+00  0.10566000000E+00 0.  1.
     999900   -1    0    0    0    0 -0.00000000000E+00 -0.00000000000E+00 -0.74505805969E-08  0.93827000000E+00  0.93827000000E+00 0. -1.
     999902    2    1    2    0    0  0.16840408943E-01 -0.16146607683E-01 -0.13542702776E-02  0.10205602255E+01  0.10202926186E+01 0.  0.
     999903    2    3    3    0    0  0.38723884336E-01 -0.10519266900E+00  0.68805643236E-01  0.13301839492E+00  0.19865548505E-01 0.  0.
         14    1    1    2    0    0 -0.16840408943E-01  0.16146607683E-01  0.13542702776E-02  0.23369774518E-01  0.00000000000E+00 0.  1.
     999901    1    3    3    0    0 -0.21883475394E-01  0.89046061315E-01 -0.70159913514E-01  0.88754183056E+00  0.88000000000E+00 0. -1.
        -11    1    4    4    0    0  0.12535570720E-01 -0.57330960340E-01  0.42416383130E-01  0.72411257589E-01  0.51100000000E-03 0. -1.
         11    1    4    4    0    0  0.26188313616E-01 -0.47861708658E-01  0.26389260106E-01  0.60607137333E-01  0.51100000000E-03 0.  1.
</event>
<event>
 8    1  0.1041149E+005  0.1043930E+01  0.7957747E-01            NaN
         13   -1    0    0    0    0  0.00000000000E+00  0.00000000000E+00  0.74505805969E-08  0.10566000000E+00  0.10566000000E+00 0.  1.
     999900   -1    0    0    0    0 -0.00000000000E+00 -0.00000000000E+00 -0.74505805969E-08  0.93827000000E+00  0.93827000000E+00 0. -1.
     999902    2    1    2    0    0  0.69130541780E-02  0.23631591613E-03 -0.21773502036E-01  0.10210841786E+01  0.10208285695E+01 0.  0.
     999903    2    3    3    0    0 -0.91260763642E-01  0.91217518566E-01 -0.21697828656E-02  0.13074717302E+00  0.20998871933E-01 0.  0.
         14    1    1    2    0    0 -0.69130541780E-02 -0.23631591613E-03  0.21773502036E-01  0.22845821373E-01  0.00000000000E+00 0.  1.
     999901    1    3    3    0    0  0.98173817820E-01 -0.90981202649E-01 -0.19603719171E-01  0.89033700560E+00  0.88000000000E+00 0.  1.
        -11    1    4    4    0    0 -0.36809877660E-01  0.22860064573E-01 -0.86458658036E-03  0.43342338153E-01  0.51100000000E-03 0.  1.
         11    1    4    4    0    0 -0.54450885982E-01  0.68357453992E-01 -0.13051962852E-02  0.87404834871E-01  0.51100000000E-03 0. -1.
</event>
<event>
 8    1  0.1041149E+005  0.1043930E+01  0.7957747E-01            NaN
         13   -1    0    0    0    0  0.00000000000E+00  0.00000000000E+00  0.74505805969E-08  0.10566000000E+00  0.10566000000E+00 0.  1.
     999900   -1    0    0    0    0 -0.00000000000E+00 -0.00000000000E+00 -0.74505805969E-08  0.93827000000E+00  0.93827000000E+00 0.  1.
     999902    2    1    2    0    0  0.22029386405E-01  0.85940069671E-02  0.75071880367E-02  0.10191205523E+01  0.10188185273E+01 0.  0.
     999903    2    3    3    0    0  0.10793053195E+00  0.52862554784E-01 -0.51047461416E-01  0.13189602714E+00  0.18635161246E-01 0.  0.
         14    1    1    2    0    0 -0.22029386405E-01 -0.85940069671E-02 -0.75071880367E-02  0.24809447663E-01  0.00000000000E+00 0. -1.
     999901    1    3    3    0    0 -0.85901145542E-01 -0.44268547817E-01  0.58554649453E-01  0.88722452519E+00  0.88000000000E+00 0. -1.
        -11    1    4    4    0    0  0.61154749891E-01  0.19747504741E-01 -0.28617009641E-01  0.70349568155E-01  0.51100000000E-03 0.  1.
         11    1    4    4    0    0  0.46775782056E-01  0.33115050043E-01 -0.22430451775E-01  0.61546458989E-01  0.51100000000E-03 0. -1.
</event>
<event>
 8    1  0.1041149E+005  0.1043930E+01  0.7957747E-01            NaN
         13   -1    0    0    0    0  0.00000000000E+00  0.00000000000E+00  0.74505805969E-08  0.10566000000E+00  0.10566000000E+00 0. -1.
     999900   -1    0    0    0    0 -0.00000000000E+00 -0.00000000000E+00 -0.74505805969E-08  0.93827000000E+00  0.93827000000E+00 0.  1.
     999902    2    1    2    0    0 -0.16198841875E-01  0.54023153157E-02 -0.60270347065E-02  0.10258216418E+01  0.10256618001E+01 0.  0.
     999903    2    3    3    0    0  0.63569202270E-01  0.23372057116E-02  0.11602912810E+00  0.13381825469E+00  0.19951458919E-01 0.  0.
         14    1    1    2    0    0  0.16198841875E-01 -0.54023153157E-02  0.60270347065E-02  0.18108358186E-01  0.00000000000E+00 0. -1.
     999901    1    3    3    0    0 -0.79768044145E-01  0.30651096041E-02 -0.12205616280E+00  0.89200338712E+00  0.88000000000E+00 0.  1.
        -11    1    4    4    0    0  0.29229964736E-01 -0.71497396874E-02  0.42096620269E-01  0.51748392972E-01  0.51100000000E-03 0.  1.
         11    1    4    4    0    0  0.34339237534E-01  0.94869453990E-02  0.73932507829E-01  0.82069861717E-01  0.51100000000E-03 0. -1.
</event>
<event>
 8    1  0.1041149E+005  0.1043930E+01  0.7957747E-01            NaN
         13   -1    0    0    0    0  0.00000000000E+00  0.00000000000E+00  0.74505805969E-08  0.10566000000E+00  0.10566000000E+00 0. -1.
     999900   -1    0    0    0    0 -0.00000000000E+00 -0.00000000000E+00 -0.74505805969E-08  0.93827000000E+00  0.93827000000E+00 0.  1.
     999902    2    1    2    0    0  0.19978749325E-01 -0.89868032393E-02  0.81631314633E-02  0.10205515960E+01  0.10202837891E+01 0.  0.
     999903    2    3    3    0    0  0.90472711377E-01  0.67019293985E-01 -0.64875791910E-01  0.13146160630E+00  0.19909502389E-01 0.  0.
         14    1    1    2    0    0 -0.19978749325E-01  0.89868032393E-02 -0.81631314633E-02  0.23378403974E-01  0.00000000000E+00 0. -1.
     999901    1    3    3    0    0 -0.70493962051E-01 -0.76006097224E-01  0.73038923373E-01  0.88908998972E+00  0.88000000000E+00 0. -1.
        -11    1    4    4    0    0  0.49886394023E-01  0.34038130607E-01 -0.23622599964E-01  0.64850096329E-01  0.51100000000E-03 0.  1.
         11    1    4    4    0    0  0.40586317354E-01  0.32981163378E-01 -0.41253191946E-01  0.66611509973E-01  0.51100000000E-03 0. -1.
</event>
<event>
 8    1  0.1041149E+005  0.1043930E+01  0.7957747E-01            NaN
         13   -1    0    0    0    0  0.00000000000E+00  0.00000000000E+00  0.74505805969E-08  0.10566000000E+00  0.10566000000E+00 0. -1.
     999900   -1    0    0    0    0 -0.00000000000E+00 -0.00000000000E+00 -0.74505805969E-08  0.93827000000E+00  0.93827000000E+00 0. -1.
     999902    2    1    2    0    0  0.18974954345E-01 -0.52660281028E-02 -0.12551453599E-01  0.10205779352E+01  0.10203107384E+01 0.  0.
     999903    2    3    3    0    0 -0.53212868356E-01 -0.21637861351E-01  0.11326622158E+00  0.12855259581E+00  0.19917995262E-01 0.  0.
         14    1    1    2    0    0 -0.18974954345E-01  0.52660281028E-02  0.12551453599E-01  0.23352064829E-01  0.00000000000E+00 0.  1.
     999901    1    3    3    0    0  0.72187822700E-01  0.16371833248E-01 -0.12581767518E+00  0.89202533936E+00  0.88000000000E+00 0. -1.
        -11    1    4    4    0    0 -0.29358535976E-01 -0.25805267384E-02  0.45354285246E-01  0.54091173624E-01  0.51100000000E-03 0. -1.
         11    1    4    4    0    0 -0.23854332380E-01 -0.19057334613E-01  0.67911936339E-01  0.74461422187E-01  0.51100000000E-03 0.  1.
</event>
<event>
 8    1  0.1041149E+005  0.1043930E+01  0.7957747E-01            NaN
         13   -1    0    0    0    0  0.00000000000E+00  0.00000000000E+00  0.74505805969E-08  0.10566000000E+00  0.10566000000E+00 0.  1.
     999900   -1    0    0    0    0 -0.00000000000E+00 -0.00000000000E+00 -0.74505805969E-08  0.93827000000E+00  0.93827000000E+00 0.  1.
     999902    2    1    2    0    0  0.10038070185E-02  0.21308102255E-01 -0.10620577886E-01  0.10201006164E+01  0.10198222531E+01 0.  0.
     999903    2    3    3    0    0  0.85106348346E-01 -0.25652583959E-01  0.91617231087E-01  0.12896027214E+00  0.18327279274E-01 0.  0.
         14    1    1    2    0    0 -0.10038070185E-02 -0.21308102255E-01  0.10620577886E-01  0.23829383644E-01  0.00000000000E+00 0.  1.
     999901    1    3    3    0    0 -0.84102541327E-01  0.46960686214E-01 -0.10223780897E+00  0.89114034422E+00  0.88000000000E+00 0.  1.
        -11    1    4    4    0    0  0.71527622084E-01 -0.17940011435E-01  0.66064747032E-01  0.99009376589E-01  0.51100000000E-03 0. -1.
         11    1    4    4    0    0  0.13578726262E-01 -0.77125725237E-02  0.25552484055E-01  0.29950895550E-01  0.51100000000E-03 0.  1.
</event>
<event>
 8    1  0.1041149E+005  0.1043930E+01  0.7957747E-01            NaN
         13   -1    0    0    0    0  0.00000000000E+00  0.00000000000E+00  0.74505805969E-08  0.10566000000E+00  0.10566000000E+00 0.  1.
     999900   -1    0    0    0    0 -0.00000000000E+00 -0.00000000000E+00 -0.74505805969E-08  0.93827000000E+00  0.93827000000E+00 0. -1.
     999902    2    1    2    0    0 -0.75874844857E-02  0.16597798024E-01 -0.16107097232E-01  0.10195887716E+01  0.10192981741E+01 0.  0.
     999903    2    3    3    0    0  0.22186191242E-01  0.34133539114E-01  0.12014015574E+00  0.12843374133E+00  0.20105803073E-01 0.  0.
         14    1    1    2    0    0  0.75874844857E-02 -0.16597798024E-01  0.16107097232E-01  0.24341228426E-01  0.00000000000E+00 0.  1.
     999901    1    3    3    0    0 -0.29773675728E-01 -0.17535741090E-01 -0.13624725297E+00  0.89115503024E+00  0.88000000000E+00 0. -1.
        -11    1    4    4    0    0  0.22789116696E-01  0.26517955754E-01  0.76319465295E-01  0.83949197263E-01  0.51100000000E-03 0. -1.
         11    1    4    4    0    0 -0.60292545457E-03  0.76155833597E-02  0.43820690445E-01  0.44484544070E-01  0.51100000000E-03 0.  1.
</event>
<event>
 8    1  0.1041149E+005  0.1043930E+01  0.7957747E-01            NaN
         13   -1    0    0    0    0  0.00000000000E+00  0.00000000000E+00  0.74505805969E-08  0.10566000000E+00  0.10566000000E+00 0. -1.
     999900   -1    0    0    0    0 -0.00000000000E+00 -0.00000000000E+00 -0.74505805969E-08  0.93827000000E+00  0.93827000000E+00 0.  1.
     999902    2    1    2    0    0  0.12014449447E-01  0.19201878367E-01 -0.33445601935E-02  0.10210335983E+01  0.10207768432E+01 0.  0.
     999903    2    3    3    0    0  0.53148477883E-01  0.49174154340E-01  0.10909740884E+00  0.13242032919E+00  0.19749450871E-01 0.  0.
         14    1    1    2    0    0 -0.12014449447E-01 -0.19201878367E-01  0.33445601935E-02  0.22896401709E-01  0.00000000000E+00 0. -1.
     999901    1    3    3    0    0 -0.41134028436E-01 -0.29972275973E-01 -0.11244196904E+00  0.88861326910E+00  0.88000000000E+00 0.  1.
        -11    1    4    4    0    0  0.44401520957E-01  0.47202648165E-01  0.10253105179E+00  0.12129494120E+00  0.51100000000E-03 0. -1.
         11    1    4    4    0    0  0.87469569258E-02  0.19715061747E-02  0.65663570512E-02  0.11125387992E-01  0.51100000000E-03 0.  1.
</event>
<event>
 8    1  0.1041149E+005  0.1043930E+01  0.7957747E-01            NaN
         13   -1    0    0    0    0  0.00000000000E+00  0.00000000000E+00  0.74505805969E-08  0.10566000000E+00  0.10566000000E+00 0.  1.
     999900   -1    0    0    0    0 -0.00000000000E+00 -0.00000000000E+00 -0.74505805969E-08  0.93827000000E+00  0.93827000000E+00 0.  1.
     999902    2    1    2    0    0 -0.35031504071E-02 -0.23270880569E-01 -0.34150360506E-02  0.10201504202E+01  0.10198732330E+01 0.  0.
     999903    2    3    3    0    0 -0.99146821180E-01 -0.51384280139E-01  0.67045237450E-01  0.13172331279E+00  0.19634940116E-01 0.  0.
         14    1    1    2    0    0  0.35031504071E-02  0.23270880569E-01  0.34150360506E-02  0.23779579820E-01  0.00000000000E+00 0.  1.
     999901    1    3    3    0    0  0.95643670773E-01  0.28113399570E-01 -0.70460273501E-01  0.88842710738E+00  0.88000000000E+00 0.  1.
        -11    1    4    4    0    0 -0.57012094654E-01 -0.39274002655E-01  0.36276577587E-01  0.78160587407E-01  0.51100000000E-03 0.  1.
         11    1    4    4    0    0 -0.42134726526E-01 -0.12110277483E-01  0.30768659863E-01  0.53562725388E-01  0.51100000000E-03 0. -1.
</event>
<event>
 8    1  0.1041149E+005  0.1043930E+01  0.7957747E-01            NaN
         13   -1    0    0    0    0  0.00000000000E+00  0.00000000000E+00  0.74505805969E-08  0.10566000000E+00  0.10566000000E+00 0. -1.
     999900   -1    0    0    0    0 -0.00000000000E+00 -0.00000000000E+00 -0.74505805969E-08  0.93827000000E+00  0.93827000000E+00 0. -1.
     999902    2    1    2    0    0 -0.18942720853E-02 -0.94881960206E-02  0.22656730192E-01  0.10192938162E+01  0.10189960462E+01 0.  0.
     999903    2    3    3    0    0  0.77575436885E-01 -0.22086209372E-02  0.10465954254E+00  0.13188585583E+00  0.20431169994E-01 0.  0.
         14    1    1    2    0    0  0.18942720853E-02  0.94881960206E-02 -0.22656730192E-01  0.24636183825E-01  0.00000000000E+00 0.  1.
     999901    1    3    3    0    0 -0.79469708970E-01 -0.72795750834E-02 -0.82002812351E-01  0.88740796035E+00  0.88000000000E+00 0. -1.
        -11    1    4    4    0    0  0.47714126014E-01 -0.10925215996E-01  0.68332767039E-01  0.84057280101E-01  0.51100000000E-03 0.  1.
         11    1    4    4    0    0  0.29861310871E-01  0.87165950584E-02  0.36326775504E-01  0.47828575725E-01  0.51100000000E-03 0. -1.
</event>
<event>
 8    1  0.1041149E+005  0.1043930E+01  0.7957747E-01            NaN
         13   -1    0    0    0    0  0.00000000000E+00  0.00000000000E+00  0.74505805969E-08  0.10566000000E+00  0.10566000000E+00 0.  1.
     999900   -1    0    0    0    0 -0.00000000000E+00 -0.00000000000E+00 -0.74505805969E-08  0.93827000000E+00  0.93827000000E+00 0.  1.
     999902    2    1    2    0    0 -0.10177934958E-01  0.16248101256E-01 -0.13350006204E-01  0.10205673413E+01  0.10202998992E+01 0.  0.
     999903    2    3    3    0    0 -0.97309432478E-01  0.84858174661E-01 -0.26512889733E-01  0.13350899966E+00  0.21252863598E-01 0.  0.
         14    1    1    2    0    0  0.10177934958E-01 -0.16248101256E-01  0.13350006204E-01  0.23362658669E-01  0.00000000000E+00 0. -1.
     999901    1    3    3    0    0  0.87131497520E-01 -0.68610073404E-01  0.13162883529E-01  0.88705834168E+00  0.88000000000E+00 0. -1.
        -11    1    4    4    0    0 -0.27138593375E-01  0.26104821528E-01  0.18172089638E-02  0.37703160700E-01  0.51100000000E-03 0.  1.
         11    1    4    4    0    0 -0.70170839103E-01  0.58753353133E-01 -0.28330098697E-01  0.95805838955E-01  0.51100000000E-03 0. -1.
</event>
<event>
 8    1  0.1041149E+005  0.1043930E+01  0.7957747E-01            NaN
         13   -1    0    0    0    0  0.00000000000E+00  0.00000000000E+00  0.74505805969E-08  0.10566000000E+00  0.10566000000E+00 0.  1.
     999900   -1    0    0    0    0 -0.00000000000E+00 -0.00000000000E+00 -0.74505805969E-08  0.93827000000E+00  0.93827000000E+00 0.  1.
     999902    2    1    2    0    0  0.15543195942E-01  0.12217788702E-01 -0.15386956653E-01  0.10188775802E+01  0.10185695361E+01 0.  0.
     999903    2    3    3    0    0  0.94392375663E-01 -0.82729055809E-01  0.23754209344E-01  0.12940350681E+00  0.20663684451E-01 0.  0.
         14    1    1    2    0    0 -0.15543195942E-01 -0.12217788702E-01  0.15386956653E-01  0.25052419761E-01  0.00000000000E+00 0.  1.
     999901    1    3    3    0    0 -0.78849179721E-01  0.94946844510E-01 -0.39141165997E-01  0.88947407343E+00  0.88000000000E+00 0.  1.
        -11    1    4    4    0    0  0.83634903373E-02 -0.82256149026E-03  0.16122146229E-02  0.85723354471E-02  0.51100000000E-03 0.  1.
         11    1    4    4    0    0  0.86028885326E-01 -0.81906494319E-01  0.22141994721E-01  0.12083117136E+00  0.51100000000E-03 0. -1.
</event>
<event>
 8    1  0.1041149E+005  0.1043930E+01  0.7957747E-01            NaN
         13   -1    0    0    0    0  0.00000000000E+00  0.00000000000E+00  0.74505805969E-08  0.10566000000E+00  0.10566000000E+00 0.  1.
     999900   -1    0    0    0    0 -0.00000000000E+00 -0.00000000000E+00 -0.74505805969E-08  0.93827000000E+00  0.93827000000E+00 0. -1.
     999902    2    1    2    0    0  0.63792809366E-03 -0.91099428075E-02  0.21513678585E-01  0.10205582997E+01  0.10202906481E+01 0.  0.
     999903    2    3    3    0    0 -0.34514556430E-01  0.12137456817E+00  0.24896722572E-01  0.13023625133E+00  0.20459568937E-01 0.  0.
         14    1    1    2    0    0 -0.63792809366E-03  0.91099428075E-02 -0.21513678585E-01  0.23371700334E-01  0.00000000000E+00 0. -1.
     999901    1    3    3    0    0  0.35152484524E-01 -0.13048451098E+00 -0.33830439870E-02  0.89032204834E+00  0.88000000000E+00 0.  1.
        -11    1    4    4    0    0 -0.36604606289E-01  0.10425299183E+00  0.19901970373E-01  0.11227169301E+00  0.51100000000E-03 0.  1.
         11    1    4    4    0    0  0.20900498594E-02  0.17121576344E-01  0.49947521992E-02  0.17964558314E-01  0.51100000000E-03 0. -1.
</event>
<event>
 8    1  0.1041149E+005  0.1043930E+01  0.7957747E-01            NaN
         13   -1    0    0    0    0  0.00000000000E+00  0.00000000000E+00  0.74505805969E-08  0.10566000000E+00  0.10566000000E+00 0. -1.
     999900   -1    0    0    0    0 -0.00000000000E+00 -0.00000000000E+00 -0.74505805969E-08  0.93827000000E+00  0.93827000000E+00 0.  1.
     999902    2    1    2    0    0  0.11276365932E-01 -0.74634446435E-02 -0.10132593162E-01  0.10270324002E+01  0.10268933840E+01 0.  0.
     999903    2    3    3    0    0 -0.50430724094E-01  0.79815159094E-01 -0.96404501917E-01  0.13637637128E+00  0.19772938551E-01 0.  0.
         14    1    1    2    0    0 -0.11276365932E-01  0.74634446435E-02  0.10132593162E-01  0.16897599793E-01  0.00000000000E+00 0. -1.
     999901    1    3    3    0    0  0.61707090026E-01 -0.87278603737E-01  0.86271908755E-01  0.89065602893E+00  0.88000000000E+00 0. -1.
        -11    1    4    4    0    0 -0.11793195185E-01  0.80323997264E-02 -0.91182840028E-02  0.16941166495E-01  0.51100000000E-03 0.  1.
         11    1    4    4    0    0 -0.38637528908E-01  0.71782759367E-01 -0.87286217914E-01  0.11943520478E+00  0.51100000000E-03 0. -1.
</event>
<event>
 8    1  0.1041149E+005  0.1043930E+01  0.7957747E-01            NaN
         13   -1    0    0    0    0  0.00000000000E+00  0.00000000000E+00  0.74505805969E-08  0.10566000000E+00  0.10566000000E+00 0. -1.
     999900   -1    0    0    0    0 -0.00000000000E+00 -0.00000000000E+00 -0.74505805969E-08  0.93827000000E+00  0.93827000000E+00 0.  1.
     999902    2    1    2    0    0 -0.22773662027E-01 -0.45492576071E-02 -0.43161789177E-02  0.10203087209E+01  0.10200352548E+01 0.  0.
     999903    2    3    3    0    0  0.66103882544E-01  0.82769094374E-01 -0.70741393978E-01  0.12905341418E+00  0.20736263377E-01 0.  0.
         14    1    1    2    0    0  0.22773662027E-01  0.45492576071E-02  0.43161789177E-02  0.23621279122E-01  0.00000000000E+00 0.  1.
     999901    1    3    3    0    0 -0.88877544571E-01 -0.87318351981E-01  0.66425215060E-01  0.89125530670E+00  0.88000000000E+00 0. -1.
        -11    1    4    4    0    0  0.44997210227E-01  0.57950755429E-01 -0.37093570245E-01  0.82214555022E-01  0.51100000000E-03 0.  1.
         11    1    4    4    0    0  0.21106672317E-01  0.24818338945E-01 -0.33647823732E-01  0.46838859158E-01  0.51100000000E-03 0. -1.
</event>
<event>
 8    1  0.1041149E+005  0.1043930E+01  0.7957747E-01            NaN
         13   -1    0    0    0    0  0.00000000000E+00  0.00000000000E+00  0.74505805969E-08  0.10566000000E+00  0.10566000000E+00 0. -1.
     999900   -1    0    0    0    0 -0.00000000000E+00 -0.00000000000E+00 -0.74505805969E-08  0.93827000000E+00  0.93827000000E+00 0.  1.
     999902    2    1    2    0    0 -0.21596710168E-01 -0.22701094478E-02  0.93276658686E-02  0.10202957740E+01  0.10200220046E+01 0.  0.
     999903    2    3    3    0    0  0.38246049773E-01  0.11897128312E+00  0.29436623840E-01  0.12974257439E+00  0.18700113777E-01 0.  0.
         14    1    1    2    0    0  0.21596710168E-01  0.22701094478E-02 -0.93276658686E-02  0.23634225977E-01  0.00000000000E+00 0. -1.
     999901    1    3    3    0    0 -0.59842759941E-01 -0.12124139257E+00 -0.20108957971E-01  0.89055319963E+00  0.88000000000E+00 0. -1.
        -11    1    4    4    0    0  0.16564580854E-01  0.80517997244E-01  0.18559357086E-01  0.84274812818E-01  0.51100000000E-03 0. -1.
         11    1    4    4    0    0  0.21681468920E-01  0.38453285876E-01  0.10877266753E-01  0.45467761570E-01  0.51100000000E-03 0.  1.
</event>
<event>
 8    1  0.1041149E+005  0.1043930E+01  0.7957747E-01            NaN
         13   -1    0    0    0    0  0.00000000000E+00  0.00000000000E+00  0.74505805969E-08  0.10566000000E+00  0.10566000000E+00 0.  1.
     999900   -1    0    0    0    0 -0.00000000000E+00 -0.00000000000E+00 -0.74505805969E-08  0.93827000000E+00  0.93827000000E+00 0.  1.
     999902    2    1    2    0    0  0.22111268416E-01 -0.93559470481E-02  0.66307071575E-03  0.10199116404E+01  0.10196287916E+01 0.  0.
     999903    2    3    3    0    0  0.11876810954E+00 -0.15881294917E-02 -0.55983010885E-01  0.13277486260E+00  0.19664196733E-01 0.  0.
         14    1    1    2    0    0 -0.22111268416E-01  0.93559470481E-02 -0.66307071575E-03  0.24018359621E-01  0.00000000000E+00 0. -1.
     999901    1    3    3    0    0 -0.96656841120E-01 -0.77678175565E-02  0.56646081601E-01  0.88713677778E+00  0.88000000000E+00 0.  1.
        -11    1    4    4    0    0  0.95751087960E-01  0.53640115002E-02 -0.49203122744E-01  0.10778799503E+00  0.51100000000E-03 0.  1.
         11    1    4    4    0    0  0.23017021576E-01 -0.69521409919E-02 -0.67798881415E-02  0.24986867567E-01  0.51100000000E-03 0. -1.
</event>
<event>
 7    1  0.1227508E+005  0.1043930E+01  0.7957747E-01            NaN
         13   -1    0    0    0    0  0.00000000000E+00  0.00000000000E+00  0.74505805969E-08  0.10566000000E+00  0.10566000000E+00 0.  1.
     999900   -1    0    0    0    0 -0.00000000000E+00 -0.00000000000E+00 -0.74505805969E-08  0.93827000000E+00  0.93827000000E+00 0. -1.
     999903    2    1    2    0    0 -0.29384362004E-01 -0.35903183066E-01 -0.97306913427E-01  0.10962027838E+00  0.19886949166E-01 0.  0.
         14    1    1    2    0    0  0.17445759572E-01  0.20030163347E-01 -0.35274096016E-01  0.44156809446E-01  0.00000000000E+00 0. -1.
     999901    1    1    2    0    0  0.11938602432E-01  0.15873019719E-01  0.13258100944E+00  0.89015291217E+00  0.88000000000E+00 0.  1.
        -11    1    3    3    0    0 -0.15716903392E-01 -0.51383389788E-02 -0.37520546157E-01  0.41005805499E-01  0.51100000000E-03 0.  1.
         11    1    3    3    0    0 -0.13667458612E-01 -0.30764844088E-01 -0.59786367270E-01  0.68614472883E-01  0.51100000000E-03 0. -1.
</event>
<event>
 8    1  0.1041149E+005  0.1043930E+01  0.7957747E-01            NaN
         13   -1    0    0    0    0  0.00000000000E+00  0.00000000000E+00  0.74505805969E-08  0.10566000000E+00  0.10566000000E+00 0.  1.
     999900   -1    0    0    0    0 -0.00000000000E+00 -0.00000000000E+00 -0.74505805969E-08  0.93827000000E+00  0.93827000000E+00 0. -1.
     999902    2    1    2    0    0  0.37009929982E-02  0.21438955675E-01 -0.76455718461E-02  0.10208696241E+01  0.10206091360E+01 0.  0.
     999903    2    3    3    0    0 -0.68001907637E-01 -0.10470417725E+00  0.22351941456E-01  0.12848335862E+00  0.20521695310E-01 0.  0.
         14    1    1    2    0    0 -0.37009929982E-02 -0.21438955675E-01  0.76455718461E-02  0.23060375940E-01  0.00000000000E+00 0. -1.
     999901    1    3    3    0    0  0.71702900635E-01  0.12614313293E+00 -0.29997513302E-01  0.89238626544E+00  0.88000000000E+00 0.  1.
        -11    1    4    4    0    0 -0.68358044262E-01 -0.10015862662E+00  0.23986140325E-01  0.12361297970E+00  0.51100000000E-03 0.  1.
         11    1    4    4    0    0  0.35613662501E-03 -0.45455506349E-02 -0.16341988693E-02  0.48703789190E-02  0.51100000000E-03 0. -1.
</event>
<event>
 8    1  0.1041149E+005  0.1043930E+01  0.7957747E-01            NaN
         13   -1    0    0    0    0  0.00000000000E+00  0.00000000000E+00  0.74505805969E-08  0.10566000000E+00  0.10566000000E+00 0.  1.
     999900   -1    0    0    0    0 -0.00000000000E+00 -0.00000000000E+00 -0.74505805969E-08  0.93827000000E+00  0.93827000000E+00 0. -1.
     999902    2    1    2    0    0 -0.26686490019E-01 -0.25564052733E-02 -0.11092586837E-01  0.10149170815E+01  0.10145023080E+01 0.  0.
     999903    2    3    3    0    0  0.42017562283E-01  0.33771318451E-01  0.10914967853E+00  0.12334647145E+00  0.19867617000E-01 0.  0.
         14    1    1    2    0    0  0.26686490019E-01  0.25564052733E-02  0.11092586837E-01  0.29012918505E-01  0.00000000000E+00 0. -1.
     999901    1    3    3    0    0 -0.68704052302E-01 -0.36327723724E-01 -0.12024226537E+00  0.89157061004E+00  0.88000000000E+00 0. -1.
        -11    1    4    4    0    0  0.15554220128E-01  0.14030445950E-01  0.23143303258E-01  0.31219557717E-01  0.51100000000E-03 0. -1.
         11    1    4    4    0    0  0.26463342154E-01  0.19740872501E-01  0.86006375275E-01  0.92126913733E-01  0.51100000000E-03 0.  1.
</event>
<event>
 8    1  0.1041149E+005  0.1043930E+01  0.7957747E-01            NaN
         13   -1    0    0    0    0  0.00000000000E+00  0.00000000000E+00  0.74505805969E-08  0.10566000000E+00  0.10566000000E+00 0.  1.
     999900   -1    0    0    0    0 -0.00000000000E+00 -0.00000000000E+00 -0.74505805969E-08  0.93827000000E+00  0.93827000000E+00 0.  1.
     999902    2    1    2    0    0  0.41910673455E-03  0.23692631496E-01 -0.10492287187E-01  0.10180146662E+01  0.10176847528E+01 0.  0.
     999903    2    3    3    0    0 -0.57769053657E-01 -0.10756497705E+00  0.21741156359E-01  0.12579640996E+00  0.21084853139E-01 0.  0.
         14    1    1    2    0    0 -0.41910673455E-03 -0.23692631496E-01  0.10492287187E-01  0.25915333841E-01  0.00000000000E+00 0. -1.
     999901    1    3    3    0    0  0.58188160392E-01  0.13125760854E+00 -0.32233443546E-01  0.89221825620E+00  0.88000000000E+00 0. -1.
        -11    1    4    4    0    0 -0.12671492184E-01 -0.20439412982E-01  0.12893119771E-01  0.27291573344E-01  0.51100000000E-03 0.  1.
         11    1    4    4    0    0 -0.45097561473E-01 -0.87125564064E-01  0.88480365882E-02  0.98504836617E-01  0.51100000000E-03 0. -1.
</event>
<event>
 8    1  0.1041149E+005  0.1043930E+01  0.7957747E-01            NaN
         13   -1    0    0    0    0  0.00000000000E+00  0.00000000000E+00  0.74505805969E-08  0.10566000000E+00  0.10566000000E+00 0. -1.
     999900   -1    0    0    0    0 -0.00000000000E+00 -0.00000000000E+00 -0.74505805969E-08  0.93827000000E+00  0.93827000000E+00 0.  1.
     999902    2    1    2    0    0  0.16199100652E-01 -0.11516014156E-01  0.13217363480E-01  0.10200610214E+01  0.10197817213E+01 0.  0.
     999903    2    3    3    0    0  0.43046453154E-01 -0.27198236058E-01  0.12136409092E+00  0.13289563256E+00  0.18419158919E-01 0.  0.
         14    1    1    2    0    0 -0.16199100652E-01  0.11516014156E-01 -0.13217363480E-01  0.23868978641E-01  0.00000000000E+00 0. -1.
     999901    1    3    3    0    0 -0.26847352501E-01  0.15682221901E-01 -0.10814672744E+00  0.88716538880E+00  0.88000000000E+00 0.  1.
        -11    1    4    4    0    0  0.35820624427E-01 -0.13677340700E-01  0.94090269452E-01  0.10160426521E+00  0.51100000000E-03 0.  1.
         11    1    4    4    0    0  0.72258287269E-02 -0.13520895358E-01  0.27273821471E-01  0.31291367351E-01  0.51100000000E-03 0. -1.
</event>
<event>
 8    1  0.1041149E+005  0.1043930E+01  0.7957747E-01            NaN
         13   -1    0    0    0    0  0.00000000000E+00  0.00000000000E+00  0.74505805969E-08  0.10566000000E+00  0.10566000000E+00 0.  1.
     999900   -1    0    0    0    0 -0.00000000000E+00 -0.00000000000E+00 -0.74505805969E-08  0.93827000000E+00  0.93827000000E+00 0. -1.
     999902    2    1    2    0    0  0.20482253616E-01  0.12748004155E-02 -0.12805918846E-01  0.10197403455E+01  0.10194533990E+01 0.  0.
     999903    2    3    3    0    0  0.15832333314E-01 -0.10906391983E+00  0.63823048011E-01  0.12953348551E+00  0.23663072975E-01 0.  0.
         14    1    1    2    0    0 -0.20482253616E-01 -0.12748004155E-02  0.12805918846E-01  0.24189654541E-01  0.00000000000E+00 0.  1.
     999901    1    3    3    0    0  0.46499203019E-02  0.11033872025E+00 -0.76628966857E-01  0.89020685995E+00  0.88000000000E+00 0. -1.
        -11    1    4    4    0    0  0.15114689163E-01 -0.69905815382E-01  0.29191337892E-01  0.77250709911E-01  0.51100000000E-03 0. -1.
         11    1    4    4    0    0  0.71764415188E-03 -0.39158104451E-01  0.34631710119E-01  0.52282775596E-01  0.51100000000E-03 0.  1.
</event>
<event>
 8    1  0.1041149E+005  0.1043930E+01  0.7957747E-01            NaN
         13   -1    0    0    0    0  0.00000000000E+00  0.00000000000E+00  0.74505805969E-08  0.10566000000E+00  0.10566000000E+00 0. -1.
     999900   -1    0    0    0    0 -0.00000000000E+00 -0.00000000000E+00 -0.74505805969E-08  0.93827000000E+00  0.93827000000E+00 0. -1.
     999902    2    1    2    0    0 -0.48998658028E-02 -0.46217108969E-03 -0.22783270082E-01  0.10206212102E+01  0.10203550142E+01 0.  0.
     999903    2    3    3    0    0  0.69884796225E-01  0.88084221160E-01  0.60143362881E-01  0.12915610391E+00  0.20527063046E-01 0.  0.
         14    1    1    2    0    0  0.48998658028E-02  0.46217108969E-03  0.22783270082E-01  0.23308789815E-01  0.00000000000E+00 0. -1.
     999901    1    3    3    0    0 -0.74784662028E-01 -0.88546392249E-01 -0.82926632963E-01  0.89146510628E+00  0.88000000000E+00 0. -1.
        -11    1    4    4    0    0  0.42289484180E-01  0.37894780892E-01  0.25810840087E-01  0.62376882562E-01  0.51100000000E-03 0. -1.
         11    1    4    4    0    0  0.27595312045E-01  0.50189440267E-01  0.34332522794E-01  0.66779221346E-01  0.51100000000E-03 0.  1.
</event>
<event>
 8    1  0.1041149E+005  0.1043930E+01  0.7957747E-01            NaN
         13   -1    0    0    0    0  0.00000000000E+00  0.00000000000E+00  0.74505805969E-08  0.10566000000E+00  0.10566000000E+00 0.  1.
     999900   -1    0    0    0    0 -0.00000000000E+00 -0.00000000000E+00 -0.74505805969E-08  0.93827000000E+00  0.93827000000E+00 0. -1.
     999902    2    1    2    0    0 -0.15222737111E-01 -0.56509533145E-03 -0.18651355374E-01  0.10198483864E+01  0.10195640279E+01 0.  0.
     999903    2    3    3    0    0 -0.11462971169E+00  0.61385595184E-01 -0.12207405437E-01  0.13206397608E+00  0.19588540879E-01 0.  0.
         14    1    1    2    0    0  0.15222737111E-01  0.56509533145E-03  0.18651355374E-01  0.24081613633E-01  0.00000000000E+00 0.  1.
     999901    1    3    3    0    0  0.99406974577E-01 -0.61950690516E-01 -0.64439499369E-02  0.88778441028E+00  0.88000000000E+00 0.  1.
        -11    1    4    4    0    0 -0.58510060811E-01  0.27040328432E-01 -0.15099640036E-01  0.66203223698E-01  0.51100000000E-03 0. -1.
         11    1    4    4    0    0 -0.56119650878E-01  0.34345266752E-01  0.28922345987E-02  0.65860752386E-01  0.51100000000E-03 0.  1.
</event>
<event>
 8    1  0.1041149E+005  0.1043930E+01  0.7957747E-01            NaN
         13   -1    0    0    0    0  0.00000000000E+00  0.00000000000E+00  0.74505805969E-08  0.10566000000E+00  0.10566000000E+00 0. -1.
     999900   -1    0    0    0    0 -0.00000000000E+00 -0.00000000000E+00 -0.74505805969E-08  0.93827000000E+00  0.93827000000E+00 0.  1.
     999902    2    1    2    0    0 -0.30102602483E-02  0.23581279197E-01  0.32675761326E-03  0.10201551148E+01  0.10198780383E+01 0.  0.
     999903    2    3    3    0    0 -0.12700160525E+00 -0.78196821448E-02  0.20293673192E-01  0.13068417558E+00  0.21816631564E-01 0.  0.
         14    1    1    2    0    0  0.30102602483E-02 -0.23581279197E-01 -0.32675761326E-03  0.23774885191E-01  0.00000000000E+00 0. -1.
     999901    1    3    3    0    0  0.12399134500E+00  0.31400961341E-01 -0.19966915579E-01  0.88947093922E+00  0.88000000000E+00 0. -1.
        -11    1    4    4    0    0 -0.52529603407E-01 -0.12357162281E-01  0.27410884824E-02  0.54035482610E-01  0.51100000000E-03 0.  1.
         11    1    4    4    0    0 -0.74472001838E-01  0.45374801364E-02  0.17552584710E-01  0.76648692975E-01  0.51100000000E-03 0. -1.
</event>
<event>
 8    1  0.1041149E+005  0.1043930E+01  0.7957747E-01            NaN
         13   -1    0    0    0    0  0.00000000000E+00  0.00000000000E+00  0.74505805969E-08  0.10566000000E+00  0.10566000000E+00 0.  1.
     999900   -1    0    0    0    0 -0.00000000000E+00 -0.00000000000E+00 -0.74505805969E-08  0.93827000000E+00  0.93827000000E+00 0.  1.
     999902    2    1    2    0    0  0.17735341373E-01  0.11493948544E-02  0.15868401136E-01  0.10201041821E+01  0.10198259032E+01 0.  0.
     999903    2    3    3    0    0  0.12391606776E+00  0.40678914905E-01  0.15812626383E-01  0.13284044867E+00  0.19661629737E-01 0.  0.
         14    1    1    2    0    0 -0.17735341373E-01 -0.11493948544E-02 -0.15868401136E-01  0.23825817862E-01  0.00000000000E+00 0. -1.
     999901    1    3    3    0    0 -0.10618072639E+00 -0.39529520050E-01  0.55774753270E-04  0.88726373346E+00  0.88000000000E+00 0. -1.
        -11    1    4    4    0    0  0.69596670055E-01  0.14163538079E-01  0.32390703228E-02  0.71098909916E-01  0.51100000000E-03 0. -1.
         11    1    4    4    0    0  0.54319397704E-01  0.26515376826E-01  0.12573556060E-01  0.61741538758E-01  0.51100000000E-03 0.  1.
</event>
<event>
 8    1  0.1041149E+005  0.1043930E+01  0.7957747E-01            NaN
         13   -1    0    0    0    0  0.00000000000E+00  0.00000000000E+00  0.74505805969E-08  0.10566000000E+00  0.10566000000E+00 0.  1.
     999900   -1    0    0    0    0 -0.00000000000E+00 -0.00000000000E+00 -0.74505805969E-08  0.93827000000E+00  0.93827000000E+00 0.  1.
     999902    2    1    2    0    0  0.83276853911E-03 -0.10938750624E-01 -0.21319237358E-01  0.10199537691E+01  0.10196719234E+01 0.  0.
     999903    2    3    3    0    0  0.65157205972E-01  0.81087242791E-01  0.71576307782E-01  0.12796946481E+00  0.20794558303E-01 0.  0.
         14    1    1    2    0    0 -0.83276853911E-03  0.10938750624E-01  0.21319237358E-01  0.23976230942E-01  0.00000000000E+00 0.  1.
     999901    1    3    3    0    0 -0.64324437433E-01 -0.92025993415E-01 -0.92895545140E-01  0.89198430425E+00  0.88000000000E+00 0. -1.
        -11    1    4    4    0    0  0.23214404435E-01  0.15822628526E-01  0.14246782007E-01  0.31503905556E-01  0.51100000000E-03 0.  1.
         11    1    4    4    0    0  0.41942801537E-01  0.65264614265E-01  0.57329525775E-01  0.96465559256E-01  0.51100000000E-03 0. -1.
</event>
<event>
 8    1  0.1041149E+005  0.1043930E+01  0.7957747E-01            NaN
         13   -1    0    0    0    0  0.00000000000E+00  0.00000000000E+00  0.74505805969E-08  0.10566000000E+00  0.10566000000E+00 0.  1.
     999900   -1    0    0    0    0 -0.00000000000E+00 -0.00000000000E+00 -0.74505805969E-08  0.93827000000E+00  0.93827000000E+00 0.  1.
     999902    2    1    2    0    0 -0.44160017098E-03 -0.22875200158E-01 -0.74558370642E-02  0.10198663490E+01  0.10195824197E+01 0.  0.
     999903    2    3    3    0    0  0.26205670843E-01 -0.10719414505E+00  0.69812550393E-01  0.13206560265E+00  0.19753715950E-01 0.  0.
         14    1    1    2    0    0  0.44160017098E-03  0.22875200158E-01  0.74558370642E-02  0.24063650997E-01  0.00000000000E+00 0.  1.
     999901    1    3    3    0    0 -0.26647271014E-01  0.84318944893E-01 -0.77268387458E-01  0.88780074635E+00  0.88000000000E+00 0. -1.
        -11    1    4    4    0    0  0.59627829468E-02 -0.93417085404E-02  0.19236911196E-02  0.11259840472E-01  0.51100000000E-03 0. -1.
         11    1    4    4    0    0  0.20242887897E-01 -0.97852436511E-01  0.67888859274E-01  0.12080576218E+00  0.51100000000E-03 0.  1.
</event>
<event>
 8    1  0.1041149E+005  0.1043930E+01  0.7957747E-01            NaN
         13   -1    0    0    0    0  0.00000000000E+00  0.00000000000E+00  0.74505805969E-08  0.10566000000E+00  0.10566000000E+00 0. -1.
     999900   -1    0    0    0    0 -0.00000000000E+00 -0.00000000000E+00 -0.74505805969E-08  0.93827000000E+00  0.93827000000E+00 0.  1.
     999902    2    1    2    0    0  0.15516739149E-02 -0.23958517959E-01  0.25465160353E-02  0.10197866154E+01  0.10195007788E+01 0.  0.
     999903    2    3    3    0    0  0.55329473026E-01  0.11266230390E+00  0.10816531651E-01  0.12758389530E+00  0.20162035529E-01 0.  0.
         14    1    1    2    0    0 -0.15516739149E-02  0.23958517959E-01 -0.25465160353E-02  0.24143384573E-01  0.00000000000E+00 0.  1.
     999901    1    3    3    0    0 -0.53777799111E-01 -0.13662082186E+00 -0.82700156161E-02  0.89220272013E+00  0.88000000000E+00 0.  1.
        -11    1    4    4    0    0  0.31137852692E-01  0.41797638130E-01  0.17251465931E-02  0.52152139700E-01  0.51100000000E-03 0. -1.
         11    1    4    4    0    0  0.24191620334E-01  0.70864665774E-01  0.90913850583E-02  0.75431755600E-01  0.51100000000E-03 0.  1.
</event>
<event>
 8    1  0.1041149E+005  0.1043930E+01  0.7957747E-01            NaN
         13   -1    0    0    0    0  0.00000000000E+00  0.00000000000E+00  0.74505805969E-08  0.10566000000E+00  0.10566000000E+00 0. -1.
     999900   -1    0    0    0    0 -0.00000000000E+00 -0.00000000000E+00 -0.74505805969E-08  0.93827000000E+00  0.93827000000E+00 0.  1.
     999902    2    1    2    0    0 -0.26170746269E-01  0.95809535242E-02 -0.13730541457E-01  0.10128618427E+01  0.10123852438E+01 0.  0.
     999903    2    3    3    0    0  0.48822113771E-01  0.59350712132E-01  0.92443896478E-01  0.12192190688E+00  0.20321701638E-01 0.  0.
         14    1    1    2    0    0  0.26170746269E-01 -0.95809535242E-02  0.13730541457E-01  0.31068157323E-01  0.00000000000E+00 0. -1.
     999901    1    3    3    0    0 -0.74992860040E-01 -0.49769758608E-01 -0.10617443793E+00  0.89093993580E+00  0.88000000000E+00 0.  1.
        -11    1    4    4    0    0  0.22090055218E-01  0.21275881848E-01  0.51518055123E-01  0.59958358989E-01  0.51100000000E-03 0.  1.
         11    1    4    4    0    0  0.26732058553E-01  0.38074830284E-01  0.40925841355E-01  0.61963547891E-01  0.51100000000E-03 0. -1.
</event>
<event>
 8    1  0.1041149E+005  0.1043930E+01  0.7957747E-01            NaN
         13   -1    0    0    0    0  0.00000000000E+00  0.00000000000E+00  0.74505805969E-08  0.10566000000E+00  0.10566000000E+00 0.  1.
     999900   -1    0    0    0    0 -0.00000000000E+00 -0.00000000000E+00 -0.74505805969E-08  0.93827000000E+00  0.93827000000E+00 0. -1.
     999902    2    1    2    0    0  0.43388561068E-03  0.24509560001E-01  0.15235011764E-02  0.10193693029E+01  0.10190733770E+01 0.  0.
     999903    2    3    3    0    0 -0.92699632512E-01  0.41764365811E-01 -0.79384637207E-01  0.13059615555E+00  0.20394879278E-01 0.  0.
         14    1    1    2    0    0 -0.43388561068E-03 -0.24509560001E-01 -0.15235011764E-02  0.24560697140E-01  0.00000000000E+00 0.  1.
     999901    1    3    3    0    0  0.93133518122E-01 -0.17254805810E-01  0.80908138383E-01  0.88877314731E+00  0.88000000000E+00 0.  1.
        -11    1    4    4    0    0 -0.64452864231E-01  0.26069148626E-01 -0.65151121449E-01  0.95282222711E-01  0.51100000000E-03 0. -1.
         11    1    4    4    0    0 -0.28246768281E-01  0.15695217186E-01 -0.14233515758E-01  0.35313932840E-01  0.51100000000E-03 0.  1.
</event>
<event>
 8    1  0.1041149E+005  0.1043930E+01  0.7957747E-01            NaN
         13   -1    0    0    0    0  0.00000000000E+00  0.00000000000E+00  0.74505805969E-08  0.10566000000E+00  0.10566000000E+00 0.  1.
     999900   -1    0    0    0    0 -0.00000000000E+00 -0.00000000000E+00 -0.74505805969E-08  0.93827000000E+00  0.93827000000E+00 0.  1.
     999902    2    1    2    0    0  0.10286287299E-01 -0.16321157008E-01  0.14773043796E-01  0.10196312203E+01  0.10193416477E+01 0.  0.
     999903    2    3    3    0    0  0.39877377548E-01  0.97376791209E-01  0.73327986876E-01  0.12989444044E+00  0.20570058153E-01 0.  0.
         14    1    1    2    0    0 -0.10286287299E-01  0.16321157008E-01 -0.14773043796E-01  0.24298779712E-01  0.00000000000E+00 0. -1.
     999901    1    3    3    0    0 -0.29591090250E-01 -0.11369794822E+00 -0.58554943080E-01  0.88973677985E+00  0.88000000000E+00 0.  1.
        -11    1    4    4    0    0  0.17705362959E-01  0.46573202394E-01  0.47115080666E-01  0.68575761067E-01  0.51100000000E-03 0. -1.
         11    1    4    4    0    0  0.22172014590E-01  0.50803588815E-01  0.26212906210E-01  0.61318679376E-01  0.51100000000E-03 0.  1.
</event>
<event>
 8    1  0.1041149E+005  0.1043930E+01  0.7957747E-01            NaN
         13   -1    0    0    0    0  0.00000000000E+00  0.00000000000E+00  0.74505805969E-08  0.10566000000E+00  0.10566000000E+00 0.  1.
     999900   -1    0    0    0    0 -0.00000000000E+00 -0.00000000000E+00 -0.74505805969E-08  0.93827000000E+00  0.93827000000E+00 0. -1.
     999902    2    1    2    0    0  0.41822158277E-02 -0.13755533363E-01 -0.18473695262E-01  0.10205209623E+01  0.10202524450E+01 0.  0.
     999903    2    3    3    0    0  0.36579004126E-01  0.12115632617E+00  0.15995299323E-01  0.12898359727E+00  0.19079828387E-01 0.  0.
         14    1    1    2    0    0 -0.41822158277E-02  0.13755533363E-01  0.18473695262E-01  0.23409037656E-01  0.00000000000E+00 0.  1.
     999901    1    3    3    0    0 -0.32396788298E-01 -0.13491185953E+00 -0.34468994585E-01  0.89153736507E+00  0.88000000000E+00 0. -1.
        -11    1    4    4    0    0  0.35475287504E-01  0.97466626014E-01  0.17611394901E-01  0.10520770676E+00  0.51100000000E-03 0.  1.
         11    1    4    4    0    0  0.11037166224E-02  0.23689700154E-01 -0.16160955782E-02  0.23775890513E-01  0.51100000000E-03 0. -1.
</event>
<event>
 8    1  0.1041149E+005  0.1043930E+01  0.7957747E-01            NaN
         13   -1    0    0    0    0  0.00000000000E+00  0.00000000000E+00  0.74505805969E-08  0.10566000000E+00  0.10566000000E+00 0. -1.
     999900   -1    0    0    0    0 -0.00000000000E+00 -0.00000000000E+00 -0.74505805969E-08  0.93827000000E+00  0.93827000000E+00 0. -1.
     999902    2    1    2    0    0  0.15347495965E-01  0.15294551967E-01 -0.11300042771E-01  0.10194931443E+01  0.10192002312E+01 0.  0.
     999903    2    3    3    0    0 -0.11101728704E+00 -0.51680295125E-01 -0.30820781478E-01  0.12773378895E+00  0.19243423351E-01 0.  0.
         14    1    1    2    0    0 -0.15347495965E-01 -0.15294551967E-01  0.11300042771E-01  0.24436855749E-01  0.00000000000E+00 0.  1.
     999901    1    3    3    0    0  0.12636478301E+00  0.66974847092E-01  0.19520738707E-01  0.89175935530E+00  0.88000000000E+00 0. -1.
        -11    1    4    4    0    0 -0.57004097889E-01 -0.28560782742E-01 -0.63153156004E-02  0.64072847752E-01  0.51100000000E-03 0. -1.
         11    1    4    4    0    0 -0.54013189153E-01 -0.23119512383E-01 -0.24505465878E-01  0.63660941198E-01  0.51100000000E-03 0.  1.
</event>
<event>
 8    1  0.1041149E+005  0.1043930E+01  0.7957747E-01            NaN
         13   -1    0    0    0    0  0.00000000000E+00  0.00000000000E+00  0.74505805969E-08  0.10566000000E+00  0.10566000000E+00 0. -1.
     999900   -1    0    0    0    0 -0.00000000000E+00 -0.00000000000E+00 -0.74505805969E-08  0.93827000000E+00  0.93827000000E+00 0. -1.
     999902    2    1    2    0    0 -0.13645877489E-01  0.31138299793E-02 -0.18486310068E-01  0.10207427283E+01  0.10204793324E+01 0.  0.
     999903    2    3    3    0    0  0.32427656900E-01 -0.10337414017E+00 -0.71564516136E-01  0.13154097710E+00  0.21066155292E-01 0.  0.
         14    1    1    2    0    0  0.13645877489E-01 -0.31138299793E-02  0.18486310068E-01  0.23187271713E-01  0.00000000000E+00 0. -1.
     999901    1    3    3    0    0 -0.46073534389E-01  0.10648797015E+00  0.53078206068E-01  0.88920175119E+00  0.88000000000E+00 0.  1.
        -11    1    4    4    0    0  0.14484494244E-02 -0.37497234366E-01 -0.22631260089E-01  0.43824372728E-01  0.51100000000E-03 0.  1.
         11    1    4    4    0    0  0.30979207476E-01 -0.65876905802E-01 -0.48933256047E-01  0.87716604370E-01  0.51100000000E-03 0. -1.
</event>
<event>
 8    1  0.1041149E+005  0.1043930E+01  0.7957747E-01            NaN
         13   -1    0    0    0    0  0.00000000000E+00  0.00000000000E+00  0.74505805969E-08  0.10566000000E+00  0.10566000000E+00 0. -1.
     999900   -1    0    0    0    0 -0.00000000000E+00 -0.00000000000E+00 -0.74505805969E-08  0.93827000000E+00  0.93827000000E+00 0. -1.
     999902    2    1    2    0    0 -0.25286406059E-01  0.11884193955E-02 -0.50796042777E-02  0.10181110718E+01  0.10177836398E+01 0.  0.
     999903    2    3    3    0    0  0.11653448360E+00  0.29549289406E-01  0.29521709868E-01  0.12563431884E+00  0.21424386701E-01 0.  0.
         14    1    1    2    0    0  0.25286406059E-01 -0.11884193955E-02  0.50796042777E-02  0.25818928166E-01  0.00000000000E+00 0.  1.
     999901    1    3    3    0    0 -0.14182088966E+00 -0.28360870011E-01 -0.34601314145E-01  0.89247675299E+00  0.88000000000E+00 0.  1.
        -11    1    4    4    0    0  0.43544606860E-01  0.21521007017E-01  0.91548321835E-02  0.49430340914E-01  0.51100000000E-03 0. -1.
         11    1    4    4    0    0  0.72989876738E-01  0.80282823890E-02  0.20366877684E-01  0.76203977927E-01  0.51100000000E-03 0.  1.
</event>
<event>
 8    1  0.1041149E+005  0.1043930E+01  0.7957747E-01            NaN
         13   -1    0    0    0    0  0.00000000000E+00  0.00000000000E+00  0.74505805969E-08  0.10566000000E+00  0.10566000000E+00 0. -1.
     999900   -1    0    0    0    0 -0.00000000000E+00 -0.00000000000E+00 -0.74505805969E-08  0.93827000000E+00  0.93827000000E+00 0. -1.
     999902    2    1    2    0    0 -0.78292836565E-02  0.13825283591E-01  0.19049262678E-01  0.10191245458E+01  0.10188226192E+01 0.  0.
     999903    2    3    3    0    0 -0.97738765941E-01  0.54673676298E-01  0.67063534920E-01  0.13230005555E+00  0.21533920549E-01 0.  0.
         14    1    1    2    0    0  0.78292836565E-02 -0.13825283591E-01 -0.19049262678E-01  0.24805454189E-01  0.00000000000E+00 0. -1.
     999901    1    3    3    0    0  0.89909482285E-01 -0.40848392707E-01 -0.48014272242E-01  0.88682449026E+00  0.88000000000E+00 0. -1.
        -11    1    4    4    0    0 -0.43164358103E-01  0.12796206497E-01  0.22479110379E-01  0.50323714445E-01  0.51100000000E-03 0.  1.
         11    1    4    4    0    0 -0.54574407839E-01  0.41877469801E-01  0.44584424541E-01  0.81976341102E-01  0.51100000000E-03 0. -1.
</event>
<event>
 8    1  0.1041149E+005  0.1043930E+01  0.7957747E-01            NaN
         13   -1    0    0    0    0  0.00000000000E+00  0.00000000000E+00  0.74505805969E-08  0.10566000000E+00  0.10566000000E+00 0. -1.
     999900   -1    0    0    0    0 -0.00000000000E+00 -0.00000000000E+00 -0.74505805969E-08  0.93827000000E+00  0.93827000000E+00 0. -1.
     999902    2    1    2    0    0  0.18979410259E-01  0.13158964408E-01 -0.28595179854E-02  0.10206587044E+01  0.10203933739E+01 0.  0.
     999903    2    3    3    0    0 -0.91969562844E-01 -0.28733786806E-01  0.82811020618E-01  0.12858016609E+00  0.19777840700E-01 0.  0.
         14    1    1    2    0    0 -0.18979410259E-01 -0.13158964408E-01  0.28595179854E-02  0.23271295649E-01  0.00000000000E+00 0. -1.
     999901    1    3    3    0    0  0.11094897310E+00  0.41892751214E-01 -0.85670538603E-01  0.89207853826E+00  0.88000000000E+00 0. -1.
        -11    1    4    4    0    0 -0.20557536844E-01 -0.15193208682E-01  0.24244787205E-01  0.35235163385E-01  0.51100000000E-03 0.  1.
         11    1    4    4    0    0 -0.71412026000E-01 -0.13540578124E-01  0.58566233413E-01  0.93345002708E-01  0.51100000000E-03 0. -1.
</event>
<event>
 8    1  0.1041149E+005  0.1043930E+01  0.7957747E-01            NaN
         13   -1    0    0    0    0  0.00000000000E+00  0.00000000000E+00  0.74505805969E-08  0.10566000000E+00  0.10566000000E+00 0. -1.
     999900   -1    0    0    0    0 -0.00000000000E+00 -0.00000000000E+00 -0.74505805969E-08  0.93827000000E+00  0.93827000000E+00 0. -1.
     999902    2    1    2    0    0 -0.13365538569E-01 -0.19350439237E-01 -0.11118093952E-02  0.10203861422E+01  0.10201144867E+01 0.  0.
     999903    2    3    3    0    0  0.10495464520E+00  0.12026898762E-01  0.71370709523E-01  0.12896148539E+00  0.19420676966E-01 0.  0.
         14    1    1    2    0    0  0.13365538569E-01  0.19350439237E-01  0.11118093952E-02  0.23543857798E-01  0.00000000000E+00 0.  1.
     999901    1    3    3    0    0 -0.11832018376E+00 -0.31377337999E-01 -0.72482518918E-01  0.89142465681E+00  0.88000000000E+00 0.  1.
        -11    1    4    4    0    0  0.44243531415E-01  0.11473569171E-01  0.22113997407E-01  0.50778173105E-01  0.51100000000E-03 0.  1.
         11    1    4    4    0    0  0.60711113781E-01  0.55332959153E-03  0.49256712116E-01  0.78183312283E-01  0.51100000000E-03 0. -1.
</event>
<event>
 8    1  0.1041149E+005  0.1043930E+01  0.7957747E-01            NaN
         13   -1    0    0    0    0  0.00000000000E+00  0.00000000000E+00  0.74505805969E-08  0.10566000000E+00  0.10566000000E+00 0. -1.
     999900   -1    0    0    0    0 -0.00000000000E+00 -0.00000000000E+00 -0.74505805969E-08  0.93827000000E+00  0.93827000000E+00 0. -1.
     999902    2    1    2    0    0  0.89899027913E-02  0.21451420844E-01 -0.23185133519E-02  0.10205557126E+01  0.10202880011E+01 0.  0.
     999903    2    3    3    0    0 -0.78070890885E-01  0.10523722891E+00  0.55929824985E-03  0.13229453183E+00  0.18209667357E-01 0.  0.
         14    1    1    2    0    0 -0.89899027913E-02 -0.21451420844E-01  0.23185133519E-02  0.23374287424E-01  0.00000000000E+00 0. -1.
     999901    1    3    3    0    0  0.87060793677E-01 -0.83785808062E-01 -0.28778116018E-02  0.88826118075E+00  0.88000000000E+00 0.  1.
        -11    1    4    4    0    0 -0.16457747317E-01  0.20149958068E-01  0.72949702221E-02  0.27025098861E-01  0.51100000000E-03 0. -1.
         11    1    4    4    0    0 -0.61613143569E-01  0.85087270837E-01 -0.67356719723E-02  0.10526943297E+00  0.51100000000E-03 0.  1.
</event>
<event>
 8    1  0.1041149E+005  0.1043930E+01  0.7957747E-01            NaN
         13   -1    0    0    0    0  0.00000000000E+00  0.00000000000E+00  0.74505805969E-08  0.10566000000E+00  0.10566000000E+00 0. -1.
     999900   -1    0    0    0    0 -0.00000000000E+00 -0.00000000000E+00 -0.74505805969E-08  0.93827000000E+00  0.93827000000E+00 0. -1.
     999902    2    1    2    0    0  0.84704068500E-02 -0.10932657327E-01  0.20307908953E-01  0.10193600599E+01  0.10190639086E+01 0.  0.
     999903    2    3    3    0    0  0.10921529681E-01  0.62001717803E-01 -0.10861334693E+00  0.12697778687E+00  0.19052726980E-01 0.  0.
         14    1    1    2    0    0 -0.84704068500E-02  0.10932657327E-01 -0.20307908953E-01  0.24569940058E-01  0.00000000000E+00 0.  1.
     999901    1    3    3    0    0 -0.24511228313E-02 -0.72934375129E-01  0.12892125588E+00  0.89238227307E+00  0.88000000000E+00 0.  1.
        -11    1    4    4    0    0  0.42549725946E-02  0.27747617460E-01 -0.30687762986E-01  0.41593689240E-01  0.51100000000E-03 0. -1.
         11    1    4    4    0    0  0.66665570867E-02  0.34254100342E-01 -0.77925583944E-01  0.85384097628E-01  0.51100000000E-03 0.  1.
</event>
<event>
 8    1  0.1041149E+005  0.1043930E+01  0.7957747E-01            NaN
         13   -1    0    0    0    0  0.00000000000E+00  0.00000000000E+00  0.74505805969E-08  0.10566000000E+00  0.10566000000E+00 0. -1.
     999900   -1    0    0    0    0 -0.00000000000E+00 -0.00000000000E+00 -0.74505805969E-08  0.93827000000E+00  0.93827000000E+00 0.  1.
     999902    2    1    2    0    0 -0.55648402875E-02  0.14714937516E-01 -0.17791318125E-01  0.10201807298E+01  0.10199042571E+01 0.  0.
     999903    2    3    3    0    0 -0.96297614048E-01 -0.57222346812E-01 -0.66019347746E-01  0.13128627492E+00  0.18163266749E-01 0.  0.
         14    1    1    2    0    0  0.55648402875E-02 -0.14714937516E-01  0.17791318125E-01  0.23749270182E-01  0.00000000000E+00 0. -1.
     999901    1    3    3    0    0  0.90732773761E-01  0.71937284328E-01  0.48228029621E-01  0.88889445490E+00  0.88000000000E+00 0.  1.
        -11    1    4    4    0    0 -0.41331895412E-01 -0.29320736837E-01 -0.39157741988E-01  0.64043899519E-01  0.51100000000E-03 0. -1.
         11    1    4    4    0    0 -0.54965718636E-01 -0.27901609976E-01 -0.26861605758E-01  0.67242375399E-01  0.51100000000E-03 0.  1.
</event>
<event>
 8    1  0.1041149E+005  0.1043930E+01  0.7957747E-01            NaN
         13   -1    0    0    0    0  0.00000000000E+00  0.00000000000E+00  0.74505805969E-08  0.10566000000E+00  0.10566000000E+00 0. -1.
     999900   -1    0    0    0    0 -0.00000000000E+00 -0.00000000000E+00 -0.74505805969E-08  0.93827000000E+00  0.93827000000E+00 0. -1.
     999902    2    1    2    0    0 -0.18025628804E-01 -0.55502055117E-02 -0.13441983234E-01  0.10207693655E+01  0.10205065814E+01 0.  0.
     999903    2    3    3    0    0 -0.39338507410E-01  0.10463517521E+00  0.63815834263E-01  0.13028420156E+00  0.20136395299E-01 0.  0.
         14    1    1    2    0    0  0.18025628804E-01  0.55502055117E-02  0.13441983234E-01  0.23160634453E-01  0.00000000000E+00 0. -1.
     999901    1    3    3    0    0  0.21312878605E-01 -0.11018538073E+00 -0.77257817497E-01  0.89048516399E+00  0.88000000000E+00 0. -1.
        -11    1    4    4    0    0 -0.15931948168E-01  0.31957293464E-01  0.10734768272E-01  0.37290641571E-01  0.51100000000E-03 0. -1.
         11    1    4    4    0    0 -0.23406559242E-01  0.72677881750E-01  0.53081065991E-01  0.92993559987E-01  0.51100000000E-03 0.  1.
</event>
<event>
 8    1  0.1041149E+005  0.1043930E+01  0.7957747E-01            NaN
         13   -1    0    0    0    0  0.00000000000E+00  0.00000000000E+00  0.74505805969E-08  0.10566000000E+00  0.10566000000E+00 0.  1.
     999900   -1    0    0    0    0 -0.00000000000E+00 -0.00000000000E+00 -0.74505805969E-08  0.93827000000E+00  0.93827000000E+00 0. -1.
     999902    2    1    2    0    0 -0.10987320554E-01  0.20533518956E-01 -0.44982225132E-02  0.10202112180E+01  0.10199354630E+01 0.  0.
     999903    2    3    3    0    0  0.88817498064E-01 -0.40580637332E-01 -0.82133126696E-01  0.12907535840E+00  0.19474638813E-01 0.  0.
         14    1    1    2    0    0  0.10987320554E-01 -0.20533518956E-01  0.44982225132E-02  0.23718781998E-01  0.00000000000E+00 0. -1.
     999901    1    3    3    0    0 -0.99804818619E-01  0.61114156288E-01  0.77634904183E-01  0.89113585960E+00  0.88000000000E+00 0.  1.
        -11    1    4    4    0    0  0.49242492297E-01 -0.22827940307E-01 -0.32953065766E-01  0.63498847003E-01  0.51100000000E-03 0.  1.
         11    1    4    4    0    0  0.39575005767E-01 -0.17752697025E-01 -0.49180060930E-01  0.65576511399E-01  0.51100000000E-03 0. -1.
</event>
<event>
 8    1  0.1097001E+005  0.1043930E+01  0.7957747E-01            NaN
         13   -1    0    0    0    0  0.00000000000E+00  0.00000000000E+00  0.74505805969E-08  0.10566000000E+00  0.10566000000E+00 0. -1.
     999900   -1    0    0    0    0 -0.00000000000E+00 -0.00000000000E+00 -0.74505805969E-08  0.93827000000E+00  0.93827000000E+00 0. -1.
     999902    2    1    2    0    0 -0.19268336751E-01 -0.87924189842E-02 -0.98390324327E-02  0.10205765850E+01  0.10203093569E+01 0.  0.
     999903    2    3    3    0    0  0.21924947075E-01 -0.10161982658E+00  0.76387095169E-01  0.13054919255E+00  0.20020262444E-01 0.  0.
         14    1    1    2    0    0  0.19268336751E-01  0.87924189842E-02  0.98390324327E-02  0.23353414996E-01  0.00000000000E+00 0. -1.
     999901    1    3    3    0    0 -0.41193283827E-01  0.92827407600E-01 -0.86226127601E-01  0.89002739245E+00  0.88000000000E+00 0. -1.
        -11    1    4    4    0    0  0.98923422456E-02 -0.51515812049E-01  0.50761348530E-01  0.72998033890E-01  0.51100000000E-03 0. -1.
         11    1    4    4    0    0  0.12032604830E-01 -0.50104014536E-01  0.25625746638E-01  0.57551158662E-01  0.51100000000E-03 0.  1.
</event>
<event>
 8    1  0.1041149E+005  0.1043930E+01  0.7957747E-01            NaN
         13   -1    0    0    0    0  0.00000000000E+00  0.00000000000E+00  0.74505805969E-08  0.10566000000E+00  0.10566000000E+00 0.  1.
     999900   -1    0    0    0    0 -0.00000000000E+00 -0.00000000000E+00 -0.74505805969E-08  0.93827000000E+00  0.93827000000E+00 0.  1.
     999902    2    1    2    0    0 -0.85868790911E-02 -0.20051109471E-01  0.66018489075E-02  0.10211403995E+01  0.10208860610E+01 0.  0.
     999903    2    3    3    0    0  0.69277458444E-01 -0.67703044550E-02  0.10972510601E+00  0.13160476724E+00  0.20856955710E-01 0.  0.
         14    1    1    2    0    0  0.85868790911E-02  0.20051109471E-01 -0.66018489075E-02  0.22789600535E-01  0.00000000000E+00 0.  1.
     999901    1    3    3    0    0 -0.77864337535E-01 -0.13280805016E-01 -0.10312325710E+00  0.88953563222E+00  0.88000000000E+00 0.  1.
        -11    1    4    4    0    0  0.43659424376E-01 -0.12343010125E-01  0.79959333498E-01  0.91936126578E-01  0.51100000000E-03 0. -1.
         11    1    4    4    0    0  0.25618034068E-01  0.55727056696E-02  0.29765772509E-01  0.39668640662E-01  0.51100000000E-03 0.  1.
</event>
<event>
 8    1  0.1041149E+005  0.1043930E+01  0.7957747E-01            NaN
         13   -1    0    0    0    0  0.00000000000E+00  0.00000000000E+00  0.74505805969E-08  0.10566000000E+00  0.10566000000E+00 0.  1.
     999900   -1    0    0    0    0 -0.00000000000E+00 -0.00000000000E+00 -0.74505805969E-08  0.93827000000E+00  0.93827000000E+00 0.  1.
     999902    2    1    2    0    0  0.13468671060E-01 -0.18472379631E-01 -0.72134758391E-02  0.10199577631E+01  0.10196760124E+01 0.  0.
     999903    2    3    3    0    0  0.12270451703E+00 -0.27277876815E-01 -0.37224238804E-01  0.13265248713E+00  0.20262214215E-01 0.  0.
         14    1    1    2    0    0 -0.13468671060E-01  0.18472379631E-01  0.72134758391E-02  0.23972236922E-01  0.00000000000E+00 0.  1.
     999901    1    3    3    0    0 -0.10923584597E+00  0.88054971839E-02  0.30010762965E-01  0.88730527594E+00  0.88000000000E+00 0. -1.
        -11    1    4    4    0    0  0.65478787420E-01 -0.24330228496E-01 -0.23792451649E-01  0.73795484260E-01  0.51100000000E-03 0.  1.
         11    1    4    4    0    0  0.57225729611E-01 -0.29476483187E-02 -0.13431787155E-01  0.58857002874E-01  0.51100000000E-03 0. -1.
</event>
<event>
 8    1  0.1423701E+005  0.1043930E+01  0.7957747E-01            NaN
         13   -1    0    0    0    0  0.00000000000E+00  0.00000000000E+00  0.74505805969E-08  0.10566000000E+00  0.10566000000E+00 0. -1.
     999900   -1    0    0    0    0 -0.00000000000E+00 -0.00000000000E+00 -0.74505805969E-08  0.93827000000E+00  0.93827000000E+00 0. -1.
     999902    2    1    2    0    0 -0.58736067144E-04  0.24424959105E-01 -0.13895928891E-02  0.10194654737E+01  0.10191718889E+01 0.  0.
     999903    2    3    3    0    0 -0.16802300514E-01 -0.12306198242E+00  0.16801376595E-01  0.12684928732E+00  0.19541919514E-01 0.  0.
         14    1    1    2    0    0  0.58736067144E-04 -0.24424959105E-01  0.13895928891E-02  0.24464526270E-01  0.00000000000E+00 0. -1.
     999901    1    3    3    0    0  0.16743564447E-01  0.14748694153E+00 -0.18190969484E-01  0.89261618641E+00  0.88000000000E+00 0. -1.
        -11    1    4    4    0    0 -0.15540559608E-01 -0.68800382079E-01  0.17062823103E-01  0.72569984293E-01  0.51100000000E-03 0.  1.
         11    1    4    4    0    0 -0.12617409059E-02 -0.54261600341E-01 -0.26144650867E-03  0.54279303026E-01  0.51100000000E-03 0. -1.
</event>
<event>
 8    1  0.1041149E+005  0.1043930E+01  0.7957747E-01            NaN
         13   -1    0    0    0    0  0.00000000000E+00  0.00000000000E+00  0.74505805969E-08  0.10566000000E+00  0.10566000000E+00 0.  1.
     999900   -1    0    0    0    0 -0.00000000000E+00 -0.00000000000E+00 -0.74505805969E-08  0.93827000000E+00  0.93827000000E+00 0. -1.
     999902    2    1    2    0    0  0.14971860856E-01 -0.46103823841E-02 -0.16694843151E-01  0.10210361137E+01  0.10207794156E+01 0.  0.
     999903    2    3    3    0    0  0.17409408345E-01  0.11152633215E-01  0.12630131154E+00  0.12935101536E+00  0.18766863145E-01 0.  0.
         14    1    1    2    0    0 -0.14971860856E-01  0.46103823841E-02  0.16694843151E-01  0.22893886325E-01  0.00000000000E+00 0.  1.
     999901    1    3    3    0    0 -0.24375474886E-02 -0.15763015599E-01 -0.14299615469E+00  0.89168509831E+00  0.88000000000E+00 0. -1.
        -11    1    4    4    0    0  0.10074659649E-01 -0.41118760696E-02  0.54463024313E-01  0.55541771940E-01  0.51100000000E-03 0.  1.
         11    1    4    4    0    0  0.73347486954E-02  0.15264509284E-01  0.71838287224E-01  0.73809243422E-01  0.51100000000E-03 0. -1.
</event>
<event>
 8    1  0.1041149E+005  0.1043930E+01  0.7957747E-01            NaN
         13   -1    0    0    0    0  0.00000000000E+00  0.00000000000E+00  0.74505805969E-08  0.10566000000E+00  0.10566000000E+00 0. -1.
     999900   -1    0    0    0    0 -0.00000000000E+00 -0.00000000000E+00 -0.74505805969E-08  0.93827000000E+00  0.93827000000E+00 0. -1.
     999902    2    1    2    0    0 -0.10095476398E-01 -0.17497047296E-01 -0.94156860395E-02  0.10216427738E+01  0.10213996460E+01 0.  0.
     999903    2    3    3    0    0  0.29259595630E-01  0.57723780034E-01  0.11031847160E+00  0.12948624995E+00  0.20208043748E-01 0.  0.
         14    1    1    2    0    0  0.10095476398E-01  0.17497047296E-01  0.94156860395E-02  0.22287226193E-01  0.00000000000E+00 0. -1.
     999901    1    3    3    0    0 -0.39355072028E-01 -0.75220827330E-01 -0.11973415764E+00  0.89215652386E+00  0.88000000000E+00 0. -1.
        -11    1    4    4    0    0  0.11459827888E-01  0.18917265302E-01  0.21075980390E-01  0.30555664812E-01  0.51100000000E-03 0. -1.
         11    1    4    4    0    0  0.17799767743E-01  0.38806514732E-01  0.89242491208E-01  0.98930585136E-01  0.51100000000E-03 0.  1.
</event>
<event>
 8    1  0.1041149E+005  0.1043930E+01  0.7957747E-01            NaN
         13   -1    0    0    0    0  0.00000000000E+00  0.00000000000E+00  0.74505805969E-08  0.10566000000E+00  0.10566000000E+00 0. -1.
     999900   -1    0    0    0    0 -0.00000000000E+00 -0.00000000000E+00 -0.74505805969E-08  0.93827000000E+00  0.93827000000E+00 0. -1.
     999902    2    1    2    0    0  0.14546978541E-02  0.39366305433E-02  0.23614570848E-01  0.10199453974E+01  0.10196633525E+01 0.  0.
     999903    2    3    3    0    0  0.43119184284E-01  0.88670321007E-01  0.86450018599E-01  0.13266639887E+00  0.20126544459E-01 0.  0.
         14    1    1    2    0    0 -0.14546978541E-02 -0.39366305433E-02 -0.23614570848E-01  0.23984602607E-01  0.00000000000E+00 0.  1.
     999901    1    3    3    0    0 -0.41664486430E-01 -0.84733690464E-01 -0.62835447751E-01  0.88727899852E+00  0.88000000000E+00 0. -1.
        -11    1    4    4    0    0  0.12491097654E-01  0.11259712250E-01  0.20081226437E-01  0.26197813206E-01  0.51100000000E-03 0. -1.
         11    1    4    4    0    0  0.30628086630E-01  0.77410608757E-01  0.66368792163E-01  0.10646858566E+00  0.51100000000E-03 0.  1.
</event>
<event>
 8    1  0.1041149E+005  0.1043930E+01  0.7957747E-01            NaN
         13   -1    0    0    0    0  0.00000000000E+00  0.00000000000E+00  0.74505805969E-08  0.10566000000E+00  0.10566000000E+00 0.  1.
     999900   -1    0    0    0    0 -0.00000000000E+00 -0.00000000000E+00 -0.74505805969E-08  0.93827000000E+00  0.93827000000E+00 0.  1.
     999902    2    1    2    0    0 -0.39230327522E-02  0.19218699776E-01 -0.11208174113E-01  0.10213385907E+01  0.10210887058E+01 0.  0.
     999903    2    3    3    0    0 -0.50653504168E-01  0.12100385691E+00  0.16848656279E-01  0.13379639965E+00  0.20245702489E-01 0.  0.
         14    1    1    2    0    0  0.39230327522E-02 -0.19218699776E-01  0.11208174113E-01  0.22591409296E-01  0.00000000000E+00 0.  1.
     999901    1    3    3    0    0  0.46730471415E-01 -0.10178515713E+00 -0.28056830391E-01  0.88754219106E+00  0.88000000000E+00 0.  1.
        -11    1    4    4    0    0 -0.21058558872E-01  0.27562019793E-01  0.32980153658E-02  0.34846317785E-01  0.51100000000E-03 0.  1.
         11    1    4    4    0    0 -0.29594945296E-01  0.93441837116E-01  0.13550640913E-01  0.98950081863E-01  0.51100000000E-03 0. -1.
</event>
<event>
 8    1  0.1041149E+005  0.1043930E+01  0.7957747E-01            NaN
         13   -1    0    0    0    0  0.00000000000E+00  0.00000000000E+00  0.74505805969E-08  0.10566000000E+00  0.10566000000E+00 0.  1.
     999900   -1    0    0    0    0 -0.00000000000E+00 -0.00000000000E+00 -0.74505805969E-08  0.93827000000E+00  0.93827000000E+00 0. -1.
     999902    2    1    2    0    0  0.19163850608E-01 -0.91036375608E-02 -0.11650161153E-01  0.10197255450E+01  0.10194382431E+01 0.  0.
     999903    2    3    3    0    0  0.50008224700E-01  0.11720156795E+00  0.14112880584E-01  0.12979964096E+00  0.20291459478E-01 0.  0.
         14    1    1    2    0    0 -0.19163850608E-01  0.91036375608E-02  0.11650161153E-01  0.24204455001E-01  0.00000000000E+00 0.  1.
     999901    1    3    3    0    0 -0.30844374092E-01 -0.12630520551E+00 -0.25763041737E-01  0.88992590404E+00  0.88000000000E+00 0. -1.
        -11    1    4    4    0    0  0.18000541483E-01  0.23103931645E-01 -0.74018012161E-03  0.29302220714E-01  0.51100000000E-03 0.  1.
         11    1    4    4    0    0  0.32007683217E-01  0.94097636308E-01  0.14853060705E-01  0.10049742025E+00  0.51100000000E-03 0. -1.
</event>
<event>
 8    1  0.1041149E+005  0.1043930E+01  0.7957747E-01            NaN
         13   -1    0    0    0    0  0.00000000000E+00  0.00000000000E+00  0.74505805969E-08  0.10566000000E+00  0.10566000000E+00 0.  1.
     999900   -1    0    0    0    0 -0.00000000000E+00 -0.00000000000E+00 -0.74505805969E-08  0.93827000000E+00  0.93827000000E+00 0. -1.
     999902    2    1    2    0    0 -0.11818993184E-01 -0.18735965398E-01  0.47311122012E-02  0.10212781033E+01  0.10210268635E+01 0.  0.
     999903    2    3    3    0    0 -0.99921173777E-01 -0.31586248024E-01 -0.79181976731E-01  0.13281396199E+00  0.19693425970E-01 0.  0.
         14    1    1    2    0    0  0.11818993184E-01  0.18735965398E-01 -0.47311122012E-02  0.22651896652E-01  0.00000000000E+00 0. -1.
     999901    1    3    3    0    0  0.88102180594E-01  0.12850282626E-01  0.83913088932E-01  0.88846414136E+00  0.88000000000E+00 0.  1.
        -11    1    4    4    0    0 -0.22396326804E-01 -0.16046123344E-01 -0.20991636182E-01  0.34640777118E-01  0.51100000000E-03 0. -1.
         11    1    4    4    0    0 -0.77524846973E-01 -0.15540124680E-01 -0.58190340549E-01  0.98173184870E-01  0.51100000000E-03 0.  1.
</event>
<event>
 8    1  0.1041149E+005  0.1043930E+01  0.7957747E-01            NaN
         13   -1    0    0    0    0  0.00000000000E+00  0.00000000000E+00  0.74505805969E-08  0.10566000000E+00  0.10566000000E+00 0.  1.
     999900   -1    0    0    0    0 -0.00000000000E+00 -0.00000000000E+00 -0.74505805969E-08  0.93827000000E+00  0.93827000000E+00 0. -1.
     999902    2    1    2    0    0  0.67512338634E-02 -0.11679311016E-01  0.20921712613E-01  0.10190361549E+01  0.10187320460E+01 0.  0.
     999903    2    3    3    0    0  0.98077583633E-01  0.12209226498E-01 -0.79289316170E-01  0.12833226771E+00  0.20349389536E-01 0.  0.
         14    1    1    2    0    0 -0.67512338634E-02  0.11679311016E-01 -0.20921712613E-01  0.24893845086E-01  0.00000000000E+00 0. -1.
     999901    1    3    3    0    0 -0.91326349770E-01 -0.23888537514E-01  0.10021102878E+00  0.89070388720E+00  0.88000000000E+00 0.  1.
        -11    1    4    4    0    0  0.58743450511E-01  0.14292469650E-01 -0.38780627546E-01  0.71828029769E-01  0.51100000000E-03 0.  1.
         11    1    4    4    0    0  0.39334133122E-01 -0.20832431528E-02 -0.40508688624E-01  0.56504237943E-01  0.51100000000E-03 0. -1.
</event>
<event>
 8    1  0.1041149E+005  0.1043930E+01  0.7957747E-01            NaN
         13   -1    0    0    0    0  0.00000000000E+00  0.00000000000E+00  0.74505805969E-08  0.10566000000E+00  0.10566000000E+00 0.  1.
     999900   -1    0    0    0    0 -0.00000000000E+00 -0.00000000000E+00 -0.74505805969E-08  0.93827000000E+00  0.93827000000E+00 0.  1.
     999902    2    1    2    0    0  0.65103326839E-02  0.68257613256E-02 -0.29195691099E-01  0.10132483470E+01  0.10127837128E+01 0.  0.
     999903    2    3    3    0    0  0.25701911437E-01  0.11962129712E+00  0.14371587908E-01  0.12477254130E+00  0.19793977582E-01 0.  0.
         14    1    1    2    0    0 -0.65103326839E-02 -0.68257613256E-02  0.29195691099E-01  0.30681652956E-01  0.00000000000E+00 0. -1.
     999901    1    3    3    0    0 -0.19191578753E-01 -0.11279553579E+00 -0.43567279008E-01  0.88847580574E+00  0.88000000000E+00 0.  1.
        -11    1    4    4    0    0  0.10525482327E-01  0.29866762905E-01 -0.39512297504E-02  0.31916808145E-01  0.51100000000E-03 0.  1.
         11    1    4    4    0    0  0.15176429110E-01  0.89754534212E-01  0.18322817659E-01  0.92855733157E-01  0.51100000000E-03 0. -1.
</event>
<event>
 8    1  0.1041149E+005  0.1043930E+01  0.7957747E-01            NaN
         13   -1    0    0    0    0  0.00000000000E+00  0.00000000000E+00  0.74505805969E-08  0.10566000000E+00  0.10566000000E+00 0.  1.
     999900   -1    0    0    0    0 -0.00000000000E+00 -0.00000000000E+00 -0.74505805969E-08  0.93827000000E+00  0.93827000000E+00 0. -1.
     999902    2    1    2    0    0  0.15316680942E-01  0.23419577953E-01  0.84291544966E-04  0.10159463539E+01  0.10155608842E+01 0.  0.
     999903    2    3    3    0    0 -0.48387922309E-01  0.81945702209E-01  0.82813309592E-01  0.12784293976E+00  0.20719166620E-01 0.  0.
         14    1    1    2    0    0 -0.15316680942E-01 -0.23419577953E-01 -0.84291544966E-04  0.27983646146E-01  0.00000000000E+00 0. -1.
     999901    1    3    3    0    0  0.63704603250E-01 -0.58526124256E-01 -0.82729018047E-01  0.88810341409E+00  0.88000000000E+00 0.  1.
        -11    1    4    4    0    0 -0.24743409229E-01  0.48192065059E-01  0.34014557041E-01  0.63968450400E-01  0.51100000000E-03 0. -1.
         11    1    4    4    0    0 -0.23644513080E-01  0.33753637150E-01  0.48798752551E-01  0.63874489361E-01  0.51100000000E-03 0.  1.
</event>
<event>
 8    1  0.1041149E+005  0.1043930E+01  0.7957747E-01            NaN
         13   -1    0    0    0    0  0.00000000000E+00  0.00000000000E+00  0.74505805969E-08  0.10566000000E+00  0.10566000000E+00 0. -1.
     999900   -1    0    0    0    0 -0.00000000000E+00 -0.00000000000E+00 -0.74505805969E-08  0.93827000000E+00  0.93827000000E+00 0.  1.
     999902    2    1    2    0    0 -0.91755800936E-02  0.47531816920E-02 -0.21820887727E-01  0.10197859501E+01  0.10195000975E+01 0.  0.
     999903    2    3    3    0    0 -0.44173068620E-01 -0.39336658811E-01 -0.11727550770E+00  0.13283593867E+00  0.19829502706E-01 0.  0.
         14    1    1    2    0    0  0.91755800936E-02 -0.47531816920E-02  0.21820887727E-01  0.24144049939E-01  0.00000000000E+00 0. -1.
     999901    1    3    3    0    0  0.34997488527E-01  0.44089840503E-01  0.95454619972E-01  0.88695001139E+00  0.88000000000E+00 0. -1.
        -11    1    4    4    0    0 -0.15787086364E-01 -0.74904692400E-02 -0.51952349959E-01  0.54814660562E-01  0.51100000000E-03 0.  1.
         11    1    4    4    0    0 -0.28385982256E-01 -0.31846189571E-01 -0.65323157740E-01  0.78021278104E-01  0.51100000000E-03 0. -1.
</event>
<event>
 8    1  0.1041149E+005  0.1043930E+01  0.7957747E-01            NaN
         13   -1    0    0    0    0  0.00000000000E+00  0.00000000000E+00  0.74505805969E-08  0.10566000000E+00  0.10566000000E+00 0.  1.
     999900   -1    0    0    0    0 -0.00000000000E+00 -0.00000000000E+00 -0.74505805969E-08  0.93827000000E+00  0.93827000000E+00 0.  1.
     999902    2    1    2    0    0  0.24587091383E-02  0.22855088986E-01 -0.37283119538E-02  0.10206426504E+01  0.10203769495E+01 0.  0.
     999903    2    3    3    0    0  0.12217267797E+00 -0.31607533864E-01 -0.27126489090E-01  0.13056114493E+00  0.19625664714E-01 0.  0.
         14    1    1    2    0    0 -0.24587091383E-02 -0.22855088986E-01  0.37283119538E-02  0.23287349639E-01  0.00000000000E+00 0. -1.
     999901    1    3    3    0    0 -0.11971396883E+00  0.54462622850E-01  0.23398177136E-01  0.89008150543E+00  0.88000000000E+00 0. -1.
        -11    1    4    4    0    0  0.84560590483E-01 -0.16720295396E-01 -0.10551020379E-01  0.86842655953E-01  0.51100000000E-03 0.  1.
         11    1    4    4    0    0  0.37612087486E-01 -0.14887238468E-01 -0.16575468711E-01  0.43718488974E-01  0.51100000000E-03 0. -1.
</event>
<event>
 8    1  0.1041149E+005  0.1043930E+01  0.7957747E-01            NaN
         13   -1    0    0    0    0  0.00000000000E+00  0.00000000000E+00  0.74505805969E-08  0.10566000000E+00  0.10566000000E+00 0. -1.
     999900   -1    0    0    0    0 -0.00000000000E+00 -0.00000000000E+00 -0.74505805969E-08  0.93827000000E+00  0.93827000000E+00 0. -1.
     999902    2    1    2    0    0 -0.40826286620E-02  0.22564090760E-01  0.73428439198E-02  0.10198525540E+01  0.10195682952E+01 0.  0.
     999903    2    3    3    0    0 -0.10346732606E+00  0.78827995519E-01 -0.14799359109E-01  0.13219652704E+00  0.18372813931E-01 0.  0.
         14    1    1    2    0    0  0.40826286620E-02 -0.22564090760E-01 -0.73428439198E-02  0.24077445991E-01  0.00000000000E+00 0. -1.
     999901    1    3    3    0    0  0.99384697402E-01 -0.56263904759E-01  0.22142203028E-01  0.88765602697E+00  0.88000000000E+00 0.  1.
        -11    1    4    4    0    0 -0.89030786873E-01  0.74652493046E-01 -0.15039376479E-01  0.11715767024E+00  0.51100000000E-03 0.  1.
         11    1    4    4    0    0 -0.14436539191E-01  0.41755024725E-02  0.24001737046E-03  0.15038856807E-01  0.51100000000E-03 0. -1.
</event>
<event>
 8    1  0.1041149E+005  0.1043930E+01  0.7957747E-01            NaN
         13   -1    0    0    0    0  0.00000000000E+00  0.00000000000E+00  0.74505805969E-08  0.10566000000E+00  0.10566000000E+00 0.  1.
     999900   -1    0    0    0    0 -0.00000000000E+00 -0.00000000000E+00 -0.74505805969E-08  0.93827000000E+00  0.93827000000E+00 0.  1.
     999902    2    1    2    0    0 -0.10370476312E-01 -0.10628602593E-01 -0.18325823640E-01  0.10203429318E+01  0.10200702666E+01 0.  0.
     999903    2    3    3    0    0 -0.63796623293E-01 -0.78813225390E-01 -0.84493146922E-01  0.13361771475E+00  0.20810290191E-01 0.  0.
         14    1    1    2    0    0  0.10370476312E-01  0.10628602593E-01  0.18325823640E-01  0.23587068154E-01  0.00000000000E+00 0.  1.
     999901    1    3    3    0    0  0.53426146980E-01  0.68184622797E-01  0.66167323282E-01  0.88672521710E+00  0.88000000000E+00 0. -1.
        -11    1    4    4    0    0 -0.65833884451E-02 -0.17997087369E-01 -0.22864588519E-01  0.29837672267E-01  0.51100000000E-03 0. -1.
         11    1    4    4    0    0 -0.57213234847E-01 -0.60816138021E-01 -0.61628558403E-01  0.10378004248E+00  0.51100000000E-03 0.  1.
</event>
<event>
 8    1  0.1041149E+005  0.1043930E+01  0.7957747E-01            NaN
         13   -1    0    0    0    0  0.00000000000E+00  0.00000000000E+00  0.74505805969E-08  0.10566000000E+00  0.10566000000E+00 0. -1.
     999900   -1    0    0    0    0 -0.00000000000E+00 -0.00000000000E+00 -0.74505805969E-08  0.93827000000E+00  0.93827000000E+00 0.  1.
     999902    2    1    2    0    0  0.17104873598E-01 -0.10638438427E-01 -0.11989069873E-01  0.10204887784E+01  0.10202195136E+01 0.  0.
     999903    2    3    3    0    0  0.94220356165E-01 -0.19063905888E-01  0.87354424267E-01  0.13150794849E+00  0.20558138350E-01 0.  0.
         14    1    1    2    0    0 -0.17104873598E-01  0.10638438427E-01  0.11989069873E-01  0.23441221585E-01  0.00000000000E+00 0. -1.
     999901    1    3    3    0    0 -0.77115482566E-01  0.84254674617E-02 -0.99343494140E-01  0.88898082993E+00  0.88000000000E+00 0.  1.
        -11    1    4    4    0    0  0.73355985293E-01 -0.14530686970E-01  0.55377587416E-01  0.93054713750E-01  0.51100000000E-03 0.  1.
         11    1    4    4    0    0  0.20864370872E-01 -0.45332189180E-02  0.31976836851E-01  0.38453234736E-01  0.51100000000E-03 0. -1.
</event>
<event>
 8    1  0.1041149E+005  0.1043930E+01  0.7957747E-01            NaN
         13   -1    0    0    0    0  0.00000000000E+00  0.00000000000E+00  0.74505805969E-08  0.10566000000E+00  0.10566000000E+00 0.  1.
     999900   -1    0    0    0    0 -0.00000000000E+00 -0.00000000000E+00 -0.74505805969E-08  0.93827000000E+00  0.93827000000E+00 0.  1.
     999902    2    1    2    0    0 -0.81638840516E-02 -0.22036543614E-01  0.29448401313E-02  0.10202460320E+01  0.10199710954E+01 0.  0.
     999903    2    3    3    0    0 -0.10259997765E+00 -0.78962831538E-01  0.23484726669E-01  0.13312672492E+00  0.20231369800E-01 0.  0.
         14    1    1    2    0    0  0.81638840516E-02  0.22036543614E-01 -0.29448401313E-02  0.23683968009E-01  0.00000000000E+00 0.  1.
     999901    1    3    3    0    0  0.94436093599E-01  0.56926287924E-01 -0.20539886538E-01  0.88711930707E+00  0.88000000000E+00 0. -1.
        -11    1    4    4    0    0 -0.20703810737E-01 -0.26552742317E-01  0.86709813546E-02  0.34772732740E-01  0.51100000000E-03 0.  1.
         11    1    4    4    0    0 -0.81896166914E-01 -0.52410089221E-01  0.14813745315E-01  0.98353992184E-01  0.51100000000E-03 0. -1.
</event>
<event>
 8    1  0.1041149E+005  0.1043930E+01  0.7957747E-01            NaN
         13   -1    0    0    0    0  0.00000000000E+00  0.00000000000E+00  0.74505805969E-08  0.10566000000E+00  0.10566000000E+00 0. -1.
     999900   -1    0    0    0    0 -0.00000000000E+00 -0.00000000000E+00 -0.74505805969E-08  0.93827000000E+00  0.93827000000E+00 0. -1.
     999902    2    1    2    0    0  0.11569655608E-02 -0.24323420171E-01  0.61234712245E-02  0.10188209531E+01  0.10185114973E+01 0.  0.
     999903    2    3    3    0    0 -0.76520863227E-01 -0.63158487709E-01 -0.81999910358E-01  0.13016593680E+00  0.19358427749E-01 0.  0.
         14    1    1    2    0    0 -0.11569655608E-02  0.24323420171E-01 -0.61234712245E-02  0.25109046935E-01  0.00000000000E+00 0. -1.
     999901    1    3    3    0    0  0.77677828788E-01  0.38835067538E-01  0.88123381583E-01  0.88865501627E+00  0.88000000000E+00 0.  1.
        -11    1    4    4    0    0 -0.29275808936E-01 -0.34475149873E-01 -0.43912815596E-01  0.63041299496E-01  0.51100000000E-03 0.  1.
         11    1    4    4    0    0 -0.47245054292E-01 -0.28683337836E-01 -0.38087094762E-01  0.67124637302E-01  0.51100000000E-03 0. -1.
</event>
<event>
 8    1  0.1041149E+005  0.1043930E+01  0.7957747E-01            NaN
         13   -1    0    0    0    0  0.00000000000E+00  0.00000000000E+00  0.74505805969E-08  0.10566000000E+00  0.10566000000E+00 0.  1.
     999900   -1    0    0    0    0 -0.00000000000E+00 -0.00000000000E+00 -0.74505805969E-08  0.93827000000E+00  0.93827000000E+00 0.  1.
     999902    2    1    2    0    0  0.46530806659E-02 -0.23333368666E-01  0.61639130943E-02  0.10193517357E+01  0.10190553812E+01 0.  0.
     999903    2    3    3    0    0 -0.12708387766E-01 -0.32476878231E-01  0.12489250710E+00  0.13116172030E+00  0.19723280743E-01 0.  0.
         14    1    1    2    0    0 -0.46530806659E-02  0.23333368666E-01 -0.61639130943E-02  0.24578264333E-01  0.00000000000E+00 0.  1.
     999901    1    3    3    0    0  0.17361468432E-01  0.91435095648E-02 -0.11872859401E+00  0.88819001536E+00  0.88000000000E+00 0.  1.
        -11    1    4    4    0    0  0.33736152152E-02 -0.34355756246E-02  0.35012383918E-01  0.35345616533E-01  0.51100000000E-03 0. -1.
         11    1    4    4    0    0 -0.16082002981E-01 -0.29041302607E-01  0.89880123186E-01  0.95816103772E-01  0.51100000000E-03 0.  1.
</event>
<event>
 8    1  0.1041149E+005  0.1043930E+01  0.7957747E-01            NaN
         13   -1    0    0    0    0  0.00000000000E+00  0.00000000000E+00  0.74505805969E-08  0.10566000000E+00  0.10566000000E+00 0.  1.
     999900   -1    0    0    0    0 -0.00000000000E+00 -0.00000000000E+00 -0.74505805969E-08  0.93827000000E+00  0.93827000000E+00 0. -1.
     999902    2    1    2    0    0  0.21989483092E-01 -0.43020417895E-02  0.81185145531E-02  0.10200981891E+01  0.10198197685E+01 0.  0.
     999903    2    3    3    0    0  0.12392617304E+00 -0.44100853668E-01  0.88268225225E-02  0.13332001176E+00  0.19842658142E-01 0.  0.
         14    1    1    2    0    0 -0.21989483092E-01  0.43020417895E-02 -0.81185145531E-02  0.23831810858E-01  0.00000000000E+00 0. -1.
     999901    1    3    3    0    0 -0.10193668994E+00  0.39798811878E-01 -0.70830796942E-03  0.88677817738E+00  0.88000000000E+00 0.  1.
        -11    1    4    4    0    0  0.51753586990E-01 -0.28626478289E-01  0.18162149808E-02  0.59173210014E-01  0.51100000000E-03 0.  1.
         11    1    4    4    0    0  0.72172586046E-01 -0.15474375379E-01  0.70106075417E-02  0.74146801745E-01  0.51100000000E-03 0. -1.
</event>
<event>
 8    1  0.1041149E+005  0.1043930E+01  0.7957747E-01            NaN
         13   -1    0    0    0    0  0.00000000000E+00  0.00000000000E+00  0.74505805969E-08  0.10566000000E+00  0.10566000000E+00 0.  1.
     999900   -1    0    0    0    0 -0.00000000000E+00 -0.00000000000E+00 -0.74505805969E-08  0.93827000000E+00  0.93827000000E+00 0.  1.
     999902    2    1    2    0    0 -0.14597909804E-01  0.12138017292E-01  0.14242009667E-01  0.10201967896E+01  0.10199206951E+01 0.  0.
     999903    2    3    3    0    0  0.57983834102E-01  0.74602645549E-01 -0.86130414670E-01  0.12932948028E+00  0.19493239791E-01 0.  0.
         14    1    1    2    0    0  0.14597909804E-01 -0.12138017292E-01 -0.14242009667E-01  0.23733210355E-01  0.00000000000E+00 0. -1.
     999901    1    3    3    0    0 -0.72581743905E-01 -0.62464628258E-01  0.10037242434E+00  0.89086730937E+00  0.88000000000E+00 0. -1.
        -11    1    4    4    0    0  0.32553669315E-01  0.53239020158E-01 -0.64163011603E-01  0.89505797758E-01  0.51100000000E-03 0. -1.
         11    1    4    4    0    0  0.25430164787E-01  0.21363625392E-01 -0.21967403067E-01  0.39823682520E-01  0.51100000000E-03 0.  1.
</event>
<event>
 8    1  0.1041149E+005  0.1043930E+01  0.7957747E-01            NaN
         13   -1    0    0    0    0  0.00000000000E+00  0.00000000000E+00  0.74505805969E-08  0.10566000000E+00  0.10566000000E+00 0. -1.
     999900   -1    0    0    0    0 -0.00000000000E+00 -0.00000000000E+00 -0.74505805969E-08  0.93827000000E+00  0.93827000000E+00 0. -1.
     999902    2    1    2    0    0 -0.14853659543E-01 -0.94617529761E-02 -0.14613912372E-01  0.10210450179E+01  0.10207885218E+01 0.  0.
     999903    2    3    3    0    0  0.90964221611E-01  0.41191026474E-01  0.78262648490E-01  0.12841453242E+00  0.19850937328E-01 0.  0.
         14    1    1    2    0    0  0.14853659543E-01  0.94617529761E-02  0.14613912372E-01  0.22884982107E-01  0.00000000000E+00 0. -1.
     999901    1    3    3    0    0 -0.10581788115E+00 -0.50652779450E-01 -0.92876560862E-01  0.89263048547E+00  0.88000000000E+00 0. -1.
        -11    1    4    4    0    0  0.23676608797E-01  0.17108353907E-02  0.16586544346E-01  0.28963482805E-01  0.51100000000E-03 0. -1.
         11    1    4    4    0    0  0.67287612814E-01  0.39480191084E-01  0.61676104144E-01  0.99451049615E-01  0.51100000000E-03 0.  1.
</event>
<event>
 8    1  0.1041149E+005  0.1043930E+01  0.7957747E-01            NaN
         13   -1    0    0    0    0  0.00000000000E+00  0.00000000000E+00  0.74505805969E-08  0.10566000000E+00  0.10566000000E+00 0.  1.
     999900   -1    0    0    0    0 -0.00000000000E+00 -0.00000000000E+00 -0.74505805969E-08  0.93827000000E+00  0.93827000000E+00 0.  1.
     999902    2    1    2    0    0 -0.41006677524E-02  0.20918113184E-01 -0.11299915864E-01  0.10198038517E+01  0.10195184279E+01 0.  0.
     999903    2    3    3    0    0 -0.70397625165E-01  0.79641558377E-01  0.74229231941E-01  0.13123254630E+00  0.20332212997E-01 0.  0.
         14    1    1    2    0    0  0.41006677524E-02 -0.20918113184E-01  0.11299915864E-01  0.24126148340E-01  0.00000000000E+00 0. -1.
     999901    1    3    3    0    0  0.66296957413E-01 -0.58723445193E-01 -0.85529147805E-01  0.88857130536E+00  0.88000000000E+00 0.  1.
        -11    1    4    4    0    0 -0.21175484069E-01  0.19487893998E-01  0.10226371726E-01  0.30545358693E-01  0.51100000000E-03 0.  1.
         11    1    4    4    0    0 -0.49222141097E-01  0.60153664379E-01  0.64002860215E-01  0.10068718761E+00  0.51100000000E-03 0. -1.
</event>
<event>
 8    1  0.1041149E+005  0.1043930E+01  0.7957747E-01            NaN
         13   -1    0    0    0    0  0.00000000000E+00  0.00000000000E+00  0.74505805969E-08  0.10566000000E+00  0.10566000000E+00 0. -1.
     999900   -1    0    0    0    0 -0.00000000000E+00 -0.00000000000E+00 -0.74505805969E-08  0.93827000000E+00  0.93827000000E+00 0.  1.
     999902    2    1    2    0    0 -0.73961436934E-02 -0.89938862033E-02 -0.21283736843E-01  0.10196691182E+01  0.10193804590E+01 0.  0.
     999903    2    3    3    0    0 -0.61703544148E-01  0.11136801680E+00 -0.14813547472E-01  0.12979376471E+00  0.20416112304E-01 0.  0.
         14    1    1    2    0    0  0.73961436934E-02  0.89938862033E-02  0.21283736843E-01  0.24260881776E-01  0.00000000000E+00 0. -1.
     999901    1    3    3    0    0  0.54307400454E-01 -0.12036190301E+00 -0.64701893706E-02  0.88987535351E+00  0.88000000000E+00 0.  1.
        -11    1    4    4    0    0 -0.19815005299E-01  0.56748665141E-01 -0.67461100849E-02  0.60488152167E-01  0.51100000000E-03 0. -1.
         11    1    4    4    0    0 -0.41888538849E-01  0.54619351664E-01 -0.80674373872E-02  0.69305612544E-01  0.51100000000E-03 0.  1.
</event>
<event>
 8    1  0.1041149E+005  0.1043930E+01  0.7957747E-01            NaN
         13   -1    0    0    0    0  0.00000000000E+00  0.00000000000E+00  0.74505805969E-08  0.10566000000E+00  0.10566000000E+00 0.  1.
     999900   -1    0    0    0    0 -0.00000000000E+00 -0.00000000000E+00 -0.74505805969E-08  0.93827000000E+00  0.93827000000E+00 0. -1.
     999902    2    1    2    0    0 -0.13841608495E-01  0.10938030329E-01 -0.15443422654E-01  0.10204836797E+01  0.10202142964E+01 0.  0.
     999903    2    3    3    0    0  0.77319386474E-01  0.97266692228E-01 -0.37356084423E-01  0.13130252288E+00  0.20143945219E-01 0.  0.
         14    1    1    2    0    0  0.13841608495E-01 -0.10938030329E-01  0.15443422654E-01  0.23446320319E-01  0.00000000000E+00 0.  1.
     999901    1    3    3    0    0 -0.91160994969E-01 -0.86328661899E-01  0.21912661769E-01  0.88918115680E+00  0.88000000000E+00 0.  1.
        -11    1    4    4    0    0  0.45700888598E-01  0.71313992281E-01 -0.21170397228E-01  0.87308095578E-01  0.51100000000E-03 0. -1.
         11    1    4    4    0    0  0.31618497875E-01  0.25952699947E-01 -0.16185687195E-01  0.43994427300E-01  0.51100000000E-03 0.  1.
</event>
<event>
 8    1  0.1041149E+005  0.1043930E+01  0.7957747E-01            NaN
         13   -1    0    0    0    0  0.00000000000E+00  0.00000000000E+00  0.74505805969E-08  0.10566000000E+00  0.10566000000E+00 0.  1.
     999900   -1    0    0    0    0 -0.00000000000E+00 -0.00000000000E+00 -0.74505805969E-08  0.93827000000E+00  0.93827000000E+00 0.  1.
     999902    2    1    2    0    0 -0.23054761005E-01 -0.26256407059E-02  0.31821299915E-02  0.10205090277E+01  0.10202402333E+01 0.  0.
     999903    2    3    3    0    0  0.51822691924E-01  0.10884498595E+00  0.42802090330E-01  0.12944108703E+00  0.19752308937E-01 0.  0.
         14    1    1    2    0    0  0.23054761005E-01  0.26256407059E-02 -0.31821299915E-02  0.23420972341E-01  0.00000000000E+00 0.  1.
     999901    1    3    3    0    0 -0.74877452929E-01 -0.11147062666E+00 -0.39619960339E-01  0.89106794063E+00  0.88000000000E+00 0.  1.
        -11    1    4    4    0    0  0.47738500422E-02  0.24698334328E-01  0.38148663047E-02  0.25448215826E-01  0.51100000000E-03 0. -1.
         11    1    4    4    0    0  0.47048841882E-01  0.84146651627E-01  0.38987224025E-01  0.10399287120E+00  0.51100000000E-03 0.  1.
</event>
<event>
 8    1  0.1041149E+005  0.1043930E+01  0.7957747E-01            NaN
         13   -1    0    0    0    0  0.00000000000E+00  0.00000000000E+00  0.74505805969E-08  0.10566000000E+00  0.10566000000E+00 0.  1.
     999900   -1    0    0    0    0 -0.00000000000E+00 -0.00000000000E+00 -0.74505805969E-08  0.93827000000E+00  0.93827000000E+00 0.  1.
     999902    2    1    2    0    0  0.16727820645E-01  0.14221715304E-01 -0.87421394260E-02  0.10202973495E+01  0.10200236170E+01 0.  0.
     999903    2    3    3    0    0  0.10144077518E+00 -0.77476291408E-01  0.21603402864E-01  0.13096857952E+00  0.19830663314E-01 0.  0.
         14    1    1    2    0    0 -0.16727820645E-01 -0.14221715304E-01  0.87421394260E-02  0.23632650538E-01  0.00000000000E+00 0.  1.
     999901    1    3    3    0    0 -0.84712954537E-01  0.91698006711E-01 -0.30345542290E-01  0.88932876994E+00  0.88000000000E+00 0.  1.
        -11    1    4    4    0    0  0.75962794491E-01 -0.60986858051E-01  0.24581218802E-01  0.10047009725E+00  0.51100000000E-03 0.  1.
         11    1    4    4    0    0  0.25477980692E-01 -0.16489433357E-01 -0.29778159380E-02  0.30498482279E-01  0.51100000000E-03 0. -1.
</event>
<event>
 8    1  0.1173437E+005  0.1043930E+01  0.7957747E-01            NaN
         13   -1    0    0    0    0  0.00000000000E+00  0.00000000000E+00  0.74505805969E-08  0.10566000000E+00  0.10566000000E+00 0.  1.
     999900   -1    0    0    0    0 -0.00000000000E+00 -0.00000000000E+00 -0.74505805969E-08  0.93827000000E+00  0.93827000000E+00 0.  1.
     999902    2    1    2    0    0 -0.62917798240E-02 -0.22999869211E-01  0.42054051146E-02  0.10197170714E+01  0.10194295659E+01 0.  0.
     999903    2    3    3    0    0 -0.29501545313E-01 -0.58779820070E-01 -0.11297294764E+00  0.13092594612E+00  0.73012359389E-02 0.  0.
         14    1    1    2    0    0  0.62917798240E-02  0.22999869211E-01 -0.42054051146E-02  0.24212928556E-01  0.00000000000E+00 0.  1.
     999901    1    3    3    0    0  0.23209765489E-01  0.35779950860E-01  0.11717835275E+00  0.88879112532E+00  0.88000000000E+00 0. -1.
        -11    1    4    4    0    0 -0.11491729913E-01 -0.27904815476E-01 -0.46184014514E-01  0.55172120684E-01  0.51100000000E-03 0.  1.
         11    1    4    4    0    0 -0.18009815400E-01 -0.30875004594E-01 -0.66788933126E-01  0.75753825438E-01  0.51100000000E-03 0. -1.
</event>
<event>
 8    1  0.1041149E+005  0.1043930E+01  0.7957747E-01            NaN
         13   -1    0    0    0    0  0.00000000000E+00  0.00000000000E+00  0.74505805969E-08  0.10566000000E+00  0.10566000000E+00 0. -1.
     999900   -1    0    0    0    0 -0.00000000000E+00 -0.00000000000E+00 -0.74505805969E-08  0.93827000000E+00  0.93827000000E+00 0.  1.
     999902    2    1    2    0    0  0.24002295216E-02  0.21318142325E-01  0.10668623767E-01  0.10199707883E+01  0.10196893473E+01 0.  0.
     999903    2    3    3    0    0  0.72759096626E-01 -0.57161565013E-01 -0.86760827491E-01  0.12834197950E+00  0.19567622715E-01 0.  0.
         14    1    1    2    0    0 -0.24002295216E-02 -0.21318142325E-01 -0.10668623767E-01  0.23959211736E-01  0.00000000000E+00 0. -1.
     999901    1    3    3    0    0 -0.70358867105E-01  0.78479707337E-01  0.97429451258E-01  0.89162880876E+00  0.88000000000E+00 0. -1.
        -11    1    4    4    0    0  0.41909794668E-01 -0.27853396491E-01 -0.34825847715E-01  0.61199210577E-01  0.51100000000E-03 0. -1.
         11    1    4    4    0    0  0.30849301958E-01 -0.29308168522E-01 -0.51934979776E-01  0.67142768923E-01  0.51100000000E-03 0.  1.
</event>
<event>
 8    1  0.1159736E+005  0.1043930E+01  0.7957747E-01            NaN
         13   -1    0    0    0    0  0.00000000000E+00  0.00000000000E+00  0.74505805969E-08  0.10566000000E+00  0.10566000000E+00 0.  1.
     999900   -1    0    0    0    0 -0.00000000000E+00 -0.00000000000E+00 -0.74505805969E-08  0.93827000000E+00  0.93827000000E+00 0.  1.
     999902    2    1    2    0    0 -0.16660197431E-01  0.55953151655E-02 -0.15564622926E-01  0.10204539012E+01  0.10201838252E+01 0.  0.
     999903    2    3    3    0    0 -0.63419436494E-01  0.11362785381E+00 -0.16038206214E-01  0.13261513194E+00  0.19905654309E-01 0.  0.
         14    1    1    2    0    0  0.16660197431E-01 -0.55953151655E-02  0.15564622926E-01  0.23476098847E-01  0.00000000000E+00 0.  1.
     999901    1    3    3    0    0  0.46759239064E-01 -0.10803253864E+00  0.47358328786E-03  0.88783876922E+00  0.88000000000E+00 0.  1.
        -11    1    4    4    0    0 -0.54151200050E-01  0.80274896565E-01 -0.86815797731E-02  0.97221615054E-01  0.51100000000E-03 0. -1.
         11    1    4    4    0    0 -0.92682364441E-02  0.33352957243E-01 -0.73566264412E-02  0.35393516882E-01  0.51100000000E-03 0.  1.
</event>
<event>
 8    1  0.1041149E+005  0.1043930E+01  0.7957747E-01            NaN
         13   -1    0    0    0    0  0.00000000000E+00  0.00000000000E+00  0.74505805969E-08  0.10566000000E+00  0.10566000000E+00 0. -1.
     999900   -1    0    0    0    0 -0.00000000000E+00 -0.00000000000E+00 -0.74505805969E-08  0.93827000000E+00  0.93827000000E+00 0. -1.
     999902    2    1    2    0    0  0.20409924002E-01  0.50189143617E-02 -0.10176469489E-01  0.10205780187E+01  0.10203108238E+01 0.  0.
     999903    2    3    3    0    0 -0.92183335571E-01 -0.33676528121E-01 -0.83292685102E-01  0.12955581901E+00  0.14668433570E-01 0.  0.
         14    1    1    2    0    0 -0.20409924002E-01 -0.50189143617E-02  0.10176469489E-01  0.23351981295E-01  0.00000000000E+00 0. -1.
     999901    1    3    3    0    0  0.11259325957E+00  0.38695442483E-01  0.73116215613E-01  0.89102219970E+00  0.88000000000E+00 0.  1.
        -11    1    4    4    0    0 -0.48358223360E-01 -0.23286967472E-01 -0.38690769360E-01  0.66166739192E-01  0.51100000000E-03 0.  1.
         11    1    4    4    0    0 -0.43825112211E-01 -0.10389560649E-01 -0.44601915742E-01  0.63389079814E-01  0.51100000000E-03 0. -1.
</event>
<event>
 8    1  0.1041149E+005  0.1043930E+01  0.7957747E-01            NaN
         13   -1    0    0    0    0  0.00000000000E+00  0.00000000000E+00  0.74505805969E-08  0.10566000000E+00  0.10566000000E+00 0.  1.
     999900   -1    0    0    0    0 -0.00000000000E+00 -0.00000000000E+00 -0.74505805969E-08  0.93827000000E+00  0.93827000000E+00 0.  1.
     999902    2    1    2    0    0 -0.21534963105E-01 -0.57944134555E-02  0.46140454588E-02  0.10211567859E+01  0.10209028172E+01 0.  0.
     999903    2    3    3    0    0  0.42087658727E-01 -0.11976644996E+00  0.26270992597E-01  0.13126550804E+00  0.20617832034E-01 0.  0.
         14    1    1    2    0    0  0.21534963105E-01  0.57944134555E-02 -0.46140454588E-02  0.22773214062E-01  0.00000000000E+00 0. -1.
     999901    1    3    3    0    0 -0.63622621832E-01  0.11397203650E+00 -0.21656947138E-01  0.88989127789E+00  0.88000000000E+00 0.  1.
        -11    1    4    4    0    0  0.13121788641E-01 -0.41809262012E-01  0.19056300650E-01  0.47787021696E-01  0.51100000000E-03 0. -1.
         11    1    4    4    0    0  0.28965870087E-01 -0.77957187944E-01  0.72146919466E-02  0.83478486347E-01  0.51100000000E-03 0.  1.
</event>
<event>
 8    1  0.1041149E+005  0.1043930E+01  0.7957747E-01            NaN
         13   -1    0    0    0    0  0.00000000000E+00  0.00000000000E+00  0.74505805969E-08  0.10566000000E+00  0.10566000000E+00 0. -1.
     999900   -1    0    0    0    0 -0.00000000000E+00 -0.00000000000E+00 -0.74505805969E-08  0.93827000000E+00  0.93827000000E+00 0. -1.
     999902    2    1    2    0    0 -0.17351369161E-01  0.17973076451E-02 -0.14788983470E-01  0.10210604928E+01  0.10208043474E+01 0.  0.
     999903    2    3    3    0    0  0.11258902183E+00 -0.17199792882E-01  0.50576234788E-01  0.12891812369E+00  0.33012215584E-01 0.  0.
         14    1    1    2    0    0  0.17351369161E-01 -0.17973076451E-02  0.14788983470E-01  0.22869507179E-01  0.00000000000E+00 0. -1.
     999901    1    3    3    0    0 -0.12994039100E+00  0.18997100527E-01 -0.65365218258E-01  0.89214236913E+00  0.88000000000E+00 0. -1.
        -11    1    4    4    0    0  0.69499923534E-01 -0.24025309268E-01  0.41202016540E-01  0.84293072934E-01  0.51100000000E-03 0.  1.
         11    1    4    4    0    0  0.43089098300E-01  0.68255163860E-02  0.93742182477E-02  0.44625050756E-01  0.51100000000E-03 0. -1.
</event>
<event>
 8    1  0.1041149E+005  0.1043930E+01  0.7957747E-01            NaN
         13   -1    0    0    0    0  0.00000000000E+00  0.00000000000E+00  0.74505805969E-08  0.10566000000E+00  0.10566000000E+00 0.  1.
     999900   -1    0    0    0    0 -0.00000000000E+00 -0.00000000000E+00 -0.74505805969E-08  0.93827000000E+00  0.93827000000E+00 0. -1.
     999902    2    1    2    0    0  0.98130572364E-02 -0.86901675293E-02 -0.19660175542E-01  0.10203008315E+01  0.10200271805E+01 0.  0.
     999903    2    3    3    0    0 -0.44884693913E-02  0.11966550737E+00  0.42293608873E-01  0.12871909972E+00  0.20973251295E-01 0.  0.
         14    1    1    2    0    0 -0.98130572364E-02  0.86901675293E-02  0.19660175542E-01  0.23629168549E-01  0.00000000000E+00 0.  1.
     999901    1    3    3    0    0  0.14301526628E-01 -0.12835567490E+00 -0.61953784415E-01  0.89158173173E+00  0.88000000000E+00 0. -1.
        -11    1    4    4    0    0  0.74169039573E-02  0.58010331138E-01  0.24849860590E-01  0.63545146749E-01  0.51100000000E-03 0. -1.
         11    1    4    4    0    0 -0.11905373349E-01  0.61655176236E-01  0.17443748283E-01  0.65173952976E-01  0.51100000000E-03 0.  1.
</event>
<event>
 8    1  0.1041149E+005  0.1043930E+01  0.7957747E-01            NaN
         13   -1    0    0    0    0  0.00000000000E+00  0.00000000000E+00  0.74505805969E-08  0.10566000000E+00  0.10566000000E+00 0. -1.
     999900   -1    0    0    0    0 -0.00000000000E+00 -0.00000000000E+00 -0.74505805969E-08  0.93827000000E+00  0.93827000000E+00 0.  1.
     999902    2    1    2    0    0  0.28913245239E-02  0.36191080968E-02 -0.21338194568E-01  0.10220947934E+01  0.10218615319E+01 0.  0.
     999903    2    3    3    0    0 -0.15498942196E-01  0.12731479271E+00 -0.30054639189E-01  0.13321077355E+00  0.19813005835E-01 0.  0.
         14    1    1    2    0    0 -0.28913245239E-02 -0.36191080968E-02  0.21338194568E-01  0.21835206624E-01  0.00000000000E+00 0. -1.
     999901    1    3    3    0    0  0.18390266720E-01 -0.12369568461E+00  0.87164446211E-02  0.88888401983E+00  0.88000000000E+00 0. -1.
        -11    1    4    4    0    0 -0.22675715984E-03  0.76080922339E-01 -0.13747364658E-01  0.77315000607E-01  0.51100000000E-03 0. -1.
         11    1    4    4    0    0 -0.15272185036E-01  0.51233870370E-01 -0.16307274530E-01  0.55895772939E-01  0.51100000000E-03 0.  1.
</event>
<event>
 8    1  0.1041149E+005  0.1043930E+01  0.7957747E-01            NaN
         13   -1    0    0    0    0  0.00000000000E+00  0.00000000000E+00  0.74505805969E-08  0.10566000000E+00  0.10566000000E+00 0.  1.
     999900   -1    0    0    0    0 -0.00000000000E+00 -0.00000000000E+00 -0.74505805969E-08  0.93827000000E+00  0.93827000000E+00 0. -1.
     999902    2    1    2    0    0 -0.99832726278E-03 -0.28648542544E-02 -0.23239911315E-01  0.10204929028E+01  0.10202237339E+01 0.  0.
     999903    2    3    3    0    0  0.10586802124E-01 -0.10045511789E+00  0.78237431843E-01  0.12922654197E+00  0.19367300232E-01 0.  0.
         14    1    1    2    0    0  0.99832726278E-03  0.28648542544E-02  0.23239911315E-01  0.23437097200E-01  0.00000000000E+00 0.  1.
     999901    1    3    3    0    0 -0.11585129386E-01  0.97590263633E-01 -0.10147734316E+00  0.89126636083E+00  0.88000000000E+00 0. -1.
        -11    1    4    4    0    0 -0.21298966996E-02 -0.59201355665E-01  0.39326523462E-01  0.71106775635E-01  0.51100000000E-03 0.  1.
         11    1    4    4    0    0  0.12716698823E-01 -0.41253762222E-01  0.38910908381E-01  0.58119766332E-01  0.51100000000E-03 0. -1.
</event>
<event>
 8    1  0.1041149E+005  0.1043930E+01  0.7957747E-01            NaN
         13   -1    0    0    0    0  0.00000000000E+00  0.00000000000E+00  0.74505805969E-08  0.10566000000E+00  0.10566000000E+00 0.  1.
     999900   -1    0    0    0    0 -0.00000000000E+00 -0.00000000000E+00 -0.74505805969E-08  0.93827000000E+00  0.93827000000E+00 0. -1.
     999902    2    1    2    0    0 -0.92509707856E-02  0.22025688782E-01 -0.16470737834E-02  0.10199837210E+01  0.10197025874E+01 0.  0.
     999903    2    3    3    0    0  0.30328022990E-01  0.75585731822E-01  0.10141648901E+00  0.13146963953E+00  0.19130343480E-01 0.  0.
         14    1    1    2    0    0  0.92509707856E-02 -0.22025688782E-01  0.16470737834E-02  0.23946279019E-01  0.00000000000E+00 0. -1.
     999901    1    3    3    0    0 -0.39578993776E-01 -0.53560043040E-01 -0.10306356279E+00  0.88851408145E+00  0.88000000000E+00 0. -1.
        -11    1    4    4    0    0  0.20766788335E-01  0.48809645119E-01  0.79475842917E-01  0.95552664446E-01  0.51100000000E-03 0.  1.
         11    1    4    4    0    0  0.95612346555E-02  0.26776086703E-01  0.21940646094E-01  0.35916975086E-01  0.51100000000E-03 0. -1.
</event>
<event>
 8    1  0.1041149E+005  0.1043930E+01  0.7957747E-01            NaN
         13   -1    0    0    0    0  0.00000000000E+00  0.00000000000E+00  0.74505805969E-08  0.10566000000E+00  0.10566000000E+00 0.  1.
     999900   -1    0    0    0    0 -0.00000000000E+00 -0.00000000000E+00 -0.74505805969E-08  0.93827000000E+00  0.93827000000E+00 0. -1.
     999902    2    1    2    0    0  0.13927595474E-01 -0.72730474305E-02 -0.18050198967E-01  0.10199991660E+01  0.10197183992E+01 0.  0.
     999903    2    3    3    0    0 -0.87550970285E-01  0.89710749885E-01  0.16839273375E-01  0.12819143359E+00  0.20887591424E-01 0.  0.
         14    1    1    2    0    0 -0.13927595474E-01  0.72730474305E-02  0.18050198967E-01  0.23930834030E-01  0.00000000000E+00 0.  1.
     999901    1    3    3    0    0  0.10147856576E+00 -0.96983797315E-01 -0.34889472342E-01  0.89180773238E+00  0.88000000000E+00 0.  1.
        -11    1    4    4    0    0 -0.50456872516E-01  0.65136323255E-01  0.76078115566E-02  0.82745250673E-01  0.51100000000E-03 0.  1.
         11    1    4    4    0    0 -0.37094097769E-01  0.24574426630E-01  0.92314618186E-02  0.45446182918E-01  0.51100000000E-03 0. -1.
</event>
<event>
 8    1  0.1041149E+005  0.1043930E+01  0.7957747E-01            NaN
         13   -1    0    0    0    0  0.00000000000E+00  0.00000000000E+00  0.74505805969E-08  0.10566000000E+00  0.10566000000E+00 0. -1.
     999900   -1    0    0    0    0 -0.00000000000E+00 -0.00000000000E+00 -0.74505805969E-08  0.93827000000E+00  0.93827000000E+00 0.  1.
     999902    2    1    2    0    0 -0.26107711849E-01 -0.81678847880E-02  0.48409063036E-03  0.10165701516E+01  0.10162019051E+01 0.  0.
     999903    2    3    3    0    0  0.13517142048E-01 -0.10339932910E+00 -0.70751091580E-01  0.12768680257E+00  0.20592916339E-01 0.  0.
         14    1    1    2    0    0  0.26107711849E-01  0.81678847880E-02 -0.48409063036E-03  0.27359848385E-01  0.00000000000E+00 0.  1.
     999901    1    3    3    0    0 -0.39624853897E-01  0.95231444308E-01  0.71235182210E-01  0.88888334905E+00  0.88000000000E+00 0. -1.
        -11    1    4    4    0    0  0.10841734205E-02 -0.44467436807E-01 -0.19372751986E-01  0.48518996370E-01  0.51100000000E-03 0.  1.
         11    1    4    4    0    0  0.12432968628E-01 -0.58931892289E-01 -0.51378339594E-01  0.79167806197E-01  0.51100000000E-03 0. -1.
</event>
<event>
 8    1  0.1041149E+005  0.1043930E+01  0.7957747E-01            NaN
         13   -1    0    0    0    0  0.00000000000E+00  0.00000000000E+00  0.74505805969E-08  0.10566000000E+00  0.10566000000E+00 0. -1.
     999900   -1    0    0    0    0 -0.00000000000E+00 -0.00000000000E+00 -0.74505805969E-08  0.93827000000E+00  0.93827000000E+00 0. -1.
     999902    2    1    2    0    0 -0.95729654510E-04 -0.32741673028E-02 -0.23328448843E-01  0.10203727111E+01  0.10201007419E+01 0.  0.
     999903    2    3    3    0    0  0.15152526020E-02  0.93498844658E-01 -0.91477643295E-01  0.13244708142E+00  0.20730176340E-01 0.  0.
         14    1    1    2    0    0  0.95729654510E-04  0.32741673028E-02  0.23328448843E-01  0.23557288917E-01  0.00000000000E+00 0. -1.
     999901    1    3    3    0    0 -0.16109822566E-02 -0.96773011961E-01  0.68149194452E-01  0.88792562966E+00  0.88000000000E+00 0.  1.
        -11    1    4    4    0    0 -0.41035208189E-02  0.12356191436E-01 -0.21544726676E-01  0.25178377995E-01  0.51100000000E-03 0. -1.
         11    1    4    4    0    0  0.56187734210E-02  0.81142653222E-01 -0.69932916618E-01  0.10726870342E+00  0.51100000000E-03 0.  1.
</event>
<event>
 8    1  0.1041149E+005  0.1043930E+01  0.7957747E-01            NaN
         13   -1    0    0    0    0  0.00000000000E+00  0.00000000000E+00  0.74505805969E-08  0.10566000000E+00  0.10566000000E+00 0.  1.
     999900   -1    0    0    0    0 -0.00000000000E+00 -0.00000000000E+00 -0.74505805969E-08  0.93827000000E+00  0.93827000000E+00 0.  1.
     999902    2    1    2    0    0  0.10404525648E-01  0.13971633669E-01  0.18405234674E-01  0.10185880710E+01  0.10182727754E+01 0.  0.
     999903    2    3    3    0    0 -0.34788036561E-01  0.10804992426E+00  0.63068248726E-01  0.13129562922E+00  0.19389291779E-01 0.  0.
         14    1    1    2    0    0 -0.10404525648E-01 -0.13971633669E-01 -0.18405234674E-01  0.25341928986E-01  0.00000000000E+00 0. -1.
     999901    1    3    3    0    0  0.45192562209E-01 -0.94078290587E-01 -0.44663014051E-01  0.88729244179E+00  0.88000000000E+00 0.  1.
        -11    1    4    4    0    0 -0.26584402267E-01  0.76313483807E-01  0.34721883858E-01  0.87956515360E-01  0.51100000000E-03 0. -1.
         11    1    4    4    0    0 -0.82036342935E-02  0.31736440448E-01  0.28346364868E-01  0.43339113860E-01  0.51100000000E-03 0.  1.
</event>
<event>
 8    1  0.1041149E+005  0.1043930E+01  0.7957747E-01            NaN
         13   -1    0    0    0    0  0.00000000000E+00  0.00000000000E+00  0.74505805969E-08  0.10566000000E+00  0.10566000000E+00 0. -1.
     999900   -1    0    0    0    0 -0.00000000000E+00 -0.00000000000E+00 -0.74505805969E-08  0.93827000000E+00  0.93827000000E+00 0.  1.
     999902    2    1    2    0    0  0.15543987987E-01 -0.85960555593E-02  0.16481137673E-01  0.10196991182E+01  0.10194111810E+01 0.  0.
     999903    2    3    3    0    0 -0.84350902796E-01  0.87656321401E-01  0.36693129529E-01  0.12860314476E+00  0.19841310509E-01 0.  0.
         14    1    1    2    0    0 -0.15543987987E-01  0.85960555593E-02 -0.16481137673E-01  0.24230881798E-01  0.00000000000E+00 0.  1.
     999901    1    3    3    0    0  0.99894890783E-01 -0.96252376960E-01 -0.20211991856E-01  0.89109597344E+00  0.88000000000E+00 0. -1.
        -11    1    4    4    0    0 -0.55336610736E-01  0.62516316645E-01  0.33890256236E-01  0.90106830614E-01  0.51100000000E-03 0. -1.
         11    1    4    4    0    0 -0.29014292060E-01  0.25140004755E-01  0.28028732930E-02  0.38496314142E-01  0.51100000000E-03 0.  1.
</event>
<event>
 8    1  0.1041149E+005  0.1043930E+01  0.7957747E-01            NaN
         13   -1    0    0    0    0  0.00000000000E+00  0.00000000000E+00  0.74505805969E-08  0.10566000000E+00  0.10566000000E+00 0. -1.
     999900   -1    0    0    0    0 -0.00000000000E+00 -0.00000000000E+00 -0.74505805969E-08  0.93827000000E+00  0.93827000000E+00 0.  1.
     999902    2    1    2    0    0 -0.13220375666E-01  0.77812110926E-02  0.17743920554E-01  0.10204742481E+01  0.10202046456E+01 0.  0.
     999903    2    3    3    0    0  0.17641321645E-01 -0.62082843212E-02 -0.12552053247E+00  0.12824509941E+00  0.18483571804E-01 0.  0.
         14    1    1    2    0    0  0.13220375666E-01 -0.77812110926E-02 -0.17743920554E-01  0.23455751863E-01  0.00000000000E+00 0.  1.
     999901    1    3    3    0    0 -0.30861697311E-01  0.13989495414E-01  0.14326445303E+00  0.89222914873E+00  0.88000000000E+00 0. -1.
        -11    1    4    4    0    0  0.17356584481E-01  0.52915026862E-03 -0.62717677420E-01  0.65079176445E-01  0.51100000000E-03 0. -1.
         11    1    4    4    0    0  0.28473716412E-03 -0.67374345898E-02 -0.62802855051E-01  0.63165922962E-01  0.51100000000E-03 0.  1.
</event>
<event>
 8    1  0.1041149E+005  0.1043930E+01  0.7957747E-01            NaN
         13   -1    0    0    0    0  0.00000000000E+00  0.00000000000E+00  0.74505805969E-08  0.10566000000E+00  0.10566000000E+00 0. -1.
     999900   -1    0    0    0    0 -0.00000000000E+00 -0.00000000000E+00 -0.74505805969E-08  0.93827000000E+00  0.93827000000E+00 0.  1.
     999902    2    1    2    0    0  0.15914012288E-01  0.37664197441E-02  0.10328086237E-01  0.10245880490E+01  0.10244054661E+01 0.  0.
     999903    2    3    3    0    0  0.70025155430E-01  0.97054148259E-01 -0.59863464049E-01  0.13523015146E+00  0.19507164060E-01 0.  0.
         14    1    1    2    0    0 -0.15914012288E-01 -0.37664197441E-02 -0.10328086237E-01  0.19341951042E-01  0.00000000000E+00 0.  1.
     999901    1    3    3    0    0 -0.54111143143E-01 -0.93287728515E-01  0.70191550286E-01  0.88935789749E+00  0.88000000000E+00 0. -1.
        -11    1    4    4    0    0  0.16336712667E-01  0.13359490182E-01 -0.51239839797E-02  0.21722810396E-01  0.51100000000E-03 0.  1.
         11    1    4    4    0    0  0.53688442763E-01  0.83694658077E-01 -0.54739480069E-01  0.11350734107E+00  0.51100000000E-03 0. -1.
</event>
<event>
 8    1  0.1041149E+005  0.1043930E+01  0.7957747E-01            NaN
         13   -1    0    0    0    0  0.00000000000E+00  0.00000000000E+00  0.74505805969E-08  0.10566000000E+00  0.10566000000E+00 0.  1.
     999900   -1    0    0    0    0 -0.00000000000E+00 -0.00000000000E+00 -0.74505805969E-08  0.93827000000E+00  0.93827000000E+00 0. -1.
     999902    2    1    2    0    0  0.16740017863E-01  0.12818828489E-01  0.11267423905E-01  0.10200238208E+01  0.10197436392E+01 0.  0.
     999903    2    3    3    0    0  0.28418194304E-01  0.67463196456E-01 -0.10615816830E+00  0.13046710173E+00  0.19830060341E-01 0.  0.
         14    1    1    2    0    0 -0.16740017863E-01 -0.12818828489E-01 -0.11267423905E-01  0.23906179187E-01  0.00000000000E+00 0.  1.
     999901    1    3    3    0    0 -0.11678176441E-01 -0.54644367968E-01  0.11742559221E+00  0.88955671908E+00  0.88000000000E+00 0.  1.
        -11    1    4    4    0    0  0.11707307443E-01  0.83343308224E-02 -0.21185113574E-01  0.25604536238E-01  0.51100000000E-03 0. -1.
         11    1    4    4    0    0  0.16710886861E-01  0.59128865634E-01 -0.84973054730E-01  0.10486256549E+00  0.51100000000E-03 0.  1.
</event>
<event>
 8    1  0.1041149E+005  0.1043930E+01  0.7957747E-01            NaN
         13   -1    0    0    0    0  0.00000000000E+00  0.00000000000E+00  0.74505805969E-08  0.10566000000E+00  0.10566000000E+00 0.  1.
     999900   -1    0    0    0    0 -0.00000000000E+00 -0.00000000000E+00 -0.74505805969E-08  0.93827000000E+00  0.93827000000E+00 0.  1.
     999902    2    1    2    0    0 -0.87186666599E-02  0.19054749811E-01 -0.10625827183E-01  0.10204351741E+01  0.10201646621E+01 0.  0.
     999903    2    3    3    0    0 -0.11575313143E+00 -0.21042193785E-01 -0.56484751459E-01  0.13185924465E+00  0.18835389542E-01 0.  0.
         14    1    1    2    0    0  0.87186666599E-02 -0.19054749811E-01  0.10625827183E-01  0.23494825856E-01  0.00000000000E+00 0.  1.
     999901    1    3    3    0    0  0.10703446477E+00  0.40096943596E-01  0.45858924276E-01  0.88857592949E+00  0.88000000000E+00 0. -1.
        -11    1    4    4    0    0 -0.38605259636E-01 -0.96853729587E-02 -0.98790930856E-02  0.41012560541E-01  0.51100000000E-03 0.  1.
         11    1    4    4    0    0 -0.77147871789E-01 -0.11356820826E-01 -0.46605658373E-01  0.90846684113E-01  0.51100000000E-03 0. -1.
</event>
<event>
 8    1  0.1041149E+005  0.1043930E+01  0.7957747E-01            NaN
         13   -1    0    0    0    0  0.00000000000E+00  0.00000000000E+00  0.74505805969E-08  0.10566000000E+00  0.10566000000E+00 0.  1.
     999900   -1    0    0    0    0 -0.00000000000E+00 -0.00000000000E+00 -0.74505805969E-08  0.93827000000E+00  0.93827000000E+00 0.  1.
     999902    2    1    2    0    0  0.13257566096E-01  0.90856205196E-02  0.16289726561E-01  0.10210462339E+01  0.10207897653E+01 0.  0.
     999903    2    3    3    0    0 -0.56583393592E-02 -0.12193937981E+00  0.42380558414E-01  0.13076195701E+00  0.20033684571E-01 0.  0.
         14    1    1    2    0    0 -0.13257566096E-01 -0.90856205196E-02 -0.16289726561E-01  0.22883766090E-01  0.00000000000E+00 0. -1.
     999901    1    3    3    0    0  0.18915905455E-01  0.13102500033E+00 -0.26090831854E-01  0.89028427690E+00  0.88000000000E+00 0. -1.
        -11    1    4    4    0    0 -0.10124791081E-01 -0.40894775601E-01  0.95287476976E-02  0.43196669080E-01  0.51100000000E-03 0. -1.
         11    1    4    4    0    0  0.44664517223E-02 -0.81044604206E-01  0.32851810717E-01  0.87565287930E-01  0.51100000000E-03 0.  1.
</event>
<event>
 8    1  0.1041149E+005  0.1043930E+01  0.7957747E-01            NaN
         13   -1    0    0    0    0  0.00000000000E+00  0.00000000000E+00  0.74505805969E-08  0.10566000000E+00  0.10566000000E+00 0. -1.
     999900   -1    0    0    0    0 -0.00000000000E+00 -0.00000000000E+00 -0.74505805969E-08  0.93827000000E+00  0.93827000000E+00 0. -1.
     999902    2    1    2    0    0  0.42244983615E-02 -0.22040413314E-01 -0.46343578460E-02  0.10210148636E+01  0.10207576834E+01 0.  0.
     999903    2    3    3    0    0  0.85512722566E-01 -0.10090596266E+00  0.14799221558E-02  0.13373535028E+00  0.19710776820E-01 0.  0.
         14    1    1    2    0    0 -0.42244983615E-02  0.22040413314E-01  0.46343578460E-02  0.22915136441E-01  0.00000000000E+00 0. -1.
     999901    1    3    3    0    0 -0.81288224204E-01  0.78865549349E-01 -0.61142800018E-02  0.88727951328E+00  0.88000000000E+00 0. -1.
        -11    1    4    4    0    0  0.58103602482E-01 -0.55258045098E-01  0.52323274715E-02  0.80356197901E-01  0.51100000000E-03 0. -1.
         11    1    4    4    0    0  0.27409120084E-01 -0.45647917565E-01 -0.37524053156E-02  0.53379152377E-01  0.51100000000E-03 0.  1.
</event>
<event>
 8    1  0.1041149E+005  0.1043930E+01  0.7957747E-01            NaN
         13   -1    0    0    0    0  0.00000000000E+00  0.00000000000E+00  0.74505805969E-08  0.10566000000E+00  0.10566000000E+00 0.  1.
     999900   -1    0    0    0    0 -0.00000000000E+00 -0.00000000000E+00 -0.74505805969E-08  0.93827000000E+00  0.93827000000E+00 0. -1.
     999902    2    1    2    0    0 -0.51032204887E-02  0.20952967518E-01  0.11475740791E-01  0.10195012806E+01  0.10192085649E+01 0.  0.
     999903    2    3    3    0    0  0.11623669572E+00  0.69853133687E-02  0.54642761086E-01  0.13001723782E+00  0.18944306712E-01 0.  0.
         14    1    1    2    0    0  0.51032204887E-02 -0.20952967518E-01 -0.11475740791E-01  0.24428719448E-01  0.00000000000E+00 0.  1.
     999901    1    3    3    0    0 -0.12133991621E+00  0.13967654149E-01 -0.43167020296E-01  0.88948404273E+00  0.88000000000E+00 0. -1.
        -11    1    4    4    0    0  0.10710278245E+00  0.20567494996E-02  0.46343926989E-01  0.11671870851E+00  0.51100000000E-03 0.  1.
         11    1    4    4    0    0  0.91339132746E-02  0.49285638691E-02  0.82988340971E-02  0.13298529313E-01  0.51100000000E-03 0. -1.
</event>
<event>
 8    1  0.1041149E+005  0.1043930E+01  0.7957747E-01            NaN
         13   -1    0    0    0    0  0.00000000000E+00  0.00000000000E+00  0.74505805969E-08  0.10566000000E+00  0.10566000000E+00 0. -1.
     999900   -1    0    0    0    0 -0.00000000000E+00 -0.00000000000E+00 -0.74505805969E-08  0.93827000000E+00  0.93827000000E+00 0. -1.
     999902    2    1    2    0    0  0.43070962743E-02  0.14506616757E-01 -0.17901193301E-01  0.10204897413E+01  0.10202204989E+01 0.  0.
     999903    2    3    3    0    0  0.92153104617E-01 -0.33547919579E-02 -0.93079524497E-01  0.13274668577E+00  0.21317490036E-01 0.  0.
         14    1    1    2    0    0 -0.43070962743E-02 -0.14506616757E-01  0.17901193301E-01  0.23440258737E-01  0.00000000000E+00 0. -1.
     999901    1    3    3    0    0 -0.87846008343E-01  0.17861408715E-01  0.75178331196E-01  0.88774305550E+00  0.88000000000E+00 0.  1.
        -11    1    4    4    0    0  0.74656059283E-02  0.57742114782E-02 -0.10007192825E-01  0.13765239530E-01  0.51100000000E-03 0. -1.
         11    1    4    4    0    0  0.84687498689E-01 -0.91290034361E-02 -0.83072331672E-01  0.11898144624E+00  0.51100000000E-03 0.  1.
</event>
<event>
 8    1  0.1041149E+005  0.1043930E+01  0.7957747E-01            NaN
         13   -1    0    0    0    0  0.00000000000E+00  0.00000000000E+00  0.74505805969E-08  0.10566000000E+00  0.10566000000E+00 0. -1.
     999900   -1    0    0    0    0 -0.00000000000E+00 -0.00000000000E+00 -0.74505805969E-08  0.93827000000E+00  0.93827000000E+00 0.  1.
     999902    2    1    2    0    0 -0.20489944095E-01 -0.73851360670E-02  0.87547069982E-02  0.10204561222E+01  0.10201860979E+01 0.  0.
     999903    2    3    3    0    0  0.91095123088E-01  0.84267691922E-01 -0.24717708500E-01  0.12805942192E+00  0.19720169282E-01 0.  0.
         14    1    1    2    0    0  0.20489944095E-01  0.73851360670E-02 -0.87547069982E-02  0.23473877787E-01  0.00000000000E+00 0.  1.
     999901    1    3    3    0    0 -0.11158506718E+00 -0.91652827989E-01  0.33472415498E-01  0.89239670029E+00  0.88000000000E+00 0.  1.
        -11    1    4    4    0    0  0.61868230772E-01  0.67590622396E-01 -0.13717114874E-01  0.92653065661E-01  0.51100000000E-03 0.  1.
         11    1    4    4    0    0  0.29226892315E-01  0.16677069526E-01 -0.11000593626E-01  0.35406356258E-01  0.51100000000E-03 0. -1.
</event>
<event>
 8    1  0.1041149E+005  0.1043930E+01  0.7957747E-01            NaN
         13   -1    0    0    0    0  0.00000000000E+00  0.00000000000E+00  0.74505805969E-08  0.10566000000E+00  0.10566000000E+00 0. -1.
     999900   -1    0    0    0    0 -0.00000000000E+00 -0.00000000000E+00 -0.74505805969E-08  0.93827000000E+00  0.93827000000E+00 0. -1.
     999902    2    1    2    0    0 -0.58744922414E-02  0.54033655574E-02  0.22215294016E-01  0.10203243798E+01  0.10200512804E+01 0.  0.
     999903    2    3    3    0    0 -0.84285355411E-01 -0.94622708468E-01 -0.21451558609E-01  0.13012200223E+00  0.20349152405E-01 0.  0.
         14    1    1    2    0    0  0.58744922414E-02 -0.54033655574E-02 -0.22215294016E-01  0.23605620234E-01  0.00000000000E+00 0.  1.
     999901    1    3    3    0    0  0.78410863170E-01  0.10002607403E+00  0.43666852625E-01  0.89020237753E+00  0.88000000000E+00 0. -1.
        -11    1    4    4    0    0 -0.43313930094E-01 -0.63248149111E-01 -0.10636247321E-01  0.77393900175E-01  0.51100000000E-03 0.  1.
         11    1    4    4    0    0 -0.40971425317E-01 -0.31374559357E-01 -0.10815311289E-01  0.52728102058E-01  0.51100000000E-03 0. -1.
</event>
<event>
 8    1  0.1041149E+005  0.1043930E+01  0.7957747E-01            NaN
         13   -1    0    0    0    0  0.00000000000E+00  0.00000000000E+00  0.74505805969E-08  0.10566000000E+00  0.10566000000E+00 0. -1.
     999900   -1    0    0    0    0 -0.00000000000E+00 -0.00000000000E+00 -0.74505805969E-08  0.93827000000E+00  0.93827000000E+00 0. -1.
     999902    2    1    2    0    0  0.79212722372E-02 -0.58777722996E-02  0.22691216964E-01  0.10191876054E+01  0.10188872308E+01 0.  0.
     999903    2    3    3    0    0 -0.83638828657E-01  0.58467316596E-01  0.78530728537E-01  0.13034476580E+00  0.20218849542E-01 0.  0.
         14    1    1    2    0    0 -0.79212722372E-02  0.58777722996E-02 -0.22691216964E-01  0.24742394556E-01  0.00000000000E+00 0.  1.
     999901    1    3    3    0    0  0.91560100894E-01 -0.64345088896E-01 -0.55839511573E-01  0.88884283965E+00  0.88000000000E+00 0. -1.
        -11    1    4    4    0    0 -0.66583536580E-01  0.35961946406E-01  0.54440774136E-01  0.93223859297E-01  0.51100000000E-03 0.  1.
         11    1    4    4    0    0 -0.17055292077E-01  0.22505370190E-01  0.24089954401E-01  0.37120906499E-01  0.51100000000E-03 0. -1.
</event>
<event>
 8    1  0.1041149E+005  0.1043930E+01  0.7957747E-01            NaN
         13   -1    0    0    0    0  0.00000000000E+00  0.00000000000E+00  0.74505805969E-08  0.10566000000E+00  0.10566000000E+00 0. -1.
     999900   -1    0    0    0    0 -0.00000000000E+00 -0.00000000000E+00 -0.74505805969E-08  0.93827000000E+00  0.93827000000E+00 0. -1.
     999902    2    1    2    0    0 -0.16049963185E-01  0.93152392074E-03 -0.15227120707E-01  0.10217865075E+01  0.10215465396E+01 0.  0.
     999903    2    3    3    0    0 -0.74568233526E-01 -0.23993482805E-01 -0.10766403627E+00  0.13466181092E+00  0.20153162206E-01 0.  0.
         14    1    1    2    0    0  0.16049963185E-01 -0.93152392074E-03  0.15227120707E-01  0.22143492500E-01  0.00000000000E+00 0. -1.
     999901    1    3    3    0    0  0.58518270341E-01  0.24925006726E-01  0.92436915559E-01  0.88712469658E+00  0.88000000000E+00 0.  1.
        -11    1    4    4    0    0 -0.63067359517E-01 -0.18428990620E-01 -0.75722573177E-01  0.10025611573E+00  0.51100000000E-03 0. -1.
         11    1    4    4    0    0 -0.11500874009E-01 -0.55644921851E-02 -0.31941463089E-01  0.34405695190E-01  0.51100000000E-03 0.  1.
</event>
<event>
 8    1  0.1041149E+005  0.1043930E+01  0.7957747E-01            NaN
         13   -1    0    0    0    0  0.00000000000E+00  0.00000000000E+00  0.74505805969E-08  0.10566000000E+00  0.10566000000E+00 0.  1.
     999900   -1    0    0    0    0 -0.00000000000E+00 -0.00000000000E+00 -0.74505805969E-08  0.93827000000E+00  0.93827000000E+00 0. -1.
     999902    2    1    2    0    0  0.15876927324E-01 -0.16654191514E-01 -0.41862810541E-02  0.10205427414E+01  0.10202747292E+01 0.  0.
     999903    2    3    3    0    0  0.10756920001E-01 -0.13003607524E-01 -0.12909128917E+00  0.13170034687E+00  0.19890080211E-01 0.  0.
         14    1    1    2    0    0 -0.15876927324E-01  0.16654191514E-01  0.41862810541E-02  0.23387258610E-01  0.00000000000E+00 0.  1.
     999901    1    3    3    0    0  0.51200073227E-02 -0.36505839897E-02  0.12490500811E+00  0.88884239452E+00  0.88000000000E+00 0.  1.
        -11    1    4    4    0    0  0.46202468829E-02 -0.25191604225E-02 -0.10039766928E+00  0.10053678913E+00  0.51100000000E-03 0.  1.
         11    1    4    4    0    0  0.61366731182E-02 -0.10484447102E-01 -0.28693619891E-01  0.31163557747E-01  0.51100000000E-03 0. -1.
</event>
<event>
 8    1  0.1041149E+005  0.1043930E+01  0.7957747E-01            NaN
         13   -1    0    0    0    0  0.00000000000E+00  0.00000000000E+00  0.74505805969E-08  0.10566000000E+00  0.10566000000E+00 0.  1.
     999900   -1    0    0    0    0 -0.00000000000E+00 -0.00000000000E+00 -0.74505805969E-08  0.93827000000E+00  0.93827000000E+00 0. -1.
     999902    2    1    2    0    0 -0.25978108698E-01  0.84404041148E-02 -0.74194420427E-02  0.10156253948E+01  0.10152309057E+01 0.  0.
     999903    2    3    3    0    0  0.30722980140E-01  0.10153898549E-01 -0.12042845451E+00  0.12658715807E+00  0.21778263660E-01 0.  0.
         14    1    1    2    0    0  0.25978108698E-01 -0.84404041148E-02  0.74194420427E-02  0.28304605162E-01  0.00000000000E+00 0.  1.
     999901    1    3    3    0    0 -0.56701088838E-01 -0.17134944341E-02  0.11300901247E+00  0.88903823677E+00  0.88000000000E+00 0.  1.
        -11    1    4    4    0    0  0.25644484143E-01  0.13734586277E-03 -0.62161771293E-01  0.67245857583E-01  0.51100000000E-03 0. -1.
         11    1    4    4    0    0  0.50784959976E-02  0.10016552686E-01 -0.58266683217E-01  0.59341300486E-01  0.51100000000E-03 0.  1.
</event>
<event>
 8    1  0.1041149E+005  0.1043930E+01  0.7957747E-01            NaN
         13   -1    0    0    0    0  0.00000000000E+00  0.00000000000E+00  0.74505805969E-08  0.10566000000E+00  0.10566000000E+00 0.  1.
     999900   -1    0    0    0    0 -0.00000000000E+00 -0.00000000000E+00 -0.74505805969E-08  0.93827000000E+00  0.93827000000E+00 0.  1.
     999902    2    1    2    0    0 -0.19137384522E-01 -0.14907744627E-01  0.36904455405E-02  0.10193922796E+01  0.10190969139E+01 0.  0.
     999903    2    3    3    0    0 -0.59195627382E-01 -0.99280809022E-01  0.61643416913E-01  0.13255406223E+00  0.20245177813E-01 0.  0.
         14    1    1    2    0    0  0.19137384522E-01  0.14907744627E-01 -0.36904455405E-02  0.24537720442E-01  0.00000000000E+00 0. -1.
     999901    1    3    3    0    0  0.40058242860E-01  0.84373064395E-01 -0.57952971373E-01  0.88683821732E+00  0.88000000000E+00 0.  1.
        -11    1    4    4    0    0 -0.24325152885E-01 -0.24190258960E-01  0.14213857723E-01  0.37137266510E-01  0.51100000000E-03 0.  1.
         11    1    4    4    0    0 -0.34870474496E-01 -0.75090550062E-01  0.47429559190E-01  0.95416795724E-01  0.51100000000E-03 0. -1.
</event>
<event>
 8    1  0.1041149E+005  0.1043930E+01  0.7957747E-01            NaN
         13   -1    0    0    0    0  0.00000000000E+00  0.00000000000E+00  0.74505805969E-08  0.10566000000E+00  0.10566000000E+00 0. -1.
     999900   -1    0    0    0    0 -0.00000000000E+00 -0.00000000000E+00 -0.74505805969E-08  0.93827000000E+00  0.93827000000E+00 0. -1.
     999902    2    1    2    0    0  0.70011104509E-02  0.84024776236E-02 -0.21021751939E-01  0.10202333498E+01  0.10199581152E+01 0.  0.
     999903    2    3    3    0    0  0.52259397639E-02  0.68086957363E-01 -0.11297901425E+00  0.13342924150E+00  0.19389703836E-01 0.  0.
         14    1    1    2    0    0 -0.70011104509E-02 -0.84024776236E-02  0.21021751939E-01  0.23696650235E-01  0.00000000000E+00 0. -1.
     999901    1    3    3    0    0  0.17751706870E-02 -0.59684479740E-01  0.91957262315E-01  0.88680410827E+00  0.88000000000E+00 0.  1.
        -11    1    4    4    0    0  0.11637084578E-01  0.48717285774E-01 -0.87031135407E-01  0.10041650921E+00  0.51100000000E-03 0.  1.
         11    1    4    4    0    0 -0.64111448141E-02  0.19369671590E-01 -0.25947878847E-01  0.33012732286E-01  0.51100000000E-03 0. -1.
</event>
<event>
 8    1  0.1041149E+005  0.1043930E+01  0.7957747E-01            NaN
         13   -1    0    0    0    0  0.00000000000E+00  0.00000000000E+00  0.74505805969E-08  0.10566000000E+00  0.10566000000E+00 0.  1.
     999900   -1    0    0    0    0 -0.00000000000E+00 -0.00000000000E+00 -0.74505805969E-08  0.93827000000E+00  0.93827000000E+00 0.  1.
     999902    2    1    2    0    0  0.15939531778E-01 -0.88872398977E-02 -0.15831517943E-01  0.10197703504E+01  0.10194841239E+01 0.  0.
     999903    2    3    3    0    0 -0.93151585852E-01  0.83789893343E-01 -0.24781112539E-01  0.12815943855E+00  0.10619509248E-01 0.  0.
         14    1    1    2    0    0 -0.15939531778E-01  0.88872398977E-02  0.15831517943E-01  0.24159649556E-01  0.00000000000E+00 0.  1.
     999901    1    3    3    0    0  0.10909111763E+00 -0.92677133241E-01  0.89495945961E-02  0.89161091190E+00  0.88000000000E+00 0. -1.
        -11    1    4    4    0    0 -0.22228673265E-01  0.25488219899E-01 -0.43521194100E-02  0.34102277536E-01  0.51100000000E-03 0. -1.
         11    1    4    4    0    0 -0.70922912587E-01  0.58301673444E-01 -0.20428993129E-01  0.94057161011E-01  0.51100000000E-03 0.  1.
</event>
<event>
 8    1  0.1041149E+005  0.1043930E+01  0.7957747E-01            NaN
         13   -1    0    0    0    0  0.00000000000E+00  0.00000000000E+00  0.74505805969E-08  0.10566000000E+00  0.10566000000E+00 0.  1.
     999900   -1    0    0    0    0 -0.00000000000E+00 -0.00000000000E+00 -0.74505805969E-08  0.93827000000E+00  0.93827000000E+00 0. -1.
     999902    2    1    2    0    0  0.10081941998E-01  0.21819234020E-01  0.16922214672E-03  0.10198935035E+01  0.10196102223E+01 0.  0.
     999903    2    3    3    0    0 -0.59404791897E-01  0.11208016950E+00 -0.31088890378E-01  0.13200132972E+00  0.19155632301E-01 0.  0.
         14    1    1    2    0    0 -0.10081941998E-01 -0.21819234020E-01 -0.16922214672E-03  0.24036496497E-01  0.00000000000E+00 0. -1.
     999901    1    3    3    0    0  0.69486733895E-01 -0.90260935478E-01  0.31258112525E-01  0.88789217378E+00  0.88000000000E+00 0. -1.
        -11    1    4    4    0    0 -0.15305050738E-01  0.14972419034E-01 -0.23608324545E-02  0.21546520849E-01  0.51100000000E-03 0. -1.
         11    1    4    4    0    0 -0.44099741159E-01  0.97107750464E-01 -0.28728057923E-01  0.11045480887E+00  0.51100000000E-03 0.  1.
</event>
<event>
 8    1  0.1041149E+005  0.1043930E+01  0.7957747E-01            NaN
         13   -1    0    0    0    0  0.00000000000E+00  0.00000000000E+00  0.74505805969E-08  0.10566000000E+00  0.10566000000E+00 0.  1.
     999900   -1    0    0    0    0 -0.00000000000E+00 -0.00000000000E+00 -0.74505805969E-08  0.93827000000E+00  0.93827000000E+00 0.  1.
     999902    2    1    2    0    0 -0.17599260347E-01  0.85926678510E-02  0.13236792465E-01  0.10202914599E+01  0.10200175893E+01 0.  0.
     999903    2    3    3    0    0 -0.73922468440E-01  0.78231211601E-01  0.76378855317E-01  0.13349455489E+00  0.20060230247E-01 0.  0.
         14    1    1    2    0    0  0.17599260347E-01 -0.85926678510E-02 -0.13236792465E-01  0.23638540148E-01  0.00000000000E+00 0.  1.
     999901    1    3    3    0    0  0.56323208093E-01 -0.69638543750E-01 -0.63142062852E-01  0.88679690496E+00  0.88000000000E+00 0.  1.
        -11    1    4    4    0    0 -0.46047415309E-01  0.40142522131E-01  0.33233887373E-01  0.69545229388E-01  0.51100000000E-03 0. -1.
         11    1    4    4    0    0 -0.27875053130E-01  0.38088689470E-01  0.43144967944E-01  0.63949325504E-01  0.51100000000E-03 0.  1.
</event>
<event>
 8    1  0.1041149E+005  0.1043930E+01  0.7957747E-01            NaN
         13   -1    0    0    0    0  0.00000000000E+00  0.00000000000E+00  0.74505805969E-08  0.10566000000E+00  0.10566000000E+00 0. -1.
     999900   -1    0    0    0    0 -0.00000000000E+00 -0.00000000000E+00 -0.74505805969E-08  0.93827000000E+00  0.93827000000E+00 0. -1.
     999902    2    1    2    0    0 -0.29882638757E-02 -0.36553018396E-02 -0.23401974142E-01  0.10200565137E+01  0.10197771070E+01 0.  0.
     999903    2    3    3    0    0  0.10702941240E-01 -0.12409268667E+00 -0.38000648099E-01  0.13162771297E+00  0.19190042461E-01 0.  0.
         14    1    1    2    0    0  0.29882638757E-02  0.36553018396E-02  0.23401974142E-01  0.23873486261E-01  0.00000000000E+00 0. -1.
     999901    1    3    3    0    0 -0.13691205116E-01  0.12043738483E+00  0.14598673957E-01  0.88842880077E+00  0.88000000000E+00 0. -1.
        -11    1    4    4    0    0 -0.54805677580E-02 -0.37025575716E-01 -0.99663251573E-02  0.38736528474E-01  0.51100000000E-03 0.  1.
         11    1    4    4    0    0  0.16183508998E-01 -0.87067110949E-01 -0.28034322942E-01  0.92891184492E-01  0.51100000000E-03 0. -1.
</event>
<event>
 8    1  0.1041149E+005  0.1043930E+01  0.7957747E-01            NaN
         13   -1    0    0    0    0  0.00000000000E+00  0.00000000000E+00  0.74505805969E-08  0.10566000000E+00  0.10566000000E+00 0.  1.
     999900   -1    0    0    0    0 -0.00000000000E+00 -0.00000000000E+00 -0.74505805969E-08  0.93827000000E+00  0.93827000000E+00 0. -1.
     999902    2    1    2    0    0  0.25566631990E-03 -0.22260703588E-02 -0.24125842165E-01  0.10197003278E+01  0.10194124197E+01 0.  0.
     999903    2    3    3    0    0  0.38560833453E-01 -0.42231151530E-01  0.11200677418E+00  0.12751212928E+00  0.21057483624E-01 0.  0.
         14    1    1    2    0    0 -0.25566631990E-03  0.22260703588E-02  0.24125842165E-01  0.24229672195E-01  0.00000000000E+00 0.  1.
     999901    1    3    3    0    0 -0.38305167134E-01  0.40005081171E-01 -0.13613261634E+00  0.89218819852E+00  0.88000000000E+00 0. -1.
        -11    1    4    4    0    0  0.33595367242E-01 -0.38445370199E-01  0.80050644814E-01  0.94947680571E-01  0.51100000000E-03 0.  1.
         11    1    4    4    0    0  0.49654662119E-02 -0.37857813308E-02  0.31956129364E-01  0.32564448712E-01  0.51100000000E-03 0. -1.
</event>
<event>
 7    1  0.1041149E+005  0.1043930E+01  0.7957747E-01            NaN
         13   -1    0    0    0    0  0.00000000000E+00  0.00000000000E+00  0.74505805969E-08  0.10566000000E+00  0.10566000000E+00 0.  1.
     999900   -1    0    0    0    0 -0.00000000000E+00 -0.00000000000E+00 -0.74505805969E-08  0.93827000000E+00  0.93827000000E+00 0.  1.
     999903    2    1    2    0    0  0.47157427780E-01  0.62125737066E-01  0.58530334104E-01  0.99803914936E-01  0.21250675884E-01 0.  0.
         14    1    1    2    0    0 -0.30432651994E-01 -0.52342114218E-01  0.95032493538E-02  0.61287478138E-01  0.00000000000E+00 0.  1.
     999901    1    1    2    0    0 -0.16724775786E-01 -0.97836228477E-02 -0.68033583457E-01  0.88283860693E+00  0.88000000000E+00 0.  1.
        -11    1    3    3    0    0  0.13467983530E-01  0.20361805044E-01  0.69865474609E-02  0.25398083617E-01  0.51100000000E-03 0.  1.
         11    1    3    3    0    0  0.33689444249E-01  0.41763932022E-01  0.51543786643E-01  0.74405831319E-01  0.51100000000E-03 0. -1.
</event>
<event>
 8    1  0.1041149E+005  0.1043930E+01  0.7957747E-01            NaN
         13   -1    0    0    0    0  0.00000000000E+00  0.00000000000E+00  0.74505805969E-08  0.10566000000E+00  0.10566000000E+00 0.  1.
     999900   -1    0    0    0    0 -0.00000000000E+00 -0.00000000000E+00 -0.74505805969E-08  0.93827000000E+00  0.93827000000E+00 0. -1.
     999902    2    1    2    0    0  0.82999589357E-03  0.65796192544E-02  0.23347173511E-01  0.10196592193E+01  0.10193703217E+01 0.  0.
     999903    2    3    3    0    0 -0.77248951134E-01 -0.34686955475E-01  0.10005491713E+00  0.13191864345E+00  0.14864612852E-01 0.  0.
         14    1    1    2    0    0 -0.82999589357E-03 -0.65796192544E-02 -0.23347173511E-01  0.24270780656E-01  0.00000000000E+00 0. -1.
     999901    1    3    3    0    0  0.78078947027E-01  0.41266574730E-01 -0.76707743623E-01  0.88774057590E+00  0.88000000000E+00 0. -1.
        -11    1    4    4    0    0 -0.10773244480E-01 -0.10054441354E-01  0.21883384277E-01  0.26387463235E-01  0.51100000000E-03 0.  1.
         11    1    4    4    0    0 -0.66475706653E-01 -0.24632514121E-01  0.78171532857E-01  0.10553118021E+00  0.51100000000E-03 0. -1.
</event>
<event>
 8    1  0.1041149E+005  0.1043930E+01  0.7957747E-01            NaN
         13   -1    0    0    0    0  0.00000000000E+00  0.00000000000E+00  0.74505805969E-08  0.10566000000E+00  0.10566000000E+00 0. -1.
     999900   -1    0    0    0    0 -0.00000000000E+00 -0.00000000000E+00 -0.74505805969E-08  0.93827000000E+00  0.93827000000E+00 0.  1.
     999902    2    1    2    0    0  0.91794785274E-02  0.13764923011E-01 -0.17922276365E-01  0.10195385277E+01  0.10192467147E+01 0.  0.
     999903    2    3    3    0    0  0.69204734607E-01 -0.98316625355E-01  0.40519372965E-01  0.12848256355E+00  0.20260686978E-01 0.  0.
         14    1    1    2    0    0 -0.91794785274E-02 -0.13764923011E-01  0.17922276365E-01  0.24391472314E-01  0.00000000000E+00 0. -1.
     999901    1    3    3    0    0 -0.60025256080E-01  0.11208154837E+00 -0.58441649330E-01  0.89105596414E+00  0.88000000000E+00 0.  1.
        -11    1    4    4    0    0  0.51227720240E-01 -0.55859513515E-01  0.26384831512E-01  0.80255747620E-01  0.51100000000E-03 0. -1.
         11    1    4    4    0    0  0.17977014368E-01 -0.42457111840E-01  0.14134541452E-01  0.48226815927E-01  0.51100000000E-03 0.  1.
</event>
<event>
 8    1  0.1041149E+005  0.1043930E+01  0.7957747E-01            NaN
         13   -1    0    0    0    0  0.00000000000E+00  0.00000000000E+00  0.74505805969E-08  0.10566000000E+00  0.10566000000E+00 0.  1.
     999900   -1    0    0    0    0 -0.00000000000E+00 -0.00000000000E+00 -0.74505805969E-08  0.93827000000E+00  0.93827000000E+00 0. -1.
     999902    2    1    2    0    0  0.24704190890E-02 -0.20503903140E-01  0.12680908082E-01  0.10196953462E+01  0.10194073183E+01 0.  0.
     999903    2    3    3    0    0 -0.42125161674E-01  0.10538531383E+00 -0.53529390636E-01  0.12715926043E+00  0.20578829724E-01 0.  0.
         14    1    1    2    0    0 -0.24704190890E-02  0.20503903140E-01 -0.12680908082E-01  0.24234653788E-01  0.00000000000E+00 0. -1.
     999901    1    3    3    0    0  0.44595580763E-01 -0.12588921697E+00  0.66210298717E-01  0.89253608579E+00  0.88000000000E+00 0. -1.
        -11    1    4    4    0    0 -0.39261892769E-01  0.96332925216E-01 -0.54779139655E-01  0.11756931558E+00  0.51100000000E-03 0. -1.
         11    1    4    4    0    0 -0.28632689057E-02  0.90523886152E-02  0.12497490193E-02  0.95899448422E-02  0.51100000000E-03 0.  1.
</event>
<event>
 8    1  0.1041149E+005  0.1043930E+01  0.7957747E-01            NaN
         13   -1    0    0    0    0  0.00000000000E+00  0.00000000000E+00  0.74505805969E-08  0.10566000000E+00  0.10566000000E+00 0.  1.
     999900   -1    0    0    0    0 -0.00000000000E+00 -0.00000000000E+00 -0.74505805969E-08  0.93827000000E+00  0.93827000000E+00 0. -1.
     999902    2    1    2    0    0  0.19674104344E-01  0.68562799796E-02 -0.11097202940E-01  0.10203243467E+01  0.10200512465E+01 0.  0.
     999903    2    3    3    0    0 -0.23249019879E-01  0.26754333078E-01 -0.12526604949E+00  0.13168895875E+00  0.19851635638E-01 0.  0.
         14    1    1    2    0    0 -0.19674104344E-01 -0.68562799796E-02  0.11097202940E-01  0.23605653348E-01  0.00000000000E+00 0.  1.
     999901    1    3    3    0    0  0.42923124222E-01 -0.19898053098E-01  0.11416884655E+00  0.88863538790E+00  0.88000000000E+00 0.  1.
        -11    1    4    4    0    0 -0.10973753849E-01  0.16442998647E-01 -0.36762438741E-01  0.41743664204E-01  0.51100000000E-03 0. -1.
         11    1    4    4    0    0 -0.12275266029E-01  0.10311334431E-01 -0.88503610751E-01  0.89945294545E-01  0.51100000000E-03 0.  1.
</event>
<event>
 8    1  0.1041149E+005  0.1043930E+01  0.7957747E-01            NaN
         13   -1    0    0    0    0  0.00000000000E+00  0.00000000000E+00  0.74505805969E-08  0.10566000000E+00  0.10566000000E+00 0.  1.
     999900   -1    0    0    0    0 -0.00000000000E+00 -0.00000000000E+00 -0.74505805969E-08  0.93827000000E+00  0.93827000000E+00 0. -1.
     999902    2    1    2    0    0  0.30726602377E-01  0.40081586197E-02 -0.96662781482E-02  0.10114703888E+01  0.10109494156E+01 0.  0.
     999903    2    3    3    0    0 -0.10632324263E-01 -0.98452478467E-01 -0.69208106393E-01  0.12256433507E+00  0.20647455164E-01 0.  0.
         14    1    1    2    0    0 -0.30726602377E-01 -0.40081586197E-02  0.96662781482E-02  0.32459611248E-01  0.00000000000E+00 0. -1.
     999901    1    3    3    0    0  0.41358926639E-01  0.10246063709E+00  0.59541828244E-01  0.88890605368E+00  0.88000000000E+00 0. -1.
        -11    1    4    4    0    0 -0.64624260612E-02 -0.59408762857E-01 -0.29233485885E-01  0.66528353901E-01  0.51100000000E-03 0. -1.
         11    1    4    4    0    0 -0.41698982014E-02 -0.39043715610E-01 -0.39974620508E-01  0.56035981167E-01  0.51100000000E-03 0.  1.
</event>
<event>
 8    1  0.1041149E+005  0.1043930E+01  0.7957747E-01            NaN
         13   -1    0    0    0    0  0.00000000000E+00  0.00000000000E+00  0.74505805969E-08  0.10566000000E+00  0.10566000000E+00 0. -1.
     999900   -1    0    0    0    0 -0.00000000000E+00 -0.00000000000E+00 -0.74505805969E-08  0.93827000000E+00  0.93827000000E+00 0.  1.
     999902    2    1    2    0    0 -0.22125915479E-01 -0.21704428146E-02  0.81352747448E-02  0.10202561821E+01  0.10199814839E+01 0.  0.
     999903    2    3    3    0    0  0.35542559808E-01  0.84169892610E-01 -0.88952041349E-01  0.12884928653E+00  0.18488607282E-01 0.  0.
         14    1    1    2    0    0  0.22125915479E-01  0.21704428146E-02 -0.81352747448E-02  0.23673817879E-01  0.00000000000E+00 0.  1.
     999901    1    3    3    0    0 -0.57668475287E-01 -0.86340335424E-01  0.97087316094E-01  0.89140689559E+00  0.88000000000E+00 0. -1.
        -11    1    4    4    0    0  0.29512701763E-01  0.46924770937E-01 -0.54957662857E-01  0.78061126821E-01  0.51100000000E-03 0.  1.
         11    1    4    4    0    0  0.60298580447E-02  0.37245121673E-01 -0.33994378492E-01  0.50788159708E-01  0.51100000000E-03 0. -1.
</event>
<event>
 8    1  0.1041149E+005  0.1043930E+01  0.7957747E-01            NaN
         13   -1    0    0    0    0  0.00000000000E+00  0.00000000000E+00  0.74505805969E-08  0.10566000000E+00  0.10566000000E+00 0.  1.
     999900   -1    0    0    0    0 -0.00000000000E+00 -0.00000000000E+00 -0.74505805969E-08  0.93827000000E+00  0.93827000000E+00 0. -1.
     999902    2    1    2    0    0 -0.20735075625E-01  0.26028558126E-02 -0.88079543483E-02  0.10212518546E+01  0.10210000256E+01 0.  0.
     999903    2    3    3    0    0  0.79679243021E-01  0.49587131890E-01 -0.88717548202E-01  0.13070365220E+00  0.20124013557E-01 0.  0.
         14    1    1    2    0    0  0.20735075625E-01 -0.26028558126E-02  0.88079543483E-02  0.22678145413E-01  0.00000000000E+00 0.  1.
     999901    1    3    3    0    0 -0.10041431865E+00 -0.46984276077E-01  0.79909593854E-01  0.89054820239E+00  0.88000000000E+00 0.  1.
        -11    1    4    4    0    0  0.51334444582E-01  0.31231059846E-01 -0.43120764573E-01  0.73961244973E-01  0.51100000000E-03 0. -1.
         11    1    4    4    0    0  0.28344798439E-01  0.18356072044E-01 -0.45596783629E-01  0.56742407225E-01  0.51100000000E-03 0.  1.
</event>
<event>
 8    1  0.1041149E+005  0.1043930E+01  0.7957747E-01            NaN
         13   -1    0    0    0    0  0.00000000000E+00  0.00000000000E+00  0.74505805969E-08  0.10566000000E+00  0.10566000000E+00 0. -1.
     999900   -1    0    0    0    0 -0.00000000000E+00 -0.00000000000E+00 -0.74505805969E-08  0.93827000000E+00  0.93827000000E+00 0.  1.
     999902    2    1    2    0    0  0.13599049801E-01  0.86568275617E-02 -0.22128639344E-01  0.10165520618E+01  0.10161833215E+01 0.  0.
     999903    2    3    3    0    0  0.11082929282E+00 -0.54717186168E-01  0.24310109632E-01  0.12771768852E+00  0.21064755429E-01 0.  0.
         14    1    1    2    0    0 -0.13599049801E-01 -0.86568275617E-02  0.22128639344E-01  0.27377938165E-01  0.00000000000E+00 0. -1.
     999901    1    3    3    0    0 -0.97230243024E-01  0.63374013729E-01 -0.46438748976E-01  0.88883437331E+00  0.88000000000E+00 0.  1.
        -11    1    4    4    0    0  0.63293181142E-01 -0.27468564852E-01  0.34433490127E-02  0.69084488907E-01  0.51100000000E-03 0.  1.
         11    1    4    4    0    0  0.47536111683E-01 -0.27248621316E-01  0.20866760619E-01  0.58633199617E-01  0.51100000000E-03 0. -1.
</event>
<event>
 8    1  0.1041149E+005  0.1043930E+01  0.7957747E-01            NaN
         13   -1    0    0    0    0  0.00000000000E+00  0.00000000000E+00  0.74505805969E-08  0.10566000000E+00  0.10566000000E+00 0.  1.
     999900   -1    0    0    0    0 -0.00000000000E+00 -0.00000000000E+00 -0.74505805969E-08  0.93827000000E+00  0.93827000000E+00 0.  1.
     999902    2    1    2    0    0 -0.24637137304E-01  0.22049095939E-02  0.99326780808E-03  0.10191744604E+01  0.10188737625E+01 0.  0.
     999903    2    3    3    0    0  0.10964910174E+00 -0.22577767264E-01  0.55899502067E-01  0.12695157924E+00  0.21430540242E-01 0.  0.
         14    1    1    2    0    0  0.24637137304E-01 -0.22049095939E-02 -0.99326780808E-03  0.24755539618E-01  0.00000000000E+00 0.  1.
     999901    1    3    3    0    0 -0.13428623904E+00  0.24782676858E-01 -0.54906234259E-01  0.89222288114E+00  0.88000000000E+00 0.  1.
        -11    1    4    4    0    0  0.70644064893E-01 -0.48002107784E-02  0.30283278574E-01  0.77012752258E-01  0.51100000000E-03 0. -1.
         11    1    4    4    0    0  0.39005036842E-01 -0.17777556486E-01  0.25616223492E-01  0.49938826986E-01  0.51100000000E-03 0.  1.
</event>
<event>
 8    1  0.1041149E+005  0.1043930E+01  0.7957747E-01            NaN
         13   -1    0    0    0    0  0.00000000000E+00  0.00000000000E+00  0.74505805969E-08  0.10566000000E+00  0.10566000000E+00 0.  1.
     999900   -1    0    0    0    0 -0.00000000000E+00 -0.00000000000E+00 -0.74505805969E-08  0.93827000000E+00  0.93827000000E+00 0.  1.
     999902    2    1    2    0    0  0.43867947754E-03  0.20452027036E-01 -0.13911740143E-01  0.10191910759E+01  0.10188907866E+01 0.  0.
     999903    2    3    3    0    0 -0.92633605793E-01  0.73504786173E-01 -0.55312271976E-01  0.13172780934E+00  0.17573554275E-01 0.  0.
         14    1    1    2    0    0 -0.43867947754E-03 -0.20452027036E-01  0.13911740143E-01  0.24738924054E-01  0.00000000000E+00 0.  1.
     999901    1    3    3    0    0  0.93072285270E-01 -0.53052759138E-01  0.41400531833E-01  0.88746326661E+00  0.88000000000E+00 0. -1.
        -11    1    4    4    0    0 -0.98467973922E-02  0.11741522727E-01 -0.19114499996E-02  0.15451133840E-01  0.51100000000E-03 0.  1.
         11    1    4    4    0    0 -0.82786808401E-01  0.61763263446E-01 -0.53400821976E-01  0.11627667550E+00  0.51100000000E-03 0. -1.
</event>
<event>
 8    1  0.1041149E+005  0.1043930E+01  0.7957747E-01            NaN
         13   -1    0    0    0    0  0.00000000000E+00  0.00000000000E+00  0.74505805969E-08  0.10566000000E+00  0.10566000000E+00 0. -1.
     999900   -1    0    0    0    0 -0.00000000000E+00 -0.00000000000E+00 -0.74505805969E-08  0.93827000000E+00  0.93827000000E+00 0. -1.
     999902    2    1    2    0    0 -0.20641033233E-01  0.95912596823E-02  0.53374109107E-02  0.10205519661E+01  0.10202841678E+01 0.  0.
     999903    2    3    3    0    0  0.75773168415E-01 -0.52084919232E-01 -0.86218282460E-01  0.12842972427E+00  0.24620925705E-01 0.  0.
         14    1    1    2    0    0  0.20641033233E-01 -0.95912596823E-02 -0.53374109107E-02  0.23378033931E-01  0.00000000000E+00 0. -1.
     999901    1    3    3    0    0 -0.96414201648E-01  0.61676178914E-01  0.91555693371E-01  0.89212224180E+00  0.88000000000E+00 0.  1.
        -11    1    4    4    0    0  0.19272300013E-01 -0.16147214521E-01 -0.39328981935E-01  0.46681731176E-01  0.51100000000E-03 0. -1.
         11    1    4    4    0    0  0.56500868402E-01 -0.35937704710E-01 -0.46889300525E-01  0.81747993093E-01  0.51100000000E-03 0.  1.
</event>
<event>
 8    1  0.1041149E+005  0.1043930E+01  0.7957747E-01            NaN
         13   -1    0    0    0    0  0.00000000000E+00  0.00000000000E+00  0.74505805969E-08  0.10566000000E+00  0.10566000000E+00 0. -1.
     999900   -1    0    0    0    0 -0.00000000000E+00 -0.00000000000E+00 -0.74505805969E-08  0.93827000000E+00  0.93827000000E+00 0.  1.
     999902    2    1    2    0    0  0.20250387807E-01  0.29506461001E-02 -0.10731899836E-01  0.10208224646E+01  0.10205608977E+01 0.  0.
     999903    2    3    3    0    0  0.54690902916E-01 -0.86448344800E-01 -0.82187659405E-01  0.13274349612E+00  0.20040290014E-01 0.  0.
         14    1    1    2    0    0 -0.20250387807E-01 -0.29506461001E-02  0.10731899836E-01  0.23107535412E-01  0.00000000000E+00 0.  1.
     999901    1    3    3    0    0 -0.34440515109E-01  0.89398990900E-01  0.71455759569E-01  0.88807896847E+00  0.88000000000E+00 0. -1.
        -11    1    4    4    0    0  0.19144117143E-01 -0.17385568386E-01 -0.14146364578E-01  0.29481111937E-01  0.51100000000E-03 0. -1.
         11    1    4    4    0    0  0.35546785773E-01 -0.69062776414E-01 -0.68041294827E-01  0.10326238419E+00  0.51100000000E-03 0.  1.
</event>
<event>
 8    1  0.1041149E+005  0.1043930E+01  0.7957747E-01            NaN
         13   -1    0    0    0    0  0.00000000000E+00  0.00000000000E+00  0.74505805969E-08  0.10566000000E+00  0.10566000000E+00 0.  1.
     999900   -1    0    0    0    0 -0.00000000000E+00 -0.00000000000E+00 -0.74505805969E-08  0.93827000000E+00  0.93827000000E+00 0. -1.
     999902    2    1    2    0    0 -0.12762595387E-01  0.92013557519E-02 -0.17103364158E-01  0.10206905109E+01  0.10204259136E+01 0.  0.
     999903    2    3    3    0    0 -0.36040124580E-01  0.61088630820E-01 -0.11151941927E+00  0.13381480136E+00  0.20954922897E-01 0.  0.
         14    1    1    2    0    0  0.12762595387E-01 -0.92013557519E-02  0.17103364158E-01  0.23239489112E-01  0.00000000000E+00 0.  1.
     999901    1    3    3    0    0  0.23277529192E-01 -0.51887275068E-01  0.94416055117E-01  0.88687570952E+00  0.88000000000E+00 0.  1.
        -11    1    4    4    0    0 -0.32130311508E-01  0.62062994739E-01 -0.10582796479E+00  0.12682267734E+00  0.51100000000E-03 0.  1.
         11    1    4    4    0    0 -0.39098130714E-02 -0.97436391909E-03 -0.56914544807E-02  0.69921240268E-02  0.51100000000E-03 0. -1.
</event>
<event>
 8    1  0.1041149E+005  0.1043930E+01  0.7957747E-01            NaN
         13   -1    0    0    0    0  0.00000000000E+00  0.00000000000E+00  0.74505805969E-08  0.10566000000E+00  0.10566000000E+00 0. -1.
     999900   -1    0    0    0    0 -0.00000000000E+00 -0.00000000000E+00 -0.74505805969E-08  0.93827000000E+00  0.93827000000E+00 0. -1.
     999902    2    1    2    0    0 -0.25029785685E-02 -0.23337663227E-01 -0.26725840969E-02  0.10203068306E+01  0.10200333203E+01 0.  0.
     999903    2    3    3    0    0  0.64814626060E-01  0.83911258364E-01  0.69558030057E-01  0.12831397598E+00  0.19599026897E-01 0.  0.
         14    1    1    2    0    0  0.25029785685E-02  0.23337663227E-01  0.26725840969E-02  0.23623169397E-01  0.00000000000E+00 0. -1.
     999901    1    3    3    0    0 -0.67317604628E-01 -0.10724892159E+00 -0.72230614154E-01  0.89199285462E+00  0.88000000000E+00 0. -1.
        -11    1    4    4    0    0  0.53120432365E-02  0.19127369337E-01  0.13128100282E-01  0.23805087673E-01  0.51100000000E-03 0. -1.
         11    1    4    4    0    0  0.59502582823E-01  0.64783889026E-01  0.56429929775E-01  0.10450888831E+00  0.51100000000E-03 0.  1.
</event>
<event>
 8    1  0.1041149E+005  0.1043930E+01  0.7957747E-01            NaN
         13   -1    0    0    0    0  0.00000000000E+00  0.00000000000E+00  0.74505805969E-08  0.10566000000E+00  0.10566000000E+00 0. -1.
     999900   -1    0    0    0    0 -0.00000000000E+00 -0.00000000000E+00 -0.74505805969E-08  0.93827000000E+00  0.93827000000E+00 0.  1.
     999902    2    1    2    0    0 -0.20336503558E-01 -0.54291807677E-02 -0.10311515500E-01  0.10204912131E+01  0.10202220049E+01 0.  0.
     999903    2    3    3    0    0  0.82727260118E-01  0.80438622437E-01 -0.54856916798E-01  0.12921139630E+00  0.19290724888E-01 0.  0.
         14    1    1    2    0    0  0.20336503558E-01  0.54291807677E-02  0.10311515500E-01  0.23438786929E-01  0.00000000000E+00 0. -1.
     999901    1    3    3    0    0 -0.10306376368E+00 -0.85867803204E-01  0.44545401298E-01  0.89127981677E+00  0.88000000000E+00 0. -1.
        -11    1    4    4    0    0  0.22717172228E-01  0.34207292927E-01 -0.22601920334E-01  0.46875545088E-01  0.51100000000E-03 0. -1.
         11    1    4    4    0    0  0.60010087890E-01  0.46231329509E-01 -0.32254996464E-01  0.82335851211E-01  0.51100000000E-03 0.  1.
</event>
<event>
 8    1  0.1041149E+005  0.1043930E+01  0.7957747E-01            NaN
         13   -1    0    0    0    0  0.00000000000E+00  0.00000000000E+00  0.74505805969E-08  0.10566000000E+00  0.10566000000E+00 0. -1.
     999900   -1    0    0    0    0 -0.00000000000E+00 -0.00000000000E+00 -0.74505805969E-08  0.93827000000E+00  0.93827000000E+00 0. -1.
     999902    2    1    2    0    0  0.90868812060E-03  0.15339386032E-02 -0.23823517152E-01  0.10200398629E+01  0.10197600616E+01 0.  0.
     999903    2    3    3    0    0  0.10995298969E+00  0.64240382884E-01  0.17994640655E-01  0.13011204774E+00  0.19719308788E-01 0.  0.
         14    1    1    2    0    0 -0.90868812060E-03 -0.15339386032E-02  0.23823517152E-01  0.23890137112E-01  0.00000000000E+00 0. -1.
     999901    1    3    3    0    0 -0.10904430157E+00 -0.62706444280E-01 -0.41818157807E-01  0.88992781515E+00  0.88000000000E+00 0.  1.
        -11    1    4    4    0    0  0.85644597674E-01  0.55887281356E-01  0.20430408446E-01  0.10428829291E+00  0.51100000000E-03 0. -1.
         11    1    4    4    0    0  0.24308392015E-01  0.83531015276E-02 -0.24357677912E-02  0.25823754824E-01  0.51100000000E-03 0.  1.
</event>
<event>
 8    1  0.1041149E+005  0.1043930E+01  0.7957747E-01            NaN
         13   -1    0    0    0    0  0.00000000000E+00  0.00000000000E+00  0.74505805969E-08  0.10566000000E+00  0.10566000000E+00 0. -1.
     999900   -1    0    0    0    0 -0.00000000000E+00 -0.00000000000E+00 -0.74505805969E-08  0.93827000000E+00  0.93827000000E+00 0. -1.
     999902    2    1    2    0    0 -0.32712332882E-02  0.18354156071E-01  0.16797359266E-01  0.10188356323E+01  0.10185265428E+01 0.  0.
     999903    2    3    3    0    0 -0.14778398740E-01 -0.10569049686E+00 -0.64557024855E-01  0.12634584154E+00  0.20168788321E-01 0.  0.
         14    1    1    2    0    0  0.32712332882E-02 -0.18354156071E-01 -0.16797359266E-01  0.25094367707E-01  0.00000000000E+00 0.  1.
     999901    1    3    3    0    0  0.11507165451E-01  0.12404465293E+00  0.81354384121E-01  0.89248979075E+00  0.88000000000E+00 0.  1.
        -11    1    4    4    0    0 -0.13049145741E-01 -0.36254212984E-01 -0.16711176244E-01  0.42002055856E-01  0.51100000000E-03 0.  1.
         11    1    4    4    0    0 -0.17292529985E-02 -0.69436283872E-01 -0.47845848611E-01  0.84343785688E-01  0.51100000000E-03 0. -1.
</event>
<event>
 8    1  0.1041149E+005  0.1043930E+01  0.7957747E-01            NaN
         13   -1    0    0    0    0  0.00000000000E+00  0.00000000000E+00  0.74505805969E-08  0.10566000000E+00  0.10566000000E+00 0.  1.
     999900   -1    0    0    0    0 -0.00000000000E+00 -0.00000000000E+00 -0.74505805969E-08  0.93827000000E+00  0.93827000000E+00 0.  1.
     999902    2    1    2    0    0  0.17054797921E-01  0.28809719599E-04 -0.18226298861E-01  0.10189687314E+01  0.10186629524E+01 0.  0.
     999903    2    3    3    0    0 -0.89181883758E-01  0.20986069305E-01  0.84762867429E-01  0.12637016109E+00  0.19769937387E-01 0.  0.
         14    1    1    2    0    0 -0.17054797921E-01 -0.28809719599E-04  0.18226298861E-01  0.24961268643E-01  0.00000000000E+00 0.  1.
     999901    1    3    3    0    0  0.10623668168E+00 -0.20957259586E-01 -0.10298916629E+00  0.89259857026E+00  0.88000000000E+00 0.  1.
        -11    1    4    4    0    0 -0.39238873697E-01 -0.27765022038E-03  0.31524974429E-01  0.50337376098E-01  0.51100000000E-03 0.  1.
         11    1    4    4    0    0 -0.49943010061E-01  0.21263719526E-01  0.53237893000E-01  0.76032784995E-01  0.51100000000E-03 0. -1.
</event>
<event>
 8    1  0.1041149E+005  0.1043930E+01  0.7957747E-01            NaN
         13   -1    0    0    0    0  0.00000000000E+00  0.00000000000E+00  0.74505805969E-08  0.10566000000E+00  0.10566000000E+00 0.  1.
     999900   -1    0    0    0    0 -0.00000000000E+00 -0.00000000000E+00 -0.74505805969E-08  0.93827000000E+00  0.93827000000E+00 0. -1.
     999902    2    1    2    0    0  0.12353781644E-01 -0.18025211666E-01 -0.10573668294E-01  0.10196539493E+01  0.10193649247E+01 0.  0.
     999903    2    3    3    0    0  0.10535489732E+00 -0.59309007211E-01 -0.51774133883E-01  0.13283320210E+00  0.18624873590E-01 0.  0.
         14    1    1    2    0    0 -0.12353781644E-01  0.18025211666E-01  0.10573668294E-01  0.24276050702E-01  0.00000000000E+00 0.  1.
     999901    1    3    3    0    0 -0.93001115673E-01  0.41283795546E-01  0.41200465590E-01  0.88682074720E+00  0.88000000000E+00 0.  1.
        -11    1    4    4    0    0  0.11370635411E-01 -0.14869258219E-02 -0.85858394431E-02  0.14334575613E-01  0.51100000000E-03 0. -1.
         11    1    4    4    0    0  0.93984261906E-01 -0.57822081390E-01 -0.43188294440E-01  0.11849862649E+00  0.51100000000E-03 0.  1.
</event>
<event>
 8    1  0.1041149E+005  0.1043930E+01  0.7957747E-01            NaN
         13   -1    0    0    0    0  0.00000000000E+00  0.00000000000E+00  0.74505805969E-08  0.10566000000E+00  0.10566000000E+00 0.  1.
     999900   -1    0    0    0    0 -0.00000000000E+00 -0.00000000000E+00 -0.74505805969E-08  0.93827000000E+00  0.93827000000E+00 0.  1.
     999902    2    1    2    0    0  0.75045426887E-02 -0.17386110636E-01  0.14343423895E-01  0.10201743941E+01  0.10198977721E+01 0.  0.
     999903    2    3    3    0    0 -0.11059001823E+00  0.10233834019E-01 -0.62985553296E-01  0.12849678564E+00  0.14469295245E-01 0.  0.
         14    1    1    2    0    0 -0.75045426887E-02  0.17386110636E-01 -0.14343423895E-01  0.23755605929E-01  0.00000000000E+00 0.  1.
     999901    1    3    3    0    0  0.11809456092E+00 -0.27619944654E-01  0.77328977191E-01  0.89167760843E+00  0.88000000000E+00 0. -1.
        -11    1    4    4    0    0 -0.56442223746E-01  0.49888206912E-02 -0.40396644950E-01  0.69589963339E-01  0.51100000000E-03 0.  1.
         11    1    4    4    0    0 -0.54147794487E-01  0.52450133273E-02 -0.22588908346E-01  0.58906822303E-01  0.51100000000E-03 0. -1.
</event>
<event>
 8    1  0.1041149E+005  0.1043930E+01  0.7957747E-01            NaN
         13   -1    0    0    0    0  0.00000000000E+00  0.00000000000E+00  0.74505805969E-08  0.10566000000E+00  0.10566000000E+00 0.  1.
     999900   -1    0    0    0    0 -0.00000000000E+00 -0.00000000000E+00 -0.74505805969E-08  0.93827000000E+00  0.93827000000E+00 0.  1.
     999902    2    1    2    0    0 -0.99320056467E-02 -0.21839278758E-01  0.24368384342E-02  0.10198149214E+01  0.10195297627E+01 0.  0.
     999903    2    3    3    0    0  0.64751812494E-01  0.67937452583E-02  0.11026404111E+00  0.12963278928E+00  0.20187845361E-01 0.  0.
         14    1    1    2    0    0  0.99320056467E-02  0.21839278758E-01 -0.24368384342E-02  0.24115078569E-01  0.00000000000E+00 0. -1.
     999901    1    3    3    0    0 -0.74683818141E-01 -0.28633024016E-01 -0.10782720267E+00  0.89018213215E+00  0.88000000000E+00 0. -1.
        -11    1    4    4    0    0  0.37646090118E-01  0.11793535907E-01  0.52939736632E-01  0.66024180616E-01  0.51100000000E-03 0.  1.
         11    1    4    4    0    0  0.27105722376E-01 -0.49997906489E-02  0.57324304476E-01  0.63608608668E-01  0.51100000000E-03 0. -1.
</event>
<event>
 8    1  0.1041149E+005  0.1043930E+01  0.7957747E-01            NaN
         13   -1    0    0    0    0  0.00000000000E+00  0.00000000000E+00  0.74505805969E-08  0.10566000000E+00  0.10566000000E+00 0. -1.
     999900   -1    0    0    0    0 -0.00000000000E+00 -0.00000000000E+00 -0.74505805969E-08  0.93827000000E+00  0.93827000000E+00 0.  1.
     999902    2    1    2    0    0  0.36149191462E-03 -0.11460637072E-01  0.20579600902E-01  0.10203716288E+01  0.10200996344E+01 0.  0.
     999903    2    3    3    0    0 -0.11559956588E-01 -0.36207093996E-01  0.12650818908E+00  0.13359354281E+00  0.19958119252E-01 0.  0.
         14    1    1    2    0    0 -0.36149191462E-03  0.11460637072E-01 -0.20579600902E-01  0.23558371162E-01  0.00000000000E+00 0.  1.
     999901    1    3    3    0    0  0.11921448503E-01  0.24746456923E-01 -0.10592858818E+00  0.88677808603E+00  0.88000000000E+00 0.  1.
        -11    1    4    4    0    0 -0.13482052652E-01 -0.10395818302E-01  0.48866477928E-01  0.51749710801E-01  0.51100000000E-03 0.  1.
         11    1    4    4    0    0  0.19220960634E-02 -0.25811275694E-01  0.77641711154E-01  0.81843832010E-01  0.51100000000E-03 0. -1.
</event>
<event>
 8    1  0.1041149E+005  0.1043930E+01  0.7957747E-01            NaN
         13   -1    0    0    0    0  0.00000000000E+00  0.00000000000E+00  0.74505805969E-08  0.10566000000E+00  0.10566000000E+00 0.  1.
     999900   -1    0    0    0    0 -0.00000000000E+00 -0.00000000000E+00 -0.74505805969E-08  0.93827000000E+00  0.93827000000E+00 0.  1.
     999902    2    1    2    0    0  0.16756584733E-01 -0.16553171985E-01 -0.40256537933E-02  0.10200344665E+01  0.10197545373E+01 0.  0.
     999903    2    3    3    0    0  0.92873657012E-01 -0.76509986152E-01  0.52913451971E-01  0.13288696462E+00  0.19488915278E-01 0.  0.
         14    1    1    2    0    0 -0.16756584733E-01  0.16553171985E-01  0.40256537933E-02  0.23895533539E-01  0.00000000000E+00 0.  1.
     999901    1    3    3    0    0 -0.76117072279E-01  0.59956814168E-01 -0.56939105764E-01  0.88714750184E+00  0.88000000000E+00 0.  1.
        -11    1    4    4    0    0  0.76040430322E-01 -0.64419815013E-01  0.51309408296E-01  0.11209360424E+00  0.51100000000E-03 0. -1.
         11    1    4    4    0    0  0.16833226690E-01 -0.12090171140E-01  0.16040436749E-02  0.20793360384E-01  0.51100000000E-03 0.  1.
</event>
<event>
 8    1  0.1041149E+005  0.1043930E+01  0.7957747E-01            NaN
         13   -1    0    0    0    0  0.00000000000E+00  0.00000000000E+00  0.74505805969E-08  0.10566000000E+00  0.10566000000E+00 0.  1.
     999900   -1    0    0    0    0 -0.00000000000E+00 -0.00000000000E+00 -0.74505805969E-08  0.93827000000E+00  0.93827000000E+00 0.  1.
     999902    2    1    2    0    0 -0.23151944484E-01  0.79414827782E-03  0.30333054493E-02  0.10205666923E+01  0.10202992352E+01 0.  0.
     999903    2    3    3    0    0 -0.11308638423E+00  0.16917496464E-01  0.66163398097E-01  0.13358666185E+00  0.19825967642E-01 0.  0.
         14    1    1    2    0    0  0.23151944484E-01 -0.79414827782E-03 -0.30333054493E-02  0.23363307703E-01  0.00000000000E+00 0. -1.
     999901    1    3    3    0    0  0.89934439744E-01 -0.16123348186E-01 -0.63130092647E-01  0.88698003044E+00  0.88000000000E+00 0.  1.
        -11    1    4    4    0    0 -0.46924566229E-01  0.15947008169E-01  0.33243261496E-01  0.59679121485E-01  0.51100000000E-03 0.  1.
         11    1    4    4    0    0 -0.66161817999E-01  0.97048829532E-03  0.32920136601E-01  0.73907540368E-01  0.51100000000E-03 0. -1.
</event>
<event>
 8    1  0.1041149E+005  0.1043930E+01  0.7957747E-01            NaN
         13   -1    0    0    0    0  0.00000000000E+00  0.00000000000E+00  0.74505805969E-08  0.10566000000E+00  0.10566000000E+00 0. -1.
     999900   -1    0    0    0    0 -0.00000000000E+00 -0.00000000000E+00 -0.74505805969E-08  0.93827000000E+00  0.93827000000E+00 0.  1.
     999902    2    1    2    0    0  0.11120867262E-01  0.54605554079E-02 -0.16045287734E-01  0.10236582805E+01  0.10234575382E+01 0.  0.
     999903    2    3    3    0    0  0.21407066864E-01 -0.18038096191E-01 -0.13136594538E+00  0.13576366589E+00  0.19776904313E-01 0.  0.
         14    1    1    2    0    0 -0.11120867262E-01 -0.54605554079E-02  0.16045287734E-01  0.20271719525E-01  0.00000000000E+00 0. -1.
     999901    1    3    3    0    0 -0.10286199602E-01  0.23498651599E-01  0.11532065765E+00  0.88789461459E+00  0.88000000000E+00 0. -1.
        -11    1    4    4    0    0 -0.13663702859E-02 -0.87666290495E-03 -0.40304967276E-01  0.40340885138E-01  0.51100000000E-03 0.  1.
         11    1    4    4    0    0  0.22773437150E-01 -0.17161433286E-01 -0.91060978105E-01  0.95422780752E-01  0.51100000000E-03 0. -1.
</event>
<event>
 8    1  0.1041149E+005  0.1043930E+01  0.7957747E-01            NaN
         13   -1    0    0    0    0  0.00000000000E+00  0.00000000000E+00  0.74505805969E-08  0.10566000000E+00  0.10566000000E+00 0.  1.
     999900   -1    0    0    0    0 -0.00000000000E+00 -0.00000000000E+00 -0.74505805969E-08  0.93827000000E+00  0.93827000000E+00 0.  1.
     999902    2    1    2    0    0 -0.14623804536E-01  0.71174654427E-03  0.18481262816E-01  0.10203520587E+01  0.10200796068E+01 0.  0.
     999903    2    3    3    0    0 -0.10036478471E+00 -0.56231269027E-01  0.64109910043E-01  0.13317902247E+00  0.19787011744E-01 0.  0.
         14    1    1    2    0    0  0.14623804536E-01 -0.71174654427E-03 -0.18481262816E-01  0.23577941333E-01  0.00000000000E+00 0.  1.
     999901    1    3    3    0    0  0.85740980177E-01  0.56943015571E-01 -0.45628647228E-01  0.88717303620E+00  0.88000000000E+00 0.  1.
        -11    1    4    4    0    0 -0.68622967992E-01 -0.27553554892E-01  0.40998852433E-01  0.84554580864E-01  0.51100000000E-03 0.  1.
         11    1    4    4    0    0 -0.31741816721E-01 -0.28677714135E-01  0.23111057610E-01  0.48624441607E-01  0.51100000000E-03 0. -1.
</event>
<event>
 8    1  0.1041149E+005  0.1043930E+01  0.7957747E-01            NaN
         13   -1    0    0    0    0  0.00000000000E+00  0.00000000000E+00  0.74505805969E-08  0.10566000000E+00  0.10566000000E+00 0.  1.
     999900   -1    0    0    0    0 -0.00000000000E+00 -0.00000000000E+00 -0.74505805969E-08  0.93827000000E+00  0.93827000000E+00 0.  1.
     999902    2    1    2    0    0  0.56304137146E-02  0.17430751586E-01 -0.28726758140E-02  0.10253885619E+01  0.10252209118E+01 0.  0.
     999903    2    3    3    0    0  0.85247956401E-01  0.61050230910E-01 -0.85547857347E-01  0.13686349322E+00  0.20465461522E-01 0.  0.
         14    1    1    2    0    0 -0.56304137146E-02 -0.17430751586E-01  0.28726758140E-02  0.18541438072E-01  0.00000000000E+00 0.  1.
     999901    1    3    3    0    0 -0.79617542686E-01 -0.43619479324E-01  0.82675181532E-01  0.88852506871E+00  0.88000000000E+00 0.  1.
        -11    1    4    4    0    0  0.44474151529E-01  0.27318272187E-01 -0.30276631821E-01  0.60342138717E-01  0.51100000000E-03 0.  1.
         11    1    4    4    0    0  0.40773804872E-01  0.33731958722E-01 -0.55271225525E-01  0.76521354504E-01  0.51100000000E-03 0. -1.
</event>
<event>
 8    1  0.1041149E+005  0.1043930E+01  0.7957747E-01            NaN
         13   -1    0    0    0    0  0.00000000000E+00  0.00000000000E+00  0.74505805969E-08  0.10566000000E+00  0.10566000000E+00 0.  1.
     999900   -1    0    0    0    0 -0.00000000000E+00 -0.00000000000E+00 -0.74505805969E-08  0.93827000000E+00  0.93827000000E+00 0.  1.
     999902    2    1    2    0    0  0.33293928764E-02 -0.10184854214E-01  0.10788384156E-01  0.10287245620E+01  0.10286121811E+01 0.  0.
     999903    2    3    3    0    0  0.11947406458E+00 -0.17667758653E-01  0.67145049372E-01  0.13927436533E+00  0.17397970554E-01 0.  0.
         14    1    1    2    0    0 -0.33293928764E-02  0.10184854214E-01 -0.10788384156E-01  0.15205438007E-01  0.00000000000E+00 0. -1.
     999901    1    3    3    0    0 -0.11614467171E+00  0.74829044389E-02 -0.56356665217E-01  0.88945019666E+00  0.88000000000E+00 0.  1.
        -11    1    4    4    0    0  0.61557047862E-01 -0.93364997933E-02  0.44496915013E-01  0.76528928756E-01  0.51100000000E-03 0.  1.
         11    1    4    4    0    0  0.57917016722E-01 -0.83312588601E-02  0.22648134360E-01  0.62745436576E-01  0.51100000000E-03 0. -1.
</event>
<event>
 8    1  0.1041149E+005  0.1043930E+01  0.7957747E-01            NaN
         13   -1    0    0    0    0  0.00000000000E+00  0.00000000000E+00  0.74505805969E-08  0.10566000000E+00  0.10566000000E+00 0. -1.
     999900   -1    0    0    0    0 -0.00000000000E+00 -0.00000000000E+00 -0.74505805969E-08  0.93827000000E+00  0.93827000000E+00 0.  1.
     999902    2    1    2    0    0  0.18660374305E-01  0.11759104695E-01 -0.71651548891E-02  0.10207389337E+01  0.10204754506E+01 0.  0.
     999903    2    3    3    0    0  0.65052074120E-01 -0.14546183995E-01 -0.11309790816E+00  0.13278290648E+00  0.19919829484E-01 0.  0.
         14    1    1    2    0    0 -0.18660374305E-01 -0.11759104695E-01  0.71651548891E-02  0.23191066319E-01  0.00000000000E+00 0.  1.
     999901    1    3    3    0    0 -0.46391699814E-01  0.26305288689E-01  0.10593275327E+00  0.88795602720E+00  0.88000000000E+00 0. -1.
        -11    1    4    4    0    0  0.32158477836E-01  0.29716444747E-03 -0.40584654017E-01  0.51784469353E-01  0.51100000000E-03 0.  1.
         11    1    4    4    0    0  0.32893596283E-01 -0.14843348442E-01 -0.72513254146E-01  0.80998437128E-01  0.51100000000E-03 0. -1.
</event>
<event>
 8    1  0.1041149E+005  0.1043930E+01  0.7957747E-01            NaN
         13   -1    0    0    0    0  0.00000000000E+00  0.00000000000E+00  0.74505805969E-08  0.10566000000E+00  0.10566000000E+00 0.  1.
     999900   -1    0    0    0    0 -0.00000000000E+00 -0.00000000000E+00 -0.74505805969E-08  0.93827000000E+00  0.93827000000E+00 0.  1.
     999902    2    1    2    0    0 -0.23928396244E-02 -0.13300968064E-01  0.19985963581E-01  0.10198036623E+01  0.10195182340E+01 0.  0.
     999903    2    3    3    0    0 -0.34127988124E-01  0.12059507158E+00 -0.18243325575E-01  0.12828992280E+00  0.20435129121E-01 0.  0.
         14    1    1    2    0    0  0.23928396244E-02  0.13300968064E-01 -0.19985963581E-01  0.24126337749E-01  0.00000000000E+00 0. -1.
     999901    1    3    3    0    0  0.31735148499E-01 -0.13389603964E+00  0.38229289156E-01  0.89151373945E+00  0.88000000000E+00 0. -1.
        -11    1    4    4    0    0 -0.27762257468E-01  0.60677241033E-01 -0.94813574647E-02  0.67399019129E-01  0.51100000000E-03 0.  1.
         11    1    4    4    0    0 -0.63657306554E-02  0.59917830542E-01 -0.87619681102E-02  0.60890903671E-01  0.51100000000E-03 0. -1.
</event>
<event>
 8    1  0.1041149E+005  0.1043930E+01  0.7957747E-01            NaN
         13   -1    0    0    0    0  0.00000000000E+00  0.00000000000E+00  0.74505805969E-08  0.10566000000E+00  0.10566000000E+00 0. -1.
     999900   -1    0    0    0    0 -0.00000000000E+00 -0.00000000000E+00 -0.74505805969E-08  0.93827000000E+00  0.93827000000E+00 0.  1.
     999902    2    1    2    0    0  0.16363198339E-02 -0.17287026056E-01  0.16841744932E-01  0.10197398536E+01  0.10194528953E+01 0.  0.
     999903    2    3    3    0    0  0.12293443719E+00 -0.36690186406E-01 -0.14843546799E-01  0.13064274209E+00  0.19701511449E-01 0.  0.
         14    1    1    2    0    0 -0.16363198339E-02  0.17287026056E-01 -0.16841744932E-01  0.24190146440E-01  0.00000000000E+00 0.  1.
     999901    1    3    3    0    0 -0.12129811736E+00  0.19403160350E-01  0.31685291731E-01  0.88909711147E+00  0.88000000000E+00 0. -1.
        -11    1    4    4    0    0  0.11754712425E+00 -0.33651490044E-01 -0.18151019690E-01  0.12361015265E+00  0.51100000000E-03 0. -1.
         11    1    4    4    0    0  0.53873129437E-02 -0.30386963625E-02  0.33074728910E-02  0.70325894421E-02  0.51100000000E-03 0.  1.
</event>
<event>
 8    1  0.1041149E+005  0.1043930E+01  0.7957747E-01            NaN
         13   -1    0    0    0    0  0.00000000000E+00  0.00000000000E+00  0.74505805969E-08  0.10566000000E+00  0.10566000000E+00 0. -1.
     999900   -1    0    0    0    0 -0.00000000000E+00 -0.00000000000E+00 -0.74505805969E-08  0.93827000000E+00  0.93827000000E+00 0. -1.
     999902    2    1    2    0    0  0.37295058787E-02  0.22071675917E-01  0.87502450227E-02  0.10198959641E+01  0.10196127416E+01 0.  0.
     999903    2    3    3    0    0 -0.56306202250E-01  0.10372873818E+00 -0.55536714490E-01  0.13174903078E+00  0.18532159075E-01 0.  0.
         14    1    1    2    0    0 -0.37295058787E-02 -0.22071675917E-01 -0.87502450227E-02  0.24034035863E-01  0.00000000000E+00 0.  1.
     999901    1    3    3    0    0  0.60035708129E-01 -0.81657062258E-01  0.64286959513E-01  0.88814693336E+00  0.88000000000E+00 0.  1.
        -11    1    4    4    0    0 -0.11697374064E-01  0.29224190028E-01 -0.23104205743E-01  0.39050573450E-01  0.51100000000E-03 0.  1.
         11    1    4    4    0    0 -0.44608828186E-01  0.74504548148E-01 -0.32432508747E-01  0.92698457330E-01  0.51100000000E-03 0. -1.
</event>
<event>
 8    1  0.1041149E+005  0.1043930E+01  0.7957747E-01            NaN
         13   -1    0    0    0    0  0.00000000000E+00  0.00000000000E+00  0.74505805969E-08  0.10566000000E+00  0.10566000000E+00 0. -1.
     999900   -1    0    0    0    0 -0.00000000000E+00 -0.00000000000E+00 -0.74505805969E-08  0.93827000000E+00  0.93827000000E+00 0. -1.
     999902    2    1    2    0    0 -0.10242753144E-01  0.17869265063E-01 -0.14043293493E-01  0.10190013274E+01  0.10186963564E+01 0.  0.
     999903    2    3    3    0    0 -0.76901647207E-01  0.39802845060E-01 -0.97966177579E-01  0.13222765809E+00  0.19714253655E-01 0.  0.
         14    1    1    2    0    0  0.10242753144E-01 -0.17869265063E-01  0.14043293493E-01  0.24928672608E-01  0.00000000000E+00 0.  1.
     999901    1    3    3    0    0  0.66658894063E-01 -0.21933579997E-01  0.83922884086E-01  0.88677366930E+00  0.88000000000E+00 0.  1.
        -11    1    4    4    0    0 -0.48791688173E-01  0.24693153787E-01 -0.47084216302E-01  0.72163461838E-01  0.51100000000E-03 0.  1.
         11    1    4    4    0    0 -0.28109959034E-01  0.15109691273E-01 -0.50881961277E-01  0.60064196254E-01  0.51100000000E-03 0. -1.
</event>
<event>
 8    1  0.1041149E+005  0.1043930E+01  0.7957747E-01            NaN
         13   -1    0    0    0    0  0.00000000000E+00  0.00000000000E+00  0.74505805969E-08  0.10566000000E+00  0.10566000000E+00 0.  1.
     999900   -1    0    0    0    0 -0.00000000000E+00 -0.00000000000E+00 -0.74505805969E-08  0.93827000000E+00  0.93827000000E+00 0. -1.
     999902    2    1    2    0    0  0.19573805159E-02 -0.16705633370E-01 -0.17610143005E-01  0.10195778613E+01  0.10192870001E+01 0.  0.
     999903    2    3    3    0    0 -0.32705077230E-01  0.38864598350E-01  0.11495800525E+00  0.12724168550E+00  0.19875222660E-01 0.  0.
         14    1    1    2    0    0 -0.19573805159E-02  0.16705633370E-01  0.17610143005E-01  0.24352138744E-01  0.00000000000E+00 0.  1.
     999901    1    3    3    0    0  0.34662457746E-01 -0.55570231720E-01 -0.13256814826E+00  0.89233617576E+00  0.88000000000E+00 0. -1.
        -11    1    4    4    0    0 -0.23362699751E-01  0.12821888314E-01  0.50738773803E-01  0.57314054539E-01  0.51100000000E-03 0. -1.
         11    1    4    4    0    0 -0.93423774788E-02  0.26042710036E-01  0.64219231448E-01  0.69927630961E-01  0.51100000000E-03 0.  1.
</event>
<event>
 8    1  0.1041149E+005  0.1043930E+01  0.7957747E-01            NaN
         13   -1    0    0    0    0  0.00000000000E+00  0.00000000000E+00  0.74505805969E-08  0.10566000000E+00  0.10566000000E+00 0. -1.
     999900   -1    0    0    0    0 -0.00000000000E+00 -0.00000000000E+00 -0.74505805969E-08  0.93827000000E+00  0.93827000000E+00 0. -1.
     999902    2    1    2    0    0  0.20914202222E-01 -0.16715947056E-01 -0.30711370981E-02  0.10169808140E+01  0.10166236853E+01 0.  0.
     999903    2    3    3    0    0  0.33870790007E-01 -0.11235827748E+00  0.51838599231E-01  0.13000256872E+00  0.21019385548E-01 0.  0.
         14    1    1    2    0    0 -0.20914202222E-01  0.16715947056E-01  0.30711370981E-02  0.26949185955E-01  0.00000000000E+00 0.  1.
     999901    1    3    3    0    0 -0.12956587785E-01  0.95642330428E-01 -0.54909736329E-01  0.88697824533E+00  0.88000000000E+00 0. -1.
        -11    1    4    4    0    0  0.17001233858E-01 -0.25347958630E-01  0.11458829995E-01  0.32605626282E-01  0.51100000000E-03 0. -1.
         11    1    4    4    0    0  0.16869556148E-01 -0.87010318854E-01  0.40379769236E-01  0.97396942438E-01  0.51100000000E-03 0.  1.
</event>
<event>
 8    1  0.1041149E+005  0.1043930E+01  0.7957747E-01            NaN
         13   -1    0    0    0    0  0.00000000000E+00  0.00000000000E+00  0.74505805969E-08  0.10566000000E+00  0.10566000000E+00 0. -1.
     999900   -1    0    0    0    0 -0.00000000000E+00 -0.00000000000E+00 -0.74505805969E-08  0.93827000000E+00  0.93827000000E+00 0.  1.
     999902    2    1    2    0    0  0.11403172564E-01  0.10679450578E-01  0.17896248880E-01  0.10201737643E+01  0.10198971275E+01 0.  0.
     999903    2    3    3    0    0  0.76352965410E-01 -0.91944350332E-01  0.50151451952E-01  0.13124715418E+00  0.20666602608E-01 0.  0.
         14    1    1    2    0    0 -0.11403172564E-01 -0.10679450578E-01 -0.17896248880E-01  0.23756235669E-01  0.00000000000E+00 0.  1.
     999901    1    3    3    0    0 -0.64949792845E-01  0.10262380091E+00 -0.32255203072E-01  0.88892661015E+00  0.88000000000E+00 0.  1.
        -11    1    4    4    0    0  0.26048461951E-01 -0.18503372387E-01  0.17465290023E-01  0.36416955340E-01  0.51100000000E-03 0. -1.
         11    1    4    4    0    0  0.50304503459E-01 -0.73440977946E-01  0.32686161929E-01  0.94830198843E-01  0.51100000000E-03 0.  1.
</event>
<event>
 8    1  0.1110412E+005  0.1043930E+01  0.7957747E-01            NaN
         13   -1    0    0    0    0  0.00000000000E+00  0.00000000000E+00  0.74505805969E-08  0.10566000000E+00  0.10566000000E+00 0.  1.
     999900   -1    0    0    0    0 -0.00000000000E+00 -0.00000000000E+00 -0.74505805969E-08  0.93827000000E+00  0.93827000000E+00 0. -1.
     999902    2    1    2    0    0 -0.17678292123E-02 -0.22491069056E-01  0.76077308270E-02  0.10201213676E+01  0.10198434947E+01 0.  0.
     999903    2    3    3    0    0  0.79638739952E-01  0.32181365252E-01  0.95981690400E-01  0.13027527907E+00  0.19524197154E-01 0.  0.
         14    1    1    2    0    0  0.17678292123E-02  0.22491069056E-01 -0.76077308270E-02  0.23808632379E-01  0.00000000000E+00 0.  1.
     999901    1    3    3    0    0 -0.81406569165E-01 -0.54672434308E-01 -0.88373959573E-01  0.88984608855E+00  0.88000000000E+00 0.  1.
        -11    1    4    4    0    0  0.42178370614E-01  0.27441244591E-01  0.55226046783E-01  0.74714216964E-01  0.51100000000E-03 0. -1.
         11    1    4    4    0    0  0.37460369339E-01  0.47401206612E-02  0.40755643617E-01  0.55561062107E-01  0.51100000000E-03 0.  1.
</event>
<event>
 8    1  0.1041149E+005  0.1043930E+01  0.7957747E-01            NaN
         13   -1    0    0    0    0  0.00000000000E+00  0.00000000000E+00  0.74505805969E-08  0.10566000000E+00  0.10566000000E+00 0. -1.
     999900   -1    0    0    0    0 -0.00000000000E+00 -0.00000000000E+00 -0.74505805969E-08  0.93827000000E+00  0.93827000000E+00 0.  1.
     999902    2    1    2    0    0 -0.62662603042E-02  0.18096898214E-01  0.13974243765E-01  0.10202225490E+01  0.10199470605E+01 0.  0.
     999903    2    3    3    0    0 -0.10042980743E+00 -0.79593689159E-01 -0.44029072079E-02  0.12963401095E+00  0.19086372804E-01 0.  0.
         14    1    1    2    0    0  0.62662603042E-02 -0.18096898214E-01 -0.13974243765E-01  0.23707450980E-01  0.00000000000E+00 0.  1.
     999901    1    3    3    0    0  0.94163547130E-01  0.97690587373E-01  0.18377150973E-01  0.89058853807E+00  0.88000000000E+00 0.  1.
        -11    1    4    4    0    0 -0.38353824457E-01 -0.27116336806E-01  0.72014311686E-02  0.47522976592E-01  0.51100000000E-03 0.  1.
         11    1    4    4    0    0 -0.62075982978E-01 -0.52477352353E-01 -0.11604338377E-01  0.82111034354E-01  0.51100000000E-03 0. -1.
</event>
<event>
 8    1  0.1041149E+005  0.1043930E+01  0.7957747E-01            NaN
         13   -1    0    0    0    0  0.00000000000E+00  0.00000000000E+00  0.74505805969E-08  0.10566000000E+00  0.10566000000E+00 0. -1.
     999900   -1    0    0    0    0 -0.00000000000E+00 -0.00000000000E+00 -0.74505805969E-08  0.93827000000E+00  0.93827000000E+00 0.  1.
     999902    2    1    2    0    0 -0.19453691453E-01 -0.83549268390E-02  0.98560141177E-02  0.10205763723E+01  0.10203091393E+01 0.  0.
     999903    2    3    3    0    0  0.54861273421E-01  0.11299025961E+00  0.22016486722E-01  0.12906347536E+00  0.19902183173E-01 0.  0.
         14    1    1    2    0    0  0.19453691453E-01  0.83549268390E-02 -0.98560141177E-02  0.23353627725E-01  0.00000000000E+00 0. -1.
     999901    1    3    3    0    0 -0.74314964874E-01 -0.12134518645E+00 -0.12160472604E-01  0.89151289692E+00  0.88000000000E+00 0. -1.
        -11    1    4    4    0    0  0.25004802027E-01  0.53028960455E-01  0.25284419266E-03  0.58631355285E-01  0.51100000000E-03 0. -1.
         11    1    4    4    0    0  0.29856471394E-01  0.59961299156E-01  0.21763642529E-01  0.70432120071E-01  0.51100000000E-03 0.  1.
</event>
<event>
 8    1  0.1041149E+005  0.1043930E+01  0.7957747E-01            NaN
         13   -1    0    0    0    0  0.00000000000E+00  0.00000000000E+00  0.74505805969E-08  0.10566000000E+00  0.10566000000E+00 0. -1.
     999900   -1    0    0    0    0 -0.00000000000E+00 -0.00000000000E+00 -0.74505805969E-08  0.93827000000E+00  0.93827000000E+00 0.  1.
     999902    2    1    2    0    0 -0.84090150650E-02  0.21303263078E-01  0.10442354813E-01  0.10187589189E+01  0.10184479130E+01 0.  0.
     999903    2    3    3    0    0  0.11665888543E+00  0.21449919021E-01  0.46321064239E-01  0.12919201129E+00  0.21806884528E-01 0.  0.
         14    1    1    2    0    0  0.84090150650E-02 -0.21303263078E-01 -0.10442354813E-01  0.25171081149E-01  0.00000000000E+00 0.  1.
     999901    1    3    3    0    0 -0.12506790049E+00 -0.14665594211E-03 -0.35878709426E-01  0.88956690756E+00  0.88000000000E+00 0.  1.
        -11    1    4    4    0    0  0.43158187899E-01  0.18473505811E-02  0.26122765100E-01  0.50484669598E-01  0.51100000000E-03 0.  1.
         11    1    4    4    0    0  0.73500697530E-01  0.19602568439E-01  0.20198299139E-01  0.78707341690E-01  0.51100000000E-03 0. -1.
</event>
<event>
 8    1  0.1041149E+005  0.1043930E+01  0.7957747E-01            NaN
         13   -1    0    0    0    0  0.00000000000E+00  0.00000000000E+00  0.74505805969E-08  0.10566000000E+00  0.10566000000E+00 0. -1.
     999900   -1    0    0    0    0 -0.00000000000E+00 -0.00000000000E+00 -0.74505805969E-08  0.93827000000E+00  0.93827000000E+00 0. -1.
     999902    2    1    2    0    0  0.98502244156E-02  0.32460002449E-02 -0.19258459994E-01  0.10220564607E+01  0.10218223707E+01 0.  0.
     999903    2    3    3    0    0  0.10938308250E+00  0.57154377683E-01 -0.49578969473E-01  0.13428833995E+00  0.18547301875E-01 0.  0.
         14    1    1    2    0    0 -0.98502244156E-02 -0.32460002449E-02  0.19258459994E-01  0.21873539265E-01  0.00000000000E+00 0. -1.
     999901    1    3    3    0    0 -0.99532858080E-01 -0.53908377438E-01  0.30320509479E-01  0.88776812079E+00  0.88000000000E+00 0. -1.
        -11    1    4    4    0    0  0.91854570656E-01  0.54819365859E-01 -0.44723100179E-01  0.11594326990E+00  0.51100000000E-03 0.  1.
         11    1    4    4    0    0  0.17528511839E-01  0.23350118238E-02 -0.48558692945E-02  0.18345070050E-01  0.51100000000E-03 0. -1.
</event>
<event>
 8    1  0.1041149E+005  0.1043930E+01  0.7957747E-01            NaN
         13   -1    0    0    0    0  0.00000000000E+00  0.00000000000E+00  0.74505805969E-08  0.10566000000E+00  0.10566000000E+00 0.  1.
     999900   -1    0    0    0    0 -0.00000000000E+00 -0.00000000000E+00 -0.74505805969E-08  0.93827000000E+00  0.93827000000E+00 0.  1.
     999902    2    1    2    0    0 -0.35004175585E-02 -0.25382921242E-02  0.10701224237E-01  0.10323882475E+01  0.10323237291E+01 0.  0.
     999903    2    3    3    0    0 -0.10061064882E+00 -0.97145894956E-01 -0.56228114303E-02  0.14185612027E+00  0.23058952453E-01 0.  0.
         14    1    1    2    0    0  0.35004175585E-02  0.25382921242E-02 -0.10701224237E-01  0.11541752474E-01  0.00000000000E+00 0. -1.
     999901    1    3    3    0    0  0.97110231259E-01  0.94607602832E-01  0.16324035668E-01  0.89053212725E+00  0.88000000000E+00 0.  1.
        -11    1    4    4    0    0 -0.25166883858E-01 -0.22870949545E-01  0.84737116403E-02  0.35050210929E-01  0.51100000000E-03 0. -1.
         11    1    4    4    0    0 -0.75443764960E-01 -0.74274945412E-01 -0.14096523071E-01  0.10680590934E+00  0.51100000000E-03 0.  1.
</event>
<event>
 8    1  0.1041149E+005  0.1043930E+01  0.7957747E-01            NaN
         13   -1    0    0    0    0  0.00000000000E+00  0.00000000000E+00  0.74505805969E-08  0.10566000000E+00  0.10566000000E+00 0. -1.
     999900   -1    0    0    0    0 -0.00000000000E+00 -0.00000000000E+00 -0.74505805969E-08  0.93827000000E+00  0.93827000000E+00 0.  1.
     999902    2    1    2    0    0 -0.81181657715E-02 -0.10940255004E-02  0.21060407702E-01  0.10213326046E+01  0.10210825857E+01 0.  0.
     999903    2    3    3    0    0  0.57819513192E-01  0.91844159386E-01 -0.68156781450E-01  0.12951143946E+00  0.18692789342E-01 0.  0.
         14    1    1    2    0    0  0.81181657715E-02  0.10940255004E-02 -0.21060407702E-01  0.22597395422E-01  0.00000000000E+00 0.  1.
     999901    1    3    3    0    0 -0.65937678963E-01 -0.92938184887E-01  0.89217189153E-01  0.89182116512E+00  0.88000000000E+00 0.  1.
        -11    1    4    4    0    0  0.34620478881E-01  0.46116936496E-01 -0.45474643877E-01  0.73440817987E-01  0.51100000000E-03 0.  1.
         11    1    4    4    0    0  0.23199034311E-01  0.45727222890E-01 -0.22682137573E-01  0.56070621470E-01  0.51100000000E-03 0. -1.
</event>
<event>
 8    1  0.1041149E+005  0.1043930E+01  0.7957747E-01            NaN
         13   -1    0    0    0    0  0.00000000000E+00  0.00000000000E+00  0.74505805969E-08  0.10566000000E+00  0.10566000000E+00 0. -1.
     999900   -1    0    0    0    0 -0.00000000000E+00 -0.00000000000E+00 -0.74505805969E-08  0.93827000000E+00  0.93827000000E+00 0. -1.
     999902    2    1    2    0    0  0.98192566694E-02 -0.76203494582E-02 -0.16334105174E-01  0.10234046372E+01  0.10231987885E+01 0.  0.
     999903    2    3    3    0    0 -0.11726775151E+00 -0.43355494018E-01  0.37351805992E-01  0.13193939093E+00  0.19530004162E-01 0.  0.
         14    1    1    2    0    0 -0.98192566694E-02  0.76203494582E-02  0.16334105174E-01  0.20525362828E-01  0.00000000000E+00 0. -1.
     999901    1    3    3    0    0  0.12708700818E+00  0.35735144559E-01 -0.53685911166E-01  0.89146524624E+00  0.88000000000E+00 0. -1.
        -11    1    4    4    0    0 -0.74088513398E-01 -0.29617609488E-01  0.14170327312E-01  0.81039310871E-01  0.51100000000E-03 0.  1.
         11    1    4    4    0    0 -0.43179238108E-01 -0.13737884530E-01  0.23181478680E-01  0.50900080057E-01  0.51100000000E-03 0. -1.
</event>
<event>
 8    1  0.1041149E+005  0.1043930E+01  0.7957747E-01            NaN
         13   -1    0    0    0    0  0.00000000000E+00  0.00000000000E+00  0.74505805969E-08  0.10566000000E+00  0.10566000000E+00 0. -1.
     999900   -1    0    0    0    0 -0.00000000000E+00 -0.00000000000E+00 -0.74505805969E-08  0.93827000000E+00  0.93827000000E+00 0. -1.
     999902    2    1    2    0    0 -0.10235144838E-01 -0.16209784270E-01  0.13993236708E-01  0.10201955110E+01  0.10199193863E+01 0.  0.
     999903    2    3    3    0    0  0.11144050106E+00  0.58792689811E-01  0.16189445524E-01  0.12866022998E+00  0.20390953373E-01 0.  0.
         14    1    1    2    0    0  0.10235144838E-01  0.16209784270E-01 -0.13993236708E-01  0.23734489030E-01  0.00000000000E+00 0.  1.
     999901    1    3    3    0    0 -0.12167564590E+00 -0.75002474081E-01 -0.21962088157E-02  0.89153528099E+00  0.88000000000E+00 0. -1.
        -11    1    4    4    0    0  0.53768257307E-01  0.37289833882E-01  0.18617035167E-02  0.65462082656E-01  0.51100000000E-03 0.  1.
         11    1    4    4    0    0  0.57672243753E-01  0.21502855930E-01  0.14327742007E-01  0.63198147320E-01  0.51100000000E-03 0. -1.
</event>
<event>
 8    1  0.1041149E+005  0.1043930E+01  0.7957747E-01            NaN
         13   -1    0    0    0    0  0.00000000000E+00  0.00000000000E+00  0.74505805969E-08  0.10566000000E+00  0.10566000000E+00 0. -1.
     999900   -1    0    0    0    0 -0.00000000000E+00 -0.00000000000E+00 -0.74505805969E-08  0.93827000000E+00  0.93827000000E+00 0.  1.
     999902    2    1    2    0    0 -0.13496999662E-01  0.13548391126E-01  0.12177902955E-01  0.10212577874E+01  0.10210060916E+01 0.  0.
     999903    2    3    3    0    0 -0.58726439820E-01 -0.11164036995E+00 -0.26075001595E-01  0.13042603404E+00  0.20461615547E-01 0.  0.
         14    1    1    2    0    0  0.13496999662E-01 -0.13548391126E-01 -0.12177902955E-01  0.22672212560E-01  0.00000000000E+00 0. -1.
     999901    1    3    3    0    0  0.45229440158E-01  0.12518876108E+00  0.38252904549E-01  0.89083175340E+00  0.88000000000E+00 0.  1.
        -11    1    4    4    0    0 -0.12387665788E-01 -0.94877273058E-02 -0.26976004716E-02  0.15843276252E-01  0.51100000000E-03 0. -1.
         11    1    4    4    0    0 -0.46338774032E-01 -0.10215264265E+00 -0.23377401123E-01  0.11458275779E+00  0.51100000000E-03 0.  1.
</event>
<event>
 8    1  0.1041149E+005  0.1043930E+01  0.7957747E-01            NaN
         13   -1    0    0    0    0  0.00000000000E+00  0.00000000000E+00  0.74505805969E-08  0.10566000000E+00  0.10566000000E+00 0. -1.
     999900   -1    0    0    0    0 -0.00000000000E+00 -0.00000000000E+00 -0.74505805969E-08  0.93827000000E+00  0.93827000000E+00 0.  1.
     999902    2    1    2    0    0  0.13974490920E-01 -0.73565629556E-02  0.22612633011E-01  0.10163485463E+01  0.10159742275E+01 0.  0.
     999903    2    3    3    0    0 -0.74082734367E-01  0.68065989840E-01 -0.69947616591E-01  0.12393046258E+00  0.18570406140E-01 0.  0.
         14    1    1    2    0    0 -0.13974490920E-01  0.73565629556E-02 -0.22612633011E-01  0.27581453672E-01  0.00000000000E+00 0.  1.
     999901    1    3    3    0    0  0.88057225287E-01 -0.75422552795E-01  0.92560249602E-01  0.89241808375E+00  0.88000000000E+00 0. -1.
        -11    1    4    4    0    0 -0.31253300106E-01  0.17771854512E-01 -0.20286205386E-01  0.41284365446E-01  0.51100000000E-03 0. -1.
         11    1    4    4    0    0 -0.42829434260E-01  0.50294135328E-01 -0.49661411205E-01  0.82646097133E-01  0.51100000000E-03 0.  1.
</event>
<event>
 8    1  0.1041149E+005  0.1043930E+01  0.7957747E-01            NaN
         13   -1    0    0    0    0  0.00000000000E+00  0.00000000000E+00  0.74505805969E-08  0.10566000000E+00  0.10566000000E+00 0. -1.
     999900   -1    0    0    0    0 -0.00000000000E+00 -0.00000000000E+00 -0.74505805969E-08  0.93827000000E+00  0.93827000000E+00 0.  1.
     999902    2    1    2    0    0  0.20117522636E-01  0.28001436261E-02 -0.11665680310E-01  0.10205068572E+01  0.10202380124E+01 0.  0.
     999903    2    3    3    0    0 -0.11116036668E+00 -0.48599940883E-01  0.35633365730E-01  0.12803105772E+00  0.20090634962E-01 0.  0.
         14    1    1    2    0    0 -0.20117522636E-01 -0.28001436261E-02  0.11665680310E-01  0.23423142795E-01  0.00000000000E+00 0. -1.
     999901    1    3    3    0    0  0.13127788932E+00  0.51400084509E-01 -0.47299046040E-01  0.89247579949E+00  0.88000000000E+00 0. -1.
        -11    1    4    4    0    0 -0.33817753447E-01 -0.19066809348E-01  0.20369573708E-01  0.43844775298E-01  0.51100000000E-03 0. -1.
         11    1    4    4    0    0 -0.77342613233E-01 -0.29533131534E-01  0.15263792022E-01  0.84186282421E-01  0.51100000000E-03 0.  1.
</event>
<event>
 8    1  0.1041149E+005  0.1043930E+01  0.7957747E-01            NaN
         13   -1    0    0    0    0  0.00000000000E+00  0.00000000000E+00  0.74505805969E-08  0.10566000000E+00  0.10566000000E+00 0. -1.
     999900   -1    0    0    0    0 -0.00000000000E+00 -0.00000000000E+00 -0.74505805969E-08  0.93827000000E+00  0.93827000000E+00 0. -1.
     999902    2    1    2    0    0 -0.13411880499E-01  0.18511109812E-01 -0.13733045561E-01  0.10172628617E+01  0.10169132675E+01 0.  0.
     999903    2    3    3    0    0 -0.28796447429E-01 -0.23227946361E-01 -0.12234337865E+00  0.12947063478E+00  0.20639042980E-01 0.  0.
         14    1    1    2    0    0  0.13411880499E-01 -0.18511109812E-01  0.13733045561E-01  0.26667138305E-01  0.00000000000E+00 0. -1.
     999901    1    3    3    0    0  0.15384566929E-01  0.41739056172E-01  0.10861033309E+00  0.88779222691E+00  0.88000000000E+00 0. -1.
        -11    1    4    4    0    0 -0.27218611122E-01 -0.24426331189E-01 -0.91210974658E-01  0.98271061182E-01  0.51100000000E-03 0.  1.
         11    1    4    4    0    0 -0.15778363065E-02  0.11983848283E-02 -0.31132403992E-01  0.31199573602E-01  0.51100000000E-03 0. -1.
</event>
<event>
 7    1  0.1041149E+005  0.1043930E+01  0.7957747E-01            NaN
         13   -1    0    0    0    0  0.00000000000E+00  0.00000000000E+00  0.74505805969E-08  0.10566000000E+00  0.10566000000E+00 0.  1.
     999900   -1    0    0    0    0 -0.00000000000E+00 -0.00000000000E+00 -0.74505805969E-08  0.93827000000E+00  0.93827000000E+00 0.  1.
     999903    2    1    2    0    0 -0.34057897274E-01  0.16187974898E-01 -0.91208385222E-01  0.10070415994E+00  0.20009182820E-01 0.  0.
         14    1    1    2    0    0 -0.53309444699E-01  0.30456950286E-02 -0.41916488044E-02  0.53560648540E-01  0.00000000000E+00 0.  1.
     999901    1    1    2    0    0  0.87367341974E-01 -0.19233669927E-01  0.95400034027E-01  0.88966519152E+00  0.88000000000E+00 0. -1.
        -11    1    3    3    0    0 -0.16170947781E-01  0.10948846781E-01 -0.68970936298E-01  0.71684224016E-01  0.51100000000E-03 0. -1.
         11    1    3    3    0    0 -0.17886949493E-01  0.52391281173E-02 -0.22237448924E-01  0.29019935928E-01  0.51100000000E-03 0.  1.
</event>
<event>
 8    1  0.1041149E+005  0.1043930E+01  0.7957747E-01            NaN
         13   -1    0    0    0    0  0.00000000000E+00  0.00000000000E+00  0.74505805969E-08  0.10566000000E+00  0.10566000000E+00 0. -1.
     999900   -1    0    0    0    0 -0.00000000000E+00 -0.00000000000E+00 -0.74505805969E-08  0.93827000000E+00  0.93827000000E+00 0. -1.
     999902    2    1    2    0    0 -0.17655583715E-01  0.79491691908E-02 -0.11913483196E-01  0.10211958845E+01  0.10209427969E+01 0.  0.
     999903    2    3    3    0    0 -0.58109215257E-01 -0.10928341543E+00  0.38452469508E-01  0.13107414875E+00  0.19552347037E-01 0.  0.
         14    1    1    2    0    0  0.17655583715E-01 -0.79491691908E-02  0.11913483196E-01  0.22734115531E-01  0.00000000000E+00 0. -1.
     999901    1    3    3    0    0  0.40453631542E-01  0.11723258462E+00 -0.50365952704E-01  0.89012173572E+00  0.88000000000E+00 0.  1.
        -11    1    4    4    0    0 -0.59518137410E-02 -0.28117735083E-01  0.10822218547E-01  0.30715023169E-01  0.51100000000E-03 0. -1.
         11    1    4    4    0    0 -0.52157401516E-01 -0.81165680346E-01  0.27630250961E-01  0.10035912558E+00  0.51100000000E-03 0.  1.
</event>
<event>
 8    1  0.1041149E+005  0.1043930E+01  0.7957747E-01            NaN
         13   -1    0    0    0    0  0.00000000000E+00  0.00000000000E+00  0.74505805969E-08  0.10566000000E+00  0.10566000000E+00 0. -1.
     999900   -1    0    0    0    0 -0.00000000000E+00 -0.00000000000E+00 -0.74505805969E-08  0.93827000000E+00  0.93827000000E+00 0. -1.
     999902    2    1    2    0    0  0.25335139143E-01 -0.39627573372E-02 -0.29683028188E-02  0.10181155943E+01  0.10177882785E+01 0.  0.
     999903    2    3    3    0    0 -0.23690226141E-01 -0.10327270024E+00 -0.68764391347E-01  0.12873655446E+00  0.24861245116E-01 0.  0.
         14    1    1    2    0    0 -0.25335139143E-01  0.39627573372E-02  0.29683028188E-02  0.25814405721E-01  0.00000000000E+00 0. -1.
     999901    1    3    3    0    0  0.49025365284E-01  0.99309942900E-01  0.65796088528E-01  0.88937903982E+00  0.88000000000E+00 0.  1.
        -11    1    4    4    0    0 -0.75875139724E-02 -0.33910681640E-01 -0.93296065126E-02  0.35983431969E-01  0.51100000000E-03 0. -1.
         11    1    4    4    0    0 -0.16102712169E-01 -0.69362018597E-01 -0.59434784835E-01  0.92753122494E-01  0.51100000000E-03 0.  1.
</event>
<event>
 8    1  0.1041149E+005  0.1043930E+01  0.7957747E-01            NaN
         13   -1    0    0    0    0  0.00000000000E+00  0.00000000000E+00  0.74505805969E-08  0.10566000000E+00  0.10566000000E+00 0. -1.
     999900   -1    0    0    0    0 -0.00000000000E+00 -0.00000000000E+00 -0.74505805969E-08  0.93827000000E+00  0.93827000000E+00 0. -1.
     999902    2    1    2    0    0 -0.50729454731E-02  0.16981296913E-01 -0.95723223278E-02  0.10237872947E+01  0.10235891247E+01 0.  0.
     999903    2    3    3    0    0 -0.12724767575E+00  0.33239881988E-01 -0.22734545043E-01  0.13510048240E+00  0.20938482957E-01 0.  0.
         14    1    1    2    0    0  0.50729454731E-02 -0.16981296913E-01  0.95723223278E-02  0.20142705264E-01  0.00000000000E+00 0. -1.
     999901    1    3    3    0    0  0.12217473028E+00 -0.16258585075E-01  0.13162222715E-01  0.88868681233E+00  0.88000000000E+00 0. -1.
        -11    1    4    4    0    0 -0.66844409729E-01  0.21261513179E-01 -0.21997385888E-01  0.73514441858E-01  0.51100000000E-03 0.  1.
         11    1    4    4    0    0 -0.60403266022E-01  0.11978368809E-01 -0.73715915469E-03  0.61586040546E-01  0.51100000000E-03 0. -1.
</event>
<event>
 8    1  0.1041149E+005  0.1043930E+01  0.7957747E-01            NaN
         13   -1    0    0    0    0  0.00000000000E+00  0.00000000000E+00  0.74505805969E-08  0.10566000000E+00  0.10566000000E+00 0. -1.
     999900   -1    0    0    0    0 -0.00000000000E+00 -0.00000000000E+00 -0.74505805969E-08  0.93827000000E+00  0.93827000000E+00 0. -1.
     999902    2    1    2    0    0 -0.19322987253E-01  0.11672200287E-01 -0.28522540234E-02  0.10211758037E+01  0.10209222638E+01 0.  0.
     999903    2    3    3    0    0  0.94755511201E-01 -0.27714186848E-01  0.80667266426E-01  0.12902071540E+00  0.19810453637E-01 0.  0.
         14    1    1    2    0    0  0.19322987253E-01 -0.11672200287E-01  0.28522540234E-02  0.22754196293E-01  0.00000000000E+00 0.  1.
     999901    1    3    3    0    0 -0.11407849845E+00  0.39386387135E-01 -0.83519520450E-01  0.89215508831E+00  0.88000000000E+00 0. -1.
        -11    1    4    4    0    0  0.62304077028E-01 -0.27117521917E-01  0.59015099510E-01  0.90001117218E-01  0.51100000000E-03 0.  1.
         11    1    4    4    0    0  0.32451434173E-01 -0.59666493121E-03  0.21652166916E-01  0.39019598180E-01  0.51100000000E-03 0. -1.
</event>
<event>
 8    1  0.1041149E+005  0.1043930E+01  0.7957747E-01            NaN
         13   -1    0    0    0    0  0.00000000000E+00  0.00000000000E+00  0.74505805969E-08  0.10566000000E+00  0.10566000000E+00 0.  1.
     999900   -1    0    0    0    0 -0.00000000000E+00 -0.00000000000E+00 -0.74505805969E-08  0.93827000000E+00  0.93827000000E+00 0. -1.
     999902    2    1    2    0    0 -0.15373353682E-02 -0.20930617846E-01 -0.85739017235E-02  0.10212591828E+01  0.10210075183E+01 0.  0.
     999903    2    3    3    0    0 -0.10515234231E+00  0.48405388381E-01 -0.57592121125E-01  0.13112080180E+00  0.21810903991E-01 0.  0.
         14    1    1    2    0    0  0.15373353682E-02  0.20930617846E-01  0.85739017235E-02  0.22670817238E-01  0.00000000000E+00 0. -1.
     999901    1    3    3    0    0  0.10361500694E+00 -0.69336006228E-01  0.49018219401E-01  0.89013838096E+00  0.88000000000E+00 0.  1.
        -11    1    4    4    0    0 -0.26720062023E-01  0.26411698505E-02 -0.15781752667E-01  0.31149034189E-01  0.51100000000E-03 0.  1.
         11    1    4    4    0    0 -0.78432280284E-01  0.45764218531E-01 -0.41810368458E-01  0.99971767614E-01  0.51100000000E-03 0. -1.
</event>
<event>
 8    1  0.1041149E+005  0.1043930E+01  0.7957747E-01            NaN
         13   -1    0    0    0    0  0.00000000000E+00  0.00000000000E+00  0.74505805969E-08  0.10566000000E+00  0.10566000000E+00 0.  1.
     999900   -1    0    0    0    0 -0.00000000000E+00 -0.00000000000E+00 -0.74505805969E-08  0.93827000000E+00  0.93827000000E+00 0.  1.
     999902    2    1    2    0    0 -0.22001570795E-02 -0.81678980934E-02  0.22494122659E-01  0.10198979213E+01  0.10196147455E+01 0.  0.
     999903    2    3    3    0    0 -0.99106263825E-01 -0.28355953951E-01 -0.75089556786E-01  0.12898775437E+00  0.19320651764E-01 0.  0.
         14    1    1    2    0    0  0.22001570795E-02  0.81678980934E-02 -0.22494122659E-01  0.24032078658E-01  0.00000000000E+00 0. -1.
     999901    1    3    3    0    0  0.96906106746E-01  0.20188055858E-01  0.97583679445E-01  0.89091016697E+00  0.88000000000E+00 0.  1.
        -11    1    4    4    0    0 -0.80561309480E-01 -0.14888686027E-01 -0.59851546656E-01  0.10146066388E+00  0.51100000000E-03 0.  1.
         11    1    4    4    0    0 -0.18544954345E-01 -0.13467267925E-01 -0.15238010130E-01  0.27527090488E-01  0.51100000000E-03 0. -1.
</event>
<event>
 8    1  0.1210243E+005  0.1043930E+01  0.7957747E-01            NaN
         13   -1    0    0    0    0  0.00000000000E+00  0.00000000000E+00  0.74505805969E-08  0.10566000000E+00  0.10566000000E+00 0. -1.
     999900   -1    0    0    0    0 -0.00000000000E+00 -0.00000000000E+00 -0.74505805969E-08  0.93827000000E+00  0.93827000000E+00 0. -1.
     999902    2    1    2    0    0 -0.13112250177E-01  0.51179365019E-02 -0.18879892684E-01  0.10203805897E+01  0.10201088045E+01 0.  0.
     999903    2    3    3    0    0 -0.67356317648E-01 -0.10996953732E+00  0.58060198882E-02  0.13088807157E+00  0.21628794418E-01 0.  0.
         14    1    1    2    0    0  0.13112250177E-01 -0.51179365019E-02  0.18879892684E-01  0.23549410321E-01  0.00000000000E+00 0. -1.
     999901    1    3    3    0    0  0.54244067471E-01  0.11508747382E+00 -0.24685912572E-01  0.88949251811E+00  0.88000000000E+00 0. -1.
        -11    1    4    4    0    0 -0.22398674536E-01 -0.21442630956E-01  0.60566289838E-02  0.31597957512E-01  0.51100000000E-03 0.  1.
         11    1    4    4    0    0 -0.44957643112E-01 -0.88526906363E-01 -0.25060909560E-03  0.99290114061E-01  0.51100000000E-03 0. -1.
</event>
<event>
 8    1  0.1041149E+005  0.1043930E+01  0.7957747E-01            NaN
         13   -1    0    0    0    0  0.00000000000E+00  0.00000000000E+00  0.74505805969E-08  0.10566000000E+00  0.10566000000E+00 0.  1.
     999900   -1    0    0    0    0 -0.00000000000E+00 -0.00000000000E+00 -0.74505805969E-08  0.93827000000E+00  0.93827000000E+00 0.  1.
     999902    2    1    2    0    0  0.10917804020E-01  0.17541125975E-01 -0.10371717042E-01  0.10208115645E+01  0.10205497480E+01 0.  0.
     999903    2    3    3    0    0  0.91136109512E-01  0.90683636533E-01 -0.31723920682E-01  0.13388387863E+00  0.19727478829E-01 0.  0.
         14    1    1    2    0    0 -0.10917804020E-01 -0.17541125975E-01  0.10371717042E-01  0.23118435489E-01  0.00000000000E+00 0.  1.
     999901    1    3    3    0    0 -0.80218305493E-01 -0.73142510558E-01  0.21352203640E-01  0.88692768588E+00  0.88000000000E+00 0. -1.
        -11    1    4    4    0    0  0.28881602513E-01  0.19536897073E-01 -0.14601908349E-01  0.37806271430E-01  0.51100000000E-03 0.  1.
         11    1    4    4    0    0  0.62254506999E-01  0.71146739460E-01 -0.17122012333E-01  0.96077607198E-01  0.51100000000E-03 0. -1.
</event>
<event>
 8    1  0.1041149E+005  0.1043930E+01  0.7957747E-01            NaN
         13   -1    0    0    0    0  0.00000000000E+00  0.00000000000E+00  0.74505805969E-08  0.10566000000E+00  0.10566000000E+00 0. -1.
     999900   -1    0    0    0    0 -0.00000000000E+00 -0.00000000000E+00 -0.74505805969E-08  0.93827000000E+00  0.93827000000E+00 0. -1.
     999902    2    1    2    0    0  0.56582453346E-02  0.42375223660E-02  0.22130568681E-01  0.10206978153E+01  0.10204333862E+01 0.  0.
     999903    2    3    3    0    0 -0.40896738664E-01 -0.11727878279E+00 -0.30769838967E-01  0.12955695545E+00  0.20282149556E-01 0.  0.
         14    1    1    2    0    0 -0.56582453346E-02 -0.42375223660E-02 -0.22130568681E-01  0.23232184706E-01  0.00000000000E+00 0.  1.
     999901    1    3    3    0    0  0.46554983998E-01  0.12151630515E+00  0.52900407649E-01  0.89114085984E+00  0.88000000000E+00 0.  1.
        -11    1    4    4    0    0 -0.17760827632E-01 -0.73463271479E-01 -0.11792259951E-01  0.76495867669E-01  0.51100000000E-03 0. -1.
         11    1    4    4    0    0 -0.23135911032E-01 -0.43815511306E-01 -0.18977579016E-01  0.53061087782E-01  0.51100000000E-03 0.  1.
</event>
<event>
 8    1  0.1041149E+005  0.1043930E+01  0.7957747E-01            NaN
         13   -1    0    0    0    0  0.00000000000E+00  0.00000000000E+00  0.74505805969E-08  0.10566000000E+00  0.10566000000E+00 0. -1.
     999900   -1    0    0    0    0 -0.00000000000E+00 -0.00000000000E+00 -0.74505805969E-08  0.93827000000E+00  0.93827000000E+00 0. -1.
     999902    2    1    2    0    0  0.20130188780E-01 -0.10646927274E-01 -0.21036885385E-02  0.10210606523E+01  0.10208045104E+01 0.  0.
     999903    2    3    3    0    0  0.81779796339E-01 -0.30149481325E-04  0.10250222779E+00  0.13265996123E+00  0.20100313768E-01 0.  0.
         14    1    1    2    0    0 -0.20130188780E-01  0.10646927274E-01  0.21036885385E-02  0.22869347742E-01  0.00000000000E+00 0. -1.
     999901    1    3    3    0    0 -0.61649607559E-01 -0.10616777793E-01 -0.10460591633E+00  0.88840069103E+00  0.88000000000E+00 0. -1.
        -11    1    4    4    0    0  0.53432479100E-01  0.45723517629E-02  0.79319538883E-01  0.95748559222E-01  0.51100000000E-03 0.  1.
         11    1    4    4    0    0  0.28347317239E-01 -0.46025012442E-02  0.23182688910E-01  0.36911402011E-01  0.51100000000E-03 0. -1.
</event>
<event>
 8    1  0.1041149E+005  0.1043930E+01  0.7957747E-01            NaN
         13   -1    0    0    0    0  0.00000000000E+00  0.00000000000E+00  0.74505805969E-08  0.10566000000E+00  0.10566000000E+00 0. -1.
     999900   -1    0    0    0    0 -0.00000000000E+00 -0.00000000000E+00 -0.74505805969E-08  0.93827000000E+00  0.93827000000E+00 0.  1.
     999902    2    1    2    0    0  0.20208929014E-01  0.74764881052E-03  0.12647244139E-01  0.10200781117E+01  0.10197992162E+01 0.  0.
     999903    2    3    3    0    0 -0.95312260714E-02  0.75143219735E-01 -0.10227432283E+00  0.12899666518E+00  0.21041738874E-01 0.  0.
         14    1    1    2    0    0 -0.20208929014E-01 -0.74764881052E-03 -0.12647244139E-01  0.23851888289E-01  0.00000000000E+00 0.  1.
     999901    1    3    3    0    0  0.29740155086E-01 -0.74395570925E-01  0.11492156697E+00  0.89108144653E+00  0.88000000000E+00 0. -1.
        -11    1    4    4    0    0 -0.12116546592E-01  0.33320211071E-01 -0.58423393040E-01  0.68341796454E-01  0.51100000000E-03 0. -1.
         11    1    4    4    0    0  0.25853205206E-02  0.41823008664E-01 -0.43850929788E-01  0.60654868726E-01  0.51100000000E-03 0.  1.
</event>
<event>
 8    1  0.1041149E+005  0.1043930E+01  0.7957747E-01            NaN
         13   -1    0    0    0    0  0.00000000000E+00  0.00000000000E+00  0.74505805969E-08  0.10566000000E+00  0.10566000000E+00 0. -1.
     999900   -1    0    0    0    0 -0.00000000000E+00 -0.00000000000E+00 -0.74505805969E-08  0.93827000000E+00  0.93827000000E+00 0. -1.
     999902    2    1    2    0    0 -0.10987931283E-01  0.34813191956E-02  0.14934163414E-01  0.10250651264E+01  0.10248915211E+01 0.  0.
     999903    2    3    3    0    0 -0.13514655447E-01 -0.38324314162E-01 -0.12482370362E+00  0.13305259475E+00  0.21694170072E-01 0.  0.
         14    1    1    2    0    0  0.10987931283E-01 -0.34813191956E-02 -0.14934163414E-01  0.18864873551E-01  0.00000000000E+00 0.  1.
     999901    1    3    3    0    0  0.25267241636E-02  0.41805633357E-01  0.13975786704E+00  0.89201253170E+00  0.88000000000E+00 0.  1.
        -11    1    4    4    0    0  0.52075637645E-03 -0.27710126829E-01 -0.87493664488E-01  0.91779762272E-01  0.51100000000E-03 0.  1.
         11    1    4    4    0    0 -0.14035411823E-01 -0.10614187333E-01 -0.37330039133E-01  0.41272832475E-01  0.51100000000E-03 0. -1.
</event>
<event>
 8    1  0.1041149E+005  0.1043930E+01  0.7957747E-01            NaN
         13   -1    0    0    0    0  0.00000000000E+00  0.00000000000E+00  0.74505805969E-08  0.10566000000E+00  0.10566000000E+00 0.  1.
     999900   -1    0    0    0    0 -0.00000000000E+00 -0.00000000000E+00 -0.74505805969E-08  0.93827000000E+00  0.93827000000E+00 0.  1.
     999902    2    1    2    0    0 -0.11297037214E-01 -0.20806166220E-01 -0.26004655191E-02  0.10201123170E+01  0.10198342303E+01 0.  0.
     999903    2    3    3    0    0 -0.79595585049E-01  0.66599537571E-01 -0.76787451572E-01  0.13005155638E+00  0.15688818773E-01 0.  0.
         14    1    1    2    0    0  0.11297037214E-01  0.20806166220E-01  0.26004655191E-02  0.23817683000E-01  0.00000000000E+00 0.  1.
     999901    1    3    3    0    0  0.68298547836E-01 -0.87405703791E-01  0.74186986053E-01  0.89006076062E+00  0.88000000000E+00 0.  1.
        -11    1    4    4    0    0 -0.18879012290E-01  0.16877476940E-01 -0.27458757895E-01  0.37356536764E-01  0.51100000000E-03 0. -1.
         11    1    4    4    0    0 -0.60716572760E-01  0.49722060631E-01 -0.49328693677E-01  0.92695019618E-01  0.51100000000E-03 0.  1.
</event>
<event>
 8    1  0.1041149E+005  0.1043930E+01  0.7957747E-01            NaN
         13   -1    0    0    0    0  0.00000000000E+00  0.00000000000E+00  0.74505805969E-08  0.10566000000E+00  0.10566000000E+00 0. -1.
     999900   -1    0    0    0    0 -0.00000000000E+00 -0.00000000000E+00 -0.74505805969E-08  0.93827000000E+00  0.93827000000E+00 0.  1.
     999902    2    1    2    0    0  0.15747607648E-01 -0.65807609790E-02  0.15622728605E-01  0.10207920828E+01  0.10205298198E+01 0.  0.
     999903    2    3    3    0    0 -0.43609201389E-01  0.88794097957E-01 -0.79563747069E-01  0.12855889602E+00  0.20269327103E-01 0.  0.
         14    1    1    2    0    0 -0.15747607648E-01  0.65807609790E-02 -0.15622728605E-01  0.23137917166E-01  0.00000000000E+00 0.  1.
     999901    1    3    3    0    0  0.59356809037E-01 -0.95374858936E-01  0.95186475674E-01  0.89223318681E+00  0.88000000000E+00 0. -1.
        -11    1    4    4    0    0 -0.28764576267E-01  0.69172360036E-01 -0.49891050727E-01  0.90008856811E-01  0.51100000000E-03 0. -1.
         11    1    4    4    0    0 -0.14844625122E-01  0.19621737921E-01 -0.29672696342E-01  0.38550039212E-01  0.51100000000E-03 0.  1.
</event>
<event>
 8    1  0.1041149E+005  0.1043930E+01  0.7957747E-01            NaN
         13   -1    0    0    0    0  0.00000000000E+00  0.00000000000E+00  0.74505805969E-08  0.10566000000E+00  0.10566000000E+00 0.  1.
     999900   -1    0    0    0    0 -0.00000000000E+00 -0.00000000000E+00 -0.74505805969E-08  0.93827000000E+00  0.93827000000E+00 0.  1.
     999902    2    1    2    0    0  0.14754406713E-01  0.19226106009E-01 -0.45073650963E-02  0.10192794014E+01  0.10189812786E+01 0.  0.
     999903    2    3    3    0    0 -0.28341312630E-01 -0.11407320139E+00  0.43302420150E-01  0.12691640245E+00  0.20414415127E-01 0.  0.
         14    1    1    2    0    0 -0.14754406713E-01 -0.19226106009E-01  0.45073650963E-02  0.24650598569E-01  0.00000000000E+00 0. -1.
     999901    1    3    3    0    0  0.43095719342E-01  0.13329930739E+00 -0.47809785247E-01  0.89236299898E+00  0.88000000000E+00 0. -1.
        -11    1    4    4    0    0  0.11944130500E-02 -0.29779383416E-01  0.79052421808E-02  0.30838162625E-01  0.51100000000E-03 0. -1.
         11    1    4    4    0    0 -0.29535725680E-01 -0.84293817971E-01  0.35397177970E-01  0.96078239829E-01  0.51100000000E-03 0.  1.
</event>
<event>
 8    1  0.1041149E+005  0.1043930E+01  0.7957747E-01            NaN
         13   -1    0    0    0    0  0.00000000000E+00  0.00000000000E+00  0.74505805969E-08  0.10566000000E+00  0.10566000000E+00 0.  1.
     999900   -1    0    0    0    0 -0.00000000000E+00 -0.00000000000E+00 -0.74505805969E-08  0.93827000000E+00  0.93827000000E+00 0. -1.
     999902    2    1    2    0    0 -0.21322215135E-01  0.94735666985E-02  0.78769860705E-03  0.10205846409E+01  0.10203175993E+01 0.  0.
     999903    2    3    3    0    0 -0.10348224519E+00  0.68264336642E-01 -0.45923144975E-01  0.13357363299E+00  0.19088883158E-01 0.  0.
         14    1    1    2    0    0  0.21322215135E-01 -0.94735666985E-02 -0.78769860705E-03  0.23345359140E-01  0.00000000000E+00 0. -1.
     999901    1    3    3    0    0  0.82160030053E-01 -0.58790769944E-01  0.46710843582E-01  0.88701100787E+00  0.88000000000E+00 0.  1.
        -11    1    4    4    0    0 -0.85671037059E-01  0.47104430251E-01 -0.35802856259E-01  0.10411752771E+00  0.51100000000E-03 0. -1.
         11    1    4    4    0    0 -0.17811208130E-01  0.21159906391E-01 -0.10120288716E-01  0.29456105279E-01  0.51100000000E-03 0.  1.
</event>
<event>
 8    1  0.1041149E+005  0.1043930E+01  0.7957747E-01            NaN
         13   -1    0    0    0    0  0.00000000000E+00  0.00000000000E+00  0.74505805969E-08  0.10566000000E+00  0.10566000000E+00 0.  1.
     999900   -1    0    0    0    0 -0.00000000000E+00 -0.00000000000E+00 -0.74505805969E-08  0.93827000000E+00  0.93827000000E+00 0.  1.
     999902    2    1    2    0    0 -0.10572031700E-01  0.18465097328E-02 -0.20875174202E-01  0.10204576684E+01  0.10201876801E+01 0.  0.
     999903    2    3    3    0    0  0.49445780851E-01 -0.10785375584E+00 -0.52150953207E-01  0.13106773118E+00  0.19537408806E-01 0.  0.
         14    1    1    2    0    0  0.10572031700E-01 -0.18465097328E-02  0.20875174202E-01  0.23472331593E-01  0.00000000000E+00 0.  1.
     999901    1    3    3    0    0 -0.60017812552E-01  0.10970026557E+00  0.31275779005E-01  0.88938993723E+00  0.88000000000E+00 0.  1.
        -11    1    4    4    0    0  0.16279601182E-01 -0.30021522837E-01 -0.24589946454E-01  0.42086147789E-01  0.51100000000E-03 0.  1.
         11    1    4    4    0    0  0.33166179669E-01 -0.77832233004E-01 -0.27561006752E-01  0.88981583389E-01  0.51100000000E-03 0. -1.
</event>
<event>
 8    1  0.1041149E+005  0.1043930E+01  0.7957747E-01            NaN
         13   -1    0    0    0    0  0.00000000000E+00  0.00000000000E+00  0.74505805969E-08  0.10566000000E+00  0.10566000000E+00 0. -1.
     999900   -1    0    0    0    0 -0.00000000000E+00 -0.00000000000E+00 -0.74505805969E-08  0.93827000000E+00  0.93827000000E+00 0.  1.
     999902    2    1    2    0    0  0.42308562506E-02 -0.21979069804E-01  0.12406664358E-01  0.10183388888E+01  0.10180172825E+01 0.  0.
     999903    2    3    3    0    0  0.99212516420E-01  0.66153638405E-01  0.43107034864E-01  0.12832124693E+00  0.19715442402E-01 0.  0.
         14    1    1    2    0    0 -0.42308562506E-02  0.21979069804E-01 -0.12406664358E-01  0.25591111241E-01  0.00000000000E+00 0. -1.
     999901    1    3    3    0    0 -0.94981660170E-01 -0.88132708209E-01 -0.30700370506E-01  0.89001764183E+00  0.88000000000E+00 0.  1.
        -11    1    4    4    0    0  0.65340761265E-01  0.32010096664E-01  0.25391493916E-01  0.77065235064E-01  0.51100000000E-03 0. -1.
         11    1    4    4    0    0  0.33871755156E-01  0.34143541741E-01  0.17715540947E-01  0.51256011862E-01  0.51100000000E-03 0.  1.
</event>
<event>
 8    1  0.1041149E+005  0.1043930E+01  0.7957747E-01            NaN
         13   -1    0    0    0    0  0.00000000000E+00  0.00000000000E+00  0.74505805969E-08  0.10566000000E+00  0.10566000000E+00 0. -1.
     999900   -1    0    0    0    0 -0.00000000000E+00 -0.00000000000E+00 -0.74505805969E-08  0.93827000000E+00  0.93827000000E+00 0. -1.
     999902    2    1    2    0    0 -0.14979284638E-01  0.72804090490E-02  0.16603931787E-01  0.10204124773E+01  0.10201414362E+01 0.  0.
     999903    2    3    3    0    0 -0.74391218372E-01 -0.96368569363E-01  0.47645724696E-01  0.13179755421E+00  0.16719021540E-01 0.  0.
         14    1    1    2    0    0  0.14979284638E-01 -0.72804090490E-02 -0.16603931787E-01  0.23517522722E-01  0.00000000000E+00 0.  1.
     999901    1    3    3    0    0  0.59411933734E-01  0.10364897841E+00 -0.31041792909E-01  0.88861492307E+00  0.88000000000E+00 0. -1.
        -11    1    4    4    0    0 -0.57038163380E-01 -0.71841588152E-01  0.43290710003E-01  0.10143427706E+00  0.51100000000E-03 0.  1.
         11    1    4    4    0    0 -0.17353054992E-01 -0.24526981212E-01  0.43550146927E-02  0.30363277144E-01  0.51100000000E-03 0. -1.
</event>
<event>
 8    1  0.1041149E+005  0.1043930E+01  0.7957747E-01            NaN
         13   -1    0    0    0    0  0.00000000000E+00  0.00000000000E+00  0.74505805969E-08  0.10566000000E+00  0.10566000000E+00 0.  1.
     999900   -1    0    0    0    0 -0.00000000000E+00 -0.00000000000E+00 -0.74505805969E-08  0.93827000000E+00  0.93827000000E+00 0.  1.
     999902    2    1    2    0    0 -0.21657895244E-01 -0.18530574168E-02 -0.56839989546E-02  0.10214621097E+01  0.10212149801E+01 0.  0.
     999903    2    3    3    0    0 -0.17266365946E-01  0.12737852904E+00  0.20093905084E-01  0.13163932469E+00  0.20043196599E-01 0.  0.
         14    1    1    2    0    0  0.21657895244E-01  0.18530574168E-02  0.56839989546E-02  0.22467890251E-01  0.00000000000E+00 0. -1.
     999901    1    3    3    0    0 -0.43915292982E-02 -0.12923158646E+00 -0.25777904038E-01  0.88982278506E+00  0.88000000000E+00 0.  1.
        -11    1    4    4    0    0 -0.90920400460E-02  0.83810397429E-01  0.22462199282E-01  0.87244824643E-01  0.51100000000E-03 0. -1.
         11    1    4    4    0    0 -0.81743258999E-02  0.43568131615E-01 -0.23682941981E-02  0.44394500050E-01  0.51100000000E-03 0.  1.
</event>
<event>
 8    1  0.1041149E+005  0.1043930E+01  0.7957747E-01            NaN
         13   -1    0    0    0    0  0.00000000000E+00  0.00000000000E+00  0.74505805969E-08  0.10566000000E+00  0.10566000000E+00 0.  1.
     999900   -1    0    0    0    0 -0.00000000000E+00 -0.00000000000E+00 -0.74505805969E-08  0.93827000000E+00  0.93827000000E+00 0.  1.
     999902    2    1    2    0    0 -0.22069018389E-01 -0.86536504048E-02  0.50673611521E-03  0.10202195799E+01  0.10199440216E+01 0.  0.
     999903    2    3    3    0    0  0.12119214714E+00 -0.11872822878E-01  0.33560241445E-01  0.12801631900E+00  0.20817965164E-01 0.  0.
         14    1    1    2    0    0  0.22069018389E-01  0.86536504048E-02 -0.50673611521E-03  0.23710420061E-01  0.00000000000E+00 0.  1.
     999901    1    3    3    0    0 -0.14326116552E+00  0.32191724728E-02 -0.33053505330E-01  0.89220326094E+00  0.88000000000E+00 0. -1.
        -11    1    4    4    0    0  0.45782634168E-01 -0.13423544603E-01  0.80178721579E-02  0.48381696291E-01  0.51100000000E-03 0. -1.
         11    1    4    4    0    0  0.75409512968E-01  0.15507217255E-02  0.25542369287E-01  0.79634622708E-01  0.51100000000E-03 0.  1.
</event>
<event>
 8    1  0.1041149E+005  0.1043930E+01  0.7957747E-01            NaN
         13   -1    0    0    0    0  0.00000000000E+00  0.00000000000E+00  0.74505805969E-08  0.10566000000E+00  0.10566000000E+00 0. -1.
     999900   -1    0    0    0    0 -0.00000000000E+00 -0.00000000000E+00 -0.74505805969E-08  0.93827000000E+00  0.93827000000E+00 0.  1.
     999902    2    1    2    0    0  0.16634684309E-01 -0.32982503152E-02 -0.16982772933E-01  0.10199298801E+01  0.10196474659E+01 0.  0.
     999903    2    3    3    0    0  0.68379977054E-01 -0.81898908085E-01 -0.76695003131E-01  0.13290046170E+00  0.19928793441E-01 0.  0.
         14    1    1    2    0    0 -0.16634684309E-01  0.32982503152E-02  0.16982772933E-01  0.24000119869E-01  0.00000000000E+00 0. -1.
     999901    1    3    3    0    0 -0.51745292745E-01  0.78600657770E-01  0.59712230198E-01  0.88702941843E+00  0.88000000000E+00 0.  1.
        -11    1    4    4    0    0  0.52599866355E-01 -0.51433917462E-01 -0.58929834293E-01  0.94261234327E-01  0.51100000000E-03 0.  1.
         11    1    4    4    0    0  0.15780110699E-01 -0.30464990623E-01 -0.17765168838E-01  0.38639227375E-01  0.51100000000E-03 0. -1.
</event>
<event>
 8    1  0.1041149E+005  0.1043930E+01  0.7957747E-01            NaN
         13   -1    0    0    0    0  0.00000000000E+00  0.00000000000E+00  0.74505805969E-08  0.10566000000E+00  0.10566000000E+00 0. -1.
     999900   -1    0    0    0    0 -0.00000000000E+00 -0.00000000000E+00 -0.74505805969E-08  0.93827000000E+00  0.93827000000E+00 0. -1.
     999902    2    1    2    0    0 -0.67492547997E-02 -0.26437630126E-01 -0.10230457684E-01  0.10147895986E+01  0.10143711187E+01 0.  0.
     999903    2    3    3    0    0 -0.23521149599E-01 -0.21319543583E-01  0.11937369617E+00  0.12512408399E+00  0.19954689647E-01 0.  0.
         14    1    1    2    0    0  0.67492547997E-02  0.26437630126E-01  0.10230457684E-01  0.29140401361E-01  0.00000000000E+00 0. -1.
     999901    1    3    3    0    0  0.16771894799E-01 -0.51180865435E-02 -0.12960415386E+00  0.88966551465E+00  0.88000000000E+00 0. -1.
        -11    1    4    4    0    0 -0.16755772231E-01 -0.54944424664E-02  0.37267507550E-01  0.41231942000E-01  0.51100000000E-03 0.  1.
         11    1    4    4    0    0 -0.67653773678E-02 -0.15825101116E-01  0.82106188621E-01  0.83892141987E-01  0.51100000000E-03 0. -1.
</event>
<event>
 8    1  0.1041149E+005  0.1043930E+01  0.7957747E-01            NaN
         13   -1    0    0    0    0  0.00000000000E+00  0.00000000000E+00  0.74505805969E-08  0.10566000000E+00  0.10566000000E+00 0. -1.
     999900   -1    0    0    0    0 -0.00000000000E+00 -0.00000000000E+00 -0.74505805969E-08  0.93827000000E+00  0.93827000000E+00 0. -1.
     999902    2    1    2    0    0 -0.17943248882E-01  0.36175395062E-02 -0.14931181054E-01  0.10203082528E+01  0.10200347758E+01 0.  0.
     999903    2    3    3    0    0 -0.39968717664E-01  0.60063132754E-01 -0.11010748817E+00  0.13310491890E+00  0.19702339363E-01 0.  0.
         14    1    1    2    0    0  0.17943248882E-01 -0.36175395062E-02  0.14931181054E-01  0.23621747187E-01  0.00000000000E+00 0.  1.
     999901    1    3    3    0    0  0.22025468783E-01 -0.56445593248E-01  0.95176307114E-01  0.88720333391E+00  0.88000000000E+00 0.  1.
        -11    1    4    4    0    0 -0.18484076613E-01  0.38851031948E-01 -0.50958545028E-01  0.66694064234E-01  0.51100000000E-03 0. -1.
         11    1    4    4    0    0 -0.21484641051E-01  0.21212100806E-01 -0.59148943140E-01  0.66410854664E-01  0.51100000000E-03 0.  1.
</event>
<event>
 8    1  0.1041149E+005  0.1043930E+01  0.7957747E-01            NaN
         13   -1    0    0    0    0  0.00000000000E+00  0.00000000000E+00  0.74505805969E-08  0.10566000000E+00  0.10566000000E+00 0.  1.
     999900   -1    0    0    0    0 -0.00000000000E+00 -0.00000000000E+00 -0.74505805969E-08  0.93827000000E+00  0.93827000000E+00 0.  1.
     999902    2    1    2    0    0 -0.17874675507E-01  0.12888299382E-01  0.18982741936E-01  0.10148446639E+01  0.10144277870E+01 0.  0.
     999903    2    3    3    0    0 -0.10423378680E+00 -0.60194237391E-01 -0.34804355549E-01  0.12597346673E+00  0.13036204528E-01 0.  0.
         14    1    1    2    0    0  0.17874675507E-01 -0.12888299382E-01 -0.18982741936E-01  0.29085336114E-01  0.00000000000E+00 0. -1.
     999901    1    3    3    0    0  0.86359111291E-01  0.73082536773E-01  0.53787097485E-01  0.88887119716E+00  0.88000000000E+00 0.  1.
        -11    1    4    4    0    0 -0.11654642217E-01 -0.29089736530E-02 -0.14608133408E-02  0.12111478420E-01  0.51100000000E-03 0. -1.
         11    1    4    4    0    0 -0.92579144581E-01 -0.57285263738E-01 -0.33343542208E-01  0.11386198831E+00  0.51100000000E-03 0.  1.
</event>
<event>
 8    1  0.1041149E+005  0.1043930E+01  0.7957747E-01            NaN
         13   -1    0    0    0    0  0.00000000000E+00  0.00000000000E+00  0.74505805969E-08  0.10566000000E+00  0.10566000000E+00 0. -1.
     999900   -1    0    0    0    0 -0.00000000000E+00 -0.00000000000E+00 -0.74505805969E-08  0.93827000000E+00  0.93827000000E+00 0.  1.
     999902    2    1    2    0    0 -0.13583978668E-01 -0.14945039044E-01  0.13332115163E-01  0.10197303313E+01  0.10194431444E+01 0.  0.
     999903    2    3    3    0    0 -0.12351345687E+00 -0.27221334510E-01  0.26755282144E-01  0.13270418797E+00  0.29966336146E-01 0.  0.
         14    1    1    2    0    0  0.13583978668E-01  0.14945039044E-01 -0.13332115163E-01  0.24199668659E-01  0.00000000000E+00 0.  1.
     999901    1    3    3    0    0  0.10992947820E+00  0.12276295466E-01 -0.13423166982E-01  0.88702614337E+00  0.88000000000E+00 0.  1.
        -11    1    4    4    0    0 -0.57996203233E-01  0.24569430950E-02  0.11684989475E-01  0.59214831410E-01  0.51100000000E-03 0.  1.
         11    1    4    4    0    0 -0.65517253638E-01 -0.29678277605E-01  0.15070292669E-01  0.73489356563E-01  0.51100000000E-03 0. -1.
</event>
<event>
 8    1  0.1041149E+005  0.1043930E+01  0.7957747E-01            NaN
         13   -1    0    0    0    0  0.00000000000E+00  0.00000000000E+00  0.74505805969E-08  0.10566000000E+00  0.10566000000E+00 0.  1.
     999900   -1    0    0    0    0 -0.00000000000E+00 -0.00000000000E+00 -0.74505805969E-08  0.93827000000E+00  0.93827000000E+00 0.  1.
     999902    2    1    2    0    0  0.21081622285E-01  0.11703631130E-01 -0.18849558692E-02  0.10197439950E+01  0.10194571362E+01 0.  0.
     999903    2    3    3    0    0 -0.11653794972E+00 -0.46639970249E-01 -0.99980268383E-03  0.12713887181E+00  0.20172074032E-01 0.  0.
         14    1    1    2    0    0 -0.21081622285E-01 -0.11703631130E-01  0.18849558692E-02  0.24186005012E-01  0.00000000000E+00 0. -1.
     999901    1    3    3    0    0  0.13761957201E+00  0.58343601380E-01 -0.88515318533E-03  0.89260512317E+00  0.88000000000E+00 0.  1.
        -11    1    4    4    0    0 -0.31987825411E-01 -0.13788909864E-01 -0.92817412070E-02  0.36052279409E-01  0.51100000000E-03 0. -1.
         11    1    4    4    0    0 -0.84550124310E-01 -0.32851060386E-01  0.82819385232E-02  0.91086592405E-01  0.51100000000E-03 0.  1.
</event>
<event>
 8    1  0.1041149E+005  0.1043930E+01  0.7957747E-01            NaN
         13   -1    0    0    0    0  0.00000000000E+00  0.00000000000E+00  0.74505805969E-08  0.10566000000E+00  0.10566000000E+00 0. -1.
     999900   -1    0    0    0    0 -0.00000000000E+00 -0.00000000000E+00 -0.74505805969E-08  0.93827000000E+00  0.93827000000E+00 0. -1.
     999902    2    1    2    0    0  0.62569719223E-02 -0.29600210146E-01 -0.10135507998E-01  0.10120230938E+01  0.10115199908E+01 0.  0.
     999903    2    3    3    0    0 -0.10134933055E-01  0.47003925101E-01  0.10878351996E+00  0.12057560616E+00  0.19812540031E-01 0.  0.
         14    1    1    2    0    0 -0.62569719223E-02  0.29600210146E-01  0.10135507998E-01  0.31906906160E-01  0.00000000000E+00 0.  1.
     999901    1    3    3    0    0  0.16391904977E-01 -0.76604135247E-01 -0.11891902796E+00  0.89144748768E+00  0.88000000000E+00 0. -1.
        -11    1    4    4    0    0 -0.12096657542E-01  0.12825486797E-01  0.33036542242E-01  0.37449919620E-01  0.51100000000E-03 0.  1.
         11    1    4    4    0    0  0.19617244875E-02  0.34178438304E-01  0.75746977718E-01  0.83125686537E-01  0.51100000000E-03 0. -1.
</event>
<event>
 8    1  0.1041149E+005  0.1043930E+01  0.7957747E-01            NaN
         13   -1    0    0    0    0  0.00000000000E+00  0.00000000000E+00  0.74505805969E-08  0.10566000000E+00  0.10566000000E+00 0. -1.
     999900   -1    0    0    0    0 -0.00000000000E+00 -0.00000000000E+00 -0.74505805969E-08  0.93827000000E+00  0.93827000000E+00 0.  1.
     999902    2    1    2    0    0 -0.88408454226E-02  0.70727021353E-02  0.21181585465E-01  0.10199124392E+01  0.10196296094E+01 0.  0.
     999903    2    3    3    0    0 -0.77518518690E-01 -0.49858079693E-01  0.92845197168E-01  0.13250418482E+00  0.21028064746E-01 0.  0.
         14    1    1    2    0    0  0.88408454226E-02 -0.70727021353E-02 -0.21181585465E-01  0.24017560786E-01  0.00000000000E+00 0.  1.
     999901    1    3    3    0    0  0.68677673267E-01  0.56930781829E-01 -0.71663611703E-01  0.88740825439E+00  0.88000000000E+00 0.  1.
        -11    1    4    4    0    0 -0.40996053319E-01 -0.13942703620E-01  0.43251651724E-01  0.61204917039E-01  0.51100000000E-03 0.  1.
         11    1    4    4    0    0 -0.36522465371E-01 -0.35915376074E-01  0.49593545444E-01  0.71299267781E-01  0.51100000000E-03 0. -1.
</event>
<event>
 8    1  0.1041149E+005  0.1043930E+01  0.7957747E-01            NaN
         13   -1    0    0    0    0  0.00000000000E+00  0.00000000000E+00  0.74505805969E-08  0.10566000000E+00  0.10566000000E+00 0.  1.
     999900   -1    0    0    0    0 -0.00000000000E+00 -0.00000000000E+00 -0.74505805969E-08  0.93827000000E+00  0.93827000000E+00 0.  1.
     999902    2    1    2    0    0  0.86651334453E-02 -0.19414568929E-01  0.52577630017E-02  0.10220289933E+01  0.10217943085E+01 0.  0.
     999903    2    3    3    0    0 -0.43764788766E-01 -0.11957558284E+00 -0.35835151212E-01  0.13384559269E+00  0.20415873043E-01 0.  0.
         14    1    1    2    0    0 -0.86651334453E-02  0.19414568929E-01 -0.52577630017E-02  0.21901006738E-01  0.00000000000E+00 0.  1.
     999901    1    3    3    0    0  0.52429922212E-01  0.10016101391E+00  0.41092914214E-01  0.88818340057E+00  0.88000000000E+00 0.  1.
        -11    1    4    4    0    0 -0.33275571407E-01 -0.70660902947E-01 -0.14420118842E-01  0.79425611777E-01  0.51100000000E-03 0.  1.
         11    1    4    4    0    0 -0.10489217359E-01 -0.48914679898E-01 -0.21415032370E-01  0.54419980914E-01  0.51100000000E-03 0. -1.
</event>
<event>
 8    1  0.1041149E+005  0.1043930E+01  0.7957747E-01            NaN
         13   -1    0    0    0    0  0.00000000000E+00  0.00000000000E+00  0.74505805969E-08  0.10566000000E+00  0.10566000000E+00 0.  1.
     999900   -1    0    0    0    0 -0.00000000000E+00 -0.00000000000E+00 -0.74505805969E-08  0.93827000000E+00  0.93827000000E+00 0. -1.
     999902    2    1    2    0    0 -0.57853315942E-02 -0.23289981031E-01 -0.10862116509E-03  0.10199319777E+01  0.10196496133E+01 0.  0.
     999903    2    3    3    0    0 -0.57934220134E-01  0.61551450913E-01  0.96803937094E-01  0.12902815619E+00  0.11502516252E-01 0.  0.
         14    1    1    2    0    0  0.57853315942E-02  0.23289981031E-01  0.10862116509E-03  0.23998022349E-01  0.00000000000E+00 0.  1.
     999901    1    3    3    0    0  0.52148888540E-01 -0.84841431944E-01 -0.96912558259E-01  0.89090382146E+00  0.88000000000E+00 0. -1.
        -11    1    4    4    0    0 -0.38901833285E-01  0.38050303560E-01  0.69591538841E-01  0.88342637686E-01  0.51100000000E-03 0.  1.
         11    1    4    4    0    0 -0.19032386849E-01  0.23501147354E-01  0.27212398253E-01  0.40685518502E-01  0.51100000000E-03 0. -1.
</event>
<event>
 8    1  0.1041149E+005  0.1043930E+01  0.7957747E-01            NaN
         13   -1    0    0    0    0  0.00000000000E+00  0.00000000000E+00  0.74505805969E-08  0.10566000000E+00  0.10566000000E+00 0.  1.
     999900   -1    0    0    0    0 -0.00000000000E+00 -0.00000000000E+00 -0.74505805969E-08  0.93827000000E+00  0.93827000000E+00 0. -1.
     999902    2    1    2    0    0 -0.68852107909E-02  0.19773754724E-01 -0.10953779708E-01  0.10202996637E+01  0.10200259854E+01 0.  0.
     999903    2    3    3    0    0 -0.41595609827E-01  0.10545668853E+00  0.65023694128E-01  0.13220115933E+00  0.19943866640E-01 0.  0.
         14    1    1    2    0    0  0.68852107909E-02 -0.19773754724E-01  0.10953779708E-01  0.23630336295E-01  0.00000000000E+00 0.  1.
     999901    1    3    3    0    0  0.34710399036E-01 -0.85682933807E-01 -0.75977473837E-01  0.88809850438E+00  0.88000000000E+00 0. -1.
        -11    1    4    4    0    0 -0.14333284477E-02  0.20590755813E-01  0.16979734797E-01  0.26732118699E-01  0.51100000000E-03 0.  1.
         11    1    4    4    0    0 -0.40162281379E-01  0.84865932718E-01  0.48043959331E-01  0.10546904063E+00  0.51100000000E-03 0. -1.
</event>
<event>
 8    1  0.1041149E+005  0.1043930E+01  0.7957747E-01            NaN
         13   -1    0    0    0    0  0.00000000000E+00  0.00000000000E+00  0.74505805969E-08  0.10566000000E+00  0.10566000000E+00 0. -1.
     999900   -1    0    0    0    0 -0.00000000000E+00 -0.00000000000E+00 -0.74505805969E-08  0.93827000000E+00  0.93827000000E+00 0.  1.
     999902    2    1    2    0    0  0.24902343386E-01 -0.80259913674E-02  0.25892893008E-02  0.10176384108E+01  0.10172987209E+01 0.  0.
     999903    2    3    3    0    0  0.14702649528E-01  0.12381762368E+00  0.18489853188E-01  0.12761616360E+00  0.19925830093E-01 0.  0.
         14    1    1    2    0    0 -0.24902343386E-01  0.80259913674E-02 -0.25892893008E-02  0.26291589199E-01  0.00000000000E+00 0. -1.
     999901    1    3    3    0    0  0.10199693858E-01 -0.13184361504E+00 -0.15900563887E-01  0.89002224720E+00  0.88000000000E+00 0. -1.
        -11    1    4    4    0    0  0.17306967941E-01  0.11023270994E+00  0.11691592513E-01  0.11219507982E+00  0.51100000000E-03 0. -1.
         11    1    4    4    0    0 -0.26043184126E-02  0.13584913735E-01  0.67982606754E-02  0.15421083774E-01  0.51100000000E-03 0.  1.
</event>
<event>
 8    1  0.1041149E+005  0.1043930E+01  0.7957747E-01            NaN
         13   -1    0    0    0    0  0.00000000000E+00  0.00000000000E+00  0.74505805969E-08  0.10566000000E+00  0.10566000000E+00 0.  1.
     999900   -1    0    0    0    0 -0.00000000000E+00 -0.00000000000E+00 -0.74505805969E-08  0.93827000000E+00  0.93827000000E+00 0. -1.
     999902    2    1    2    0    0  0.27601075113E-01 -0.88570828409E-02  0.92494595705E-02  0.10135027135E+01  0.10130458679E+01 0.  0.
     999903    2    3    3    0    0 -0.47237850032E-02 -0.57535941377E-01  0.11038965988E+00  0.12578436400E+00  0.17410643958E-01 0.  0.
         14    1    1    2    0    0 -0.27601075113E-01  0.88570828409E-02 -0.92494595705E-02  0.30427286540E-01  0.00000000000E+00 0. -1.
     999901    1    3    3    0    0  0.32324860116E-01  0.48678858536E-01 -0.10114020031E+00  0.88771834946E+00  0.88000000000E+00 0. -1.
        -11    1    4    4    0    0 -0.11156999044E-01 -0.40091657897E-01  0.73247393190E-01  0.84245245508E-01  0.51100000000E-03 0.  1.
         11    1    4    4    0    0  0.64332140408E-02 -0.17444283480E-01  0.37142266692E-01  0.41539118492E-01  0.51100000000E-03 0. -1.
</event>
<event>
 8    1  0.1041149E+005  0.1043930E+01  0.7957747E-01            NaN
         13   -1    0    0    0    0  0.00000000000E+00  0.00000000000E+00  0.74505805969E-08  0.10566000000E+00  0.10566000000E+00 0.  1.
     999900   -1    0    0    0    0 -0.00000000000E+00 -0.00000000000E+00 -0.74505805969E-08  0.93827000000E+00  0.93827000000E+00 0. -1.
     999902    2    1    2    0    0 -0.17620492916E-01 -0.33261691842E-02  0.14740032401E-01  0.10207176385E+01  0.10204536657E+01 0.  0.
     999903    2    3    3    0    0 -0.83633867012E-01 -0.51931958748E-01  0.88948722906E-01  0.13379756425E+00  0.17273124806E-01 0.  0.
         14    1    1    2    0    0  0.17620492916E-01  0.33261691842E-02 -0.14740032401E-01  0.23212361517E-01  0.00000000000E+00 0. -1.
     999901    1    3    3    0    0  0.66013374096E-01  0.48605789564E-01 -0.74208690505E-01  0.88692007424E+00  0.88000000000E+00 0. -1.
        -11    1    4    4    0    0 -0.47231447086E-01 -0.37483022223E-01  0.60241759874E-01  0.85235657459E-01  0.51100000000E-03 0. -1.
         11    1    4    4    0    0 -0.36402419926E-01 -0.14448936525E-01  0.28706963032E-01  0.48561906786E-01  0.51100000000E-03 0.  1.
</event>
<event>
 8    1  0.1041149E+005  0.1043930E+01  0.7957747E-01            NaN
         13   -1    0    0    0    0  0.00000000000E+00  0.00000000000E+00  0.74505805969E-08  0.10566000000E+00  0.10566000000E+00 0.  1.
     999900   -1    0    0    0    0 -0.00000000000E+00 -0.00000000000E+00 -0.74505805969E-08  0.93827000000E+00  0.93827000000E+00 0.  1.
     999902    2    1    2    0    0 -0.12760802895E-01  0.17975590762E-01  0.81319218153E-02  0.10204334448E+01  0.10201628925E+01 0.  0.
     999903    2    3    3    0    0  0.86038070159E-01  0.96622519959E-01 -0.10558165248E-01  0.13122262832E+00  0.19220885796E-01 0.  0.
         14    1    1    2    0    0  0.12760802895E-01 -0.17975590762E-01 -0.81319218153E-02  0.23496555198E-01  0.00000000000E+00 0.  1.
     999901    1    3    3    0    0 -0.98798873054E-01 -0.78646929197E-01  0.18690087063E-01  0.88921081648E+00  0.88000000000E+00 0.  1.
        -11    1    4    4    0    0  0.41651168167E-01  0.41278163140E-01  0.40686702889E-02  0.58783686179E-01  0.51100000000E-03 0. -1.
         11    1    4    4    0    0  0.44386901992E-01  0.55344356819E-01 -0.14626835537E-01  0.72438942144E-01  0.51100000000E-03 0.  1.
</event>
<event>
 8    1  0.1041149E+005  0.1043930E+01  0.7957747E-01            NaN
         13   -1    0    0    0    0  0.00000000000E+00  0.00000000000E+00  0.74505805969E-08  0.10566000000E+00  0.10566000000E+00 0. -1.
     999900   -1    0    0    0    0 -0.00000000000E+00 -0.00000000000E+00 -0.74505805969E-08  0.93827000000E+00  0.93827000000E+00 0. -1.
     999902    2    1    2    0    0 -0.20285901474E-01  0.37684864392E-03 -0.10659598038E-01  0.10210108629E+01  0.10207535919E+01 0.  0.
     999903    2    3    3    0    0 -0.10392563436E+00 -0.50067187643E-01 -0.64949540143E-01  0.13394400890E+00  0.20378763459E-01 0.  0.
         14    1    1    2    0    0  0.20285901474E-01 -0.37684864392E-03  0.10659598038E-01  0.22919137066E-01  0.00000000000E+00 0. -1.
     999901    1    3    3    0    0  0.83639732883E-01  0.50444036287E-01  0.54289942105E-01  0.88706685403E+00  0.88000000000E+00 0. -1.
        -11    1    4    4    0    0 -0.14931277687E-01 -0.11034726650E-01 -0.18571091944E-01  0.26265087524E-01  0.51100000000E-03 0.  1.
         11    1    4    4    0    0 -0.88994356670E-01 -0.39032460993E-01 -0.46378448199E-01  0.10767892138E+00  0.51100000000E-03 0. -1.
</event>
<event>
 7    1  0.1041149E+005  0.1043930E+01  0.7957747E-01            NaN
         13   -1    0    0    0    0  0.00000000000E+00  0.00000000000E+00  0.74505805969E-08  0.10566000000E+00  0.10566000000E+00 0.  1.
     999900   -1    0    0    0    0 -0.00000000000E+00 -0.00000000000E+00 -0.74505805969E-08  0.93827000000E+00  0.93827000000E+00 0.  1.
     999902    2    1    2    0    0  0.20127927826E-01 -0.10924931287E-01  0.63941847617E-02  0.10201524223E+01  0.10198752823E+01 0.  0.
         14    1    1    2    0    0 -0.20127927826E-01  0.10924931287E-01 -0.63941847617E-02  0.23777577693E-01  0.00000000000E+00 0.  1.
     999901    1    3    3    0    0  0.88617611214E-01 -0.65024304436E-02 -0.95937622441E-01  0.88966251468E+00  0.88000000000E+00 0.  1.
        -11    1    3    3    0    0 -0.48368221156E-01 -0.66284679124E-02  0.98423778623E-01  0.10986775107E+00  0.51100000000E-03 0.  1.
         11    1    3    3    0    0 -0.20121462232E-01  0.22059670693E-02  0.39080285791E-02  0.20622156566E-01  0.51100000000E-03 0. -1.
</event>
<event>
 8    1  0.1041149E+005  0.1043930E+01  0.7957747E-01            NaN
         13   -1    0    0    0    0  0.00000000000E+00  0.00000000000E+00  0.74505805969E-08  0.10566000000E+00  0.10566000000E+00 0.  1.
     999900   -1    0    0    0    0 -0.00000000000E+00 -0.00000000000E+00 -0.74505805969E-08  0.93827000000E+00  0.93827000000E+00 0. -1.
     999902    2    1    2    0    0  0.19472742004E-01 -0.11147121310E-01 -0.26827271617E-02  0.10213325882E+01  0.10210825690E+01 0.  0.
     999903    2    3    3    0    0  0.22578283334E-01 -0.11058980296E+00  0.67355186834E-01  0.13296115648E+00  0.20051547071E-01 0.  0.
         14    1    1    2    0    0 -0.19472742004E-01  0.11147121310E-01  0.26827271617E-02  0.22597411792E-01  0.00000000000E+00 0.  1.
     999901    1    3    3    0    0 -0.31055413300E-02  0.99442681654E-01 -0.70037913996E-01  0.88837143173E+00  0.88000000000E+00 0. -1.
        -11    1    4    4    0    0  0.47910839624E-02 -0.71798789534E-01  0.42434214357E-01  0.83540076210E-01  0.51100000000E-03 0.  1.
         11    1    4    4    0    0  0.17787199372E-01 -0.38791013430E-01  0.24920972477E-01  0.49421080266E-01  0.51100000000E-03 0. -1.
</event>
<event>
 8    1  0.1041149E+005  0.1043930E+01  0.7957747E-01            NaN
         13   -1    0    0    0    0  0.00000000000E+00  0.00000000000E+00  0.74505805969E-08  0.10566000000E+00  0.10566000000E+00 0. -1.
     999900   -1    0    0    0    0 -0.00000000000E+00 -0.00000000000E+00 -0.74505805969E-08  0.93827000000E+00  0.93827000000E+00 0.  1.
     999902    2    1    2    0    0  0.15945631201E-01 -0.15869072880E-01 -0.63415453876E-02  0.10205568139E+01  0.10202891280E+01 0.  0.
     999903    2    3    3    0    0  0.15526987365E-01  0.96437646254E-01 -0.83592850251E-01  0.13006215448E+00  0.19674665547E-01 0.  0.
         14    1    1    2    0    0 -0.15945631201E-01  0.15869072880E-01  0.63415453876E-02  0.23373186055E-01  0.00000000000E+00 0. -1.
     999901    1    3    3    0    0  0.41864383549E-03 -0.11230671913E+00  0.77251304863E-01  0.89049465946E+00  0.88000000000E+00 0. -1.
        -11    1    4    4    0    0  0.18129367479E-01  0.58397260086E-01 -0.56788503934E-01  0.83451238762E-01  0.51100000000E-03 0.  1.
         11    1    4    4    0    0 -0.26023801138E-02  0.38040386168E-01 -0.26804346317E-01  0.46610915723E-01  0.51100000000E-03 0. -1.
</event>
<event>
 8    1  0.1041149E+005  0.1043930E+01  0.7957747E-01            NaN
         13   -1    0    0    0    0  0.00000000000E+00  0.00000000000E+00  0.74505805969E-08  0.10566000000E+00  0.10566000000E+00 0. -1.
     999900   -1    0    0    0    0 -0.00000000000E+00 -0.00000000000E+00 -0.74505805969E-08  0.93827000000E+00  0.93827000000E+00 0.  1.
     999902    2    1    2    0    0  0.10718211201E-02 -0.20195968454E-01  0.12129610872E-01  0.10203470951E+01  0.10200745272E+01 0.  0.
     999903    2    3    3    0    0 -0.25062568874E-01 -0.30207203465E-01 -0.12193464400E+00  0.12975377851E+00  0.20673125803E-01 0.  0.
         14    1    1    2    0    0 -0.10718211201E-02  0.20195968454E-01 -0.12129610872E-01  0.23582904872E-01  0.00000000000E+00 0.  1.
     999901    1    3    3    0    0  0.26134389994E-01  0.10011235012E-01  0.13406425487E+00  0.89059331662E+00  0.88000000000E+00 0. -1.
        -11    1    4    4    0    0 -0.81734825063E-03 -0.12573820232E-01 -0.54724741626E-01  0.56158948355E-01  0.51100000000E-03 0. -1.
         11    1    4    4    0    0 -0.24245220623E-01 -0.17633383233E-01 -0.67209902376E-01  0.73594830156E-01  0.51100000000E-03 0.  1.
</event>
<event>
 8    1  0.1041149E+005  0.1043930E+01  0.7957747E-01            NaN
         13   -1    0    0    0    0  0.00000000000E+00  0.00000000000E+00  0.74505805969E-08  0.10566000000E+00  0.10566000000E+00 0.  1.
     999900   -1    0    0    0    0 -0.00000000000E+00 -0.00000000000E+00 -0.74505805969E-08  0.93827000000E+00  0.93827000000E+00 0.  1.
     999902    2    1    2    0    0 -0.46970068571E-02 -0.22212933393E-01  0.42149578529E-02  0.10208379634E+01  0.10205767514E+01 0.  0.
     999903    2    3    3    0    0 -0.20792504140E-01  0.86014799252E-01 -0.91375449290E-01  0.12892438405E+00  0.21003574703E-01 0.  0.
         14    1    1    2    0    0  0.46970068571E-02  0.22212933393E-01 -0.42149578529E-02  0.23092036572E-01  0.00000000000E+00 0. -1.
     999901    1    3    3    0    0  0.16095497283E-01 -0.10822773265E+00  0.95590407143E-01  0.89191357938E+00  0.88000000000E+00 0. -1.
        -11    1    4    4    0    0 -0.77501891443E-02  0.58522094080E-01 -0.48820882391E-01  0.76607053237E-01  0.51100000000E-03 0. -1.
         11    1    4    4    0    0 -0.13042314996E-01  0.27492705172E-01 -0.42554566899E-01  0.52317330810E-01  0.51100000000E-03 0.  1.
</event>
<event>
 8    1  0.1041149E+005  0.1043930E+01  0.7957747E-01            NaN
         13   -1    0    0    0    0  0.00000000000E+00  0.00000000000E+00  0.74505805969E-08  0.10566000000E+00  0.10566000000E+00 0. -1.
     999900   -1    0    0    0    0 -0.00000000000E+00 -0.00000000000E+00 -0.74505805969E-08  0.93827000000E+00  0.93827000000E+00 0. -1.
     999902    2    1    2    0    0  0.93771161684E-02 -0.18356003533E-01  0.11082056881E-01  0.10205273258E+01  0.10202589562E+01 0.  0.
     999903    2    3    3    0    0  0.10633753256E+00 -0.74558496255E-01  0.22947377720E-01  0.13334029461E+00  0.19657360631E-01 0.  0.
         14    1    1    2    0    0 -0.93771161684E-02  0.18356003533E-01 -0.11082056881E-01  0.23402674165E-01  0.00000000000E+00 0. -1.
     999901    1    3    3    0    0 -0.96960416395E-01  0.56202492722E-01 -0.11865320838E-01  0.88718703123E+00  0.88000000000E+00 0. -1.
        -11    1    4    4    0    0  0.17774201169E-01 -0.18696452192E-01  0.10637311064E-01  0.27908655636E-01  0.51100000000E-03 0.  1.
         11    1    4    4    0    0  0.88563331395E-01 -0.55862044063E-01  0.12310066656E-01  0.10543163897E+00  0.51100000000E-03 0. -1.
</event>
<event>
 8    1  0.1041149E+005  0.1043930E+01  0.7957747E-01            NaN
         13   -1    0    0    0    0  0.00000000000E+00  0.00000000000E+00  0.74505805969E-08  0.10566000000E+00  0.10566000000E+00 0.  1.
     999900   -1    0    0    0    0 -0.00000000000E+00 -0.00000000000E+00 -0.74505805969E-08  0.93827000000E+00  0.93827000000E+00 0. -1.
     999902    2    1    2    0    0  0.63985508133E-02  0.21491196754E-01  0.32571312615E-02  0.10212711851E+01  0.10210197900E+01 0.  0.
     999903    2    3    3    0    0  0.68144729890E-01  0.66463494223E-02 -0.11065325628E+00  0.13165973251E+00  0.20056516828E-01 0.  0.
         14    1    1    2    0    0 -0.63985508133E-02 -0.21491196754E-01 -0.32571312615E-02  0.22658814940E-01  0.00000000000E+00 0. -1.
     999901    1    3    3    0    0 -0.61746179077E-01  0.14844847331E-01  0.11391038754E+00  0.88961145255E+00  0.88000000000E+00 0.  1.
        -11    1    4    4    0    0  0.45669086477E-01  0.19719046827E-02 -0.55406234605E-01  0.71830813874E-01  0.51100000000E-03 0.  1.
         11    1    4    4    0    0  0.22475643414E-01  0.46744447396E-02 -0.55247021670E-01  0.59828918634E-01  0.51100000000E-03 0. -1.
</event>
<event>
 8    1  0.1041149E+005  0.1043930E+01  0.7957747E-01            NaN
         13   -1    0    0    0    0  0.00000000000E+00  0.00000000000E+00  0.74505805969E-08  0.10566000000E+00  0.10566000000E+00 0.  1.
     999900   -1    0    0    0    0 -0.00000000000E+00 -0.00000000000E+00 -0.74505805969E-08  0.93827000000E+00  0.93827000000E+00 0.  1.
     999902    2    1    2    0    0  0.14807784138E-01 -0.72244065608E-02 -0.18213784159E-01  0.10193697790E+01  0.10190738648E+01 0.  0.
     999903    2    3    3    0    0 -0.17174851327E-01 -0.19893525926E-01 -0.12775284808E+00  0.13191149714E+00  0.19726251368E-01 0.  0.
         14    1    1    2    0    0 -0.14807784138E-01  0.72244065608E-02  0.18213784159E-01  0.24560220981E-01  0.00000000000E+00 0.  1.
     999901    1    3    3    0    0  0.31982635465E-01  0.12669119365E-01  0.10953906392E+00  0.88745828188E+00  0.88000000000E+00 0. -1.
        -11    1    4    4    0    0 -0.13142172107E-01 -0.56574735191E-02 -0.93587278767E-01  0.94676098157E-01  0.51100000000E-03 0. -1.
         11    1    4    4    0    0 -0.40326792192E-02 -0.14236052407E-01 -0.34165569311E-01  0.37235398980E-01  0.51100000000E-03 0.  1.
</event>
<event>
 8    1  0.1041149E+005  0.1043930E+01  0.7957747E-01            NaN
         13   -1    0    0    0    0  0.00000000000E+00  0.00000000000E+00  0.74505805969E-08  0.10566000000E+00  0.10566000000E+00 0.  1.
     999900   -1    0    0    0    0 -0.00000000000E+00 -0.00000000000E+00 -0.74505805969E-08  0.93827000000E+00  0.93827000000E+00 0. -1.
     999902    2    1    2    0    0 -0.21524502799E-01 -0.73058499224E-02 -0.42924876253E-02  0.10207976609E+01  0.10205355257E+01 0.  0.
     999903    2    3    3    0    0 -0.48948555330E-01 -0.38020972522E-01 -0.11584908179E+00  0.13279970416E+00  0.19318288032E-01 0.  0.
         14    1    1    2    0    0  0.21524502799E-01  0.73058499224E-02  0.42924876253E-02  0.23132339135E-01  0.00000000000E+00 0. -1.
     999901    1    3    3    0    0  0.27424052531E-01  0.30715122599E-01  0.11155659417E+00  0.88799795671E+00  0.88000000000E+00 0.  1.
        -11    1    4    4    0    0 -0.36683454025E-01 -0.16788434049E-01 -0.69515497091E-01  0.80375324409E-01  0.51100000000E-03 0. -1.
         11    1    4    4    0    0 -0.12265101305E-01 -0.21232538473E-01 -0.46333584700E-01  0.52424379750E-01  0.51100000000E-03 0.  1.
</event>
<event>
 8    1  0.1041149E+005  0.1043930E+01  0.7957747E-01            NaN
         13   -1    0    0    0    0  0.00000000000E+00  0.00000000000E+00  0.74505805969E-08  0.10566000000E+00  0.10566000000E+00 0. -1.
     999900   -1    0    0    0    0 -0.00000000000E+00 -0.00000000000E+00 -0.74505805969E-08  0.93827000000E+00  0.93827000000E+00 0.  1.
     999902    2    1    2    0    0  0.10135674664E-01 -0.21173211914E-01  0.18598441844E-02  0.10203822650E+01  0.10201105190E+01 0.  0.
     999903    2    3    3    0    0  0.97977013735E-02 -0.16122048474E-01 -0.12772784285E+00  0.13087757298E+00  0.21415458723E-01 0.  0.
         14    1    1    2    0    0 -0.10135674664E-01  0.21173211914E-01 -0.18598441844E-02  0.23547735008E-01  0.00000000000E+00 0. -1.
     999901    1    3    3    0    0  0.33797329048E-03 -0.50511634398E-02  0.12958768703E+00  0.88950469201E+00  0.88000000000E+00 0. -1.
        -11    1    4    4    0    0  0.14668542953E-01 -0.68495004718E-02 -0.53063712251E-01  0.55480631647E-01  0.51100000000E-03 0. -1.
         11    1    4    4    0    0 -0.48708415795E-02 -0.92725480022E-02 -0.74664130595E-01  0.75396941335E-01  0.51100000000E-03 0.  1.
</event>
<event>
 7    1  0.1041149E+005  0.1043930E+01  0.7957747E-01            NaN
         13   -1    0    0    0    0  0.00000000000E+00  0.00000000000E+00  0.74505805969E-08  0.10566000000E+00  0.10566000000E+00 0. -1.
     999900   -1    0    0    0    0 -0.00000000000E+00 -0.00000000000E+00 -0.74505805969E-08  0.93827000000E+00  0.93827000000E+00 0. -1.
     999902    2    1    2    0    0  0.15576870546E-01 -0.17935901142E-01  0.78383472756E-03  0.10201613264E+01  0.10198843965E+01 0.  0.
         14    1    1    2    0    0 -0.15576870546E-01  0.17935901142E-01 -0.78383472756E-03  0.23768673557E-01  0.00000000000E+00 0. -1.
     999901    1    3    3    0    0 -0.16714359615E-01 -0.12513483018E+00 -0.50545806130E-01  0.89044537960E+00  0.88000000000E+00 0.  1.
        -11    1    3    3    0    0  0.15209053777E-01  0.84121201977E-02  0.69823523834E-03  0.17401946341E-01  0.51100000000E-03 0.  1.
         11    1    3    3    0    0  0.17082176384E-01  0.98786808844E-01  0.50631405619E-01  0.11231400050E+00  0.51100000000E-03 0. -1.
</event>
<event>
 8    1  0.1041149E+005  0.1043930E+01  0.7957747E-01            NaN
         13   -1    0    0    0    0  0.00000000000E+00  0.00000000000E+00  0.74505805969E-08  0.10566000000E+00  0.10566000000E+00 0. -1.
     999900   -1    0    0    0    0 -0.00000000000E+00 -0.00000000000E+00 -0.74505805969E-08  0.93827000000E+00  0.93827000000E+00 0.  1.
     999902    2    1    2    0    0 -0.11868401737E-01 -0.22041894142E-01  0.79494095304E-02  0.10176641064E+01  0.10173250887E+01 0.  0.
     999903    2    3    3    0    0 -0.36800967033E-01 -0.60740769677E-02 -0.12070228795E+00  0.12781700529E+00  0.19414915402E-01 0.  0.
         14    1    1    2    0    0  0.11868401737E-01  0.22041894142E-01 -0.79494095304E-02  0.26265893647E-01  0.00000000000E+00 0. -1.
     999901    1    3    3    0    0  0.24932565295E-01 -0.15967817174E-01  0.12865169748E+00  0.88984710106E+00  0.88000000000E+00 0. -1.
        -11    1    4    4    0    0 -0.29179282717E-01 -0.12439897618E-01 -0.98673375543E-01  0.10364785456E+00  0.51100000000E-03 0.  1.
         11    1    4    4    0    0 -0.76216843158E-02  0.63658206499E-02 -0.22028912409E-01  0.24169150736E-01  0.51100000000E-03 0. -1.
</event>
<event>
 8    1  0.1041149E+005  0.1043930E+01  0.7957747E-01            NaN
         13   -1    0    0    0    0  0.00000000000E+00  0.00000000000E+00  0.74505805969E-08  0.10566000000E+00  0.10566000000E+00 0.  1.
     999900   -1    0    0    0    0 -0.00000000000E+00 -0.00000000000E+00 -0.74505805969E-08  0.93827000000E+00  0.93827000000E+00 0.  1.
     999902    2    1    2    0    0  0.79780276740E-02  0.65155811817E-02 -0.21559074947E-01  0.10200365817E+01  0.10197567027E+01 0.  0.
     999903    2    3    3    0    0  0.41862567787E-02  0.86887578659E-01  0.93296061312E-01  0.12893291895E+00  0.18776753237E-01 0.  0.
         14    1    1    2    0    0 -0.79780276740E-02 -0.65155811817E-02  0.21559074947E-01  0.23893418263E-01  0.00000000000E+00 0.  1.
     999901    1    3    3    0    0  0.37917708953E-02 -0.80371997477E-01 -0.11485513626E+00  0.89110366279E+00  0.88000000000E+00 0.  1.
        -11    1    4    4    0    0 -0.68148305137E-02  0.48747023317E-01  0.49106480255E-01  0.69530005905E-01  0.51100000000E-03 0.  1.
         11    1    4    4    0    0  0.11001087292E-01  0.38140555342E-01  0.44189581056E-01  0.59402913046E-01  0.51100000000E-03 0. -1.
</event>
<event>
 8    1  0.1041149E+005  0.1043930E+01  0.7957747E-01            NaN
         13   -1    0    0    0    0  0.00000000000E+00  0.00000000000E+00  0.74505805969E-08  0.10566000000E+00  0.10566000000E+00 0.  1.
     999900   -1    0    0    0    0 -0.00000000000E+00 -0.00000000000E+00 -0.74505805969E-08  0.93827000000E+00  0.93827000000E+00 0. -1.
     999902    2    1    2    0    0 -0.13043223046E-01 -0.16775069425E-01  0.12086359111E-01  0.10194839635E+01  0.10191908277E+01 0.  0.
     999903    2    3    3    0    0  0.10268400016E+00  0.74756409980E-02 -0.72425996044E-01  0.12756287661E+00  0.20660916942E-01 0.  0.
         14    1    1    2    0    0  0.13043223046E-01  0.16775069425E-01 -0.12086359111E-01  0.24446036452E-01  0.00000000000E+00 0. -1.
     999901    1    3    3    0    0 -0.11572722321E+00 -0.24250710423E-01  0.84512355155E-01  0.89192108694E+00  0.88000000000E+00 0.  1.
        -11    1    4    4    0    0  0.74044289490E-01 -0.15522468213E-02 -0.58883057691E-01  0.94617344501E-01  0.51100000000E-03 0.  1.
         11    1    4    4    0    0  0.28639710673E-01  0.90278878192E-02 -0.13542938352E-01  0.32945532112E-01  0.51100000000E-03 0. -1.
</event>
<event>
 8    1  0.1041149E+005  0.1043930E+01  0.7957747E-01            NaN
         13   -1    0    0    0    0  0.00000000000E+00  0.00000000000E+00  0.74505805969E-08  0.10566000000E+00  0.10566000000E+00 0.  1.
     999900   -1    0    0    0    0 -0.00000000000E+00 -0.00000000000E+00 -0.74505805969E-08  0.93827000000E+00  0.93827000000E+00 0. -1.
     999902    2    1    2    0    0 -0.38595609627E-02 -0.18032174906E-01 -0.13954828214E-01  0.10208044130E+01  0.10205424327E+01 0.  0.
     999903    2    3    3    0    0 -0.10943099769E+00 -0.45698667324E-01  0.53248489956E-01  0.13151984157E+00  0.19963857163E-01 0.  0.
         14    1    1    2    0    0  0.38595609627E-02  0.18032174906E-01  0.13954828214E-01  0.23125586980E-01  0.00000000000E+00 0.  1.
     999901    1    3    3    0    0  0.10557143672E+00  0.27666492418E-01 -0.67203318170E-01  0.88928457145E+00  0.88000000000E+00 0. -1.
        -11    1    4    4    0    0 -0.47475697207E-01 -0.92395965380E-02  0.21604610800E-01  0.52974827025E-01  0.51100000000E-03 0.  1.
         11    1    4    4    0    0 -0.61955300480E-01 -0.36459070786E-01  0.31643879156E-01  0.78545014540E-01  0.51100000000E-03 0. -1.
</event>
<event>
 8    1  0.1041149E+005  0.1043930E+01  0.7957747E-01            NaN
         13   -1    0    0    0    0  0.00000000000E+00  0.00000000000E+00  0.74505805969E-08  0.10566000000E+00  0.10566000000E+00 0.  1.
     999900   -1    0    0    0    0 -0.00000000000E+00 -0.00000000000E+00 -0.74505805969E-08  0.93827000000E+00  0.93827000000E+00 0. -1.
     999902    2    1    2    0    0  0.23557982748E-02 -0.90941512520E-02 -0.21483897429E-01  0.10204819463E+01  0.10202125227E+01 0.  0.
     999903    2    3    3    0    0  0.10913838580E+00 -0.51313583917E-01 -0.51165355568E-01  0.13252587171E+00  0.20023533934E-01 0.  0.
         14    1    1    2    0    0 -0.23557982748E-02  0.90941512520E-02  0.21483897429E-01  0.23448053677E-01  0.00000000000E+00 0.  1.
     999901    1    3    3    0    0 -0.10678258753E+00  0.42219432665E-01  0.29681458139E-01  0.88795607462E+00  0.88000000000E+00 0.  1.
        -11    1    4    4    0    0  0.72000454757E-01 -0.43358673560E-01 -0.31546263449E-01  0.89774539356E-01  0.51100000000E-03 0.  1.
         11    1    4    4    0    0  0.37137931044E-01 -0.79549103571E-02 -0.19619092119E-01  0.42751332349E-01  0.51100000000E-03 0. -1.
</event>
<event>
 8    1  0.1041149E+005  0.1043930E+01  0.7957747E-01            NaN
         13   -1    0    0    0    0  0.00000000000E+00  0.00000000000E+00  0.74505805969E-08  0.10566000000E+00  0.10566000000E+00 0. -1.
     999900   -1    0    0    0    0 -0.00000000000E+00 -0.00000000000E+00 -0.74505805969E-08  0.93827000000E+00  0.93827000000E+00 0.  1.
     999902    2    1    2    0    0 -0.15319226905E-01  0.68340692785E-02  0.17196127351E-01  0.10199073022E+01  0.10196243499E+01 0.  0.
     999903    2    3    3    0    0  0.11527682378E+00  0.50329951497E-01  0.21443779049E-01  0.12919676401E+00  0.20251371589E-01 0.  0.
         14    1    1    2    0    0  0.15319226905E-01 -0.68340692785E-02 -0.17196127351E-01  0.24022697845E-01  0.00000000000E+00 0.  1.
     999901    1    3    3    0    0 -0.13059605069E+00 -0.43495882218E-01 -0.42476516975E-02  0.89071053815E+00  0.88000000000E+00 0.  1.
        -11    1    4    4    0    0  0.92610456050E-01  0.36581306751E-01  0.92234881943E-02  0.10000111214E+00  0.51100000000E-03 0.  1.
         11    1    4    4    0    0  0.22666367730E-01  0.13748644746E-01  0.12220290855E-01  0.29195651868E-01  0.51100000000E-03 0. -1.
</event>
<event>
 8    1  0.1041149E+005  0.1043930E+01  0.7957747E-01            NaN
         13   -1    0    0    0    0  0.00000000000E+00  0.00000000000E+00  0.74505805969E-08  0.10566000000E+00  0.10566000000E+00 0.  1.
     999900   -1    0    0    0    0 -0.00000000000E+00 -0.00000000000E+00 -0.74505805969E-08  0.93827000000E+00  0.93827000000E+00 0. -1.
     999902    2    1    2    0    0  0.24172961609E-01  0.50220141322E-02  0.12868687334E-01  0.10160883798E+01  0.10157068671E+01 0.  0.
     999903    2    3    3    0    0  0.35364420471E-01 -0.11909649525E+00  0.19786131166E-01  0.12728103056E+00  0.19348186937E-01 0.  0.
         14    1    1    2    0    0 -0.24172961609E-01 -0.50220141322E-02 -0.12868687334E-01  0.27841620151E-01  0.00000000000E+00 0. -1.
     999901    1    3    3    0    0 -0.11191458861E-01  0.12411850938E+00 -0.69174438319E-02  0.88880734929E+00  0.88000000000E+00 0. -1.
        -11    1    4    4    0    0  0.64557476886E-02 -0.21390144852E-01 -0.38571477873E-02  0.22679366945E-01  0.51100000000E-03 0.  1.
         11    1    4    4    0    0  0.28908672782E-01 -0.97706350398E-01  0.23643278953E-01  0.10460166361E+00  0.51100000000E-03 0. -1.
</event>
<event>
 8    1  0.1041149E+005  0.1043930E+01  0.7957747E-01            NaN
         13   -1    0    0    0    0  0.00000000000E+00  0.00000000000E+00  0.74505805969E-08  0.10566000000E+00  0.10566000000E+00 0.  1.
     999900   -1    0    0    0    0 -0.00000000000E+00 -0.00000000000E+00 -0.74505805969E-08  0.93827000000E+00  0.93827000000E+00 0.  1.
     999902    2    1    2    0    0  0.14245890202E-01 -0.18263340748E-01 -0.43779164596E-02  0.10203575340E+01  0.10200852101E+01 0.  0.
     999903    2    3    3    0    0 -0.58773017021E-01  0.10132282192E+00 -0.44561443776E-01  0.12836687987E+00  0.27780421223E-01 0.  0.
         14    1    1    2    0    0 -0.14245890202E-01  0.18263340748E-01  0.43779164596E-02  0.23572466045E-01  0.00000000000E+00 0. -1.
     999901    1    3    3    0    0  0.73018907222E-01 -0.11958616267E+00  0.40183527317E-01  0.89199065409E+00  0.88000000000E+00 0. -1.
        -11    1    4    4    0    0 -0.58965094187E-01  0.94882271888E-01 -0.35463964127E-01  0.11720700373E+00  0.51100000000E-03 0. -1.
         11    1    4    4    0    0  0.19207716667E-03  0.64405500340E-02 -0.90974796495E-02  0.11159876135E-01  0.51100000000E-03 0.  1.
</event>
<event>
 8    1  0.1041149E+005  0.1043930E+01  0.7957747E-01            NaN
         13   -1    0    0    0    0  0.00000000000E+00  0.00000000000E+00  0.74505805969E-08  0.10566000000E+00  0.10566000000E+00 0.  1.
     999900   -1    0    0    0    0 -0.00000000000E+00 -0.00000000000E+00 -0.74505805969E-08  0.93827000000E+00  0.93827000000E+00 0.  1.
     999902    2    1    2    0    0 -0.86983916825E-02 -0.22166875477E-01 -0.26877761596E-02  0.10199663499E+01  0.10196848034E+01 0.  0.
     999903    2    3    3    0    0  0.66753942068E-02 -0.11689053384E+00  0.58797172461E-01  0.13261674367E+00  0.20545934449E-01 0.  0.
         14    1    1    2    0    0  0.86983916825E-02  0.22166875477E-01  0.26877761596E-02  0.23963650118E-01  0.00000000000E+00 0.  1.
     999901    1    3    3    0    0 -0.15373785889E-01  0.94723658360E-01 -0.61484948620E-01  0.88734960622E+00  0.88000000000E+00 0.  1.
        -11    1    4    4    0    0 -0.63169621583E-02 -0.61945287006E-01  0.34030948277E-01  0.70961180619E-01  0.51100000000E-03 0.  1.
         11    1    4    4    0    0  0.12992356365E-01 -0.54945246831E-01  0.24766224184E-01  0.61655563047E-01  0.51100000000E-03 0. -1.
</event>
<event>
 8    1  0.1041149E+005  0.1043930E+01  0.7957747E-01            NaN
         13   -1    0    0    0    0  0.00000000000E+00  0.00000000000E+00  0.74505805969E-08  0.10566000000E+00  0.10566000000E+00 0. -1.
     999900   -1    0    0    0    0 -0.00000000000E+00 -0.00000000000E+00 -0.74505805969E-08  0.93827000000E+00  0.93827000000E+00 0. -1.
     999902    2    1    2    0    0 -0.17635858793E-01  0.21087701401E-02  0.13450416353E-01  0.10216503203E+01  0.10214073589E+01 0.  0.
     999903    2    3    3    0    0 -0.86793907132E-01 -0.82868076929E-01 -0.53426953023E-01  0.13233795521E+00  0.16080876568E-01 0.  0.
         14    1    1    2    0    0  0.17635858793E-01 -0.21087701401E-02 -0.13450416353E-01  0.22279679686E-01  0.00000000000E+00 0.  1.
     999901    1    3    3    0    0  0.69158048339E-01  0.84976847069E-01  0.66877369376E-01  0.88931236510E+00  0.88000000000E+00 0.  1.
        -11    1    4    4    0    0 -0.66541995191E-01 -0.64688313292E-01 -0.48367237582E-01  0.10465211796E+00  0.51100000000E-03 0. -1.
         11    1    4    4    0    0 -0.20251911941E-01 -0.18179763637E-01 -0.50597154412E-02  0.27685837255E-01  0.51100000000E-03 0.  1.
</event>
<event>
 8    1  0.1041149E+005  0.1043930E+01  0.7957747E-01            NaN
         13   -1    0    0    0    0  0.00000000000E+00  0.00000000000E+00  0.74505805969E-08  0.10566000000E+00  0.10566000000E+00 0. -1.
     999900   -1    0    0    0    0 -0.00000000000E+00 -0.00000000000E+00 -0.74505805969E-08  0.93827000000E+00  0.93827000000E+00 0.  1.
     999902    2    1    2    0    0  0.19793626576E-01  0.14461378165E-02  0.12641852368E-01  0.10203992669E+01  0.10201279177E+01 0.  0.
     999903    2    3    3    0    0  0.99002710889E-02  0.12263674663E+00 -0.39021136119E-01  0.13053742005E+00  0.19482863678E-01 0.  0.
         14    1    1    2    0    0 -0.19793626576E-01 -0.14461378165E-02 -0.12641852368E-01  0.23530733072E-01  0.00000000000E+00 0.  1.
     999901    1    3    3    0    0  0.98933554867E-02 -0.12119060882E+00  0.51662988488E-01  0.88986184688E+00  0.88000000000E+00 0. -1.
        -11    1    4    4    0    0  0.13677236360E-01  0.11423715174E+00 -0.33696824868E-01  0.11988715844E+00  0.51100000000E-03 0. -1.
         11    1    4    4    0    0 -0.37769652712E-02  0.83995948908E-02 -0.53243112511E-02  0.10650261607E-01  0.51100000000E-03 0.  1.
</event>
<event>
 8    1  0.1041149E+005  0.1043930E+01  0.7957747E-01            NaN
         13   -1    0    0    0    0  0.00000000000E+00  0.00000000000E+00  0.74505805969E-08  0.10566000000E+00  0.10566000000E+00 0. -1.
     999900   -1    0    0    0    0 -0.00000000000E+00 -0.00000000000E+00 -0.74505805969E-08  0.93827000000E+00  0.93827000000E+00 0. -1.
     999902    2    1    2    0    0 -0.24601245103E-02 -0.21147508135E-01  0.16174239443E-01  0.10171928473E+01  0.10168413904E+01 0.  0.
     999903    2    3    3    0    0  0.28789858845E-01  0.80267966440E-01  0.92690058188E-01  0.12752081196E+00  0.19957659884E-01 0.  0.
         14    1    1    2    0    0  0.24601245103E-02  0.21147508135E-01 -0.16174239443E-01  0.26737152700E-01  0.00000000000E+00 0.  1.
     999901    1    3    3    0    0 -0.31249983355E-01 -0.10141547457E+00 -0.76515818745E-01  0.88967203534E+00  0.88000000000E+00 0. -1.
        -11    1    4    4    0    0  0.26168592500E-01  0.48691940546E-01  0.51509932248E-01  0.75559476896E-01  0.51100000000E-03 0. -1.
         11    1    4    4    0    0  0.26212663444E-02  0.31576025894E-01  0.41180125940E-01  0.51961335067E-01  0.51100000000E-03 0.  1.
</event>
<event>
 8    1  0.1041149E+005  0.1043930E+01  0.7957747E-01            NaN
         13   -1    0    0    0    0  0.00000000000E+00  0.00000000000E+00  0.74505805969E-08  0.10566000000E+00  0.10566000000E+00 0.  1.
     999900   -1    0    0    0    0 -0.00000000000E+00 -0.00000000000E+00 -0.74505805969E-08  0.93827000000E+00  0.93827000000E+00 0.  1.
     999902    2    1    2    0    0 -0.20305731543E-01 -0.27708676523E-02 -0.11084163635E-01  0.10206306626E+01  0.10203646849E+01 0.  0.
     999903    2    3    3    0    0 -0.57757103318E-01 -0.72728671430E-01 -0.93394929656E-01  0.13323460570E+00  0.20087424876E-01 0.  0.
         14    1    1    2    0    0  0.20305731543E-01  0.27708676523E-02  0.11084163635E-01  0.23299337427E-01  0.00000000000E+00 0. -1.
     999901    1    3    3    0    0  0.37451371776E-01  0.69957803778E-01  0.82310766021E-01  0.88739605688E+00  0.88000000000E+00 0. -1.
        -11    1    4    4    0    0 -0.30942757284E-01 -0.34277312653E-01 -0.32903006276E-01  0.56703239185E-01  0.51100000000E-03 0. -1.
         11    1    4    4    0    0 -0.26814346034E-01 -0.38451358777E-01 -0.60491923380E-01  0.76531366512E-01  0.51100000000E-03 0.  1.
</event>
<event>
 8    1  0.1041149E+005  0.1043930E+01  0.7957747E-01            NaN
         13   -1    0    0    0    0  0.00000000000E+00  0.00000000000E+00  0.74505805969E-08  0.10566000000E+00  0.10566000000E+00 0.  1.
     999900   -1    0    0    0    0 -0.00000000000E+00 -0.00000000000E+00 -0.74505805969E-08  0.93827000000E+00  0.93827000000E+00 0.  1.
     999902    2    1    2    0    0 -0.19406452841E-01  0.11046567041E-02  0.11974385529E-01  0.10210998316E+01  0.10208445766E+01 0.  0.
     999903    2    3    3    0    0 -0.12478909706E-01  0.81789441401E-01  0.10189708858E+00  0.13281827839E+00  0.20308680436E-01 0.  0.
         14    1    1    2    0    0  0.19406452841E-01 -0.11046567041E-02 -0.11974385529E-01  0.22830168354E-01  0.00000000000E+00 0. -1.
     999901    1    3    3    0    0 -0.69275431344E-02 -0.80684784697E-01 -0.89922703049E-01  0.88828155326E+00  0.88000000000E+00 0.  1.
        -11    1    4    4    0    0 -0.14909808771E-01  0.61150170499E-01  0.65088703244E-01  0.90545271332E-01  0.51100000000E-03 0. -1.
         11    1    4    4    0    0  0.24308990646E-02  0.20639270903E-01  0.36808385333E-01  0.42273007055E-01  0.51100000000E-03 0.  1.
</event>
<event>
 8    1  0.1041149E+005  0.1043930E+01  0.7957747E-01            NaN
         13   -1    0    0    0    0  0.00000000000E+00  0.00000000000E+00  0.74505805969E-08  0.10566000000E+00  0.10566000000E+00 0. -1.
     999900   -1    0    0    0    0 -0.00000000000E+00 -0.00000000000E+00 -0.74505805969E-08  0.93827000000E+00  0.93827000000E+00 0. -1.
     999902    2    1    2    0    0 -0.81320342386E-04 -0.18856914559E-01 -0.13944965445E-01  0.10204768147E+01  0.10202072718E+01 0.  0.
     999903    2    3    3    0    0  0.86857582854E-01 -0.30086924645E-01 -0.92961545310E-01  0.13259838501E+00  0.22158972580E-01 0.  0.
         14    1    1    2    0    0  0.81320342386E-04  0.18856914559E-01  0.13944965445E-01  0.23453185305E-01  0.00000000000E+00 0.  1.
     999901    1    3    3    0    0 -0.86938903196E-01  0.11230010086E-01  0.79016579864E-01  0.88787842969E+00  0.88000000000E+00 0.  1.
        -11    1    4    4    0    0  0.55186715264E-01 -0.29568714399E-01 -0.66320881494E-01  0.91206375084E-01  0.51100000000E-03 0.  1.
         11    1    4    4    0    0  0.31670867590E-01 -0.51821024580E-03 -0.26640663816E-01  0.41392009921E-01  0.51100000000E-03 0. -1.
</event>
<event>
 8    1  0.1041149E+005  0.1043930E+01  0.7957747E-01            NaN
         13   -1    0    0    0    0  0.00000000000E+00  0.00000000000E+00  0.74505805969E-08  0.10566000000E+00  0.10566000000E+00 0. -1.
     999900   -1    0    0    0    0 -0.00000000000E+00 -0.00000000000E+00 -0.74505805969E-08  0.93827000000E+00  0.93827000000E+00 0. -1.
     999902    2    1    2    0    0 -0.15740698102E-01 -0.15273115023E-01 -0.92898449619E-02  0.10201111243E+01  0.10198330094E+01 0.  0.
     999903    2    3    3    0    0 -0.12334152643E+00 -0.43454548966E-01  0.13284208404E-01  0.13282215259E+00  0.19074172535E-01 0.  0.
         14    1    1    2    0    0  0.15740698102E-01  0.15273115023E-01  0.92898449619E-02  0.23818875680E-01  0.00000000000E+00 0. -1.
     999901    1    3    3    0    0  0.10760082832E+00  0.28181433943E-01 -0.22574053366E-01  0.88728897173E+00  0.88000000000E+00 0. -1.
        -11    1    4    4    0    0 -0.56925484231E-01 -0.29611853444E-01  0.95360304552E-02  0.64873489325E-01  0.51100000000E-03 0. -1.
         11    1    4    4    0    0 -0.66416042194E-01 -0.13842695522E-01  0.37481779484E-02  0.67948663261E-01  0.51100000000E-03 0.  1.
</event>
<event>
 7    1  0.1041149E+005  0.1043930E+01  0.7957747E-01            NaN
         13   -1    0    0    0    0  0.00000000000E+00  0.00000000000E+00  0.74505805969E-08  0.10566000000E+00  0.10566000000E+00 0.  1.
     999900   -1    0    0    0    0 -0.00000000000E+00 -0.00000000000E+00 -0.74505805969E-08  0.93827000000E+00  0.93827000000E+00 0. -1.
     999902    2    1    2    0    0  0.16765917673E-01  0.29091561415E-01  0.47176626476E-02  0.10100231971E+01  0.10094539056E+01 0.  0.
         14    1    1    2    0    0 -0.16765917673E-01 -0.29091561415E-01 -0.47176626476E-02  0.33906802884E-01  0.00000000000E+00 0. -1.
     999901    1    3    3    0    0 -0.85466149202E-01  0.16286375630E-01 -0.54484171876E-01  0.88596739989E+00  0.88000000000E+00 0. -1.
        -11    1    3    3    0    0  0.89899706436E-01  0.18908065502E-01  0.39454529408E-01  0.99981964224E-01  0.51100000000E-03 0. -1.
         11    1    3    3    0    0  0.12332360439E-01 -0.61028797174E-02  0.19747305116E-01  0.24073832997E-01  0.51100000000E-03 0.  1.
</event>
<event>
 8    1  0.1041149E+005  0.1043930E+01  0.7957747E-01            NaN
         13   -1    0    0    0    0  0.00000000000E+00  0.00000000000E+00  0.74505805969E-08  0.10566000000E+00  0.10566000000E+00 0. -1.
     999900   -1    0    0    0    0 -0.00000000000E+00 -0.00000000000E+00 -0.74505805969E-08  0.93827000000E+00  0.93827000000E+00 0.  1.
     999902    2    1    2    0    0 -0.88879897497E-02  0.73597541128E-03 -0.14746860366E-01  0.10266960825E+01  0.10265514297E+01 0.  0.
     999903    2    3    3    0    0 -0.30114439884E-01 -0.12846240543E+00  0.26621272237E-01  0.13604794424E+00  0.19770733353E-01 0.  0.
         14    1    1    2    0    0  0.88879897497E-02 -0.73597541128E-03  0.14746860366E-01  0.17233917495E-01  0.00000000000E+00 0. -1.
     999901    1    3    3    0    0  0.21226450134E-01  0.12919838084E+00 -0.41368132602E-01  0.89064813826E+00  0.88000000000E+00 0.  1.
        -11    1    4    4    0    0 -0.59684164568E-02 -0.57393622842E-01  0.18248278303E-01  0.60521985426E-01  0.51100000000E-03 0.  1.
         11    1    4    4    0    0 -0.24146023427E-01 -0.71068782592E-01  0.83729939337E-02  0.75525958814E-01  0.51100000000E-03 0. -1.
</event>
<event>
 8    1  0.1041149E+005  0.1043930E+01  0.7957747E-01            NaN
         13   -1    0    0    0    0  0.00000000000E+00  0.00000000000E+00  0.74505805969E-08  0.10566000000E+00  0.10566000000E+00 0.  1.
     999900   -1    0    0    0    0 -0.00000000000E+00 -0.00000000000E+00 -0.74505805969E-08  0.93827000000E+00  0.93827000000E+00 0. -1.
     999902    2    1    2    0    0  0.70082067940E-02 -0.20622122200E-01  0.10712960076E-01  0.10196574970E+01  0.10193685579E+01 0.  0.
     999903    2    3    3    0    0 -0.42545955444E-01 -0.76077670336E-01 -0.95042647966E-01  0.13021093796E+00  0.17994809936E-01 0.  0.
         14    1    1    2    0    0 -0.70082067940E-02  0.20622122200E-01 -0.10712960076E-01  0.24272502963E-01  0.00000000000E+00 0.  1.
     999901    1    3    3    0    0  0.49554162238E-01  0.55455548136E-01  0.10575560804E+00  0.88944655907E+00  0.88000000000E+00 0.  1.
        -11    1    4    4    0    0 -0.36973246999E-01 -0.55009966685E-01 -0.79128509353E-01  0.10322160405E+00  0.51100000000E-03 0. -1.
         11    1    4    4    0    0 -0.55727084443E-02 -0.21067703652E-01 -0.15914138613E-01  0.26989333919E-01  0.51100000000E-03 0.  1.
</event>
<event>
 8    1  0.1041149E+005  0.1043930E+01  0.7957747E-01            NaN
         13   -1    0    0    0    0  0.00000000000E+00  0.00000000000E+00  0.74505805969E-08  0.10566000000E+00  0.10566000000E+00 0.  1.
     999900   -1    0    0    0    0 -0.00000000000E+00 -0.00000000000E+00 -0.74505805969E-08  0.93827000000E+00  0.93827000000E+00 0. -1.
     999902    2    1    2    0    0  0.13945163500E-01 -0.43608689993E-02 -0.18680323128E-01  0.10202141986E+01  0.10199385137E+01 0.  0.
     999903    2    3    3    0    0 -0.11135175351E+00 -0.40722965190E-01 -0.49582482268E-01  0.13005889593E+00  0.19983016777E-01 0.  0.
         14    1    1    2    0    0 -0.13945163500E-01  0.43608689993E-02  0.18680323128E-01  0.23715801391E-01  0.00000000000E+00 0.  1.
     999901    1    3    3    0    0  0.12529691701E+00  0.36362096190E-01  0.30902159140E-01  0.89015530268E+00  0.88000000000E+00 0. -1.
        -11    1    4    4    0    0 -0.38114574537E-01 -0.23521183432E-01 -0.22277059694E-01  0.50024947494E-01  0.51100000000E-03 0. -1.
         11    1    4    4    0    0 -0.73237178970E-01 -0.17201781757E-01 -0.27305422573E-01  0.80033948434E-01  0.51100000000E-03 0.  1.
</event>
<event>
 8    1  0.1041149E+005  0.1043930E+01  0.7957747E-01            NaN
         13   -1    0    0    0    0  0.00000000000E+00  0.00000000000E+00  0.74505805969E-08  0.10566000000E+00  0.10566000000E+00 0. -1.
     999900   -1    0    0    0    0 -0.00000000000E+00 -0.00000000000E+00 -0.74505805969E-08  0.93827000000E+00  0.93827000000E+00 0. -1.
     999902    2    1    2    0    0  0.15525485734E-01 -0.14609895469E-01  0.10759591843E-01  0.10200499127E+01  0.10197703496E+01 0.  0.
     999903    2    3    3    0    0  0.99386470226E-01  0.29034749868E-01  0.79880325253E-01  0.13229138947E+00  0.19986450414E-01 0.  0.
         14    1    1    2    0    0 -0.15525485734E-01  0.14609895469E-01 -0.10759591843E-01  0.23880087301E-01  0.00000000000E+00 0. -1.
     999901    1    3    3    0    0 -0.83860984492E-01 -0.43644645337E-01 -0.69120733410E-01  0.88775852323E+00  0.88000000000E+00 0. -1.
        -11    1    4    4    0    0  0.39967725721E-01  0.16693795027E-01  0.22682930624E-01  0.48896608823E-01  0.51100000000E-03 0. -1.
         11    1    4    4    0    0  0.59418744506E-01  0.12340954841E-01  0.57197394629E-01  0.83394780643E-01  0.51100000000E-03 0.  1.
</event>
<event>
 8    1  0.1041149E+005  0.1043930E+01  0.7957747E-01            NaN
         13   -1    0    0    0    0  0.00000000000E+00  0.00000000000E+00  0.74505805969E-08  0.10566000000E+00  0.10566000000E+00 0.  1.
     999900   -1    0    0    0    0 -0.00000000000E+00 -0.00000000000E+00 -0.74505805969E-08  0.93827000000E+00  0.93827000000E+00 0.  1.
     999902    2    1    2    0    0  0.15128524054E-01 -0.46736294434E-02  0.18012515159E-01  0.10199473864E+01  0.10196653889E+01 0.  0.
     999903    2    3    3    0    0  0.34618733214E-01  0.12177161426E+00 -0.20657083942E-01  0.12985547778E+00  0.20222444598E-01 0.  0.
         14    1    1    2    0    0 -0.15128524054E-01  0.46736294434E-02 -0.18012515159E-01  0.23982613590E-01  0.00000000000E+00 0. -1.
     999901    1    3    3    0    0 -0.19490209160E-01 -0.12644524370E+00  0.38669599101E-01  0.89009190863E+00  0.88000000000E+00 0. -1.
        -11    1    4    4    0    0  0.28058817538E-01  0.79671658084E-01 -0.21769873230E-01  0.87229919437E-01  0.51100000000E-03 0. -1.
         11    1    4    4    0    0  0.65599156759E-02  0.42099956173E-01  0.11127892884E-02  0.42625558347E-01  0.51100000000E-03 0.  1.
</event>
<event>
 8    1  0.1041149E+005  0.1043930E+01  0.7957747E-01            NaN
         13   -1    0    0    0    0  0.00000000000E+00  0.00000000000E+00  0.74505805969E-08  0.10566000000E+00  0.10566000000E+00 0. -1.
     999900   -1    0    0    0    0 -0.00000000000E+00 -0.00000000000E+00 -0.74505805969E-08  0.93827000000E+00  0.93827000000E+00 0.  1.
     999902    2    1    2    0    0 -0.27927986729E-02  0.22570658430E-02  0.22449804046E-01  0.10211948340E+01  0.10209417227E+01 0.  0.
     999903    2    3    3    0    0 -0.11506498506E+00 -0.51687562994E-01  0.35654969613E-01  0.13232507797E+00  0.18085752589E-01 0.  0.
         14    1    1    2    0    0  0.27927986729E-02 -0.22570658430E-02 -0.22449804046E-01  0.22735165984E-01  0.00000000000E+00 0.  1.
     999901    1    3    3    0    0  0.11227218639E+00  0.53944628837E-01 -0.13205165567E-01  0.88886975605E+00  0.88000000000E+00 0.  1.
        -11    1    4    4    0    0 -0.50039008866E-01 -0.31335262257E-01  0.12429215172E-01  0.60336950369E-01  0.51100000000E-03 0. -1.
         11    1    4    4    0    0 -0.65025976193E-01 -0.20352300737E-01  0.23225754441E-01  0.71988127601E-01  0.51100000000E-03 0.  1.
</event>
<event>
 8    1  0.1041149E+005  0.1043930E+01  0.7957747E-01            NaN
         13   -1    0    0    0    0  0.00000000000E+00  0.00000000000E+00  0.74505805969E-08  0.10566000000E+00  0.10566000000E+00 0. -1.
     999900   -1    0    0    0    0 -0.00000000000E+00 -0.00000000000E+00 -0.74505805969E-08  0.93827000000E+00  0.93827000000E+00 0. -1.
     999902    2    1    2    0    0  0.16431683030E-01 -0.10548905107E-01 -0.12627317547E-01  0.10206764249E+01  0.10204115031E+01 0.  0.
     999903    2    3    3    0    0  0.39204674028E-01  0.11914751984E+00 -0.30899289880E-01  0.13069123585E+00  0.19806439945E-01 0.  0.
         14    1    1    2    0    0 -0.16431683030E-01  0.10548905107E-01  0.12627317547E-01  0.23253575092E-01  0.00000000000E+00 0. -1.
     999901    1    3    3    0    0 -0.22772990999E-01 -0.12969642495E+00  0.18271972333E-01  0.88998518905E+00  0.88000000000E+00 0.  1.
        -11    1    4    4    0    0  0.16773031943E-03  0.23043071602E-01 -0.85167615611E-02  0.24572497448E-01  0.51100000000E-03 0. -1.
         11    1    4    4    0    0  0.39036943709E-01  0.96104448241E-01 -0.22382528319E-01  0.10611873841E+00  0.51100000000E-03 0.  1.
</event>
<event>
 8    1  0.1041149E+005  0.1043930E+01  0.7957747E-01            NaN
         13   -1    0    0    0    0  0.00000000000E+00  0.00000000000E+00  0.74505805969E-08  0.10566000000E+00  0.10566000000E+00 0.  1.
     999900   -1    0    0    0    0 -0.00000000000E+00 -0.00000000000E+00 -0.74505805969E-08  0.93827000000E+00  0.93827000000E+00 0. -1.
     999902    2    1    2    0    0 -0.21692019686E-01  0.50023422144E-02 -0.71283409711E-02  0.10205552189E+01  0.10202874960E+01 0.  0.
     999903    2    3    3    0    0 -0.12436499128E+00 -0.30573195545E-01 -0.32349782510E-01  0.13351323620E+00  0.19439765217E-01 0.  0.
         14    1    1    2    0    0  0.21692019686E-01 -0.50023422144E-02  0.71283409711E-02  0.23374781083E-01  0.00000000000E+00 0.  1.
     999901    1    3    3    0    0  0.10267297159E+00  0.35575537759E-01  0.25221441539E-01  0.88704198271E+00  0.88000000000E+00 0.  1.
        -11    1    4    4    0    0 -0.73478157676E-01 -0.25919539868E-01 -0.13688061653E-01  0.79110595720E-01  0.51100000000E-03 0.  1.
         11    1    4    4    0    0 -0.50886833603E-01 -0.46536556769E-02 -0.18661720857E-01  0.54402640484E-01  0.51100000000E-03 0. -1.
</event>
<event>
 8    1  0.1041149E+005  0.1043930E+01  0.7957747E-01            NaN
         13   -1    0    0    0    0  0.00000000000E+00  0.00000000000E+00  0.74505805969E-08  0.10566000000E+00  0.10566000000E+00 0. -1.
     999900   -1    0    0    0    0 -0.00000000000E+00 -0.00000000000E+00 -0.74505805969E-08  0.93827000000E+00  0.93827000000E+00 0.  1.
     999902    2    1    2    0    0 -0.89894090042E-02  0.70489962816E-02  0.20298468250E-01  0.10206378203E+01  0.10203720079E+01 0.  0.
     999903    2    3    3    0    0  0.52579234067E-01  0.68218905855E-01  0.98930350895E-01  0.13287916579E+00  0.21242961247E-01 0.  0.
         14    1    1    2    0    0  0.89894090042E-02 -0.70489962816E-02 -0.20298468250E-01  0.23292179720E-01  0.00000000000E+00 0.  1.
     999901    1    3    3    0    0 -0.61568643071E-01 -0.61169909573E-01 -0.78631882645E-01  0.88775865449E+00  0.88000000000E+00 0.  1.
        -11    1    4    4    0    0  0.42074223185E-01  0.42321871489E-01  0.76594862796E-01  0.97100026729E-01  0.51100000000E-03 0. -1.
         11    1    4    4    0    0  0.10505010882E-01  0.25897034366E-01  0.22335488099E-01  0.35779139065E-01  0.51100000000E-03 0.  1.
</event>
<event>
 8    1  0.1041149E+005  0.1043930E+01  0.7957747E-01            NaN
         13   -1    0    0    0    0  0.00000000000E+00  0.00000000000E+00  0.74505805969E-08  0.10566000000E+00  0.10566000000E+00 0.  1.
     999900   -1    0    0    0    0 -0.00000000000E+00 -0.00000000000E+00 -0.74505805969E-08  0.93827000000E+00  0.93827000000E+00 0.  1.
     999902    2    1    2    0    0 -0.77472607301E-02 -0.13520734813E-01  0.17491536998E-01  0.10205038568E+01  0.10202349423E+01 0.  0.
     999903    2    3    3    0    0  0.75497631882E-02  0.12409237065E+00 -0.29194076483E-01  0.12845514051E+00  0.13874928580E-01 0.  0.
         14    1    1    2    0    0  0.77472607301E-02  0.13520734813E-01 -0.17491536998E-01  0.23426143201E-01  0.00000000000E+00 0. -1.
     999901    1    3    3    0    0 -0.15297023918E-01 -0.13761310546E+00  0.46685613482E-01  0.89204871629E+00  0.88000000000E+00 0. -1.
        -11    1    4    4    0    0  0.58508852787E-02  0.33112062935E-01 -0.12855873494E-01  0.36002446787E-01  0.51100000000E-03 0.  1.
         11    1    4    4    0    0  0.16988779095E-02  0.90980307713E-01 -0.16338202989E-01  0.92452693718E-01  0.51100000000E-03 0. -1.
</event>
<event>
 8    1  0.1041149E+005  0.1043930E+01  0.7957747E-01            NaN
         13   -1    0    0    0    0  0.00000000000E+00  0.00000000000E+00  0.74505805969E-08  0.10566000000E+00  0.10566000000E+00 0. -1.
     999900   -1    0    0    0    0 -0.00000000000E+00 -0.00000000000E+00 -0.74505805969E-08  0.93827000000E+00  0.93827000000E+00 0.  1.
     999902    2    1    2    0    0 -0.15662159029E-01 -0.13382122025E-01 -0.83096314489E-02  0.10217166169E+01  0.10214751151E+01 0.  0.
     999903    2    3    3    0    0  0.35024459591E-01 -0.74516633788E-02  0.12383968937E+00  0.13038741470E+00  0.19554262734E-01 0.  0.
         14    1    1    2    0    0  0.15662159029E-01  0.13382122025E-01  0.83096314489E-02  0.22213383132E-01  0.00000000000E+00 0.  1.
     999901    1    3    3    0    0 -0.50686618619E-01 -0.59304586463E-02 -0.13214932082E+00  0.89132920217E+00  0.88000000000E+00 0.  1.
        -11    1    4    4    0    0  0.10389067712E-01 -0.36658596732E-02  0.72285311748E-01  0.73121807079E-01  0.51100000000E-03 0.  1.
         11    1    4    4    0    0  0.24635391878E-01 -0.37858037056E-02  0.51554377625E-01  0.57265607620E-01  0.51100000000E-03 0. -1.
</event>
<event>
 8    1  0.1041149E+005  0.1043930E+01  0.7957747E-01            NaN
         13   -1    0    0    0    0  0.00000000000E+00  0.00000000000E+00  0.74505805969E-08  0.10566000000E+00  0.10566000000E+00 0.  1.
     999900   -1    0    0    0    0 -0.00000000000E+00 -0.00000000000E+00 -0.74505805969E-08  0.93827000000E+00  0.93827000000E+00 0. -1.
     999902    2    1    2    0    0  0.15348112914E-01 -0.18155244530E-01 -0.36399701826E-02  0.10198794936E+01  0.10195958781E+01 0.  0.
     999903    2    3    3    0    0 -0.26227055243E-01 -0.10881207180E+00 -0.67016717417E-01  0.13198098195E+00  0.19995344173E-01 0.  0.
         14    1    1    2    0    0 -0.15348112914E-01  0.18155244530E-01  0.36399701826E-02  0.24050506375E-01  0.00000000000E+00 0.  1.
     999901    1    3    3    0    0  0.41575168157E-01  0.90656827268E-01  0.63376747234E-01  0.88789851167E+00  0.88000000000E+00 0.  1.
        -11    1    4    4    0    0 -0.11576894314E-01 -0.77936160296E-01 -0.53430710054E-01  0.95200690447E-01  0.51100000000E-03 0. -1.
         11    1    4    4    0    0 -0.14650160929E-01 -0.30875911501E-01 -0.13586007363E-01  0.36780291507E-01  0.51100000000E-03 0.  1.
</event>
<event>
 8    1  0.1041149E+005  0.1043930E+01  0.7957747E-01            NaN
         13   -1    0    0    0    0  0.00000000000E+00  0.00000000000E+00  0.74505805969E-08  0.10566000000E+00  0.10566000000E+00 0.  1.
     999900   -1    0    0    0    0 -0.00000000000E+00 -0.00000000000E+00 -0.74505805969E-08  0.93827000000E+00  0.93827000000E+00 0.  1.
     999902    2    1    2    0    0  0.20074257917E-01  0.11352006730E-01 -0.44674499543E-02  0.10204395339E+01  0.10201691234E+01 0.  0.
     999903    2    3    3    0    0  0.51232116460E-01 -0.78314542095E-01  0.88699951026E-01  0.13044455262E+00  0.19753549949E-01 0.  0.
         14    1    1    2    0    0 -0.20074257917E-01 -0.11352006730E-01  0.44674499543E-02  0.23490466084E-01  0.00000000000E+00 0.  1.
     999901    1    3    3    0    0 -0.31157858543E-01  0.89666548826E-01 -0.93167400980E-01  0.88999498130E+00  0.88000000000E+00 0.  1.
        -11    1    4    4    0    0  0.21123727999E-01 -0.16444181605E-01  0.26975943831E-01  0.38007705269E-01  0.51100000000E-03 0.  1.
         11    1    4    4    0    0  0.30108388461E-01 -0.61870360491E-01  0.61724007195E-01  0.92436847351E-01  0.51100000000E-03 0. -1.
</event>
<event>
 8    1  0.1041149E+005  0.1043930E+01  0.7957747E-01            NaN
         13   -1    0    0    0    0  0.00000000000E+00  0.00000000000E+00  0.74505805969E-08  0.10566000000E+00  0.10566000000E+00 0.  1.
     999900   -1    0    0    0    0 -0.00000000000E+00 -0.00000000000E+00 -0.74505805969E-08  0.93827000000E+00  0.93827000000E+00 0. -1.
     999902    2    1    2    0    0  0.17433184343E-01  0.92386859181E-03  0.16880236791E-01  0.10196460167E+01  0.10193568009E+01 0.  0.
     999903    2    3    3    0    0  0.88913977486E-01  0.29156335896E-01  0.92524477962E-01  0.13306346151E+00  0.19731154314E-01 0.  0.
         14    1    1    2    0    0 -0.17433184343E-01 -0.92386859181E-03 -0.16880236791E-01  0.24283983273E-01  0.00000000000E+00 0. -1.
     999901    1    3    3    0    0 -0.71480793143E-01 -0.28232467304E-01 -0.75644241172E-01  0.88658255522E+00  0.88000000000E+00 0. -1.
        -11    1    4    4    0    0  0.54876637816E-01  0.15277657386E-01  0.42934953273E-01  0.71333887646E-01  0.51100000000E-03 0. -1.
         11    1    4    4    0    0  0.34037339670E-01  0.13878678510E-01  0.49589524690E-01  0.61729573860E-01  0.51100000000E-03 0.  1.
</event>
<event>
 8    1  0.1041149E+005  0.1043930E+01  0.7957747E-01            NaN
         13   -1    0    0    0    0  0.00000000000E+00  0.00000000000E+00  0.74505805969E-08  0.10566000000E+00  0.10566000000E+00 0.  1.
     999900   -1    0    0    0    0 -0.00000000000E+00 -0.00000000000E+00 -0.74505805969E-08  0.93827000000E+00  0.93827000000E+00 0.  1.
     999902    2    1    2    0    0  0.26375568026E-02 -0.93671370733E-02  0.21916275793E-01  0.10199503606E+01  0.10196684338E+01 0.  0.
     999903    2    3    3    0    0 -0.37533132927E-01  0.76839623142E-01  0.97990621927E-01  0.13156272222E+00  0.19837442904E-01 0.  0.
         14    1    1    2    0    0 -0.26375568026E-02  0.93671370733E-02 -0.21916275793E-01  0.23979639435E-01  0.00000000000E+00 0. -1.
     999901    1    3    3    0    0  0.40170689729E-01 -0.86206760215E-01 -0.76074346134E-01  0.88838763834E+00  0.88000000000E+00 0.  1.
        -11    1    4    4    0    0 -0.32910725426E-01  0.64764267691E-01  0.92210123318E-01  0.11739034961E+00  0.51100000000E-03 0. -1.
         11    1    4    4    0    0 -0.46224075009E-02  0.12075355451E-01  0.57804986095E-02  0.14172372615E-01  0.51100000000E-03 0.  1.
</event>
<event>
 8    1  0.1041149E+005  0.1043930E+01  0.7957747E-01            NaN
         13   -1    0    0    0    0  0.00000000000E+00  0.00000000000E+00  0.74505805969E-08  0.10566000000E+00  0.10566000000E+00 0. -1.
     999900   -1    0    0    0    0 -0.00000000000E+00 -0.00000000000E+00 -0.74505805969E-08  0.93827000000E+00  0.93827000000E+00 0. -1.
     999902    2    1    2    0    0  0.18626354824E-01  0.35290629800E-02 -0.13462150708E-01  0.10206786585E+01  0.10204137882E+01 0.  0.
     999903    2    3    3    0    0  0.12095758240E+00  0.28261997086E-01 -0.45450867323E-01  0.13382654222E+00  0.20353988409E-01 0.  0.
         14    1    1    2    0    0 -0.18626354824E-01 -0.35290629800E-02  0.13462150708E-01  0.23251341493E-01  0.00000000000E+00 0.  1.
     999901    1    3    3    0    0 -0.10233122757E+00 -0.24732934106E-01  0.31988716616E-01  0.88685211628E+00  0.88000000000E+00 0.  1.
        -11    1    4    4    0    0  0.67002681822E-01  0.16284175503E-01 -0.14441213627E-01  0.70451000810E-01  0.51100000000E-03 0. -1.
         11    1    4    4    0    0  0.53954900576E-01  0.11977821583E-01 -0.31009653696E-01  0.63375541413E-01  0.51100000000E-03 0.  1.
</event>
<event>
 7    1  0.1041149E+005  0.1043930E+01  0.7957747E-01            NaN
         13   -1    0    0    0    0  0.00000000000E+00  0.00000000000E+00  0.74505805969E-08  0.10566000000E+00  0.10566000000E+00 0.  1.
     999900   -1    0    0    0    0 -0.00000000000E+00 -0.00000000000E+00 -0.74505805969E-08  0.93827000000E+00  0.93827000000E+00 0. -1.
     999903    2    1    2    0    0 -0.86904034489E-01 -0.46948763382E-01  0.61113820225E-01  0.11795283756E+00  0.20529862938E-01 0.  0.
         14    1    1    2    0    0  0.11728864612E-01  0.20877400505E-01 -0.34487846921E-01  0.41986232293E-01  0.00000000000E+00 0. -1.
     999901    1    1    2    0    0  0.75175169878E-01  0.26071362876E-01 -0.26625973304E-01  0.88399093015E+00  0.88000000000E+00 0.  1.
        -11    1    3    3    0    0 -0.71366123451E-01 -0.30562467132E-01  0.41469806016E-01  0.88018145320E-01  0.51100000000E-03 0. -1.
         11    1    3    3    0    0 -0.15537911039E-01 -0.16386296250E-01  0.19644014209E-01  0.29934692240E-01  0.51100000000E-03 0.  1.
</event>
<event>
 8    1  0.1041149E+005  0.1043930E+01  0.7957747E-01            NaN
         13   -1    0    0    0    0  0.00000000000E+00  0.00000000000E+00  0.74505805969E-08  0.10566000000E+00  0.10566000000E+00 0. -1.
     999900   -1    0    0    0    0 -0.00000000000E+00 -0.00000000000E+00 -0.74505805969E-08  0.93827000000E+00  0.93827000000E+00 0.  1.
     999902    2    1    2    0    0 -0.12108299778E-01 -0.19290365513E-01 -0.47446146355E-02  0.10206654241E+01  0.10204002486E+01 0.  0.
     999903    2    3    3    0    0  0.99443710525E-01  0.77150318896E-01 -0.15139822525E-01  0.12833548679E+00  0.19988988864E-01 0.  0.
         14    1    1    2    0    0  0.12108299778E-01  0.19290365513E-01  0.47446146355E-02  0.23264575930E-01  0.00000000000E+00 0. -1.
     999901    1    3    3    0    0 -0.11155201030E+00 -0.96440684409E-01  0.10395207890E-01  0.89232993728E+00  0.88000000000E+00 0.  1.
        -11    1    4    4    0    0  0.52897066139E-01  0.53157413628E-01 -0.67247980150E-02  0.75294716010E-01  0.51100000000E-03 0.  1.
         11    1    4    4    0    0  0.46546644386E-01  0.23992905268E-01 -0.84150245102E-02  0.53040770784E-01  0.51100000000E-03 0. -1.
</event>
<event>
 8    1  0.1041149E+005  0.1043930E+01  0.7957747E-01            NaN
         13   -1    0    0    0    0  0.00000000000E+00  0.00000000000E+00  0.74505805969E-08  0.10566000000E+00  0.10566000000E+00 0. -1.
     999900   -1    0    0    0    0 -0.00000000000E+00 -0.00000000000E+00 -0.74505805969E-08  0.93827000000E+00  0.93827000000E+00 0. -1.
     999902    2    1    2    0    0  0.20694233790E-01 -0.80989045281E-02 -0.73183088657E-02  0.10205333932E+01  0.10202651642E+01 0.  0.
     999903    2    3    3    0    0  0.20978257684E-01  0.34083597530E-02 -0.12892223506E+00  0.13209655654E+00  0.19412710932E-01 0.  0.
         14    1    1    2    0    0 -0.20694233790E-01  0.80989045281E-02  0.73183088657E-02  0.23396606834E-01  0.00000000000E+00 0. -1.
     999901    1    3    3    0    0 -0.28402389390E-03 -0.11507264281E-01  0.12160392620E+00  0.88843683662E+00  0.88000000000E+00 0.  1.
        -11    1    4    4    0    0  0.17977675646E-01  0.10247071264E-01 -0.10535284671E+00  0.10736704672E+00  0.51100000000E-03 0.  1.
         11    1    4    4    0    0  0.30005820377E-02 -0.68387115112E-02 -0.23569388357E-01  0.24729509825E-01  0.51100000000E-03 0. -1.
</event>
<event>
 8    1  0.1041149E+005  0.1043930E+01  0.7957747E-01            NaN
         13   -1    0    0    0    0  0.00000000000E+00  0.00000000000E+00  0.74505805969E-08  0.10566000000E+00  0.10566000000E+00 0.  1.
     999900   -1    0    0    0    0 -0.00000000000E+00 -0.00000000000E+00 -0.74505805969E-08  0.93827000000E+00  0.93827000000E+00 0.  1.
     999902    2    1    2    0    0  0.11488581684E-01 -0.21367779557E-01 -0.41468577810E-02  0.10193176872E+01  0.10190205010E+01 0.  0.
     999903    2    3    3    0    0 -0.23877097012E-01 -0.11799205270E+00 -0.50652993064E-01  0.13210305588E+00  0.19830567431E-01 0.  0.
         14    1    1    2    0    0 -0.11488581684E-01  0.21367779557E-01  0.41468577810E-02  0.24612312808E-01  0.00000000000E+00 0.  1.
     999901    1    3    3    0    0  0.35365678696E-01  0.96624273145E-01  0.46506135283E-01  0.88721463131E+00  0.88000000000E+00 0. -1.
        -11    1    4    4    0    0 -0.40736772450E-02 -0.68012722140E-01 -0.31059621425E-01  0.74881816372E-01  0.51100000000E-03 0. -1.
         11    1    4    4    0    0 -0.19803419767E-01 -0.49979330562E-01 -0.19593371640E-01  0.57221239510E-01  0.51100000000E-03 0.  1.
</event>
<event>
 8    1  0.1041149E+005  0.1043930E+01  0.7957747E-01            NaN
         13   -1    0    0    0    0  0.00000000000E+00  0.00000000000E+00  0.74505805969E-08  0.10566000000E+00  0.10566000000E+00 0.  1.
     999900   -1    0    0    0    0 -0.00000000000E+00 -0.00000000000E+00 -0.74505805969E-08  0.93827000000E+00  0.93827000000E+00 0. -1.
     999902    2    1    2    0    0 -0.10593946838E-01 -0.21493701245E-01  0.29755609287E-02  0.10197832639E+01  0.10194973469E+01 0.  0.
     999903    2    3    3    0    0 -0.59841840904E-01  0.60279084506E-01 -0.95855760478E-01  0.12912071630E+00  0.16407882517E-01 0.  0.
         14    1    1    2    0    0  0.10593946838E-01  0.21493701245E-01 -0.29755609287E-02  0.24146736129E-01  0.00000000000E+00 0.  1.
     999901    1    3    3    0    0  0.49247894066E-01 -0.81772785751E-01  0.98831321407E-01  0.89066254757E+00  0.88000000000E+00 0.  1.
        -11    1    4    4    0    0 -0.97236684740E-02  0.10166554312E-01 -0.78314360560E-02  0.16109036807E-01  0.51100000000E-03 0.  1.
         11    1    4    4    0    0 -0.50118172430E-01  0.50112530195E-01 -0.88024324422E-01  0.11301167949E+00  0.51100000000E-03 0. -1.
</event>
<event>
 8    1  0.1041149E+005  0.1043930E+01  0.7957747E-01            NaN
         13   -1    0    0    0    0  0.00000000000E+00  0.00000000000E+00  0.74505805969E-08  0.10566000000E+00  0.10566000000E+00 0.  1.
     999900   -1    0    0    0    0 -0.00000000000E+00 -0.00000000000E+00 -0.74505805969E-08  0.93827000000E+00  0.93827000000E+00 0. -1.
     999902    2    1    2    0    0 -0.14750363500E-01 -0.84114022069E-03 -0.17208469747E-01  0.10212493437E+01  0.10209974583E+01 0.  0.
     999903    2    3    3    0    0 -0.75996470979E-01 -0.38042795276E-01  0.97460488894E-01  0.13092130363E+00  0.20472493114E-01 0.  0.
         14    1    1    2    0    0  0.14750363500E-01  0.84114022069E-03  0.17208469747E-01  0.22680656324E-01  0.00000000000E+00 0.  1.
     999901    1    3    3    0    0  0.61246107479E-01  0.37201655055E-01 -0.11466895864E+00  0.89032804005E+00  0.88000000000E+00 0. -1.
        -11    1    4    4    0    0 -0.47924185143E-01 -0.30907665175E-01  0.52990362020E-01  0.77847613169E-01  0.51100000000E-03 0. -1.
         11    1    4    4    0    0 -0.28072285837E-01 -0.71351301013E-02  0.44470126874E-01  0.53073690458E-01  0.51100000000E-03 0.  1.
</event>
<event>
 8    1  0.1041149E+005  0.1043930E+01  0.7957747E-01            NaN
         13   -1    0    0    0    0  0.00000000000E+00  0.00000000000E+00  0.74505805969E-08  0.10566000000E+00  0.10566000000E+00 0. -1.
     999900   -1    0    0    0    0 -0.00000000000E+00 -0.00000000000E+00 -0.74505805969E-08  0.93827000000E+00  0.93827000000E+00 0. -1.
     999902    2    1    2    0    0 -0.13039847196E-01  0.14558772766E-01 -0.23932570898E-01  0.10130307536E+01  0.10125594028E+01 0.  0.
     999903    2    3    3    0    0 -0.92676316759E-01  0.73365550128E-01  0.37975364633E-01  0.12531863987E+00  0.17065448919E-01 0.  0.
         14    1    1    2    0    0  0.13039847196E-01 -0.14558772766E-01  0.23932570898E-01  0.30899246417E-01  0.00000000000E+00 0. -1.
     999901    1    3    3    0    0  0.79636469563E-01 -0.58806777361E-01 -0.61907935531E-01  0.88771211371E+00  0.88000000000E+00 0.  1.
        -11    1    4    4    0    0 -0.45543014632E-01  0.43189709948E-01  0.26781603303E-01  0.68242454701E-01  0.51100000000E-03 0.  1.
         11    1    4    4    0    0 -0.47133302127E-01  0.30175840180E-01  0.11193761330E-01  0.57076185171E-01  0.51100000000E-03 0. -1.
</event>
<event>
 8    1  0.1041149E+005  0.1043930E+01  0.7957747E-01            NaN
         13   -1    0    0    0    0  0.00000000000E+00  0.00000000000E+00  0.74505805969E-08  0.10566000000E+00  0.10566000000E+00 0. -1.
     999900   -1    0    0    0    0 -0.00000000000E+00 -0.00000000000E+00 -0.74505805969E-08  0.93827000000E+00  0.93827000000E+00 0.  1.
     999902    2    1    2    0    0 -0.68924112708E-02  0.18884349569E-01 -0.12314825394E-01  0.10203550362E+01  0.10200826540E+01 0.  0.
     999903    2    3    3    0    0  0.77768762573E-01 -0.47006741136E-01  0.88052929266E-01  0.12817633420E+00  0.20450920602E-01 0.  0.
         14    1    1    2    0    0  0.68924112708E-02 -0.18884349569E-01  0.12314825394E-01  0.23574963759E-01  0.00000000000E+00 0. -1.
     999901    1    3    3    0    0 -0.84661173843E-01  0.65891090705E-01 -0.10036775466E+00  0.89217870204E+00  0.88000000000E+00 0.  1.
        -11    1    4    4    0    0  0.10222145095E-01 -0.13076443110E-01  0.93737740535E-02  0.19068675249E-01  0.51100000000E-03 0. -1.
         11    1    4    4    0    0  0.67546617478E-01 -0.33930298027E-01  0.78679155213E-01  0.10910765896E+00  0.51100000000E-03 0.  1.
</event>
<event>
 8    1  0.1041149E+005  0.1043930E+01  0.7957747E-01            NaN
         13   -1    0    0    0    0  0.00000000000E+00  0.00000000000E+00  0.74505805969E-08  0.10566000000E+00  0.10566000000E+00 0.  1.
     999900   -1    0    0    0    0 -0.00000000000E+00 -0.00000000000E+00 -0.74505805969E-08  0.93827000000E+00  0.93827000000E+00 0. -1.
     999902    2    1    2    0    0  0.72797375498E-02 -0.11718632500E-01  0.18252775155E-01  0.10210502114E+01  0.10207938330E+01 0.  0.
     999903    2    3    3    0    0 -0.18990135119E-01 -0.11146425105E+00  0.68386458165E-01  0.13360856214E+00  0.19739192565E-01 0.  0.
         14    1    1    2    0    0 -0.72797375498E-02  0.11718632500E-01 -0.18252775155E-01  0.22879788620E-01  0.00000000000E+00 0. -1.
     999901    1    3    3    0    0  0.26269872669E-01  0.99745618551E-01 -0.50133683010E-01  0.88744164924E+00  0.88000000000E+00 0. -1.
        -11    1    4    4    0    0 -0.15296553630E-01 -0.54307620948E-01  0.43079938363E-01  0.70989044622E-01  0.51100000000E-03 0.  1.
         11    1    4    4    0    0 -0.36935814889E-02 -0.57156630103E-01  0.25306519802E-01  0.62619517519E-01  0.51100000000E-03 0. -1.
</event>
<event>
 8    1  0.1041149E+005  0.1043930E+01  0.7957747E-01            NaN
         13   -1    0    0    0    0  0.00000000000E+00  0.00000000000E+00  0.74505805969E-08  0.10566000000E+00  0.10566000000E+00 0. -1.
     999900   -1    0    0    0    0 -0.00000000000E+00 -0.00000000000E+00 -0.74505805969E-08  0.93827000000E+00  0.93827000000E+00 0. -1.
     999902    2    1    2    0    0  0.18169017935E-02  0.21648187241E-01  0.82469771929E-02  0.10206930085E+01  0.10204284687E+01 0.  0.
     999903    2    3    3    0    0 -0.12099230397E+00  0.25507935634E-01  0.40117437274E-01  0.13158518322E+00  0.20382818001E-01 0.  0.
         14    1    1    2    0    0 -0.18169017935E-02 -0.21648187241E-01 -0.82469771929E-02  0.23236991539E-01  0.00000000000E+00 0.  1.
     999901    1    3    3    0    0  0.12280920576E+00 -0.38597483927E-02 -0.31870460081E-01  0.88910782524E+00  0.88000000000E+00 0. -1.
        -11    1    4    4    0    0 -0.84863487119E-01  0.26052007928E-01  0.33283866850E-01  0.94808203635E-01  0.51100000000E-03 0. -1.
         11    1    4    4    0    0 -0.36128816851E-01 -0.54407229415E-03  0.68335704240E-02  0.36776979586E-01  0.51100000000E-03 0.  1.
</event>
<event>
 8    1  0.1041149E+005  0.1043930E+01  0.7957747E-01            NaN
         13   -1    0    0    0    0  0.00000000000E+00  0.00000000000E+00  0.74505805969E-08  0.10566000000E+00  0.10566000000E+00 0.  1.
     999900   -1    0    0    0    0 -0.00000000000E+00 -0.00000000000E+00 -0.74505805969E-08  0.93827000000E+00  0.93827000000E+00 0.  1.
     999902    2    1    2    0    0  0.16136369446E-01 -0.83292344067E-03  0.19453141276E-01  0.10186416453E+01  0.10183276980E+01 0.  0.
     999903    2    3    3    0    0  0.54509334591E-01  0.35411885443E-01 -0.10828959072E+00  0.12785301926E+00  0.19861769469E-01 0.  0.
         14    1    1    2    0    0 -0.16136369446E-01  0.83292344067E-03 -0.19453141276E-01  0.25288354748E-01  0.00000000000E+00 0. -1.
     999901    1    3    3    0    0 -0.38372965145E-01 -0.36244808883E-01  0.12774273200E+00  0.89078862600E+00  0.88000000000E+00 0. -1.
        -11    1    4    4    0    0  0.35542559763E-01  0.18809161926E-01 -0.82538344145E-01  0.91814473271E-01  0.51100000000E-03 0. -1.
         11    1    4    4    0    0  0.18966774828E-01  0.16602723517E-01 -0.25751246575E-01  0.36038545985E-01  0.51100000000E-03 0.  1.
</event>
<event>
 8    1  0.1041149E+005  0.1043930E+01  0.7957747E-01            NaN
         13   -1    0    0    0    0  0.00000000000E+00  0.00000000000E+00  0.74505805969E-08  0.10566000000E+00  0.10566000000E+00 0. -1.
     999900   -1    0    0    0    0 -0.00000000000E+00 -0.00000000000E+00 -0.74505805969E-08  0.93827000000E+00  0.93827000000E+00 0. -1.
     999902    2    1    2    0    0 -0.84922657124E-02  0.84405223441E-02 -0.20352760009E-01  0.10203165328E+01  0.10200432497E+01 0.  0.
     999903    2    3    3    0    0  0.11985226931E+00  0.43338079557E-01 -0.18352463114E-01  0.13031981348E+00  0.20091920881E-01 0.  0.
         14    1    1    2    0    0  0.84922657124E-02 -0.84405223441E-02  0.20352760009E-01  0.23613467224E-01  0.00000000000E+00 0. -1.
     999901    1    3    3    0    0 -0.12834453502E+00 -0.34897557213E-01 -0.20002968946E-02  0.88999671930E+00  0.88000000000E+00 0. -1.
        -11    1    4    4    0    0  0.78904106598E-01  0.31329575722E-01 -0.29485256408E-02  0.84949133470E-01  0.51100000000E-03 0.  1.
         11    1    4    4    0    0  0.40948162712E-01  0.12008503835E-01 -0.15403937473E-01  0.45370680010E-01  0.51100000000E-03 0. -1.
</event>
<event>
 8    1  0.1041149E+005  0.1043930E+01  0.7957747E-01            NaN
         13   -1    0    0    0    0  0.00000000000E+00  0.00000000000E+00  0.74505805969E-08  0.10566000000E+00  0.10566000000E+00 0.  1.
     999900   -1    0    0    0    0 -0.00000000000E+00 -0.00000000000E+00 -0.74505805969E-08  0.93827000000E+00  0.93827000000E+00 0. -1.
     999902    2    1    2    0    0  0.14118151919E-02 -0.17716241315E-01 -0.16180256859E-01  0.10198954594E+01  0.10196122248E+01 0.  0.
     999903    2    3    3    0    0  0.44359945532E-01 -0.12143282684E+00  0.18244564319E-01  0.13209664195E+00  0.20072929151E-01 0.  0.
         14    1    1    2    0    0 -0.14118151919E-02  0.17716241315E-01  0.16180256859E-01  0.24034540571E-01  0.00000000000E+00 0.  1.
     999901    1    3    3    0    0 -0.42948130340E-01  0.10371658552E+00 -0.34424821178E-01  0.88779881748E+00  0.88000000000E+00 0. -1.
        -11    1    4    4    0    0  0.16113162571E-01 -0.70512302460E-01  0.59161954845E-02  0.72573282248E-01  0.51100000000E-03 0. -1.
         11    1    4    4    0    0  0.28246782961E-01 -0.50920524377E-01  0.12328368835E-01  0.59523359697E-01  0.51100000000E-03 0.  1.
</event>
<event>
 8    1  0.1041149E+005  0.1043930E+01  0.7957747E-01            NaN
         13   -1    0    0    0    0  0.00000000000E+00  0.00000000000E+00  0.74505805969E-08  0.10566000000E+00  0.10566000000E+00 0. -1.
     999900   -1    0    0    0    0 -0.00000000000E+00 -0.00000000000E+00 -0.74505805969E-08  0.93827000000E+00  0.93827000000E+00 0.  1.
     999902    2    1    2    0    0  0.21857548582E-01 -0.73590998621E-02  0.12136941408E-01  0.10178682632E+01  0.10175345631E+01 0.  0.
     999903    2    3    3    0    0 -0.40297279271E-01  0.10115151527E+00 -0.55853150947E-01  0.12643098051E+00  0.31776069678E-01 0.  0.
         14    1    1    2    0    0 -0.21857548582E-01  0.73590998621E-02 -0.12136941408E-01  0.26061736848E-01  0.00000000000E+00 0. -1.
     999901    1    3    3    0    0  0.62154827853E-01 -0.10851061513E+00  0.67990092355E-01  0.89143728264E+00  0.88000000000E+00 0.  1.
        -11    1    4    4    0    0 -0.15341244420E-01  0.54001690420E-01 -0.45090662862E-01  0.72006703486E-01  0.51100000000E-03 0. -1.
         11    1    4    4    0    0 -0.24956034851E-01  0.47149824852E-01 -0.10762488085E-01  0.54424277026E-01  0.51100000000E-03 0.  1.
</event>
<event>
 7    1  0.1041149E+005  0.1043930E+01  0.7957747E-01            NaN
         13   -1    0    0    0    0  0.00000000000E+00  0.00000000000E+00  0.74505805969E-08  0.10566000000E+00  0.10566000000E+00 0. -1.
     999900   -1    0    0    0    0 -0.00000000000E+00 -0.00000000000E+00 -0.74505805969E-08  0.93827000000E+00  0.93827000000E+00 0.  1.
     999903    2    1    2    0    0 -0.11106097750E+00 -0.19076539413E-01 -0.75647891464E-03  0.11446268370E+00  0.20066853744E-01 0.  0.
         14    1    1    2    0    0 -0.18315258326E-01 -0.20625731986E-02 -0.34438960628E-01  0.39060784745E-01  0.00000000000E+00 0.  1.
     999901    1    1    2    0    0  0.12937623583E+00  0.21139112612E-01  0.35195439543E-01  0.89040653156E+00  0.88000000000E+00 0. -1.
        -11    1    3    3    0    0 -0.63368344810E-01 -0.35199534447E-02 -0.72296216198E-02  0.63878523355E-01  0.51100000000E-03 0. -1.
         11    1    3    3    0    0 -0.47692632690E-01 -0.15556585968E-01  0.64731427052E-02  0.50584160341E-01  0.51100000000E-03 0.  1.
</event>
<event>
 8    1  0.1041149E+005  0.1043930E+01  0.7957747E-01            NaN
         13   -1    0    0    0    0  0.00000000000E+00  0.00000000000E+00  0.74505805969E-08  0.10566000000E+00  0.10566000000E+00 0.  1.
     999900   -1    0    0    0    0 -0.00000000000E+00 -0.00000000000E+00 -0.74505805969E-08  0.93827000000E+00  0.93827000000E+00 0.  1.
     999902    2    1    2    0    0 -0.76998892168E-02 -0.24605699412E-01 -0.30947323357E-02  0.10179625953E+01  0.10176313377E+01 0.  0.
     999903    2    3    3    0    0  0.44576927543E-01  0.11436637810E+00 -0.15632143465E-01  0.12543624245E+00  0.20569786117E-01 0.  0.
         14    1    1    2    0    0  0.76998892168E-02  0.24605699412E-01  0.30947323357E-02  0.25967404678E-01  0.00000000000E+00 0.  1.
     999901    1    3    3    0    0 -0.52276816760E-01 -0.13897207751E+00  0.12537411129E-01  0.89252635288E+00  0.88000000000E+00 0.  1.
        -11    1    4    4    0    0  0.39814162661E-01  0.76095417090E-01 -0.10241537115E-01  0.86491792986E-01  0.51100000000E-03 0. -1.
         11    1    4    4    0    0  0.47627648822E-02  0.38270961010E-01 -0.53906063501E-02  0.38944449461E-01  0.51100000000E-03 0.  1.
</event>
<event>
 8    1  0.1041149E+005  0.1043930E+01  0.7957747E-01            NaN
         13   -1    0    0    0    0  0.00000000000E+00  0.00000000000E+00  0.74505805969E-08  0.10566000000E+00  0.10566000000E+00 0.  1.
     999900   -1    0    0    0    0 -0.00000000000E+00 -0.00000000000E+00 -0.74505805969E-08  0.93827000000E+00  0.93827000000E+00 0. -1.
     999902    2    1    2    0    0 -0.95005396179E-02 -0.19675788420E-01 -0.12131829579E-01  0.10189384376E+01  0.10186319067E+01 0.  0.
     999903    2    3    3    0    0  0.41704817241E-01  0.11057917840E+00 -0.43397540017E-01  0.12732984095E+00  0.19039312981E-01 0.  0.
         14    1    1    2    0    0  0.95005396179E-02  0.19675788420E-01  0.12131829579E-01  0.24991562414E-01  0.00000000000E+00 0.  1.
     999901    1    3    3    0    0 -0.51205356859E-01 -0.13025496682E+00  0.31265710438E-01  0.89160859664E+00  0.88000000000E+00 0.  1.
        -11    1    4    4    0    0  0.35337952559E-01  0.94599496601E-01 -0.43896671272E-01  0.11011364365E+00  0.51100000000E-03 0.  1.
         11    1    4    4    0    0  0.63668646826E-02  0.15979681800E-01  0.49913125436E-03  0.17216197296E-01  0.51100000000E-03 0. -1.
</event>
<event>
 8    1  0.1041149E+005  0.1043930E+01  0.7957747E-01            NaN
         13   -1    0    0    0    0  0.00000000000E+00  0.00000000000E+00  0.74505805969E-08  0.10566000000E+00  0.10566000000E+00 0.  1.
     999900   -1    0    0    0    0 -0.00000000000E+00 -0.00000000000E+00 -0.74505805969E-08  0.93827000000E+00  0.93827000000E+00 0.  1.
     999902    2    1    2    0    0 -0.23158847739E-01 -0.58583165594E-02  0.16503937285E-02  0.10199847311E+01  0.10197036216E+01 0.  0.
     999903    2    3    3    0    0 -0.11530694142E+00 -0.61223895998E-01  0.17066148473E-01  0.13330876775E+00  0.20878648283E-01 0.  0.
         14    1    1    2    0    0  0.23158847739E-01  0.58583165594E-02 -0.16503937285E-02  0.23945268864E-01  0.00000000000E+00 0. -1.
     999901    1    3    3    0    0  0.92148093680E-01  0.55365579438E-01 -0.15415754744E-01  0.88667596339E+00  0.88000000000E+00 0.  1.
        -11    1    4    4    0    0 -0.65421268973E-01 -0.38355553190E-01  0.37729246747E-05  0.75837668937E-01  0.51100000000E-03 0. -1.
         11    1    4    4    0    0 -0.49885672446E-01 -0.22868342808E-01  0.17062375548E-01  0.57471098811E-01  0.51100000000E-03 0.  1.
</event>
<event>
 8    1  0.1041149E+005  0.1043930E+01  0.7957747E-01            NaN
         13   -1    0    0    0    0  0.00000000000E+00  0.00000000000E+00  0.74505805969E-08  0.10566000000E+00  0.10566000000E+00 0. -1.
     999900   -1    0    0    0    0 -0.00000000000E+00 -0.00000000000E+00 -0.74505805969E-08  0.93827000000E+00  0.93827000000E+00 0.  1.
     999902    2    1    2    0    0  0.22285594316E-01 -0.60171586871E-02 -0.55746358788E-02  0.10201827796E+01  0.10199063551E+01 0.  0.
     999903    2    3    3    0    0 -0.11328973960E+00  0.53686453031E-01 -0.10016739447E-01  0.12778997105E+00  0.22652622240E-01 0.  0.
         14    1    1    2    0    0 -0.22285594316E-01  0.60171586871E-02  0.55746358788E-02  0.23747220424E-01  0.00000000000E+00 0.  1.
     999901    1    3    3    0    0  0.13557533392E+00 -0.59703611718E-01  0.44421035684E-02  0.89239280852E+00  0.88000000000E+00 0. -1.
        -11    1    4    4    0    0 -0.57966193798E-01  0.39706485158E-01 -0.76114995714E-02  0.70674469463E-01  0.51100000000E-03 0. -1.
         11    1    4    4    0    0 -0.55323545805E-01  0.13979967872E-01 -0.24052398758E-02  0.57115501591E-01  0.51100000000E-03 0.  1.
</event>
<event>
 8    1  0.1041149E+005  0.1043930E+01  0.7957747E-01            NaN
         13   -1    0    0    0    0  0.00000000000E+00  0.00000000000E+00  0.74505805969E-08  0.10566000000E+00  0.10566000000E+00 0.  1.
     999900   -1    0    0    0    0 -0.00000000000E+00 -0.00000000000E+00 -0.74505805969E-08  0.93827000000E+00  0.93827000000E+00 0.  1.
     999902    2    1    2    0    0  0.10696310002E-01 -0.11852153398E-01  0.17314591557E-01  0.10203783617E+01  0.10201065245E+01 0.  0.
     999903    2    3    3    0    0  0.71206743348E-01 -0.10993848163E+00  0.33638416968E-02  0.13275396826E+00  0.21340820454E-01 0.  0.
         14    1    1    2    0    0 -0.10696310002E-01  0.11852153398E-01 -0.17314591557E-01  0.23551638342E-01  0.00000000000E+00 0. -1.
     999901    1    3    3    0    0 -0.60510433346E-01  0.98086328229E-01  0.13950749860E-01  0.88762439340E+00  0.88000000000E+00 0. -1.
        -11    1    4    4    0    0  0.38937585259E-01 -0.43755792031E-01 -0.42539161681E-02  0.58728713640E-01  0.51100000000E-03 0. -1.
         11    1    4    4    0    0  0.32269158089E-01 -0.66182689596E-01  0.76177578649E-02  0.74025254622E-01  0.51100000000E-03 0.  1.
</event>
<event>
 8    1  0.1041149E+005  0.1043930E+01  0.7957747E-01            NaN
         13   -1    0    0    0    0  0.00000000000E+00  0.00000000000E+00  0.74505805969E-08  0.10566000000E+00  0.10566000000E+00 0. -1.
     999900   -1    0    0    0    0 -0.00000000000E+00 -0.00000000000E+00 -0.74505805969E-08  0.93827000000E+00  0.93827000000E+00 0.  1.
     999902    2    1    2    0    0  0.11650110067E-01  0.10346009408E-01  0.17226156746E-01  0.10207027433E+01  0.10204384278E+01 0.  0.
     999903    2    3    3    0    0  0.10056456501E+00 -0.92762541153E-02 -0.80663481796E-01  0.13060544819E+00  0.18759135774E-01 0.  0.
         14    1    1    2    0    0 -0.11650110067E-01 -0.10346009408E-01 -0.17226156746E-01  0.23227256650E-01  0.00000000000E+00 0. -1.
     999901    1    3    3    0    0 -0.88914454940E-01  0.19622263523E-01  0.97889638542E-01  0.89009729516E+00  0.88000000000E+00 0. -1.
        -11    1    4    4    0    0  0.96735045331E-01 -0.62726107534E-02 -0.79959380246E-01  0.12566136340E+00  0.51100000000E-03 0.  1.
         11    1    4    4    0    0  0.38295196765E-02 -0.30036433618E-02 -0.70410154984E-03  0.49440847880E-02  0.51100000000E-03 0. -1.
</event>
<event>
 8    1  0.1041149E+005  0.1043930E+01  0.7957747E-01            NaN
         13   -1    0    0    0    0  0.00000000000E+00  0.00000000000E+00  0.74505805969E-08  0.10566000000E+00  0.10566000000E+00 0. -1.
     999900   -1    0    0    0    0 -0.00000000000E+00 -0.00000000000E+00 -0.74505805969E-08  0.93827000000E+00  0.93827000000E+00 0.  1.
     999902    2    1    2    0    0  0.82685614138E-02 -0.19957842605E-01  0.15535521254E-02  0.10222713271E+01  0.10220418622E+01 0.  0.
     999903    2    3    3    0    0  0.28128259936E-01 -0.12219925040E+00 -0.45656258521E-01  0.13487261210E+00  0.19551770916E-01 0.  0.
         14    1    1    2    0    0 -0.82685614138E-02  0.19957842605E-01 -0.15535521254E-02  0.21658672940E-01  0.00000000000E+00 0.  1.
     999901    1    3    3    0    0 -0.19859698522E-01  0.10224140780E+00  0.47209810646E-01  0.88739871496E+00  0.88000000000E+00 0. -1.
        -11    1    4    4    0    0  0.27911055514E-01 -0.90445073997E-01 -0.28925533884E-01  0.98976189368E-01  0.51100000000E-03 0. -1.
         11    1    4    4    0    0  0.21720442228E-03 -0.31754176406E-01 -0.16730724637E-01  0.35896422731E-01  0.51100000000E-03 0.  1.
</event>
<event>
 8    1  0.1041149E+005  0.1043930E+01  0.7957747E-01            NaN
         13   -1    0    0    0    0  0.00000000000E+00  0.00000000000E+00  0.74505805969E-08  0.10566000000E+00  0.10566000000E+00 0.  1.
     999900   -1    0    0    0    0 -0.00000000000E+00 -0.00000000000E+00 -0.74505805969E-08  0.93827000000E+00  0.93827000000E+00 0. -1.
     999902    2    1    2    0    0  0.11716037360E-01  0.29251609523E-01  0.57716867024E-02  0.10118951041E+01  0.10113878915E+01 0.  0.
     999903    2    3    3    0    0 -0.52855705233E-01 -0.91019981273E-01  0.54277559779E-01  0.12005005853E+00  0.19687571999E-01 0.  0.
         14    1    1    2    0    0 -0.11716037360E-01 -0.29251609523E-01 -0.57716867024E-02  0.32034895949E-01  0.00000000000E+00 0. -1.
     999901    1    3    3    0    0  0.64571742593E-01  0.12027159080E+00 -0.48505873076E-01  0.89184504552E+00  0.88000000000E+00 0.  1.
        -11    1    4    4    0    0 -0.25998215485E-01 -0.26258145522E-01  0.19608312344E-01  0.41834727783E-01  0.51100000000E-03 0.  1.
         11    1    4    4    0    0 -0.26857489747E-01 -0.64761835752E-01  0.34669247435E-01  0.78215330749E-01  0.51100000000E-03 0. -1.
</event>
<event>
 8    1  0.1041149E+005  0.1043930E+01  0.7957747E-01            NaN
         13   -1    0    0    0    0  0.00000000000E+00  0.00000000000E+00  0.74505805969E-08  0.10566000000E+00  0.10566000000E+00 0. -1.
     999900   -1    0    0    0    0 -0.00000000000E+00 -0.00000000000E+00 -0.74505805969E-08  0.93827000000E+00  0.93827000000E+00 0.  1.
     999902    2    1    2    0    0 -0.69492236680E-02 -0.84559741789E-02  0.17857248118E-01  0.10229853940E+01  0.10227709616E+01 0.  0.
     999903    2    3    3    0    0  0.92886949458E-01  0.71657903721E-01  0.59395076526E-01  0.13275458908E+00  0.18252815139E-01 0.  0.
         14    1    1    2    0    0  0.69492236680E-02  0.84559741789E-02 -0.17857248118E-01  0.20944605970E-01  0.00000000000E+00 0.  1.
     999901    1    3    3    0    0 -0.99836173126E-01 -0.80113877900E-01 -0.41537828408E-01  0.89023080495E+00  0.88000000000E+00 0.  1.
        -11    1    4    4    0    0  0.56363840514E-01  0.54312170519E-01  0.40183972071E-01  0.87986971288E-01  0.51100000000E-03 0.  1.
         11    1    4    4    0    0  0.36523108944E-01  0.17345733202E-01  0.19211104455E-01  0.44767617790E-01  0.51100000000E-03 0. -1.
</event>
<event>
 8    1  0.1041149E+005  0.1043930E+01  0.7957747E-01            NaN
         13   -1    0    0    0    0  0.00000000000E+00  0.00000000000E+00  0.74505805969E-08  0.10566000000E+00  0.10566000000E+00 0.  1.
     999900   -1    0    0    0    0 -0.00000000000E+00 -0.00000000000E+00 -0.74505805969E-08  0.93827000000E+00  0.93827000000E+00 0. -1.
     999902    2    1    2    0    0 -0.19513935027E-01  0.15147799156E-01 -0.15776595479E-02  0.10191764449E+01  0.10188757959E+01 0.  0.
     999903    2    3    3    0    0 -0.77111052726E-01  0.10579460789E+00 -0.73088205150E-02  0.13262857926E+00  0.19957646870E-01 0.  0.
         14    1    1    2    0    0  0.19513935027E-01 -0.15147799156E-01  0.15776595479E-02  0.24753555082E-01  0.00000000000E+00 0.  1.
     999901    1    3    3    0    0  0.57597117698E-01 -0.90646808730E-01  0.57311609671E-02  0.88654786566E+00  0.88000000000E+00 0.  1.
        -11    1    4    4    0    0 -0.47371384781E-01  0.80120818877E-01 -0.33697080228E-02  0.93139732482E-01  0.51100000000E-03 0. -1.
         11    1    4    4    0    0 -0.29739667944E-01  0.25673789009E-01 -0.39391124922E-02  0.39488846776E-01  0.51100000000E-03 0.  1.
</event>
<event>
 8    1  0.1041149E+005  0.1043930E+01  0.7957747E-01            NaN
         13   -1    0    0    0    0  0.00000000000E+00  0.00000000000E+00  0.74505805969E-08  0.10566000000E+00  0.10566000000E+00 0.  1.
     999900   -1    0    0    0    0 -0.00000000000E+00 -0.00000000000E+00 -0.74505805969E-08  0.93827000000E+00  0.93827000000E+00 0.  1.
     999902    2    1    2    0    0  0.15375567693E-01  0.11272194490E-01 -0.13703890596E-01  0.10204509228E+01  0.10201807775E+01 0.  0.
     999903    2    3    3    0    0  0.10857384572E+00  0.63303102367E-01 -0.40351388669E-01  0.13360075303E+00  0.20624352085E-01 0.  0.
         14    1    1    2    0    0 -0.15375567693E-01 -0.11272194490E-01  0.13703890596E-01  0.23479077238E-01  0.00000000000E+00 0.  1.
     999901    1    3    3    0    0 -0.93198278025E-01 -0.52030907877E-01  0.26647498074E-01  0.88685016973E+00  0.88000000000E+00 0. -1.
        -11    1    4    4    0    0  0.60777636352E-01  0.26409553008E-01 -0.28143557316E-01  0.71997961846E-01  0.51100000000E-03 0. -1.
         11    1    4    4    0    0  0.47796209366E-01  0.36893549360E-01 -0.12207831354E-01  0.61602791183E-01  0.51100000000E-03 0.  1.
</event>
<event>
 8    1  0.1041149E+005  0.1043930E+01  0.7957747E-01            NaN
         13   -1    0    0    0    0  0.00000000000E+00  0.00000000000E+00  0.74505805969E-08  0.10566000000E+00  0.10566000000E+00 0. -1.
     999900   -1    0    0    0    0 -0.00000000000E+00 -0.00000000000E+00 -0.74505805969E-08  0.93827000000E+00  0.93827000000E+00 0.  1.
     999902    2    1    2    0    0  0.26691736108E-02 -0.22733519174E-01  0.84741933873E-02  0.10195220231E+01  0.10192298103E+01 0.  0.
     999903    2    3    3    0    0  0.12450826559E+00  0.15430463967E-01 -0.25849826455E-01  0.12964596867E+00  0.19986401506E-01 0.  0.
         14    1    1    2    0    0 -0.26691736108E-02  0.22733519174E-01 -0.84741933873E-02  0.24407976880E-01  0.00000000000E+00 0.  1.
     999901    1    3    3    0    0 -0.12183909198E+00 -0.38163983141E-01  0.34324019842E-01  0.88987605445E+00  0.88000000000E+00 0.  1.
        -11    1    4    4    0    0  0.54442175185E-01  0.11717884598E-01 -0.26896054912E-02  0.55756204650E-01  0.51100000000E-03 0. -1.
         11    1    4    4    0    0  0.70066090410E-01  0.37125793687E-02 -0.23160220964E-01  0.73889764020E-01  0.51100000000E-03 0.  1.
</event>
<event>
 8    1  0.1041149E+005  0.1043930E+01  0.7957747E-01            NaN
         13   -1    0    0    0    0  0.00000000000E+00  0.00000000000E+00  0.74505805969E-08  0.10566000000E+00  0.10566000000E+00 0. -1.
     999900   -1    0    0    0    0 -0.00000000000E+00 -0.00000000000E+00 -0.74505805969E-08  0.93827000000E+00  0.93827000000E+00 0.  1.
     999902    2    1    2    0    0 -0.54549040761E-02  0.19843640276E-01  0.12080788888E-01  0.10200663980E+01  0.10197872253E+01 0.  0.
     999903    2    3    3    0    0 -0.97343531111E-01  0.44813471085E-01  0.75605177620E-01  0.13265310077E+00  0.19917128819E-01 0.  0.
         14    1    1    2    0    0  0.54549040761E-02 -0.19843640276E-01 -0.12080788888E-01  0.23863601950E-01  0.00000000000E+00 0. -1.
     999901    1    3    3    0    0  0.91888627035E-01 -0.24969830809E-01 -0.63524388732E-01  0.88741329728E+00  0.88000000000E+00 0.  1.
        -11    1    4    4    0    0 -0.36719304987E-01  0.10431329558E-01  0.36085431493E-01  0.52531319060E-01  0.51100000000E-03 0. -1.
         11    1    4    4    0    0 -0.60624226124E-01  0.34382141528E-01  0.39519746127E-01  0.80121781708E-01  0.51100000000E-03 0.  1.
</event>
<event>
 8    1  0.1041149E+005  0.1043930E+01  0.7957747E-01            NaN
         13   -1    0    0    0    0  0.00000000000E+00  0.00000000000E+00  0.74505805969E-08  0.10566000000E+00  0.10566000000E+00 0.  1.
     999900   -1    0    0    0    0 -0.00000000000E+00 -0.00000000000E+00 -0.74505805969E-08  0.93827000000E+00  0.93827000000E+00 0.  1.
     999902    2    1    2    0    0  0.17250382877E-01 -0.10476701138E-01  0.10097689886E-01  0.10213623170E+01  0.10211129625E+01 0.  0.
     999903    2    3    3    0    0  0.82433895403E-03 -0.10803852389E+00  0.75842879475E-01  0.13338114931E+00  0.19115084219E-01 0.  0.
         14    1    1    2    0    0 -0.17250382877E-01  0.10476701138E-01 -0.10097689886E-01  0.22567683026E-01  0.00000000000E+00 0. -1.
     999901    1    3    3    0    0  0.16426043923E-01  0.97561822750E-01 -0.65745189590E-01  0.88798116767E+00  0.88000000000E+00 0.  1.
        -11    1    4    4    0    0  0.11554612740E-02 -0.10005806749E+00  0.75529928749E-01  0.12537138117E+00  0.51100000000E-03 0.  1.
         11    1    4    4    0    0 -0.33112232000E-03 -0.79804564023E-02  0.31295072626E-03  0.80097681325E-02  0.51100000000E-03 0. -1.
</event>
<event>
 8    1  0.1041149E+005  0.1043930E+01  0.7957747E-01            NaN
         13   -1    0    0    0    0  0.00000000000E+00  0.00000000000E+00  0.74505805969E-08  0.10566000000E+00  0.10566000000E+00 0. -1.
     999900   -1    0    0    0    0 -0.00000000000E+00 -0.00000000000E+00 -0.74505805969E-08  0.93827000000E+00  0.93827000000E+00 0.  1.
     999902    2    1    2    0    0  0.85366121929E-02 -0.21895081073E-01  0.80525609935E-02  0.10190882597E+01  0.10187854381E+01 0.  0.
     999903    2    3    3    0    0 -0.11144253340E+00 -0.60702718761E-01  0.20891364067E-01  0.13000678818E+00  0.19001514818E-01 0.  0.
         14    1    1    2    0    0 -0.85366121929E-02  0.21895081073E-01 -0.80525609935E-02  0.24841740307E-01  0.00000000000E+00 0.  1.
     999901    1    3    3    0    0  0.11997914559E+00  0.38807637688E-01 -0.12838803073E-01  0.88908147151E+00  0.88000000000E+00 0. -1.
        -11    1    4    4    0    0 -0.59209588336E-01 -0.21557761267E-01  0.89079051162E-02  0.63640587020E-01  0.51100000000E-03 0.  1.
         11    1    4    4    0    0 -0.52232945064E-01 -0.39144957494E-01  0.11983458951E-01  0.66366201162E-01  0.51100000000E-03 0. -1.
</event>
<event>
 8    1  0.1041149E+005  0.1043930E+01  0.7957747E-01            NaN
         13   -1    0    0    0    0  0.00000000000E+00  0.00000000000E+00  0.74505805969E-08  0.10566000000E+00  0.10566000000E+00 0. -1.
     999900   -1    0    0    0    0 -0.00000000000E+00 -0.00000000000E+00 -0.74505805969E-08  0.93827000000E+00  0.93827000000E+00 0. -1.
     999902    2    1    2    0    0 -0.81706440259E-03 -0.16834848049E-01 -0.15533024414E-01  0.10210093859E+01  0.10207520813E+01 0.  0.
     999903    2    3    3    0    0 -0.32598805488E-01 -0.10785115971E+00  0.65970978373E-01  0.13200041490E+00  0.19426393794E-01 0.  0.
         14    1    1    2    0    0  0.81706440259E-03  0.16834848049E-01  0.15533024414E-01  0.22920614096E-01  0.00000000000E+00 0. -1.
     999901    1    3    3    0    0  0.31781741085E-01  0.91016311663E-01 -0.81504002787E-01  0.88900897100E+00  0.88000000000E+00 0. -1.
        -11    1    4    4    0    0  0.10794535190E-02 -0.13487088774E-01  0.12511987308E-01  0.18435773129E-01  0.51100000000E-03 0. -1.
         11    1    4    4    0    0 -0.33678259007E-01 -0.94364070938E-01  0.53458991065E-01  0.11356464177E+00  0.51100000000E-03 0.  1.
</event>
<event>
 8    1  0.1041149E+005  0.1043930E+01  0.7957747E-01            NaN
         13   -1    0    0    0    0  0.00000000000E+00  0.00000000000E+00  0.74505805969E-08  0.10566000000E+00  0.10566000000E+00 0.  1.
     999900   -1    0    0    0    0 -0.00000000000E+00 -0.00000000000E+00 -0.74505805969E-08  0.93827000000E+00  0.93827000000E+00 0. -1.
     999902    2    1    2    0    0 -0.39798666854E-03  0.10320639971E-01  0.22731055192E-01  0.10189625237E+01  0.10186565907E+01 0.  0.
     999903    2    3    3    0    0 -0.46060572833E-01 -0.10655208755E+00  0.53658078061E-01  0.12952405648E+00  0.20551596913E-01 0.  0.
         14    1    1    2    0    0  0.39798666854E-03 -0.10320639971E-01 -0.22731055192E-01  0.24967476303E-01  0.00000000000E+00 0. -1.
     999901    1    3    3    0    0  0.45662586165E-01  0.11687272752E+00 -0.30927022869E-01  0.88943846721E+00  0.88000000000E+00 0. -1.
        -11    1    4    4    0    0 -0.32131334495E-02 -0.26498898620E-01  0.16698453765E-01  0.31489924321E-01  0.51100000000E-03 0.  1.
         11    1    4    4    0    0 -0.42847439384E-01 -0.80053188931E-01  0.36959624297E-01  0.98034132163E-01  0.51100000000E-03 0. -1.
</event>
<event>
 8    1  0.1041149E+005  0.1043930E+01  0.7957747E-01            NaN
         13   -1    0    0    0    0  0.00000000000E+00  0.00000000000E+00  0.74505805969E-08  0.10566000000E+00  0.10566000000E+00 0. -1.
     999900   -1    0    0    0    0 -0.00000000000E+00 -0.00000000000E+00 -0.74505805969E-08  0.93827000000E+00  0.93827000000E+00 0. -1.
     999902    2    1    2    0    0  0.12979065088E-01 -0.13544394501E-01  0.15435643363E-01  0.10196366709E+01  0.10193472297E+01 0.  0.
     999903    2    3    3    0    0  0.19298056922E-01 -0.96471048446E-01  0.87083780865E-01  0.13281638741E+00  0.19430123160E-01 0.  0.
         14    1    1    2    0    0 -0.12979065088E-01  0.13544394501E-01 -0.15435643363E-01  0.24293329104E-01  0.00000000000E+00 0.  1.
     999901    1    3    3    0    0 -0.63189918342E-02  0.82926653945E-01 -0.71648137502E-01  0.88682028348E+00  0.88000000000E+00 0. -1.
        -11    1    4    4    0    0  0.36187396664E-02 -0.33042571188E-01  0.41374020472E-01  0.53075205874E-01  0.51100000000E-03 0.  1.
         11    1    4    4    0    0  0.15679317255E-01 -0.63428477258E-01  0.45709760393E-01  0.79741181538E-01  0.51100000000E-03 0. -1.
</event>
<event>
 8    1  0.1041149E+005  0.1043930E+01  0.7957747E-01            NaN
         13   -1    0    0    0    0  0.00000000000E+00  0.00000000000E+00  0.74505805969E-08  0.10566000000E+00  0.10566000000E+00 0. -1.
     999900   -1    0    0    0    0 -0.00000000000E+00 -0.00000000000E+00 -0.74505805969E-08  0.93827000000E+00  0.93827000000E+00 0.  1.
     999902    2    1    2    0    0  0.63057410418E-03  0.26671854787E-01  0.24302744084E-01  0.10078410982E+01  0.10071947530E+01 0.  0.
     999903    2    3    3    0    0 -0.10349476167E+00 -0.45028218829E-03  0.58213772745E-01  0.12063894892E+00  0.21296577477E-01 0.  0.
         14    1    1    2    0    0 -0.63057410418E-03 -0.26671854787E-01 -0.24302744084E-01  0.36088901778E-01  0.00000000000E+00 0.  1.
     999901    1    3    3    0    0  0.10412533577E+00  0.27122136976E-01 -0.33911028660E-01  0.88720214930E+00  0.88000000000E+00 0.  1.
        -11    1    4    4    0    0 -0.91680741487E-01 -0.59321512891E-02  0.55465724215E-01  0.10731848146E+00  0.51100000000E-03 0.  1.
         11    1    4    4    0    0 -0.11814020181E-01  0.54818691008E-02  0.27480485298E-02  0.13320467462E-01  0.51100000000E-03 0. -1.
</event>
<event>
 8    1  0.1041149E+005  0.1043930E+01  0.7957747E-01            NaN
         13   -1    0    0    0    0  0.00000000000E+00  0.00000000000E+00  0.74505805969E-08  0.10566000000E+00  0.10566000000E+00 0.  1.
     999900   -1    0    0    0    0 -0.00000000000E+00 -0.00000000000E+00 -0.74505805969E-08  0.93827000000E+00  0.93827000000E+00 0. -1.
     999902    2    1    2    0    0  0.44302280163E-03 -0.20526077854E-01 -0.12785891218E-01  0.10197433269E+01  0.10194564520E+01 0.  0.
     999903    2    3    3    0    0 -0.65980201752E-01 -0.18484040628E-01 -0.11082870488E+00  0.13180830226E+00  0.19884162975E-01 0.  0.
         14    1    1    2    0    0 -0.44302280163E-03  0.20526077854E-01  0.12785891218E-01  0.24186673098E-01  0.00000000000E+00 0.  1.
     999901    1    3    3    0    0  0.66423224553E-01 -0.20420372262E-02  0.98042813665E-01  0.88793502464E+00  0.88000000000E+00 0. -1.
        -11    1    4    4    0    0 -0.44410973411E-01 -0.20710588190E-01 -0.68223889932E-01  0.84000138695E-01  0.51100000000E-03 0.  1.
         11    1    4    4    0    0 -0.21569228341E-01  0.22265475618E-02 -0.42604814952E-01  0.47808163564E-01  0.51100000000E-03 0. -1.
</event>
<event>
 8    1  0.1041149E+005  0.1043930E+01  0.7957747E-01            NaN
         13   -1    0    0    0    0  0.00000000000E+00  0.00000000000E+00  0.74505805969E-08  0.10566000000E+00  0.10566000000E+00 0.  1.
     999900   -1    0    0    0    0 -0.00000000000E+00 -0.00000000000E+00 -0.74505805969E-08  0.93827000000E+00  0.93827000000E+00 0. -1.
     999902    2    1    2    0    0  0.19035224563E-01  0.90705061832E-02 -0.11311431308E-01  0.10200017252E+01  0.10197210192E+01 0.  0.
     999903    2    3    3    0    0 -0.11385108050E+00 -0.19266517594E-01 -0.52902231216E-01  0.12860307610E+00  0.20170222700E-01 0.  0.
         14    1    1    2    0    0 -0.19035224563E-01 -0.90705061832E-02  0.11311431308E-01  0.23928274798E-01  0.00000000000E+00 0. -1.
     999901    1    3    3    0    0  0.13288630506E+00  0.28337023777E-01  0.41590799908E-01  0.89139864910E+00  0.88000000000E+00 0.  1.
        -11    1    4    4    0    0 -0.65052658111E-02  0.36023839750E-02 -0.29875891230E-02  0.80300973434E-02  0.51100000000E-03 0. -1.
         11    1    4    4    0    0 -0.10734581468E+00 -0.22868901569E-01 -0.49914642093E-01  0.12057297875E+00  0.51100000000E-03 0.  1.
</event>
<event>
 8    1  0.1041149E+005  0.1043930E+01  0.7957747E-01            NaN
         13   -1    0    0    0    0  0.00000000000E+00  0.00000000000E+00  0.74505805969E-08  0.10566000000E+00  0.10566000000E+00 0.  1.
     999900   -1    0    0    0    0 -0.00000000000E+00 -0.00000000000E+00 -0.74505805969E-08  0.93827000000E+00  0.93827000000E+00 0. -1.
     999902    2    1    2    0    0  0.11534374771E-01  0.97921976150E-02  0.15171465746E-01  0.10225033272E+01  0.10222788033E+01 0.  0.
     999903    2    3    3    0    0 -0.67914818583E-01 -0.55627814500E-01 -0.93509933923E-01  0.12986476709E+00  0.20343885096E-01 0.  0.
         14    1    1    2    0    0 -0.11534374771E-01 -0.97921976150E-02 -0.15171465746E-01  0.21426672825E-01  0.00000000000E+00 0. -1.
     999901    1    3    3    0    0  0.79449193353E-01  0.65420012115E-01  0.10868139967E+00  0.89263856008E+00  0.88000000000E+00 0.  1.
        -11    1    4    4    0    0 -0.28892958076E-01 -0.36779999286E-01 -0.48040185014E-01  0.67049920738E-01  0.51100000000E-03 0.  1.
         11    1    4    4    0    0 -0.39021860507E-01 -0.18847815214E-01 -0.45469748909E-01  0.62814846355E-01  0.51100000000E-03 0. -1.
</event>
<event>
 8    1  0.1041149E+005  0.1043930E+01  0.7957747E-01            NaN
         13   -1    0    0    0    0  0.00000000000E+00  0.00000000000E+00  0.74505805969E-08  0.10566000000E+00  0.10566000000E+00 0.  1.
     999900   -1    0    0    0    0 -0.00000000000E+00 -0.00000000000E+00 -0.74505805969E-08  0.93827000000E+00  0.93827000000E+00 0.  1.
     999902    2    1    2    0    0  0.24370193530E-01  0.55967486736E-02  0.11041909726E-01  0.10165958876E+01  0.10162283430E+01 0.  0.
     999903    2    3    3    0    0  0.11819335317E+00 -0.36124511325E-01  0.36545046681E-01  0.13025855974E+00  0.18897166390E-01 0.  0.
         14    1    1    2    0    0 -0.24370193530E-01 -0.55967486736E-02 -0.11041909726E-01  0.27334112365E-01  0.00000000000E+00 0. -1.
     999901    1    3    3    0    0 -0.93823159638E-01  0.41721259998E-01 -0.25503136955E-01  0.88633732789E+00  0.88000000000E+00 0.  1.
        -11    1    4    4    0    0  0.14402169869E-01 -0.10916391730E-01  0.74761081834E-02  0.19563829378E-01  0.51100000000E-03 0. -1.
         11    1    4    4    0    0  0.10379118330E+00 -0.25208119595E-01  0.29068938497E-01  0.11069473036E+00  0.51100000000E-03 0.  1.
</event>
<event>
 8    1  0.1041149E+005  0.1043930E+01  0.7957747E-01            NaN
         13   -1    0    0    0    0  0.00000000000E+00  0.00000000000E+00  0.74505805969E-08  0.10566000000E+00  0.10566000000E+00 0. -1.
     999900   -1    0    0    0    0 -0.00000000000E+00 -0.00000000000E+00 -0.74505805969E-08  0.93827000000E+00  0.93827000000E+00 0. -1.
     999902    2    1    2    0    0 -0.35324733440E-02 -0.15739188432E-01 -0.16568758483E-01  0.10208058962E+01  0.10205439498E+01 0.  0.
     999903    2    3    3    0    0  0.18260553032E-01 -0.32653866547E-01  0.12226116128E+00  0.12949518213E+00  0.20530168987E-01 0.  0.
         14    1    1    2    0    0  0.35324733440E-02  0.15739188432E-01  0.16568758483E-01  0.23124103834E-01  0.00000000000E+00 0. -1.
     999901    1    3    3    0    0 -0.21793026376E-01  0.16914678114E-01 -0.13882991977E+00  0.89131071404E+00  0.88000000000E+00 0. -1.
        -11    1    4    4    0    0  0.71234104233E-02 -0.30494460979E-01  0.89709599624E-01  0.95019621722E-01  0.51100000000E-03 0. -1.
         11    1    4    4    0    0  0.11137142608E-01 -0.21594055679E-02  0.32551561661E-01  0.34475560408E-01  0.51100000000E-03 0.  1.
</event>
<event>
 8    1  0.1041149E+005  0.1043930E+01  0.7957747E-01            NaN
         13   -1    0    0    0    0  0.00000000000E+00  0.00000000000E+00  0.74505805969E-08  0.10566000000E+00  0.10566000000E+00 0.  1.
     999900   -1    0    0    0    0 -0.00000000000E+00 -0.00000000000E+00 -0.74505805969E-08  0.93827000000E+00  0.93827000000E+00 0. -1.
     999902    2    1    2    0    0  0.18221263855E-01  0.13394645655E-01  0.77729019353E-02  0.10200166357E+01  0.10197362836E+01 0.  0.
     999903    2    3    3    0    0 -0.12071824370E+00 -0.12626510105E-02  0.39474900164E-01  0.12843150806E+00  0.19023560918E-01 0.  0.
         14    1    1    2    0    0 -0.18221263855E-01 -0.13394645655E-01 -0.77729019353E-02  0.23913364322E-01  0.00000000000E+00 0.  1.
     999901    1    3    3    0    0  0.13893950755E+00  0.14657296665E-01 -0.31701998228E-01  0.89158512762E+00  0.88000000000E+00 0. -1.
        -11    1    4    4    0    0 -0.82565434862E-01 -0.66954703080E-02  0.19856661437E-01  0.85184672806E-01  0.51100000000E-03 0. -1.
         11    1    4    4    0    0 -0.38152808835E-01  0.54328192975E-02  0.19618238726E-01  0.43246835251E-01  0.51100000000E-03 0.  1.
</event>
<event>
 8    1  0.1041149E+005  0.1043930E+01  0.7957747E-01            NaN
         13   -1    0    0    0    0  0.00000000000E+00  0.00000000000E+00  0.74505805969E-08  0.10566000000E+00  0.10566000000E+00 0. -1.
     999900   -1    0    0    0    0 -0.00000000000E+00 -0.00000000000E+00 -0.74505805969E-08  0.93827000000E+00  0.93827000000E+00 0.  1.
     999902    2    1    2    0    0 -0.16271142451E-01 -0.77845128011E-02  0.15344549658E-01  0.10202487010E+01  0.10199738271E+01 0.  0.
     999903    2    3    3    0    0 -0.90582674406E-01 -0.31202300906E-01  0.90873268149E-01  0.13358349709E+00  0.20193943300E-01 0.  0.
         14    1    1    2    0    0  0.16271142451E-01  0.77845128011E-02 -0.15344549658E-01  0.23681298960E-01  0.00000000000E+00 0. -1.
     999901    1    3    3    0    0  0.74311531956E-01  0.23417788105E-01 -0.75528718491E-01  0.88666520395E+00  0.88000000000E+00 0.  1.
        -11    1    4    4    0    0 -0.50309176841E-01 -0.26357057865E-01  0.45977304336E-01  0.73074492189E-01  0.51100000000E-03 0.  1.
         11    1    4    4    0    0 -0.40273497566E-01 -0.48452430414E-02  0.44895963813E-01  0.60509004900E-01  0.51100000000E-03 0. -1.
</event>
<event>
 8    1  0.1041149E+005  0.1043930E+01  0.7957747E-01            NaN
         13   -1    0    0    0    0  0.00000000000E+00  0.00000000000E+00  0.74505805969E-08  0.10566000000E+00  0.10566000000E+00 0. -1.
     999900   -1    0    0    0    0 -0.00000000000E+00 -0.00000000000E+00 -0.74505805969E-08  0.93827000000E+00  0.93827000000E+00 0.  1.
     999902    2    1    2    0    0  0.15816237647E-01  0.16213192305E-01 -0.63735380895E-02  0.10204003811E+01  0.10201290579E+01 0.  0.
     999903    2    3    3    0    0  0.49652583913E-01 -0.73668590311E-01  0.92215589623E-01  0.12970208802E+00  0.20651304581E-01 0.  0.
         14    1    1    2    0    0 -0.15816237647E-01 -0.16213192305E-01  0.63735380895E-02  0.23529618905E-01  0.00000000000E+00 0.  1.
     999901    1    3    3    0    0 -0.33836346265E-01  0.89881782616E-01 -0.98589127712E-01  0.89069829307E+00  0.88000000000E+00 0.  1.
        -11    1    4    4    0    0  0.21382406775E-01 -0.49491175953E-01  0.57389461472E-01  0.78742588387E-01  0.51100000000E-03 0. -1.
         11    1    4    4    0    0  0.28270177138E-01 -0.24177414358E-01  0.34826128150E-01  0.50959499638E-01  0.51100000000E-03 0.  1.
</event>
<event>
 8    1  0.1041149E+005  0.1043930E+01  0.7957747E-01            NaN
         13   -1    0    0    0    0  0.00000000000E+00  0.00000000000E+00  0.74505805969E-08  0.10566000000E+00  0.10566000000E+00 0. -1.
     999900   -1    0    0    0    0 -0.00000000000E+00 -0.00000000000E+00 -0.74505805969E-08  0.93827000000E+00  0.93827000000E+00 0. -1.
     999902    2    1    2    0    0  0.21578956592E-01  0.57318289663E-02 -0.71410074966E-02  0.10204886003E+01  0.10202193314E+01 0.  0.
     999903    2    3    3    0    0  0.86765945508E-01  0.40169690233E-01 -0.91034644497E-01  0.13342972283E+00  0.19345571108E-01 0.  0.
         14    1    1    2    0    0 -0.21578956592E-01 -0.57318289663E-02  0.71410074966E-02  0.23441399680E-01  0.00000000000E+00 0.  1.
     999901    1    3    3    0    0 -0.65186988916E-01 -0.34437861266E-01  0.83893637000E-01  0.88705887749E+00  0.88000000000E+00 0.  1.
        -11    1    4    4    0    0  0.56520241120E-01  0.35550495258E-01 -0.58631405798E-01  0.88861005150E-01  0.51100000000E-03 0.  1.
         11    1    4    4    0    0  0.30245704388E-01  0.46191949742E-02 -0.32403238698E-01  0.44568717676E-01  0.51100000000E-03 0. -1.
</event>
<event>
 8    1  0.1041149E+005  0.1043930E+01  0.7957747E-01            NaN
         13   -1    0    0    0    0  0.00000000000E+00  0.00000000000E+00  0.74505805969E-08  0.10566000000E+00  0.10566000000E+00 0. -1.
     999900   -1    0    0    0    0 -0.00000000000E+00 -0.00000000000E+00 -0.74505805969E-08  0.93827000000E+00  0.93827000000E+00 0.  1.
     999902    2    1    2    0    0  0.17896218508E-01 -0.16496693911E-02 -0.13210110394E-01  0.10216252233E+01  0.10213817082E+01 0.  0.
     999903    2    3    3    0    0 -0.44031788101E-01  0.53033528083E-01 -0.11106839526E+00  0.13235497531E+00  0.20743615850E-01 0.  0.
         14    1    1    2    0    0 -0.17896218508E-01  0.16496693911E-02  0.13210110394E-01  0.22304776677E-01  0.00000000000E+00 0. -1.
     999901    1    3    3    0    0  0.61928006610E-01 -0.54683197474E-01  0.97858284866E-01  0.88927024802E+00  0.88000000000E+00 0. -1.
        -11    1    4    4    0    0 -0.30658150734E-01  0.33783495795E-01 -0.89686098855E-01  0.10062357698E+00  0.51100000000E-03 0. -1.
         11    1    4    4    0    0 -0.13373637367E-01  0.19250032288E-01 -0.21382296406E-01  0.31731398332E-01  0.51100000000E-03 0.  1.
</event>
<event>
 8    1  0.1041149E+005  0.1043930E+01  0.7957747E-01            NaN
         13   -1    0    0    0    0  0.00000000000E+00  0.00000000000E+00  0.74505805969E-08  0.10566000000E+00  0.10566000000E+00 0.  1.
     999900   -1    0    0    0    0 -0.00000000000E+00 -0.00000000000E+00 -0.74505805969E-08  0.93827000000E+00  0.93827000000E+00 0.  1.
     999902    2    1    2    0    0  0.78489145158E-02 -0.29265224767E-02  0.25225327122E-01  0.10173501745E+01  0.10170028960E+01 0.  0.
     999903    2    3    3    0    0  0.11145064454E+00 -0.58875676165E-01 -0.15809823220E-01  0.12856026133E+00  0.19753452161E-01 0.  0.
         14    1    1    2    0    0 -0.78489145158E-02  0.29265224767E-02 -0.25225327122E-01  0.26579825456E-01  0.00000000000E+00 0. -1.
     999901    1    3    3    0    0 -0.10360173002E+00  0.55949153689E-01  0.41035150342E-01  0.88878991321E+00  0.88000000000E+00 0. -1.
        -11    1    4    4    0    0  0.35234163304E-01 -0.28082669687E-01 -0.12459549044E-02  0.45076558488E-01  0.51100000000E-03 0.  1.
         11    1    4    4    0    0  0.76216481232E-01 -0.30793006478E-01 -0.14563868316E-01  0.83483702845E-01  0.51100000000E-03 0. -1.
</event>
<event>
 8    1  0.1041149E+005  0.1043930E+01  0.7957747E-01            NaN
         13   -1    0    0    0    0  0.00000000000E+00  0.00000000000E+00  0.74505805969E-08  0.10566000000E+00  0.10566000000E+00 0. -1.
     999900   -1    0    0    0    0 -0.00000000000E+00 -0.00000000000E+00 -0.74505805969E-08  0.93827000000E+00  0.93827000000E+00 0. -1.
     999902    2    1    2    0    0  0.22789467702E-01 -0.16714221757E-01  0.11326991845E-01  0.10134829018E+01  0.10130254520E+01 0.  0.
     999903    2    3    3    0    0  0.84100810568E-01 -0.91120710410E-01 -0.22051997503E-01  0.12758812062E+00  0.20408520908E-01 0.  0.
         14    1    1    2    0    0 -0.22789467702E-01  0.16714221757E-01 -0.11326991845E-01  0.30447098242E-01  0.00000000000E+00 0.  1.
     999901    1    3    3    0    0 -0.61311342866E-01  0.74406488653E-01  0.33378989348E-01  0.88589478114E+00  0.88000000000E+00 0.  1.
        -11    1    4    4    0    0  0.60467115194E-01 -0.68444419344E-01 -0.25024776180E-01  0.94696415471E-01  0.51100000000E-03 0.  1.
         11    1    4    4    0    0  0.23633695374E-01 -0.22676291066E-01  0.29727786768E-02  0.32891705149E-01  0.51100000000E-03 0. -1.
</event>
<event>
 8    1  0.1041149E+005  0.1043930E+01  0.7957747E-01            NaN
         13   -1    0    0    0    0  0.00000000000E+00  0.00000000000E+00  0.74505805969E-08  0.10566000000E+00  0.10566000000E+00 0.  1.
     999900   -1    0    0    0    0 -0.00000000000E+00 -0.00000000000E+00 -0.74505805969E-08  0.93827000000E+00  0.93827000000E+00 0.  1.
     999902    2    1    2    0    0  0.20001896631E-01  0.95085381989E-02  0.54529444992E-02  0.10211216074E+01  0.10208668446E+01 0.  0.
     999903    2    3    3    0    0 -0.11031909479E+00  0.63232241975E-01  0.15274088528E-01  0.12984934151E+00  0.21422759145E-01 0.  0.
         14    1    1    2    0    0 -0.20001896631E-01 -0.95085381989E-02 -0.54529444992E-02  0.22808392561E-01  0.00000000000E+00 0.  1.
     999901    1    3    3    0    0  0.13032099142E+00 -0.53723703776E-01 -0.98211440286E-02  0.89127226593E+00  0.88000000000E+00 0.  1.
        -11    1    4    4    0    0 -0.10030982032E+00  0.63829959444E-01  0.13642048179E-01  0.11967744305E+00  0.51100000000E-03 0. -1.
         11    1    4    4    0    0 -0.10009274464E-01 -0.59771746884E-03  0.16320403491E-02  0.10171898455E-01  0.51100000000E-03 0.  1.
</event>
<event>
 8    1  0.1041149E+005  0.1043930E+01  0.7957747E-01            NaN
         13   -1    0    0    0    0  0.00000000000E+00  0.00000000000E+00  0.74505805969E-08  0.10566000000E+00  0.10566000000E+00 0.  1.
     999900   -1    0    0    0    0 -0.00000000000E+00 -0.00000000000E+00 -0.74505805969E-08  0.93827000000E+00  0.93827000000E+00 0. -1.
     999902    2    1    2    0    0 -0.65126891688E-02  0.10579885480E-02  0.24081984627E-01  0.10189604897E+01  0.10186545063E+01 0.  0.
     999903    2    3    3    0    0  0.53439110796E-01  0.99723915719E-01  0.63497799584E-01  0.13054460177E+00  0.14468053396E-01 0.  0.
         14    1    1    2    0    0  0.65126891688E-02 -0.10579885480E-02 -0.24081984627E-01  0.24969510279E-01  0.00000000000E+00 0. -1.
     999901    1    3    3    0    0 -0.59951799964E-01 -0.98665927171E-01 -0.39415814957E-01  0.88841588796E+00  0.88000000000E+00 0. -1.
        -11    1    4    4    0    0  0.37694638050E-01  0.61365275126E-01  0.33909132731E-01  0.79603223130E-01  0.51100000000E-03 0. -1.
         11    1    4    4    0    0  0.15744472745E-01  0.38358640593E-01  0.29588666853E-01  0.50941378636E-01  0.51100000000E-03 0.  1.
</event>
<event>
 8    1  0.1041149E+005  0.1043930E+01  0.7957747E-01            NaN
         13   -1    0    0    0    0  0.00000000000E+00  0.00000000000E+00  0.74505805969E-08  0.10566000000E+00  0.10566000000E+00 0.  1.
     999900   -1    0    0    0    0 -0.00000000000E+00 -0.00000000000E+00 -0.74505805969E-08  0.93827000000E+00  0.93827000000E+00 0. -1.
     999902    2    1    2    0    0 -0.60182075505E-02 -0.23454955037E-01 -0.68904295212E-02  0.10187539845E+01  0.10184428551E+01 0.  0.
     999903    2    3    3    0    0 -0.85801588604E-03  0.82533847779E-01 -0.96157979266E-01  0.12789543829E+00  0.17271767102E-01 0.  0.
         14    1    1    2    0    0  0.60182075505E-02  0.23454955037E-01  0.68904295212E-02  0.25176015508E-01  0.00000000000E+00 0. -1.
     999901    1    3    3    0    0 -0.51601916645E-02 -0.10598880282E+00  0.89267549745E-01  0.89085854620E+00  0.88000000000E+00 0.  1.
        -11    1    4    4    0    0  0.39985073462E-02  0.49905057814E-01 -0.46856670731E-01  0.68573402785E-01  0.51100000000E-03 0. -1.
         11    1    4    4    0    0 -0.48565232322E-02  0.32628789965E-01 -0.49301308535E-01  0.59322035507E-01  0.51100000000E-03 0.  1.
</event>
<event>
 8    1  0.1041149E+005  0.1043930E+01  0.7957747E-01            NaN
         13   -1    0    0    0    0  0.00000000000E+00  0.00000000000E+00  0.74505805969E-08  0.10566000000E+00  0.10566000000E+00 0. -1.
     999900   -1    0    0    0    0 -0.00000000000E+00 -0.00000000000E+00 -0.74505805969E-08  0.93827000000E+00  0.93827000000E+00 0. -1.
     999902    2    1    2    0    0 -0.21562512831E-01 -0.83800430475E-02  0.11330613407E-02  0.10207685901E+01  0.10205057881E+01 0.  0.
     999903    2    3    3    0    0 -0.89995296068E-01  0.89059050169E-01  0.32433646850E-01  0.13219830623E+00  0.19843966082E-01 0.  0.
         14    1    1    2    0    0  0.21562512831E-01  0.83800430475E-02 -0.11330613407E-02  0.23161409911E-01  0.00000000000E+00 0.  1.
     999901    1    3    3    0    0  0.68432783237E-01 -0.97439093217E-01 -0.31300585509E-01  0.88857028386E+00  0.88000000000E+00 0. -1.
        -11    1    4    4    0    0 -0.37573864541E-01  0.50247055196E-01  0.19464312016E-01  0.65693853713E-01  0.51100000000E-03 0.  1.
         11    1    4    4    0    0 -0.52421431527E-01  0.38811994973E-01  0.12969334833E-01  0.66504452514E-01  0.51100000000E-03 0. -1.
</event>
<event>
 8    1  0.1041149E+005  0.1043930E+01  0.7957747E-01            NaN
         13   -1    0    0    0    0  0.00000000000E+00  0.00000000000E+00  0.74505805969E-08  0.10566000000E+00  0.10566000000E+00 0.  1.
     999900   -1    0    0    0    0 -0.00000000000E+00 -0.00000000000E+00 -0.74505805969E-08  0.93827000000E+00  0.93827000000E+00 0.  1.
     999902    2    1    2    0    0 -0.19876685121E-01  0.19541089168E-01  0.92159325618E-02  0.10145723742E+01  0.10141475397E+01 0.  0.
     999903    2    3    3    0    0  0.22690793765E-01  0.29150712163E-01 -0.11717652193E+00  0.12447160036E+00  0.19955096174E-01 0.  0.
         14    1    1    2    0    0  0.19876685121E-01 -0.19541089168E-01 -0.92159325618E-02  0.29357625760E-01  0.00000000000E+00 0.  1.
     999901    1    3    3    0    0 -0.42567478886E-01 -0.96096229945E-02  0.12639245449E+00  0.89010077388E+00  0.88000000000E+00 0. -1.
        -11    1    4    4    0    0  0.75087903527E-03  0.15430685999E-01 -0.54810467934E-01  0.56948383699E-01  0.51100000000E-03 0. -1.
         11    1    4    4    0    0  0.21939914730E-01  0.13720026163E-01 -0.62366053994E-01  0.67523216660E-01  0.51100000000E-03 0.  1.
</event>
<event>
 8    1  0.1041149E+005  0.1043930E+01  0.7957747E-01            NaN
         13   -1    0    0    0    0  0.00000000000E+00  0.00000000000E+00  0.74505805969E-08  0.10566000000E+00  0.10566000000E+00 0.  1.
     999900   -1    0    0    0    0 -0.00000000000E+00 -0.00000000000E+00 -0.74505805969E-08  0.93827000000E+00  0.93827000000E+00 0. -1.
     999902    2    1    2    0    0  0.65524355358E-02 -0.19853631302E-01 -0.18886670238E-01  0.10157554122E+01  0.10153645897E+01 0.  0.
     999903    2    3    3    0    0  0.80598557798E-01 -0.55598422204E-01 -0.81664017585E-01  0.12969586922E+00  0.23763304759E-01 0.  0.
         14    1    1    2    0    0 -0.65524355358E-02  0.19853631302E-01  0.18886670238E-01  0.28174587841E-01  0.00000000000E+00 0.  1.
     999901    1    3    3    0    0 -0.74046122262E-01  0.35744790902E-01  0.62777347347E-01  0.88605954294E+00  0.88000000000E+00 0.  1.
        -11    1    4    4    0    0  0.64298157599E-01 -0.52571073479E-01 -0.74699418279E-01  0.11170602065E+00  0.51100000000E-03 0. -1.
         11    1    4    4    0    0  0.16300400198E-01 -0.30273487253E-02 -0.69645993058E-02  0.17989848566E-01  0.51100000000E-03 0.  1.
</event>
<event>
 8    1  0.1041149E+005  0.1043930E+01  0.7957747E-01            NaN
         13   -1    0    0    0    0  0.00000000000E+00  0.00000000000E+00  0.74505805969E-08  0.10566000000E+00  0.10566000000E+00 0. -1.
     999900   -1    0    0    0    0 -0.00000000000E+00 -0.00000000000E+00 -0.74505805969E-08  0.93827000000E+00  0.93827000000E+00 0.  1.
     999902    2    1    2    0    0  0.11354870269E-01 -0.50749716453E-02  0.17119414129E-01  0.10227695946E+01  0.10225506740E+01 0.  0.
     999903    2    3    3    0    0 -0.10347884924E+00  0.47940632357E-01 -0.59753055450E-01  0.13040934562E+00  0.20736280274E-01 0.  0.
         14    1    1    2    0    0 -0.11354870269E-01  0.50749716453E-02 -0.17119414129E-01  0.21160405387E-01  0.00000000000E+00 0.  1.
     999901    1    3    3    0    0  0.11483371950E+00 -0.53015604003E-01  0.76872469578E-01  0.89236024899E+00  0.88000000000E+00 0. -1.
        -11    1    4    4    0    0 -0.69092181248E-01  0.26099339726E-01 -0.47703010401E-01  0.87924645953E-01  0.51100000000E-03 0. -1.
         11    1    4    4    0    0 -0.34386667989E-01  0.21841292632E-01 -0.12050045049E-01  0.42484699668E-01  0.51100000000E-03 0.  1.
</event>
<event>
 8    1  0.1041149E+005  0.1043930E+01  0.7957747E-01            NaN
         13   -1    0    0    0    0  0.00000000000E+00  0.00000000000E+00  0.74505805969E-08  0.10566000000E+00  0.10566000000E+00 0.  1.
     999900   -1    0    0    0    0 -0.00000000000E+00 -0.00000000000E+00 -0.74505805969E-08  0.93827000000E+00  0.93827000000E+00 0.  1.
     999902    2    1    2    0    0 -0.12785610977E-01 -0.17520279617E-01  0.95079163773E-02  0.10202480972E+01  0.10199732091E+01 0.  0.
     999903    2    3    3    0    0  0.54584017810E-01 -0.88697783776E-01  0.79162996823E-01  0.13207202558E+00  0.18152906885E-01 0.  0.
         14    1    1    2    0    0  0.12785610977E-01  0.17520279617E-01 -0.95079163773E-02  0.23681902790E-01  0.00000000000E+00 0. -1.
     999901    1    3    3    0    0 -0.67369628787E-01  0.71177504159E-01 -0.69655080446E-01  0.88817607163E+00  0.88000000000E+00 0. -1.
        -11    1    4    4    0    0  0.72934576301E-02 -0.24578942076E-01  0.14491002783E-01  0.29454527673E-01  0.51100000000E-03 0.  1.
         11    1    4    4    0    0  0.47290560180E-01 -0.64118841699E-01  0.64671994040E-01  0.10261749791E+00  0.51100000000E-03 0. -1.
</event>
<event>
 8    1  0.1041149E+005  0.1043930E+01  0.7957747E-01            NaN
         13   -1    0    0    0    0  0.00000000000E+00  0.00000000000E+00  0.74505805969E-08  0.10566000000E+00  0.10566000000E+00 0. -1.
     999900   -1    0    0    0    0 -0.00000000000E+00 -0.00000000000E+00 -0.74505805969E-08  0.93827000000E+00  0.93827000000E+00 0. -1.
     999902    2    1    2    0    0  0.15067704398E-01 -0.17244540700E-01 -0.13793202918E-01  0.10171968306E+01  0.10168454798E+01 0.  0.
     999903    2    3    3    0    0  0.99216216829E-01  0.58260150760E-01 -0.54755255461E-01  0.12901902164E+00  0.20240234549E-01 0.  0.
         14    1    1    2    0    0 -0.15067704398E-01  0.17244540700E-01  0.13793202918E-01  0.26733169406E-01  0.00000000000E+00 0. -1.
     999901    1    3    3    0    0 -0.84148512432E-01 -0.75504691460E-01  0.40962052543E-01  0.88817780896E+00  0.88000000000E+00 0. -1.
        -11    1    4    4    0    0  0.27927015043E-01  0.64766680632E-02 -0.12041560464E-01  0.31098644631E-01  0.51100000000E-03 0.  1.
         11    1    4    4    0    0  0.71289201786E-01  0.51783482697E-01 -0.42713694997E-01  0.97920377005E-01  0.51100000000E-03 0. -1.
</event>
<event>
 8    1  0.1041149E+005  0.1043930E+01  0.7957747E-01            NaN
         13   -1    0    0    0    0  0.00000000000E+00  0.00000000000E+00  0.74505805969E-08  0.10566000000E+00  0.10566000000E+00 0.  1.
     999900   -1    0    0    0    0 -0.00000000000E+00 -0.00000000000E+00 -0.74505805969E-08  0.93827000000E+00  0.93827000000E+00 0.  1.
     999902    2    1    2    0    0 -0.92513256460E-02 -0.18408594279E-01  0.10815449077E-01  0.10206611945E+01  0.10203959215E+01 0.  0.
     999903    2    3    3    0    0  0.99052233884E-01 -0.36341600929E-01 -0.73072837282E-01  0.12988148083E+00  0.19937465223E-01 0.  0.
         14    1    1    2    0    0  0.92513256460E-02  0.18408594279E-01 -0.10815449077E-01  0.23268805476E-01  0.00000000000E+00 0. -1.
     999901    1    3    3    0    0 -0.10830355953E+00  0.17933006650E-01  0.83888286359E-01  0.89077971369E+00  0.88000000000E+00 0. -1.
        -11    1    4    4    0    0  0.62051657585E-01 -0.31407256249E-01 -0.53389846686E-01  0.87678736330E-01  0.51100000000E-03 0.  1.
         11    1    4    4    0    0  0.37000576298E-01 -0.49343446801E-02 -0.19682990596E-01  0.42202744504E-01  0.51100000000E-03 0. -1.
</event>
<event>
 8    1  0.1041149E+005  0.1043930E+01  0.7957747E-01            NaN
         13   -1    0    0    0    0  0.00000000000E+00  0.00000000000E+00  0.74505805969E-08  0.10566000000E+00  0.10566000000E+00 0. -1.
     999900   -1    0    0    0    0 -0.00000000000E+00 -0.00000000000E+00 -0.74505805969E-08  0.93827000000E+00  0.93827000000E+00 0. -1.
     999902    2    1    2    0    0 -0.44289810781E-02  0.11926534932E-01  0.19771132291E-01  0.10204192412E+01  0.10201483578E+01 0.  0.
     999903    2    3    3    0    0 -0.10523708188E+00 -0.58169166852E-01  0.49253000336E-01  0.13140582105E+00  0.19573870094E-01 0.  0.
         14    1    1    2    0    0  0.44289810781E-02 -0.11926534932E-01 -0.19771132291E-01  0.23510758834E-01  0.00000000000E+00 0.  1.
     999901    1    3    3    0    0  0.10080810080E+00  0.70095701785E-01 -0.29481868045E-01  0.88901342011E+00  0.88000000000E+00 0. -1.
        -11    1    4    4    0    0 -0.42148047902E-01 -0.18439132867E-01  0.97523428572E-02  0.47030084786E-01  0.51100000000E-03 0.  1.
         11    1    4    4    0    0 -0.63089033976E-01 -0.39730033985E-01  0.39500657479E-01  0.84375736268E-01  0.51100000000E-03 0. -1.
</event>
<event>
 8    1  0.1041149E+005  0.1043930E+01  0.7957747E-01            NaN
         13   -1    0    0    0    0  0.00000000000E+00  0.00000000000E+00  0.74505805969E-08  0.10566000000E+00  0.10566000000E+00 0.  1.
     999900   -1    0    0    0    0 -0.00000000000E+00 -0.00000000000E+00 -0.74505805969E-08  0.93827000000E+00  0.93827000000E+00 0. -1.
     999902    2    1    2    0    0  0.20048376656E-01 -0.71434771344E-02 -0.86340345459E-02  0.10209623439E+01  0.10207039701E+01 0.  0.
     999903    2    3    3    0    0  0.53633110390E-01  0.70273664283E-01 -0.96728692336E-01  0.13254689110E+00  0.19933388998E-01 0.  0.
         14    1    1    2    0    0 -0.20048376656E-01  0.71434771344E-02  0.86340345459E-02  0.22967656055E-01  0.00000000000E+00 0.  1.
     999901    1    3    3    0    0 -0.33584733734E-01 -0.77417141417E-01  0.88094657790E-01  0.88841545285E+00  0.88000000000E+00 0.  1.
        -11    1    4    4    0    0  0.13433183646E-01  0.13210008868E-01 -0.10393854322E-01  0.21523198783E-01  0.51100000000E-03 0.  1.
         11    1    4    4    0    0  0.40199926744E-01  0.57063655415E-01 -0.86334838014E-01  0.11102369232E+00  0.51100000000E-03 0. -1.
</event>
<event>
 8    1  0.1041149E+005  0.1043930E+01  0.7957747E-01            NaN
         13   -1    0    0    0    0  0.00000000000E+00  0.00000000000E+00  0.74505805969E-08  0.10566000000E+00  0.10566000000E+00 0. -1.
     999900   -1    0    0    0    0 -0.00000000000E+00 -0.00000000000E+00 -0.74505805969E-08  0.93827000000E+00  0.93827000000E+00 0.  1.
     999902    2    1    2    0    0 -0.19084071210E-01  0.47500269912E-02  0.13472403210E-01  0.10200915819E+01  0.10198130050E+01 0.  0.
     999903    2    3    3    0    0 -0.12888864616E+00  0.24737250489E-01  0.68710671040E-02  0.13301767773E+00  0.20549363859E-01 0.  0.
         14    1    1    2    0    0  0.19084071210E-01 -0.47500269912E-02 -0.13472403210E-01  0.23838418123E-01  0.00000000000E+00 0.  1.
     999901    1    3    3    0    0  0.10980457495E+00 -0.19987223498E-01  0.66013361060E-02  0.88707390415E+00  0.88000000000E+00 0. -1.
        -11    1    4    4    0    0 -0.10755976570E+00  0.22664566436E-01 -0.16898949241E-02  0.10993590240E+00  0.51100000000E-03 0. -1.
         11    1    4    4    0    0 -0.21328880453E-01  0.20726840526E-02  0.85609620281E-02  0.23081775331E-01  0.51100000000E-03 0.  1.
</event>
<event>
 8    1  0.1041149E+005  0.1043930E+01  0.7957747E-01            NaN
         13   -1    0    0    0    0  0.00000000000E+00  0.00000000000E+00  0.74505805969E-08  0.10566000000E+00  0.10566000000E+00 0. -1.
     999900   -1    0    0    0    0 -0.00000000000E+00 -0.00000000000E+00 -0.74505805969E-08  0.93827000000E+00  0.93827000000E+00 0.  1.
     999902    2    1    2    0    0 -0.20836740190E-01  0.86565804854E-02  0.47034897957E-02  0.10208815956E+01  0.10206213810E+01 0.  0.
     999903    2    3    3    0    0 -0.72933765733E-01 -0.25694134792E-01  0.10628647214E+00  0.13284264716E+00  0.19256998685E-01 0.  0.
         14    1    1    2    0    0  0.20836740190E-01 -0.86565804854E-02 -0.47034897957E-02  0.23048404363E-01  0.00000000000E+00 0.  1.
     999901    1    3    3    0    0  0.52097025544E-01  0.34350715277E-01 -0.10158298234E+00  0.88803894848E+00  0.88000000000E+00 0. -1.
        -11    1    4    4    0    0 -0.18697196284E-01 -0.15377097977E-01  0.37516207730E-01  0.44651620962E-01  0.51100000000E-03 0.  1.
         11    1    4    4    0    0 -0.54236569449E-01 -0.10317036815E-01  0.68770264408E-01  0.88191026198E-01  0.51100000000E-03 0. -1.
</event>
<event>
 8    1  0.1041149E+005  0.1043930E+01  0.7957747E-01            NaN
         13   -1    0    0    0    0  0.00000000000E+00  0.00000000000E+00  0.74505805969E-08  0.10566000000E+00  0.10566000000E+00 0.  1.
     999900   -1    0    0    0    0 -0.00000000000E+00 -0.00000000000E+00 -0.74505805969E-08  0.93827000000E+00  0.93827000000E+00 0. -1.
     999902    2    1    2    0    0  0.10110477406E-01  0.20403592742E-02  0.21261474158E-01  0.10202987685E+01  0.10200250692E+01 0.  0.
     999903    2    3    3    0    0  0.30483735475E-01  0.12478088700E+00 -0.87773447797E-02  0.13103916779E+00  0.24386345068E-01 0.  0.
         14    1    1    2    0    0 -0.10110477406E-01 -0.20403592742E-02 -0.21261474158E-01  0.23631231511E-01  0.00000000000E+00 0. -1.
     999901    1    3    3    0    0 -0.20373258069E-01 -0.12274052772E+00  0.30038818937E-01  0.88925960070E+00  0.88000000000E+00 0.  1.
        -11    1    4    4    0    0  0.25226910307E-01  0.10566205464E+00 -0.16253235012E-01  0.10984213929E+00  0.51100000000E-03 0. -1.
         11    1    4    4    0    0  0.52568251685E-02  0.19118832360E-01  0.74758902320E-02  0.21197028505E-01  0.51100000000E-03 0.  1.
</event>
<event>
 8    1  0.1041149E+005  0.1043930E+01  0.7957747E-01            NaN
         13   -1    0    0    0    0  0.00000000000E+00  0.00000000000E+00  0.74505805969E-08  0.10566000000E+00  0.10566000000E+00 0.  1.
     999900   -1    0    0    0    0 -0.00000000000E+00 -0.00000000000E+00 -0.74505805969E-08  0.93827000000E+00  0.93827000000E+00 0. -1.
     999902    2    1    2    0    0  0.18787505479E-01  0.13429994166E-01  0.18818588262E-02  0.10207594045E+01  0.10204963916E+01 0.  0.
     999903    2    3    3    0    0 -0.31095541233E-01  0.91201459985E-01 -0.87170719953E-01  0.13145232530E+00  0.19908300311E-01 0.  0.
         14    1    1    2    0    0 -0.18787505479E-01 -0.13429994166E-01 -0.18818588262E-02  0.23170595548E-01  0.00000000000E+00 0. -1.
     999901    1    3    3    0    0  0.49883046712E-01 -0.77771465819E-01  0.89052578779E-01  0.88930707915E+00  0.88000000000E+00 0.  1.
        -11    1    4    4    0    0 -0.22391600001E-01  0.57554545288E-01 -0.67597282484E-01  0.91561799644E-01  0.51100000000E-03 0.  1.
         11    1    4    4    0    0 -0.87039412320E-02  0.33646914697E-01 -0.19573437469E-01  0.39890525654E-01  0.51100000000E-03 0. -1.
</event>
<event>
 8    1  0.1041149E+005  0.1043930E+01  0.7957747E-01            NaN
         13   -1    0    0    0    0  0.00000000000E+00  0.00000000000E+00  0.74505805969E-08  0.10566000000E+00  0.10566000000E+00 0. -1.
     999900   -1    0    0    0    0 -0.00000000000E+00 -0.00000000000E+00 -0.74505805969E-08  0.93827000000E+00  0.93827000000E+00 0.  1.
     999902    2    1    2    0    0 -0.21752452059E-03 -0.22270784154E-01 -0.11171864984E-01  0.10190132243E+01  0.10187085479E+01 0.  0.
     999903    2    3    3    0    0 -0.51631689384E-01  0.78685780711E-01 -0.84193439739E-01  0.12875045707E+00  0.25116955771E-01 0.  0.
         14    1    1    2    0    0  0.21752452059E-03  0.22270784154E-01  0.11171864984E-01  0.24916775694E-01  0.00000000000E+00 0. -1.
     999901    1    3    3    0    0  0.51414164864E-01 -0.10095656487E+00  0.73021574755E-01  0.89026276723E+00  0.88000000000E+00 0. -1.
        -11    1    4    4    0    0 -0.95486097825E-02  0.36625004341E-01 -0.34826202721E-01  0.51436294664E-01  0.51100000000E-03 0.  1.
         11    1    4    4    0    0 -0.42083079602E-01  0.42060776369E-01 -0.49367237018E-01  0.77314162411E-01  0.51100000000E-03 0. -1.
</event>
<event>
 8    1  0.1041149E+005  0.1043930E+01  0.7957747E-01            NaN
         13   -1    0    0    0    0  0.00000000000E+00  0.00000000000E+00  0.74505805969E-08  0.10566000000E+00  0.10566000000E+00 0.  1.
     999900   -1    0    0    0    0 -0.00000000000E+00 -0.00000000000E+00 -0.74505805969E-08  0.93827000000E+00  0.93827000000E+00 0. -1.
     999902    2    1    2    0    0  0.23317011555E-01 -0.43216018709E-02  0.37754577970E-04  0.10202158545E+01  0.10199402086E+01 0.  0.
     999903    2    3    3    0    0 -0.47313609876E-02  0.67073692886E-01 -0.10967431833E+00  0.13009185290E+00  0.19343423566E-01 0.  0.
         14    1    1    2    0    0 -0.23317011555E-01  0.43216018709E-02 -0.37754577970E-04  0.23714145483E-01  0.00000000000E+00 0. -1.
     999901    1    3    3    0    0  0.28048372542E-01 -0.71395294757E-01  0.10971207291E+00  0.89012400162E+00  0.88000000000E+00 0.  1.
        -11    1    4    4    0    0  0.34108171832E-02  0.33486949729E-01 -0.39735315316E-01  0.52078458889E-01  0.51100000000E-03 0.  1.
         11    1    4    4    0    0 -0.81421781708E-02  0.33586743157E-01 -0.69939003014E-01  0.78013394010E-01  0.51100000000E-03 0. -1.
</event>
<event>
 8    1  0.1041149E+005  0.1043930E+01  0.7957747E-01            NaN
         13   -1    0    0    0    0  0.00000000000E+00  0.00000000000E+00  0.74505805969E-08  0.10566000000E+00  0.10566000000E+00 0.  1.
     999900   -1    0    0    0    0 -0.00000000000E+00 -0.00000000000E+00 -0.74505805969E-08  0.93827000000E+00  0.93827000000E+00 0.  1.
     999902    2    1    2    0    0  0.33866333940E-02  0.21749571789E-01 -0.10005241403E-01  0.10197511246E+01  0.10194644369E+01 0.  0.
     999903    2    3    3    0    0  0.88547346116E-01  0.83495245553E-01  0.46019759168E-01  0.13171752396E+00  0.20484124364E-01 0.  0.
         14    1    1    2    0    0 -0.33866333940E-02 -0.21749571789E-01  0.10005241403E-01  0.24178875373E-01  0.00000000000E+00 0.  1.
     999901    1    3    3    0    0 -0.85160712722E-01 -0.61745673764E-01 -0.56025000571E-01  0.88803360066E+00  0.88000000000E+00 0.  1.
        -11    1    4    4    0    0  0.62496707525E-01  0.47546983589E-01  0.23715358169E-01  0.82031904976E-01  0.51100000000E-03 0.  1.
         11    1    4    4    0    0  0.26050638591E-01  0.35948261963E-01  0.22304400999E-01  0.49685618987E-01  0.51100000000E-03 0. -1.
</event>
<event>
 8    1  0.1041149E+005  0.1043930E+01  0.7957747E-01            NaN
         13   -1    0    0    0    0  0.00000000000E+00  0.00000000000E+00  0.74505805969E-08  0.10566000000E+00  0.10566000000E+00 0. -1.
     999900   -1    0    0    0    0 -0.00000000000E+00 -0.00000000000E+00 -0.74505805969E-08  0.93827000000E+00  0.93827000000E+00 0.  1.
     999902    2    1    2    0    0  0.69602930069E-02  0.12614317575E-02 -0.21813354813E-01  0.10209983769E+01  0.10207408223E+01 0.  0.
     999903    2    3    3    0    0 -0.34520308449E-01  0.11902719660E+00  0.30770048202E-01  0.13063079556E+00  0.27540581999E-01 0.  0.
         14    1    1    2    0    0 -0.69602930069E-02 -0.12614317575E-02  0.21813354813E-01  0.22931623078E-01  0.00000000000E+00 0. -1.
     999901    1    3    3    0    0  0.41480601455E-01 -0.11776576484E+00 -0.52583403015E-01  0.89036758136E+00  0.88000000000E+00 0.  1.
        -11    1    4    4    0    0 -0.69964013642E-02  0.68766691978E-01  0.22724109258E-01  0.72762997603E-01  0.51100000000E-03 0.  1.
         11    1    4    4    0    0 -0.27523907084E-01  0.50260504621E-01  0.80459389444E-02  0.57867797957E-01  0.51100000000E-03 0. -1.
</event>
<event>
 8    1  0.1041149E+005  0.1043930E+01  0.7957747E-01            NaN
         13   -1    0    0    0    0  0.00000000000E+00  0.00000000000E+00  0.74505805969E-08  0.10566000000E+00  0.10566000000E+00 0. -1.
     999900   -1    0    0    0    0 -0.00000000000E+00 -0.00000000000E+00 -0.74505805969E-08  0.93827000000E+00  0.93827000000E+00 0.  1.
     999902    2    1    2    0    0 -0.15944582564E-01  0.16101943839E-01 -0.46273169998E-02  0.10208017841E+01  0.10205397435E+01 0.  0.
     999903    2    3    3    0    0 -0.19358114326E-01 -0.25935902497E-01  0.12465877739E+00  0.13035598174E+00  0.20136125920E-01 0.  0.
         14    1    1    2    0    0  0.15944582564E-01 -0.16101943839E-01  0.46273169998E-02  0.23128215909E-01  0.00000000000E+00 0.  1.
     999901    1    3    3    0    0  0.34135317620E-02  0.42037846335E-01 -0.12928609439E+00  0.89044580235E+00  0.88000000000E+00 0.  1.
        -11    1    4    4    0    0 -0.46983871894E-03 -0.37786722165E-02  0.51081797459E-01  0.51226070167E-01  0.51100000000E-03 0. -1.
         11    1    4    4    0    0 -0.18888275607E-01 -0.22157230280E-01  0.73576979928E-01  0.79129911572E-01  0.51100000000E-03 0.  1.
</event>
<event>
 8    1  0.1041149E+005  0.1043930E+01  0.7957747E-01            NaN
         13   -1    0    0    0    0  0.00000000000E+00  0.00000000000E+00  0.74505805969E-08  0.10566000000E+00  0.10566000000E+00 0.  1.
     999900   -1    0    0    0    0 -0.00000000000E+00 -0.00000000000E+00 -0.74505805969E-08  0.93827000000E+00  0.93827000000E+00 0. -1.
     999902    2    1    2    0    0  0.68439938687E-02 -0.15916553454E-01 -0.15678835559E-01  0.10205632970E+01  0.10202957612E+01 0.  0.
     999903    2    3    3    0    0  0.83229567134E-01 -0.59849862653E-01  0.76387460208E-01  0.13138328467E+00  0.30287893769E-01 0.  0.
         14    1    1    2    0    0 -0.68439938687E-02  0.15916553454E-01  0.15678835559E-01  0.23366703028E-01  0.00000000000E+00 0.  1.
     999901    1    3    3    0    0 -0.76385573265E-01  0.43933309199E-01 -0.92066295766E-01  0.88918001230E+00  0.88000000000E+00 0. -1.
        -11    1    4    4    0    0  0.15740590171E-01 -0.28312636876E-01  0.22876857827E-01  0.39660853884E-01  0.51100000000E-03 0.  1.
         11    1    4    4    0    0  0.67488976963E-01 -0.31537225777E-01  0.53510602381E-01  0.91722430786E-01  0.51100000000E-03 0. -1.
</event>
<event>
 8    1  0.1041149E+005  0.1043930E+01  0.7957747E-01            NaN
         13   -1    0    0    0    0  0.00000000000E+00  0.00000000000E+00  0.74505805969E-08  0.10566000000E+00  0.10566000000E+00 0. -1.
     999900   -1    0    0    0    0 -0.00000000000E+00 -0.00000000000E+00 -0.74505805969E-08  0.93827000000E+00  0.93827000000E+00 0. -1.
     999902    2    1    2    0    0 -0.12442578907E-01 -0.15592786349E-01 -0.12710696368E-01  0.10202759399E+01  0.10200017054E+01 0.  0.
     999903    2    3    3    0    0 -0.70643991642E-01 -0.10743906954E+00  0.26091944863E-01  0.13273507374E+00  0.20101815698E-01 0.  0.
         14    1    1    2    0    0  0.12442578907E-01  0.15592786349E-01  0.12710696368E-01  0.23654060077E-01  0.00000000000E+00 0. -1.
     999901    1    3    3    0    0  0.58201412734E-01  0.91846283194E-01 -0.38802641231E-01  0.88754086618E+00  0.88000000000E+00 0.  1.
        -11    1    4    4    0    0 -0.24265194894E-01 -0.22772477483E-01  0.26212771402E-02  0.33384391994E-01  0.51100000000E-03 0. -1.
         11    1    4    4    0    0 -0.46378796748E-01 -0.84666592060E-01  0.23470667723E-01  0.99350681745E-01  0.51100000000E-03 0.  1.
</event>
<event>
 8    1  0.1041149E+005  0.1043930E+01  0.7957747E-01            NaN
         13   -1    0    0    0    0  0.00000000000E+00  0.00000000000E+00  0.74505805969E-08  0.10566000000E+00  0.10566000000E+00 0. -1.
     999900   -1    0    0    0    0 -0.00000000000E+00 -0.00000000000E+00 -0.74505805969E-08  0.93827000000E+00  0.93827000000E+00 0. -1.
     999902    2    1    2    0    0  0.15516144485E-01  0.17812423021E-01 -0.42284485785E-02  0.10199318140E+01  0.10196494458E+01 0.  0.
     999903    2    3    3    0    0  0.12775016749E+00  0.28684485663E-01 -0.86525803913E-02  0.13272594691E+00  0.19960080767E-01 0.  0.
         14    1    1    2    0    0 -0.15516144485E-01 -0.17812423021E-01  0.42284485785E-02  0.23998185993E-01  0.00000000000E+00 0.  1.
     999901    1    3    3    0    0 -0.11223402301E+00 -0.10872062642E-01  0.44241318128E-02  0.88720586710E+00  0.88000000000E+00 0. -1.
        -11    1    4    4    0    0  0.95291908944E-01  0.29561266104E-01 -0.96326158871E-02  0.10023704292E+00  0.51100000000E-03 0. -1.
         11    1    4    4    0    0  0.32458258548E-01 -0.87678044081E-03  0.98003549581E-03  0.32488903990E-01  0.51100000000E-03 0.  1.
</event>
<event>
 8    1  0.1041149E+005  0.1043930E+01  0.7957747E-01            NaN
         13   -1    0    0    0    0  0.00000000000E+00  0.00000000000E+00  0.74505805969E-08  0.10566000000E+00  0.10566000000E+00 0. -1.
     999900   -1    0    0    0    0 -0.00000000000E+00 -0.00000000000E+00 -0.74505805969E-08  0.93827000000E+00  0.93827000000E+00 0.  1.
     999902    2    1    2    0    0 -0.10010153518E-01 -0.27720597197E-02  0.21549460122E-01  0.10200079031E+01  0.10197273438E+01 0.  0.
     999903    2    3    3    0    0  0.66492419034E-02 -0.12395694677E+00 -0.29666295973E-01  0.13007174473E+00  0.25080522123E-01 0.  0.
         14    1    1    2    0    0  0.10010153518E-01  0.27720597197E-02 -0.21549460122E-01  0.23922096900E-01  0.00000000000E+00 0.  1.
     999901    1    3    3    0    0 -0.16659395421E-01  0.12118488705E+00  0.51215756094E-01  0.88993615837E+00  0.88000000000E+00 0.  1.
        -11    1    4    4    0    0  0.15877676732E-01 -0.92479375267E-01 -0.22383069317E-01  0.96466566132E-01  0.51100000000E-03 0. -1.
         11    1    4    4    0    0 -0.92284348288E-02 -0.31477571501E-01 -0.72832266556E-02  0.33605178597E-01  0.51100000000E-03 0.  1.
</event>
<event>
 8    1  0.1041149E+005  0.1043930E+01  0.7957747E-01            NaN
         13   -1    0    0    0    0  0.00000000000E+00  0.00000000000E+00  0.74505805969E-08  0.10566000000E+00  0.10566000000E+00 0.  1.
     999900   -1    0    0    0    0 -0.00000000000E+00 -0.00000000000E+00 -0.74505805969E-08  0.93827000000E+00  0.93827000000E+00 0.  1.
     999902    2    1    2    0    0  0.10886873027E-01 -0.72697476465E-02  0.19521386529E-01  0.10204255798E+01  0.10201548442E+01 0.  0.
     999903    2    3    3    0    0 -0.84882225286E-01 -0.47343990405E-01  0.86728544310E-01  0.13177803037E+00  0.19928956122E-01 0.  0.
         14    1    1    2    0    0 -0.10886873027E-01  0.72697476465E-02 -0.19521386529E-01  0.23504420163E-01  0.00000000000E+00 0. -1.
     999901    1    3    3    0    0  0.95769098313E-01  0.40074242759E-01 -0.67207157780E-01  0.88864754947E+00  0.88000000000E+00 0.  1.
        -11    1    4    4    0    0 -0.24387450019E-01 -0.10010489348E-01  0.35189255593E-01  0.43971609541E-01  0.51100000000E-03 0. -1.
         11    1    4    4    0    0 -0.60494775266E-01 -0.37333501057E-01  0.51539288717E-01  0.87806420825E-01  0.51100000000E-03 0.  1.
</event>
<event>
 8    1  0.1041149E+005  0.1043930E+01  0.7957747E-01            NaN
         13   -1    0    0    0    0  0.00000000000E+00  0.00000000000E+00  0.74505805969E-08  0.10566000000E+00  0.10566000000E+00 0. -1.
     999900   -1    0    0    0    0 -0.00000000000E+00 -0.00000000000E+00 -0.74505805969E-08  0.93827000000E+00  0.93827000000E+00 0. -1.
     999902    2    1    2    0    0 -0.17948178647E-01 -0.12390869742E-01 -0.64723209336E-02  0.10211800174E+01  0.10209265724E+01 0.  0.
     999903    2    3    3    0    0 -0.11423347450E+00 -0.30941413750E-01  0.58353809594E-01  0.13336392830E+00  0.19341987900E-01 0.  0.
         14    1    1    2    0    0  0.17948178647E-01  0.12390869742E-01  0.64723209336E-02  0.22749982592E-01  0.00000000000E+00 0. -1.
     999901    1    3    3    0    0  0.96285295854E-01  0.18550544008E-01 -0.64826130528E-01  0.88781608911E+00  0.88000000000E+00 0. -1.
        -11    1    4    4    0    0 -0.50309267257E-01 -0.49583963666E-02  0.19604991144E-01  0.54223840377E-01  0.51100000000E-03 0.  1.
         11    1    4    4    0    0 -0.63924207244E-01 -0.25983017383E-01  0.38748818450E-01  0.79140087922E-01  0.51100000000E-03 0. -1.
</event>
<event>
 8    1  0.1041149E+005  0.1043930E+01  0.7957747E-01            NaN
         13   -1    0    0    0    0  0.00000000000E+00  0.00000000000E+00  0.74505805969E-08  0.10566000000E+00  0.10566000000E+00 0.  1.
     999900   -1    0    0    0    0 -0.00000000000E+00 -0.00000000000E+00 -0.74505805969E-08  0.93827000000E+00  0.93827000000E+00 0.  1.
     999902    2    1    2    0    0 -0.53993931644E-02  0.80630756380E-02  0.20971319068E-01  0.10208223636E+01  0.10205607945E+01 0.  0.
     999903    2    3    3    0    0 -0.62397478342E-01 -0.64617838390E-01 -0.90371604365E-01  0.12901041956E+00  0.20192848701E-01 0.  0.
         14    1    1    2    0    0  0.53993931644E-02 -0.80630756380E-02 -0.20971319068E-01  0.23107636372E-01  0.00000000000E+00 0. -1.
     999901    1    3    3    0    0  0.56998085178E-01  0.72680914028E-01  0.11134292343E+00  0.89181194406E+00  0.88000000000E+00 0. -1.
        -11    1    4    4    0    0 -0.38187286083E-01 -0.40276994303E-01 -0.69055353134E-01  0.88596884854E-01  0.51100000000E-03 0. -1.
         11    1    4    4    0    0 -0.24210192259E-01 -0.24340844087E-01 -0.21316251231E-01  0.40413534709E-01  0.51100000000E-03 0.  1.
</event>
<event>
 8    1  0.1041149E+005  0.1043930E+01  0.7957747E-01            NaN
         13   -1    0    0    0    0  0.00000000000E+00  0.00000000000E+00  0.74505805969E-08  0.10566000000E+00  0.10566000000E+00 0.  1.
     999900   -1    0    0    0    0 -0.00000000000E+00 -0.00000000000E+00 -0.74505805969E-08  0.93827000000E+00  0.93827000000E+00 0.  1.
     999902    2    1    2    0    0 -0.79037969318E-02 -0.19915610432E-01 -0.57254394110E-02  0.10217515825E+01  0.10215108488E+01 0.  0.
     999903    2    3    3    0    0 -0.81730571590E-01  0.93526835273E-01  0.34690750353E-01  0.13048672317E+00  0.19904308947E-01 0.  0.
         14    1    1    2    0    0  0.79037969318E-02  0.19915610432E-01  0.57254394110E-02  0.22178417465E-01  0.00000000000E+00 0. -1.
     999901    1    3    3    0    0  0.73826774659E-01 -0.11344244571E+00 -0.40416189764E-01  0.89126485937E+00  0.88000000000E+00 0.  1.
        -11    1    4    4    0    0 -0.56991292548E-01  0.65016462950E-01  0.33480067286E-01  0.92716362673E-01  0.51100000000E-03 0. -1.
         11    1    4    4    0    0 -0.24739279042E-01  0.28510372323E-01  0.12106830677E-02  0.37770360496E-01  0.51100000000E-03 0.  1.
</event>
<event>
 8    1  0.1155817E+005  0.1043930E+01  0.7957747E-01            NaN
         13   -1    0    0    0    0  0.00000000000E+00  0.00000000000E+00  0.74505805969E-08  0.10566000000E+00  0.10566000000E+00 0. -1.
     999900   -1    0    0    0    0 -0.00000000000E+00 -0.00000000000E+00 -0.74505805969E-08  0.93827000000E+00  0.93827000000E+00 0.  1.
     999902    2    1    2    0    0 -0.20767472888E-01  0.97513402197E-02  0.69599960584E-02  0.10199546353E+01  0.10196728103E+01 0.  0.
     999903    2    3    3    0    0 -0.10351311270E+00  0.37543671293E-01 -0.71129890910E-01  0.13219493528E+00  0.17074770219E-01 0.  0.
         14    1    1    2    0    0  0.20767472888E-01 -0.97513402197E-02 -0.69599960584E-02  0.23975364676E-01  0.00000000000E+00 0.  1.
     999901    1    3    3    0    0  0.82745639812E-01 -0.27792331073E-01  0.78089886968E-01  0.88775970004E+00  0.88000000000E+00 0. -1.
        -11    1    4    4    0    0 -0.59472960062E-01  0.16101396020E-01 -0.31586247703E-01  0.69240451308E-01  0.51100000000E-03 0.  1.
         11    1    4    4    0    0 -0.44040152638E-01  0.21442275273E-01 -0.39543643206E-01  0.62954483972E-01  0.51100000000E-03 0. -1.
</event>
<event>
 8    1  0.1041149E+005  0.1043930E+01  0.7957747E-01            NaN
         13   -1    0    0    0    0  0.00000000000E+00  0.00000000000E+00  0.74505805969E-08  0.10566000000E+00  0.10566000000E+00 0.  1.
     999900   -1    0    0    0    0 -0.00000000000E+00 -0.00000000000E+00 -0.74505805969E-08  0.93827000000E+00  0.93827000000E+00 0. -1.
     999902    2    1    2    0    0  0.20780627148E-02 -0.13249268374E-02  0.24320338698E-01  0.10194851099E+01  0.10191920019E+01 0.  0.
     999903    2    3    3    0    0 -0.74164136661E-01  0.52825705707E-01  0.93227815816E-01  0.13185151190E+00  0.20062930926E-01 0.  0.
         14    1    1    2    0    0 -0.20780627148E-02  0.13249268374E-02 -0.24320338698E-01  0.24444890062E-01  0.00000000000E+00 0. -1.
     999901    1    3    3    0    0  0.76242199376E-01 -0.54150632544E-01 -0.68907477118E-01  0.88763359804E+00  0.88000000000E+00 0. -1.
        -11    1    4    4    0    0 -0.53785297258E-01  0.34218848333E-01  0.52152673397E-01  0.82364739093E-01  0.51100000000E-03 0.  1.
         11    1    4    4    0    0 -0.20378839403E-01  0.18606857373E-01  0.41075142419E-01  0.49486772803E-01  0.51100000000E-03 0. -1.
</event>
<event>
 8    1  0.1041149E+005  0.1043930E+01  0.7957747E-01            NaN
         13   -1    0    0    0    0  0.00000000000E+00  0.00000000000E+00  0.74505805969E-08  0.10566000000E+00  0.10566000000E+00 0. -1.
     999900   -1    0    0    0    0 -0.00000000000E+00 -0.00000000000E+00 -0.74505805969E-08  0.93827000000E+00  0.93827000000E+00 0. -1.
     999902    2    1    2    0    0 -0.14978931221E-02 -0.61323387910E-02 -0.25084614871E-01  0.10180632807E+01  0.10177346198E+01 0.  0.
     999903    2    3    3    0    0 -0.72082211081E-02 -0.12363415659E+00 -0.34464176609E-01  0.13018532672E+00  0.20568828253E-01 0.  0.
         14    1    1    2    0    0  0.14978931221E-02  0.61323387910E-02  0.25084614871E-01  0.25866719276E-01  0.00000000000E+00 0. -1.
     999901    1    3    3    0    0  0.57103279860E-02  0.11750181780E+00  0.93795617382E-02  0.88787795401E+00  0.88000000000E+00 0.  1.
        -11    1    4    4    0    0  0.12032270513E-02 -0.64317540756E-01 -0.27161040168E-01  0.69829628585E-01  0.51100000000E-03 0. -1.
         11    1    4    4    0    0 -0.84114481594E-02 -0.59316615835E-01 -0.73031364409E-02  0.60355698133E-01  0.51100000000E-03 0.  1.
</event>
<event>
 8    1  0.1041149E+005  0.1043930E+01  0.7957747E-01            NaN
         13   -1    0    0    0    0  0.00000000000E+00  0.00000000000E+00  0.74505805969E-08  0.10566000000E+00  0.10566000000E+00 0. -1.
     999900   -1    0    0    0    0 -0.00000000000E+00 -0.00000000000E+00 -0.74505805969E-08  0.93827000000E+00  0.93827000000E+00 0. -1.
     999902    2    1    2    0    0  0.42476501185E-02 -0.21198550395E-03  0.22268615445E-01  0.10212589016E+01  0.10210072308E+01 0.  0.
     999903    2    3    3    0    0 -0.71849531812E-01  0.95427113043E-01 -0.47472504282E-01  0.13007909815E+00  0.19956051420E-01 0.  0.
         14    1    1    2    0    0 -0.42476501185E-02  0.21198550395E-03 -0.22268615445E-01  0.22671098413E-01  0.00000000000E+00 0.  1.
     999901    1    3    3    0    0  0.76097181930E-01 -0.95639098547E-01  0.69741119727E-01  0.89117980343E+00  0.88000000000E+00 0.  1.
        -11    1    4    4    0    0 -0.21524795694E-01  0.23158612872E-01 -0.40165780481E-02  0.31875259999E-01  0.51100000000E-03 0.  1.
         11    1    4    4    0    0 -0.50324736118E-01  0.72268500171E-01 -0.43455926234E-01  0.98203838154E-01  0.51100000000E-03 0. -1.
</event>
<event>
 8    1  0.1041149E+005  0.1043930E+01  0.7957747E-01            NaN
         13   -1    0    0    0    0  0.00000000000E+00  0.00000000000E+00  0.74505805969E-08  0.10566000000E+00  0.10566000000E+00 0. -1.
     999900   -1    0    0    0    0 -0.00000000000E+00 -0.00000000000E+00 -0.74505805969E-08  0.93827000000E+00  0.93827000000E+00 0.  1.
     999902    2    1    2    0    0 -0.16573223273E-01 -0.12548257716E-01  0.73798913977E-03  0.10231291556E+01  0.10229176867E+01 0.  0.
     999903    2    3    3    0    0 -0.21850620260E-01  0.39541586861E-02  0.13010645987E+00  0.13350205285E+00  0.20050492230E-01 0.  0.
         14    1    1    2    0    0  0.16573223273E-01  0.12548257716E-01 -0.73798913977E-03  0.20800844439E-01  0.00000000000E+00 0. -1.
     999901    1    3    3    0    0  0.52773969868E-02 -0.16502416402E-01 -0.12936847073E+00  0.88962710271E+00  0.88000000000E+00 0.  1.
        -11    1    4    4    0    0 -0.43595190855E-02 -0.69631633898E-02  0.55106753995E-01  0.55718098567E-01  0.51100000000E-03 0.  1.
         11    1    4    4    0    0 -0.17491101175E-01  0.10917322076E-01  0.74999705871E-01  0.77783954280E-01  0.51100000000E-03 0. -1.
</event>
<event>
 8    1  0.1041149E+005  0.1043930E+01  0.7957747E-01            NaN
         13   -1    0    0    0    0  0.00000000000E+00  0.00000000000E+00  0.74505805969E-08  0.10566000000E+00  0.10566000000E+00 0.  1.
     999900   -1    0    0    0    0 -0.00000000000E+00 -0.00000000000E+00 -0.74505805969E-08  0.93827000000E+00  0.93827000000E+00 0.  1.
     999902    2    1    2    0    0  0.20001704396E-01 -0.10512275218E-02 -0.13747926566E-01  0.10196364053E+01  0.10193469578E+01 0.  0.
     999903    2    3    3    0    0 -0.77124578992E-01 -0.20825249757E-01 -0.10098924614E+00  0.12978497124E+00  0.16230194458E-01 0.  0.
         14    1    1    2    0    0 -0.20001704396E-01  0.10512275218E-02  0.13747926566E-01  0.24293594689E-01  0.00000000000E+00 0.  1.
     999901    1    3    3    0    0  0.97126283388E-01  0.19774022235E-01  0.87241319571E-01  0.88985143407E+00  0.88000000000E+00 0. -1.
        -11    1    4    4    0    0 -0.50291646891E-02  0.16512487294E-02 -0.11629270699E-01  0.12787500843E-01  0.51100000000E-03 0.  1.
         11    1    4    4    0    0 -0.72095414303E-01 -0.22476498487E-01 -0.89359975438E-01  0.11699747040E+00  0.51100000000E-03 0. -1.
</event>
<event>
 8    1  0.1041149E+005  0.1043930E+01  0.7957747E-01            NaN
         13   -1    0    0    0    0  0.00000000000E+00  0.00000000000E+00  0.74505805969E-08  0.10566000000E+00  0.10566000000E+00 0. -1.
     999900   -1    0    0    0    0 -0.00000000000E+00 -0.00000000000E+00 -0.74505805969E-08  0.93827000000E+00  0.93827000000E+00 0.  1.
     999902    2    1    2    0    0 -0.77813168434E-02 -0.93861035147E-02  0.81481674330E-03  0.10317106810E+01  0.10316383172E+01 0.  0.
     999903    2    3    3    0    0 -0.19922557990E-02 -0.26161326749E-01 -0.13693419065E+00  0.14081803291E+00  0.19757573795E-01 0.  0.
         14    1    1    2    0    0  0.77813168434E-02  0.93861035147E-02 -0.81481674330E-03  0.12219319021E-01  0.00000000000E+00 0. -1.
     999901    1    3    3    0    0 -0.57890610444E-02  0.16775223234E-01  0.13774900740E+00  0.89089264807E+00  0.88000000000E+00 0. -1.
        -11    1    4    4    0    0 -0.34525055519E-02 -0.18859603868E-01 -0.49816095155E-01  0.53380791584E-01  0.51100000000E-03 0.  1.
         11    1    4    4    0    0  0.14602497529E-02 -0.73017228804E-02 -0.87118095500E-01  0.87437241327E-01  0.51100000000E-03 0. -1.
</event>
<event>
 8    1  0.1041149E+005  0.1043930E+01  0.7957747E-01            NaN
         13   -1    0    0    0    0  0.00000000000E+00  0.00000000000E+00  0.74505805969E-08  0.10566000000E+00  0.10566000000E+00 0.  1.
     999900   -1    0    0    0    0 -0.00000000000E+00 -0.00000000000E+00 -0.74505805969E-08  0.93827000000E+00  0.93827000000E+00 0.  1.
     999902    2    1    2    0    0  0.17070176935E-01 -0.99310626804E-02  0.85783844347E-02  0.10223984969E+01  0.10221717472E+01 0.  0.
     999903    2    3    3    0    0 -0.48378927809E-01 -0.85081507327E-01 -0.85775351904E-01  0.13176175714E+00  0.20600148168E-01 0.  0.
         14    1    1    2    0    0 -0.17070176935E-01  0.99310626804E-02 -0.85783844347E-02  0.21531503107E-01  0.00000000000E+00 0. -1.
     999901    1    3    3    0    0  0.65449104743E-01  0.75150444647E-01  0.94353736339E-01  0.89063673976E+00  0.88000000000E+00 0. -1.
        -11    1    4    4    0    0 -0.40368439225E-01 -0.51980387760E-01 -0.53161671917E-01  0.84604941222E-01  0.51100000000E-03 0. -1.
         11    1    4    4    0    0 -0.80104885841E-02 -0.33101119567E-01 -0.32613679987E-01  0.47156815915E-01  0.51100000000E-03 0.  1.
</event>
<event>
 8    1  0.1041149E+005  0.1043930E+01  0.7957747E-01            NaN
         13   -1    0    0    0    0  0.00000000000E+00  0.00000000000E+00  0.74505805969E-08  0.10566000000E+00  0.10566000000E+00 0.  1.
     999900   -1    0    0    0    0 -0.00000000000E+00 -0.00000000000E+00 -0.74505805969E-08  0.93827000000E+00  0.93827000000E+00 0. -1.
     999902    2    1    2    0    0 -0.14377761471E-01 -0.18884252337E-01 -0.20847504063E-02  0.10201039387E+01  0.10198256540E+01 0.  0.
     999903    2    3    3    0    0  0.49421293446E-01  0.80334711740E-01  0.84285581271E-01  0.12804196979E+00  0.19863450384E-01 0.  0.
         14    1    1    2    0    0  0.14377761471E-01  0.18884252337E-01  0.20847504063E-02  0.23826061267E-01  0.00000000000E+00 0.  1.
     999901    1    3    3    0    0 -0.63799054917E-01 -0.99218964077E-01 -0.86370331678E-01  0.89206196894E+00  0.88000000000E+00 0. -1.
        -11    1    4    4    0    0  0.21095984817E-01  0.28014416562E-01  0.19695345663E-01  0.40224568021E-01  0.51100000000E-03 0. -1.
         11    1    4    4    0    0  0.28325308630E-01  0.52320295178E-01  0.64590235608E-01  0.87817401769E-01  0.51100000000E-03 0.  1.
</event>
<event>
 8    1  0.1041149E+005  0.1043930E+01  0.7957747E-01            NaN
         13   -1    0    0    0    0  0.00000000000E+00  0.00000000000E+00  0.74505805969E-08  0.10566000000E+00  0.10566000000E+00 0.  1.
     999900   -1    0    0    0    0 -0.00000000000E+00 -0.00000000000E+00 -0.74505805969E-08  0.93827000000E+00  0.93827000000E+00 0. -1.
     999902    2    1    2    0    0 -0.15503934777E-01  0.49252411486E-02 -0.16000183325E-01  0.10211125536E+01  0.10208575862E+01 0.  0.
     999903    2    3    3    0    0 -0.38949497591E-01  0.89494899322E-02 -0.12607814838E+00  0.13393554342E+00  0.21115718331E-01 0.  0.
         14    1    1    2    0    0  0.15503934777E-01 -0.49252411486E-02  0.16000183325E-01  0.22817446404E-01  0.00000000000E+00 0.  1.
     999901    1    3    3    0    0  0.23445562814E-01 -0.40242487836E-02  0.11007796505E+00  0.88717701018E+00  0.88000000000E+00 0.  1.
        -11    1    4    4    0    0  0.12992558842E-02 -0.13721257374E-02 -0.18620433372E-01  0.18723046090E-01  0.51100000000E-03 0. -1.
         11    1    4    4    0    0 -0.40248753476E-01  0.10321615670E-01 -0.10745771500E+00  0.11521249733E+00  0.51100000000E-03 0.  1.
</event>
<event>
 8    1  0.1041149E+005  0.1043930E+01  0.7957747E-01            NaN
         13   -1    0    0    0    0  0.00000000000E+00  0.00000000000E+00  0.74505805969E-08  0.10566000000E+00  0.10566000000E+00 0. -1.
     999900   -1    0    0    0    0 -0.00000000000E+00 -0.00000000000E+00 -0.74505805969E-08  0.93827000000E+00  0.93827000000E+00 0. -1.
     999902    2    1    2    0    0  0.22910353015E-02 -0.18827380178E-01  0.16065786165E-01  0.10190738424E+01  0.10187706649E+01 0.  0.
     999903    2    3    3    0    0 -0.11134273464E+00  0.29178357890E-01 -0.51966460154E-01  0.12786928050E+00  0.20036436491E-01 0.  0.
         14    1    1    2    0    0 -0.22910353015E-02  0.18827380178E-01 -0.16065786165E-01  0.24856157632E-01  0.00000000000E+00 0. -1.
     999901    1    3    3    0    0  0.11363376994E+00 -0.48005738068E-01  0.68032246320E-01  0.89120456187E+00  0.88000000000E+00 0.  1.
        -11    1    4    4    0    0 -0.72729319995E-01  0.11087479362E-01 -0.26493390972E-01  0.78196208807E-01  0.51100000000E-03 0.  1.
         11    1    4    4    0    0 -0.38613414647E-01  0.18090878529E-01 -0.25473069182E-01  0.49673071690E-01  0.51100000000E-03 0. -1.
</event>
<event>
 8    1  0.1213915E+005  0.1043930E+01  0.7957747E-01            NaN
         13   -1    0    0    0    0  0.00000000000E+00  0.00000000000E+00  0.74505805969E-08  0.10566000000E+00  0.10566000000E+00 0. -1.
     999900   -1    0    0    0    0 -0.00000000000E+00 -0.00000000000E+00 -0.74505805969E-08  0.93827000000E+00  0.93827000000E+00 0. -1.
     999902    2    1    2    0    0  0.46194558048E-02 -0.58020283557E-03  0.23026322479E-01  0.10204377133E+01  0.10201672604E+01 0.  0.
     999903    2    3    3    0    0  0.72958160253E-01  0.10666820296E+00  0.10648847404E-01  0.13121018283E+00  0.20042840531E-01 0.  0.
         14    1    1    2    0    0 -0.46194558048E-02  0.58020283557E-03 -0.23026322479E-01  0.23492286695E-01  0.00000000000E+00 0.  1.
     999901    1    3    3    0    0 -0.68338704448E-01 -0.10724840579E+00  0.12377475075E-01  0.88922753048E+00  0.88000000000E+00 0. -1.
        -11    1    4    4    0    0  0.31532452616E-01  0.29885645602E-01  0.13362422172E-02  0.43468310817E-01  0.51100000000E-03 0. -1.
         11    1    4    4    0    0  0.41425707637E-01  0.76782557356E-01  0.93126051870E-02  0.87741872010E-01  0.51100000000E-03 0.  1.
</event>
<event>
 8    1  0.1041149E+005  0.1043930E+01  0.7957747E-01            NaN
         13   -1    0    0    0    0  0.00000000000E+00  0.00000000000E+00  0.74505805969E-08  0.10566000000E+00  0.10566000000E+00 0.  1.
     999900   -1    0    0    0    0 -0.00000000000E+00 -0.00000000000E+00 -0.74505805969E-08  0.93827000000E+00  0.93827000000E+00 0.  1.
     999902    2    1    2    0    0  0.16052221303E-01  0.16102852182E-01  0.49308318963E-02  0.10206643867E+01  0.10203991874E+01 0.  0.
     999903    2    3    3    0    0  0.79785117831E-02  0.60597865632E-01 -0.11470373089E+00  0.13141896526E+00  0.19448408183E-01 0.  0.
         14    1    1    2    0    0 -0.16052221303E-01 -0.16102852182E-01 -0.49308318963E-02  0.23265613259E-01  0.00000000000E+00 0.  1.
     999901    1    3    3    0    0  0.80737095200E-02 -0.44495013450E-01  0.11963456279E+00  0.88924542148E+00  0.88000000000E+00 0.  1.
        -11    1    4    4    0    0  0.12079530403E-01  0.20286813398E-01 -0.41762513544E-01  0.47977479208E-01  0.51100000000E-03 0.  1.
         11    1    4    4    0    0 -0.41010186199E-02  0.40311052234E-01 -0.72941217347E-01  0.83441486054E-01  0.51100000000E-03 0. -1.
</event>
<event>
 8    1  0.1041149E+005  0.1043930E+01  0.7957747E-01            NaN
         13   -1    0    0    0    0  0.00000000000E+00  0.00000000000E+00  0.74505805969E-08  0.10566000000E+00  0.10566000000E+00 0.  1.
     999900   -1    0    0    0    0 -0.00000000000E+00 -0.00000000000E+00 -0.74505805969E-08  0.93827000000E+00  0.93827000000E+00 0. -1.
     999902    2    1    2    0    0  0.10013193824E-01 -0.15538607746E-01  0.14965970161E-01  0.10201457059E+01  0.10198684075E+01 0.  0.
     999903    2    3    3    0    0  0.14850879672E-01  0.12139661869E+00  0.36848332394E-01  0.12927338219E+00  0.19902765749E-01 0.  0.
         14    1    1    2    0    0 -0.10013193824E-01  0.15538607746E-01 -0.14965970161E-01  0.23784294063E-01  0.00000000000E+00 0. -1.
     999901    1    3    3    0    0 -0.48376858479E-02 -0.13693522644E+00 -0.21882362234E-01  0.89087232375E+00  0.88000000000E+00 0. -1.
        -11    1    4    4    0    0  0.13871338051E-01  0.65329388277E-01  0.11659185162E-01  0.67797792823E-01  0.51100000000E-03 0. -1.
         11    1    4    4    0    0  0.97954162058E-03  0.56067230417E-01  0.25189147232E-01  0.61475589365E-01  0.51100000000E-03 0.  1.
</event>
<event>
 8    1  0.1041149E+005  0.1043930E+01  0.7957747E-01            NaN
         13   -1    0    0    0    0  0.00000000000E+00  0.00000000000E+00  0.74505805969E-08  0.10566000000E+00  0.10566000000E+00 0. -1.
     999900   -1    0    0    0    0 -0.00000000000E+00 -0.00000000000E+00 -0.74505805969E-08  0.93827000000E+00  0.93827000000E+00 0.  1.
     999902    2    1    2    0    0  0.83186226708E-02  0.20595700947E-01 -0.12019928355E-02  0.10216852890E+01  0.10214430981E+01 0.  0.
     999903    2    3    3    0    0 -0.27211871097E-01  0.49554923264E-01  0.11828100087E+00  0.13242872404E+00  0.18729533796E-01 0.  0.
         14    1    1    2    0    0 -0.83186226708E-02 -0.20595700947E-01  0.12019928355E-02  0.22244710999E-01  0.00000000000E+00 0. -1.
     999901    1    3    3    0    0  0.35530493768E-01 -0.28959222317E-01 -0.11948299370E+00  0.88925656496E+00  0.88000000000E+00 0.  1.
        -11    1    4    4    0    0 -0.22582132333E-01  0.32407849595E-01  0.62982511538E-01  0.74345674365E-01  0.51100000000E-03 0. -1.
         11    1    4    4    0    0 -0.46297387640E-02  0.17147073669E-01  0.55298489328E-01  0.58083049674E-01  0.51100000000E-03 0.  1.
</event>
<event>
 8    1  0.1056599E+005  0.1043930E+01  0.7957747E-01            NaN
         13   -1    0    0    0    0  0.00000000000E+00  0.00000000000E+00  0.74505805969E-08  0.10566000000E+00  0.10566000000E+00 0. -1.
     999900   -1    0    0    0    0 -0.00000000000E+00 -0.00000000000E+00 -0.74505805969E-08  0.93827000000E+00  0.93827000000E+00 0. -1.
     999902    2    1    2    0    0 -0.15499027366E-01 -0.97883840351E-02 -0.14960866388E-01  0.10202686426E+01  0.10199942369E+01 0.  0.
     999903    2    3    3    0    0 -0.76227926052E-01 -0.85552039286E-01  0.61332276486E-01  0.13164680275E+00  0.20961498027E-01 0.  0.
         14    1    1    2    0    0  0.15499027366E-01  0.97883840351E-02  0.14960866388E-01  0.23661357408E-01  0.00000000000E+00 0. -1.
     999901    1    3    3    0    0  0.60728898686E-01  0.75763655250E-01 -0.76293142874E-01  0.88862183984E+00  0.88000000000E+00 0. -1.
        -11    1    4    4    0    0 -0.29625443996E-01 -0.22804209154E-01  0.27817108156E-01  0.46602054829E-01  0.51100000000E-03 0.  1.
         11    1    4    4    0    0 -0.46602482056E-01 -0.62747830132E-01  0.33515168330E-01  0.85044747923E-01  0.51100000000E-03 0. -1.
</event>
<event>
 8    1  0.1041149E+005  0.1043930E+01  0.7957747E-01            NaN
         13   -1    0    0    0    0  0.00000000000E+00  0.00000000000E+00  0.74505805969E-08  0.10566000000E+00  0.10566000000E+00 0. -1.
     999900   -1    0    0    0    0 -0.00000000000E+00 -0.00000000000E+00 -0.74505805969E-08  0.93827000000E+00  0.93827000000E+00 0. -1.
     999902    2    1    2    0    0  0.97587462385E-02 -0.10912812879E-01  0.18564132417E-01  0.10202878845E+01  0.10200139301E+01 0.  0.
     999903    2    3    3    0    0 -0.80819685460E-01  0.94997433879E-01 -0.22580642466E-01  0.12837178690E+00  0.20324769508E-01 0.  0.
         14    1    1    2    0    0 -0.97587462385E-02  0.10912812879E-01 -0.18564132417E-01  0.23642115503E-01  0.00000000000E+00 0.  1.
     999901    1    3    3    0    0  0.90578431699E-01 -0.10591024676E+00  0.41144774883E-01  0.89191609760E+00  0.88000000000E+00 0.  1.
        -11    1    4    4    0    0 -0.35909724465E-01  0.53184796776E-01 -0.18891900924E-01  0.66897652879E-01  0.51100000000E-03 0.  1.
         11    1    4    4    0    0 -0.44909960995E-01  0.41812637103E-01 -0.36887415425E-02  0.61474134018E-01  0.51100000000E-03 0. -1.
</event>
<event>
 8    1  0.1041149E+005  0.1043930E+01  0.7957747E-01            NaN
         13   -1    0    0    0    0  0.00000000000E+00  0.00000000000E+00  0.74505805969E-08  0.10566000000E+00  0.10566000000E+00 0.  1.
     999900   -1    0    0    0    0 -0.00000000000E+00 -0.00000000000E+00 -0.74505805969E-08  0.93827000000E+00  0.93827000000E+00 0. -1.
     999902    2    1    2    0    0  0.12259937676E-01  0.25622125464E-02  0.19932672168E-01  0.10203889205E+01  0.10201173298E+01 0.  0.
     999903    2    3    3    0    0 -0.10188244166E-01  0.20411863724E-02  0.13105476390E+00  0.13311652060E+00  0.20897132673E-01 0.  0.
         14    1    1    2    0    0 -0.12259937676E-01 -0.25622125464E-02 -0.19932672168E-01  0.23541079515E-01  0.00000000000E+00 0. -1.
     999901    1    3    3    0    0  0.22448181842E-01  0.52102617405E-03 -0.11112209173E+00  0.88727239989E+00  0.88000000000E+00 0. -1.
        -11    1    4    4    0    0 -0.13939059124E-01 -0.53903998034E-02  0.80145476906E-01  0.81528598472E-01  0.51100000000E-03 0. -1.
         11    1    4    4    0    0  0.37508149579E-02  0.74315861758E-02  0.50909286993E-01  0.51587922124E-01  0.51100000000E-03 0.  1.
</event>
<event>
 8    1  0.1041149E+005  0.1043930E+01  0.7957747E-01            NaN
         13   -1    0    0    0    0  0.00000000000E+00  0.00000000000E+00  0.74505805969E-08  0.10566000000E+00  0.10566000000E+00 0. -1.
     999900   -1    0    0    0    0 -0.00000000000E+00 -0.00000000000E+00 -0.74505805969E-08  0.93827000000E+00  0.93827000000E+00 0.  1.
     999902    2    1    2    0    0 -0.51184570836E-03  0.10259802052E-01  0.21087180044E-01  0.10204737708E+01  0.10202041572E+01 0.  0.
     999903    2    3    3    0    0 -0.68200524659E-01  0.64931664235E-01  0.92249262833E-01  0.13332394595E+00  0.19947819103E-01 0.  0.
         14    1    1    2    0    0  0.51184570836E-03 -0.10259802052E-01 -0.21087180044E-01  0.23456229159E-01  0.00000000000E+00 0.  1.
     999901    1    3    3    0    0  0.67688678950E-01 -0.54671862183E-01 -0.71162082790E-01  0.88714982489E+00  0.88000000000E+00 0.  1.
        -11    1    4    4    0    0 -0.28280134303E-01  0.15359395808E-01  0.25229175220E-01  0.40895591927E-01  0.51100000000E-03 0.  1.
         11    1    4    4    0    0 -0.39920390356E-01  0.49572268427E-01  0.67020087613E-01  0.92428354025E-01  0.51100000000E-03 0. -1.
</event>
<event>
 8    1  0.1041149E+005  0.1043930E+01  0.7957747E-01            NaN
         13   -1    0    0    0    0  0.00000000000E+00  0.00000000000E+00  0.74505805969E-08  0.10566000000E+00  0.10566000000E+00 0.  1.
     999900   -1    0    0    0    0 -0.00000000000E+00 -0.00000000000E+00 -0.74505805969E-08  0.93827000000E+00  0.93827000000E+00 0.  1.
     999902    2    1    2    0    0  0.18785172575E-01  0.48048373931E-02  0.11477208897E-01  0.10213979008E+01  0.10211493408E+01 0.  0.
     999903    2    3    3    0    0 -0.57141907114E-01 -0.14494555841E-01 -0.11310430277E+00  0.12917710913E+00  0.20465886747E-01 0.  0.
         14    1    1    2    0    0 -0.18785172575E-01 -0.48048373931E-02 -0.11477208897E-01  0.22532099217E-01  0.00000000000E+00 0. -1.
     999901    1    3    3    0    0  0.75927079689E-01  0.19299393234E-01  0.12458151167E+00  0.89222079165E+00  0.88000000000E+00 0. -1.
        -11    1    4    4    0    0 -0.19911118118E-01  0.37696792876E-02 -0.46348018735E-01  0.50587182846E-01  0.51100000000E-03 0.  1.
         11    1    4    4    0    0 -0.37230788996E-01 -0.18264235129E-01 -0.66756284035E-01  0.78589926284E-01  0.51100000000E-03 0. -1.
</event>
<event>
 8    1  0.1041149E+005  0.1043930E+01  0.7957747E-01            NaN
         13   -1    0    0    0    0  0.00000000000E+00  0.00000000000E+00  0.74505805969E-08  0.10566000000E+00  0.10566000000E+00 0.  1.
     999900   -1    0    0    0    0 -0.00000000000E+00 -0.00000000000E+00 -0.74505805969E-08  0.93827000000E+00  0.93827000000E+00 0.  1.
     999902    2    1    2    0    0  0.18574144267E-01 -0.15615298263E-01 -0.12687867270E-01  0.10165471888E+01  0.10161783154E+01 0.  0.
     999903    2    3    3    0    0 -0.78816152688E-01 -0.76801728894E-01  0.58320730103E-01  0.12622653297E+00  0.20526533585E-01 0.  0.
         14    1    1    2    0    0 -0.18574144267E-01  0.15615298263E-01  0.12687867270E-01  0.27382811232E-01  0.00000000000E+00 0. -1.
     999901    1    3    3    0    0  0.97390296955E-01  0.61186430631E-01 -0.71008597374E-01  0.89032065580E+00  0.88000000000E+00 0. -1.
        -11    1    4    4    0    0 -0.20021591743E-01 -0.91933787527E-02  0.15349641370E-01  0.26856190348E-01  0.51100000000E-03 0.  1.
         11    1    4    4    0    0 -0.58794560945E-01 -0.67608350141E-01  0.42971088734E-01  0.99370342625E-01  0.51100000000E-03 0. -1.
</event>
<event>
 8    1  0.1041149E+005  0.1043930E+01  0.7957747E-01            NaN
         13   -1    0    0    0    0  0.00000000000E+00  0.00000000000E+00  0.74505805969E-08  0.10566000000E+00  0.10566000000E+00 0.  1.
     999900   -1    0    0    0    0 -0.00000000000E+00 -0.00000000000E+00 -0.74505805969E-08  0.93827000000E+00  0.93827000000E+00 0. -1.
     999902    2    1    2    0    0 -0.36532545209E-02 -0.18542212097E-01 -0.15860692126E-01  0.10192577189E+01  0.10189590650E+01 0.  0.
     999903    2    3    3    0    0 -0.52070029936E-01  0.43379305124E-01  0.10587548102E+00  0.12740674804E+00  0.20731855540E-01 0.  0.
         14    1    1    2    0    0  0.36532545209E-02  0.18542212097E-01  0.15860692126E-01  0.24672281061E-01  0.00000000000E+00 0. -1.
     999901    1    3    3    0    0  0.48416775415E-01 -0.61921517221E-01 -0.12173617315E+00  0.89185097090E+00  0.88000000000E+00 0. -1.
        -11    1    4    4    0    0 -0.28586942149E-01  0.36447809451E-01  0.66780480180E-01  0.81274533091E-01  0.51100000000E-03 0.  1.
         11    1    4    4    0    0 -0.23483087787E-01  0.69314956731E-02  0.39095000843E-01  0.46132214950E-01  0.51100000000E-03 0. -1.
</event>
<event>
 8    1  0.1041149E+005  0.1043930E+01  0.7957747E-01            NaN
         13   -1    0    0    0    0  0.00000000000E+00  0.00000000000E+00  0.74505805969E-08  0.10566000000E+00  0.10566000000E+00 0. -1.
     999900   -1    0    0    0    0 -0.00000000000E+00 -0.00000000000E+00 -0.74505805969E-08  0.93827000000E+00  0.93827000000E+00 0.  1.
     999902    2    1    2    0    0 -0.12231946931E-01  0.44740138509E-02 -0.20045147914E-01  0.10200250783E+01  0.10197449265E+01 0.  0.
     999903    2    3    3    0    0  0.90104746048E-01  0.89301892011E-01 -0.20648222091E-01  0.13004253279E+00  0.19774177168E-01 0.  0.
         14    1    1    2    0    0  0.12231946931E-01 -0.44740138509E-02  0.20045147914E-01  0.23904921681E-01  0.00000000000E+00 0. -1.
     999901    1    3    3    0    0 -0.10233669298E+00 -0.84827878160E-01  0.60307417615E-03  0.88998254553E+00  0.88000000000E+00 0.  1.
        -11    1    4    4    0    0  0.34948133841E-01  0.48008194655E-01 -0.69286127605E-02  0.59786500222E-01  0.51100000000E-03 0.  1.
         11    1    4    4    0    0  0.55156612207E-01  0.41293697355E-01 -0.13719609330E-01  0.70256032571E-01  0.51100000000E-03 0. -1.
</event>
<event>
 8    1  0.1041149E+005  0.1043930E+01  0.7957747E-01            NaN
         13   -1    0    0    0    0  0.00000000000E+00  0.00000000000E+00  0.74505805969E-08  0.10566000000E+00  0.10566000000E+00 0. -1.
     999900   -1    0    0    0    0 -0.00000000000E+00 -0.00000000000E+00 -0.74505805969E-08  0.93827000000E+00  0.93827000000E+00 0. -1.
     999902    2    1    2    0    0 -0.13795360915E-01 -0.98342142326E-02 -0.16925529375E-01  0.10199821964E+01  0.10197010266E+01 0.  0.
     999903    2    3    3    0    0 -0.11308693695E+00  0.20189651553E-01 -0.62965546575E-01  0.13269423144E+00  0.21138156611E-01 0.  0.
         14    1    1    2    0    0  0.13795360915E-01  0.98342142326E-02  0.16925529375E-01  0.23947803594E-01  0.00000000000E+00 0. -1.
     999901    1    3    3    0    0  0.99291576030E-01 -0.30023865786E-01  0.46040017200E-01  0.88728796496E+00  0.88000000000E+00 0.  1.
        -11    1    4    4    0    0 -0.55096889934E-01  0.18989784916E-01 -0.37804866909E-01  0.69467606080E-01  0.51100000000E-03 0. -1.
         11    1    4    4    0    0 -0.57990047012E-01  0.11998666376E-02 -0.25160679666E-01  0.63226625362E-01  0.51100000000E-03 0.  1.
</event>
<event>
 7    1  0.1041149E+005  0.1043930E+01  0.7957747E-01            NaN
         13   -1    0    0    0    0  0.00000000000E+00  0.00000000000E+00  0.74505805969E-08  0.10566000000E+00  0.10566000000E+00 0. -1.
     999900   -1    0    0    0    0 -0.00000000000E+00 -0.00000000000E+00 -0.74505805969E-08  0.93827000000E+00  0.93827000000E+00 0. -1.
     999903    2    1    2    0    0 -0.36904681430E-01 -0.71830624961E-01 -0.23877834291E-01  0.86377120139E-01  0.19216183787E-01 0.  0.
         14    1    1    2    0    0  0.38994993069E-01 -0.31069308583E-01  0.50754367944E-01  0.71147152337E-01  0.00000000000E+00 0. -1.
     999901    1    1    2    0    0 -0.20903116386E-02  0.10289993354E+00 -0.26876533653E-01  0.88640572752E+00  0.88000000000E+00 0. -1.
        -11    1    3    3    0    0 -0.12670103966E-01 -0.36000055744E-01 -0.19600019627E-01  0.42906379927E-01  0.51100000000E-03 0.  1.
         11    1    3    3    0    0 -0.24234577464E-01 -0.35830569217E-01 -0.42778146648E-02  0.43470740212E-01  0.51100000000E-03 0. -1.
</event>
<event>
 8    1  0.1041149E+005  0.1043930E+01  0.7957747E-01            NaN
         13   -1    0    0    0    0  0.00000000000E+00  0.00000000000E+00  0.74505805969E-08  0.10566000000E+00  0.10566000000E+00 0. -1.
     999900   -1    0    0    0    0 -0.00000000000E+00 -0.00000000000E+00 -0.74505805969E-08  0.93827000000E+00  0.93827000000E+00 0. -1.
     999902    2    1    2    0    0 -0.13178269275E-02 -0.19055339961E-01 -0.16345244038E-01  0.10187901979E+01  0.10184799741E+01 0.  0.
     999903    2    3    3    0    0 -0.70548225429E-01 -0.54943179733E-02  0.10449346679E+00  0.12773534914E+00  0.19753358606E-01 0.  0.
         14    1    1    2    0    0  0.13178269275E-02  0.19055339961E-01  0.16345244038E-01  0.25139802138E-01  0.00000000000E+00 0. -1.
     999901    1    3    3    0    0  0.69230398502E-01 -0.13561021988E-01 -0.12083871083E+00  0.89105484872E+00  0.88000000000E+00 0. -1.
        -11    1    4    4    0    0 -0.48380686469E-01 -0.80682044034E-02  0.56613328395E-01  0.74907388277E-01  0.51100000000E-03 0. -1.
         11    1    4    4    0    0 -0.22167538961E-01  0.25738864301E-02  0.47880138399E-01  0.52827960864E-01  0.51100000000E-03 0.  1.
</event>
<event>
 8    1  0.1041149E+005  0.1043930E+01  0.7957747E-01            NaN
         13   -1    0    0    0    0  0.00000000000E+00  0.00000000000E+00  0.74505805969E-08  0.10566000000E+00  0.10566000000E+00 0.  1.
     999900   -1    0    0    0    0 -0.00000000000E+00 -0.00000000000E+00 -0.74505805969E-08  0.93827000000E+00  0.93827000000E+00 0.  1.
     999902    2    1    2    0    0 -0.10904822161E-01 -0.18981880988E-01 -0.82379104778E-03  0.10220232525E+01  0.10217884434E+01 0.  0.
     999903    2    3    3    0    0 -0.38741531179E-01  0.95831471695E-01 -0.77315859020E-01  0.13083975585E+00  0.21371065724E-01 0.  0.
         14    1    1    2    0    0  0.10904822161E-01  0.18981880988E-01  0.82379104778E-03  0.21906747451E-01  0.00000000000E+00 0. -1.
     999901    1    3    3    0    0  0.27836709018E-01 -0.11481335268E+00  0.76492067972E-01  0.89118349670E+00  0.88000000000E+00 0. -1.
        -11    1    4    4    0    0 -0.13158496667E-01  0.56212027249E-01 -0.49741792068E-01  0.76206594473E-01  0.51100000000E-03 0. -1.
         11    1    4    4    0    0 -0.25583034512E-01  0.39619444445E-01 -0.27574066952E-01  0.54633161379E-01  0.51100000000E-03 0.  1.
</event>
<event>
 8    1  0.1041149E+005  0.1043930E+01  0.7957747E-01            NaN
         13   -1    0    0    0    0  0.00000000000E+00  0.00000000000E+00  0.74505805969E-08  0.10566000000E+00  0.10566000000E+00 0.  1.
     999900   -1    0    0    0    0 -0.00000000000E+00 -0.00000000000E+00 -0.74505805969E-08  0.93827000000E+00  0.93827000000E+00 0. -1.
     999902    2    1    2    0    0 -0.21008561103E-01  0.11098742786E-01  0.20365396439E-02  0.10200827942E+01  0.10198040095E+01 0.  0.
     999903    2    3    3    0    0  0.99498120581E-01 -0.68645119837E-01 -0.35430083527E-01  0.12751084090E+00  0.19791292313E-01 0.  0.
         14    1    1    2    0    0  0.21008561103E-01 -0.11098742786E-01 -0.20365396439E-02  0.23847205806E-01  0.00000000000E+00 0. -1.
     999901    1    3    3    0    0 -0.12050668168E+00  0.79743862623E-01  0.37466623171E-01  0.89257195329E+00  0.88000000000E+00 0.  1.
        -11    1    4    4    0    0  0.49573394988E-01 -0.44487435846E-01 -0.24542307617E-01  0.70987600488E-01  0.51100000000E-03 0. -1.
         11    1    4    4    0    0  0.49924725593E-01 -0.24157683991E-01 -0.10887775910E-01  0.56523240411E-01  0.51100000000E-03 0.  1.
</event>
<event>
 8    1  0.1041149E+005  0.1043930E+01  0.7957747E-01            NaN
         13   -1    0    0    0    0  0.00000000000E+00  0.00000000000E+00  0.74505805969E-08  0.10566000000E+00  0.10566000000E+00 0. -1.
     999900   -1    0    0    0    0 -0.00000000000E+00 -0.00000000000E+00 -0.74505805969E-08  0.93827000000E+00  0.93827000000E+00 0. -1.
     999902    2    1    2    0    0 -0.43024898273E-02 -0.61089361761E-02  0.22301442392E-01  0.10204101179E+01  0.10201390219E+01 0.  0.
     999903    2    3    3    0    0 -0.88552287000E-01  0.12886004162E-01  0.96420134818E-01  0.13308130816E+00  0.20155285813E-01 0.  0.
         14    1    1    2    0    0  0.43024898273E-02  0.61089361761E-02 -0.22301442392E-01  0.23519882072E-01  0.00000000000E+00 0.  1.
     999901    1    3    3    0    0  0.84249797173E-01 -0.18994940338E-01 -0.74118692426E-01  0.88732880977E+00  0.88000000000E+00 0. -1.
        -11    1    4    4    0    0 -0.38140078540E-01  0.96716732250E-02  0.55689374766E-01  0.68189254556E-01  0.51100000000E-03 0. -1.
         11    1    4    4    0    0 -0.50412208460E-01  0.32143309370E-02  0.40730760052E-01  0.64892053601E-01  0.51100000000E-03 0.  1.
</event>
<event>
 8    1  0.1041149E+005  0.1043930E+01  0.7957747E-01            NaN
         13   -1    0    0    0    0  0.00000000000E+00  0.00000000000E+00  0.74505805969E-08  0.10566000000E+00  0.10566000000E+00 0. -1.
     999900   -1    0    0    0    0 -0.00000000000E+00 -0.00000000000E+00 -0.74505805969E-08  0.93827000000E+00  0.93827000000E+00 0.  1.
     999902    2    1    2    0    0 -0.70308763954E-02  0.22032520572E-01 -0.14416421090E-01  0.10166775069E+01  0.10163121836E+01 0.  0.
     999903    2    3    3    0    0  0.82889929244E-01  0.80692815226E-01  0.50590218945E-01  0.12777219991E+00  0.19603418553E-01 0.  0.
         14    1    1    2    0    0  0.70308763954E-02 -0.22032520572E-01  0.14416421090E-01  0.27252493146E-01  0.00000000000E+00 0.  1.
     999901    1    3    3    0    0 -0.89920805639E-01 -0.58660294654E-01 -0.65006640035E-01  0.88890530694E+00  0.88000000000E+00 0.  1.
        -11    1    4    4    0    0  0.76435479035E-01  0.73892768295E-01  0.39928235129E-01  0.11356517399E+00  0.51100000000E-03 0.  1.
         11    1    4    4    0    0  0.64544502089E-02  0.68000469312E-02  0.10661983816E-01  0.14207025926E-01  0.51100000000E-03 0. -1.
</event>
<event>
 8    1  0.1472352E+005  0.1043930E+01  0.7957747E-01            NaN
         13   -1    0    0    0    0  0.00000000000E+00  0.00000000000E+00  0.74505805969E-08  0.10566000000E+00  0.10566000000E+00 0.  1.
     999900   -1    0    0    0    0 -0.00000000000E+00 -0.00000000000E+00 -0.74505805969E-08  0.93827000000E+00  0.93827000000E+00 0.  1.
     999902    2    1    2    0    0 -0.12634040853E-01  0.11854828888E-01  0.10580818674E-01  0.10236295153E+01  0.10234281972E+01 0.  0.
     999903    2    3    3    0    0 -0.39237307075E-01 -0.56069027798E-01  0.11512966676E+00  0.13444345729E+00  0.11700465542E-01 0.  0.
         14    1    1    2    0    0  0.12634040853E-01 -0.11854828888E-01 -0.10580818674E-01  0.20300484725E-01  0.00000000000E+00 0. -1.
     999901    1    3    3    0    0  0.26603266222E-01  0.67923856686E-01 -0.10454884809E+00  0.88918605799E+00  0.88000000000E+00 0.  1.
        -11    1    4    4    0    0 -0.22829332898E-01 -0.23376930019E-01  0.58981005392E-01  0.67429069515E-01  0.51100000000E-03 0. -1.
         11    1    4    4    0    0 -0.16407974177E-01 -0.32692097778E-01  0.56148661372E-01  0.67014387773E-01  0.51100000000E-03 0.  1.
</event>
<event>
 8    1  0.1041149E+005  0.1043930E+01  0.7957747E-01            NaN
         13   -1    0    0    0    0  0.00000000000E+00  0.00000000000E+00  0.74505805969E-08  0.10566000000E+00  0.10566000000E+00 0. -1.
     999900   -1    0    0    0    0 -0.00000000000E+00 -0.00000000000E+00 -0.74505805969E-08  0.93827000000E+00  0.93827000000E+00 0.  1.
     999902    2    1    2    0    0  0.90246572375E-02 -0.15509446112E-01  0.12409711384E-02  0.10259431335E+01  0.10257854482E+01 0.  0.
     999903    2    3    3    0    0  0.66470853490E-01  0.39658504079E-01  0.10986871852E+00  0.13569397979E+00  0.18722968030E-01 0.  0.
         14    1    1    2    0    0 -0.90246572375E-02  0.15509446112E-01 -0.12409711384E-02  0.17986866496E-01  0.00000000000E+00 0. -1.
     999901    1    3    3    0    0 -0.57446196253E-01 -0.55167950191E-01 -0.10862774738E+00  0.89024915372E+00  0.88000000000E+00 0.  1.
        -11    1    4    4    0    0  0.28617339999E-01  0.66523192089E-02  0.42204941137E-01  0.51426876989E-01  0.51100000000E-03 0.  1.
         11    1    4    4    0    0  0.37853513491E-01  0.33006184870E-01  0.67663777383E-01  0.84267102799E-01  0.51100000000E-03 0. -1.
</event>
<event>
 8    1  0.1041149E+005  0.1043930E+01  0.7957747E-01            NaN
         13   -1    0    0    0    0  0.00000000000E+00  0.00000000000E+00  0.74505805969E-08  0.10566000000E+00  0.10566000000E+00 0.  1.
     999900   -1    0    0    0    0 -0.00000000000E+00 -0.00000000000E+00 -0.74505805969E-08  0.93827000000E+00  0.93827000000E+00 0. -1.
     999902    2    1    2    0    0 -0.19120988958E-01  0.21410743505E-02 -0.46777811507E-02  0.10241290390E+01  0.10239376009E+01 0.  0.
     999903    2    3    3    0    0 -0.93354019004E-01  0.13385294985E-01  0.95096119110E-01  0.13531420658E+00  0.19300871635E-01 0.  0.
         14    1    1    2    0    0  0.19120988958E-01 -0.21410743505E-02  0.46777811507E-02  0.19800960952E-01  0.00000000000E+00 0.  1.
     999901    1    3    3    0    0  0.74233030045E-01 -0.11244220635E-01 -0.99773900261E-01  0.88881483247E+00  0.88000000000E+00 0. -1.
        -11    1    4    4    0    0 -0.29040793394E-01  0.13291997923E-01  0.30850163885E-01  0.44407641488E-01  0.51100000000E-03 0.  1.
         11    1    4    4    0    0 -0.64313225610E-01  0.93297061880E-04  0.64245955225E-01  0.90906565090E-01  0.51100000000E-03 0. -1.
</event>
<event>
 8    1  0.1041149E+005  0.1043930E+01  0.7957747E-01            NaN
         13   -1    0    0    0    0  0.00000000000E+00  0.00000000000E+00  0.74505805969E-08  0.10566000000E+00  0.10566000000E+00 0.  1.
     999900   -1    0    0    0    0 -0.00000000000E+00 -0.00000000000E+00 -0.74505805969E-08  0.93827000000E+00  0.93827000000E+00 0. -1.
     999902    2    1    2    0    0 -0.80421838928E-02 -0.19766478424E-01 -0.83154416326E-02  0.10210272281E+01  0.10207703285E+01 0.  0.
     999903    2    3    3    0    0 -0.49929924280E-01 -0.31070843771E-01 -0.11799908088E+00  0.13315737717E+00  0.18673760642E-01 0.  0.
         14    1    1    2    0    0  0.80421838928E-02  0.19766478424E-01  0.83154416326E-02  0.22902771898E-01  0.00000000000E+00 0.  1.
     999901    1    3    3    0    0  0.41887740387E-01  0.11304365347E-01  0.10968363924E+00  0.88786985093E+00  0.88000000000E+00 0.  1.
        -11    1    4    4    0    0 -0.10467033720E-01 -0.25888083990E-02 -0.38118730381E-01  0.39617665891E-01  0.51100000000E-03 0.  1.
         11    1    4    4    0    0 -0.39462890560E-01 -0.28482035372E-01 -0.79880350496E-01  0.93539711282E-01  0.51100000000E-03 0. -1.
</event>
<event>
 8    1  0.1041149E+005  0.1043930E+01  0.7957747E-01            NaN
         13   -1    0    0    0    0  0.00000000000E+00  0.00000000000E+00  0.74505805969E-08  0.10566000000E+00  0.10566000000E+00 0.  1.
     999900   -1    0    0    0    0 -0.00000000000E+00 -0.00000000000E+00 -0.74505805969E-08  0.93827000000E+00  0.93827000000E+00 0. -1.
     999902    2    1    2    0    0 -0.16557780267E-01  0.10145287051E-01 -0.13796918193E-01  0.10201089612E+01  0.10198307952E+01 0.  0.
     999903    2    3    3    0    0  0.94047968833E-01 -0.39494543301E-01 -0.77347622217E-01  0.12952688389E+00  0.19741316951E-01 0.  0.
         14    1    1    2    0    0  0.16557780267E-01 -0.10145287051E-01  0.13796918193E-01  0.23821038776E-01  0.00000000000E+00 0.  1.
     999901    1    3    3    0    0 -0.11060574910E+00  0.49639830352E-01  0.63550704024E-01  0.89058207734E+00  0.88000000000E+00 0.  1.
        -11    1    4    4    0    0  0.67161277509E-01 -0.26428577626E-01 -0.65169032297E-01  0.97243872833E-01  0.51100000000E-03 0. -1.
         11    1    4    4    0    0  0.26886691323E-01 -0.13065965675E-01 -0.12178589921E-01  0.32283011055E-01  0.51100000000E-03 0.  1.
</event>
<event>
 8    1  0.1041149E+005  0.1043930E+01  0.7957747E-01            NaN
         13   -1    0    0    0    0  0.00000000000E+00  0.00000000000E+00  0.74505805969E-08  0.10566000000E+00  0.10566000000E+00 0.  1.
     999900   -1    0    0    0    0 -0.00000000000E+00 -0.00000000000E+00 -0.74505805969E-08  0.93827000000E+00  0.93827000000E+00 0. -1.
     999902    2    1    2    0    0  0.52341203365E-02  0.12635275126E-01  0.18196327505E-01  0.10211670360E+01  0.10209132985E+01 0.  0.
     999903    2    3    3    0    0  0.96473160939E-01 -0.26318714778E-01  0.85264328723E-01  0.13305663039E+00  0.20840240112E-01 0.  0.
         14    1    1    2    0    0 -0.52341203365E-02 -0.12635275126E-01 -0.18196327505E-01  0.22762963952E-01  0.00000000000E+00 0.  1.
     999901    1    3    3    0    0 -0.91239040602E-01  0.38953989904E-01 -0.67068001218E-01  0.88811040566E+00  0.88000000000E+00 0. -1.
        -11    1    4    4    0    0  0.45943746594E-01 -0.23295716168E-01  0.43938528714E-01  0.67708002994E-01  0.51100000000E-03 0. -1.
         11    1    4    4    0    0  0.50529414344E-01 -0.30229986107E-02  0.41325800009E-01  0.65348627392E-01  0.51100000000E-03 0.  1.
</event>
<event>
 8    1  0.1041149E+005  0.1043930E+01  0.7957747E-01            NaN
         13   -1    0    0    0    0  0.00000000000E+00  0.00000000000E+00  0.74505805969E-08  0.10566000000E+00  0.10566000000E+00 0.  1.
     999900   -1    0    0    0    0 -0.00000000000E+00 -0.00000000000E+00 -0.74505805969E-08  0.93827000000E+00  0.93827000000E+00 0.  1.
     999902    2    1    2    0    0  0.67391246075E-02 -0.19920296796E-01 -0.10798045301E-01  0.10202903763E+01  0.10200164804E+01 0.  0.
     999903    2    3    3    0    0 -0.75876370114E-01  0.67876417596E-01 -0.77625117712E-01  0.12956065266E+00  0.19896537646E-01 0.  0.
         14    1    1    2    0    0 -0.67391246075E-02  0.19920296796E-01  0.10798045301E-01  0.23639623669E-01  0.00000000000E+00 0. -1.
     999901    1    3    3    0    0  0.82615494721E-01 -0.87796714391E-01  0.66827072411E-01  0.89072972367E+00  0.88000000000E+00 0.  1.
        -11    1    4    4    0    0 -0.59640868237E-01  0.41249603105E-01 -0.55543628081E-01  0.91345052750E-01  0.51100000000E-03 0. -1.
         11    1    4    4    0    0 -0.16235501876E-01  0.26626814490E-01 -0.22081489631E-01  0.38215599909E-01  0.51100000000E-03 0.  1.
</event>
<event>
 8    1  0.1041149E+005  0.1043930E+01  0.7957747E-01            NaN
         13   -1    0    0    0    0  0.00000000000E+00  0.00000000000E+00  0.74505805969E-08  0.10566000000E+00  0.10566000000E+00 0. -1.
     999900   -1    0    0    0    0 -0.00000000000E+00 -0.00000000000E+00 -0.74505805969E-08  0.93827000000E+00  0.93827000000E+00 0. -1.
     999902    2    1    2    0    0 -0.50338998492E-02  0.15451621721E-01 -0.15783094188E-01  0.10212761080E+01  0.10210248234E+01 0.  0.
     999903    2    3    3    0    0 -0.10784170117E+00  0.62629231534E-01 -0.45507084472E-01  0.13353814750E+00  0.14466822274E-01 0.  0.
         14    1    1    2    0    0  0.50338998492E-02 -0.15451621721E-01  0.15783094188E-01  0.22653892019E-01  0.00000000000E+00 0.  1.
     999901    1    3    3    0    0  0.10280780132E+00 -0.47177609813E-01  0.29723990285E-01  0.88773796048E+00  0.88000000000E+00 0.  1.
        -11    1    4    4    0    0 -0.63068321799E-01  0.44409525962E-01 -0.30092358652E-01  0.82798734175E-01  0.51100000000E-03 0. -1.
         11    1    4    4    0    0 -0.44773379371E-01  0.18219705571E-01 -0.15414725821E-01  0.50739413325E-01  0.51100000000E-03 0.  1.
</event>
<event>
 8    1  0.1041149E+005  0.1043930E+01  0.7957747E-01            NaN
         13   -1    0    0    0    0  0.00000000000E+00  0.00000000000E+00  0.74505805969E-08  0.10566000000E+00  0.10566000000E+00 0.  1.
     999900   -1    0    0    0    0 -0.00000000000E+00 -0.00000000000E+00 -0.74505805969E-08  0.93827000000E+00  0.93827000000E+00 0.  1.
     999902    2    1    2    0    0 -0.19259211436E-03 -0.13208376303E-01  0.20275557165E-01  0.10197308985E+01  0.10194437252E+01 0.  0.
     999903    2    3    3    0    0 -0.11667966073E+00  0.28359046590E-01  0.45802690925E-01  0.13071530673E+00  0.23879408863E-01 0.  0.
         14    1    1    2    0    0  0.19259211436E-03  0.13208376303E-01 -0.20275557165E-01  0.24199101525E-01  0.00000000000E+00 0. -1.
     999901    1    3    3    0    0  0.11648706861E+00 -0.41567422893E-01 -0.25527133760E-01  0.88901559174E+00  0.88000000000E+00 0.  1.
        -11    1    4    4    0    0 -0.74218535527E-01  0.29548396357E-01  0.31862127966E-01  0.86005552510E-01  0.51100000000E-03 0. -1.
         11    1    4    4    0    0 -0.42461125201E-01 -0.11893497667E-02  0.13940562958E-01  0.44709754224E-01  0.51100000000E-03 0.  1.
</event>
<event>
 8    1  0.1041149E+005  0.1043930E+01  0.7957747E-01            NaN
         13   -1    0    0    0    0  0.00000000000E+00  0.00000000000E+00  0.74505805969E-08  0.10566000000E+00  0.10566000000E+00 0.  1.
     999900   -1    0    0    0    0 -0.00000000000E+00 -0.00000000000E+00 -0.74505805969E-08  0.93827000000E+00  0.93827000000E+00 0.  1.
     999902    2    1    2    0    0  0.36411777955E-02  0.13698834886E-01 -0.18693468745E-01  0.10204702040E+01  0.10202005074E+01 0.  0.
     999903    2    3    3    0    0 -0.11070071111E+00  0.61316454533E-01 -0.30575687249E-01  0.13171675545E+00  0.20001899342E-01 0.  0.
         14    1    1    2    0    0 -0.36411777955E-02 -0.13698834886E-01  0.18693468745E-01  0.23459795964E-01  0.00000000000E+00 0.  1.
     999901    1    3    3    0    0  0.11434188891E+00 -0.47617619647E-01  0.11882218503E-01  0.88875344859E+00  0.88000000000E+00 0.  1.
        -11    1    4    4    0    0 -0.62960326580E-01  0.23590017384E-01 -0.17532230232E-01  0.69484759920E-01  0.51100000000E-03 0. -1.
         11    1    4    4    0    0 -0.47740384534E-01  0.37726437149E-01 -0.13043457017E-01  0.62231995527E-01  0.51100000000E-03 0.  1.
</event>
<event>
 8    1  0.1041149E+005  0.1043930E+01  0.7957747E-01            NaN
         13   -1    0    0    0    0  0.00000000000E+00  0.00000000000E+00  0.74505805969E-08  0.10566000000E+00  0.10566000000E+00 0.  1.
     999900   -1    0    0    0    0 -0.00000000000E+00 -0.00000000000E+00 -0.74505805969E-08  0.93827000000E+00  0.93827000000E+00 0.  1.
     999902    2    1    2    0    0  0.19272583685E-02  0.22874994826E-01  0.60900538373E-02  0.10201798743E+01  0.10199033815E+01 0.  0.
     999903    2    3    3    0    0  0.28808471977E-01 -0.67952124363E-01  0.10370498229E+00  0.12973007818E+00  0.25054951010E-01 0.  0.
         14    1    1    2    0    0 -0.19272583685E-02 -0.22874994826E-01 -0.60900538373E-02  0.23750125660E-01  0.00000000000E+00 0.  1.
     999901    1    3    3    0    0 -0.26881213608E-01  0.90827119189E-01 -0.97614928451E-01  0.89044979616E+00  0.88000000000E+00 0.  1.
        -11    1    4    4    0    0  0.17585307913E-01 -0.62400986640E-01  0.80540346626E-01  0.10339310781E+00  0.51100000000E-03 0. -1.
         11    1    4    4    0    0  0.11223164064E-01 -0.55511377226E-02  0.23164635663E-01  0.26336970365E-01  0.51100000000E-03 0.  1.
</event>
<event>
 8    1  0.1041149E+005  0.1043930E+01  0.7957747E-01            NaN
         13   -1    0    0    0    0  0.00000000000E+00  0.00000000000E+00  0.74505805969E-08  0.10566000000E+00  0.10566000000E+00 0.  1.
     999900   -1    0    0    0    0 -0.00000000000E+00 -0.00000000000E+00 -0.74505805969E-08  0.93827000000E+00  0.93827000000E+00 0.  1.
     999902    2    1    2    0    0 -0.17720114338E-01  0.14714686789E-01 -0.23814021662E-02  0.10207741037E+01  0.10205114282E+01 0.  0.
     999903    2    3    3    0    0 -0.90679783121E-01 -0.27404558140E-01  0.89459382628E-01  0.13199298672E+00  0.21102950724E-01 0.  0.
         14    1    1    2    0    0  0.17720114338E-01 -0.14714686789E-01  0.23814021662E-02  0.23155896349E-01  0.00000000000E+00 0. -1.
     999901    1    3    3    0    0  0.72959668784E-01  0.42119244929E-01 -0.91840784794E-01  0.88878111693E+00  0.88000000000E+00 0.  1.
        -11    1    4    4    0    0 -0.67937131199E-01 -0.11668056542E-01  0.69456328201E-01  0.97857242896E-01  0.51100000000E-03 0.  1.
         11    1    4    4    0    0 -0.22742651923E-01 -0.15736501598E-01  0.20003054427E-01  0.34135743824E-01  0.51100000000E-03 0. -1.
</event>
<event>
 8    1  0.1041149E+005  0.1043930E+01  0.7957747E-01            NaN
         13   -1    0    0    0    0  0.00000000000E+00  0.00000000000E+00  0.74505805969E-08  0.10566000000E+00  0.10566000000E+00 0.  1.
     999900   -1    0    0    0    0 -0.00000000000E+00 -0.00000000000E+00 -0.74505805969E-08  0.93827000000E+00  0.93827000000E+00 0.  1.
     999902    2    1    2    0    0  0.75925498469E-02  0.22280601672E-01  0.25570580795E-04  0.10203912516E+01  0.10201197153E+01 0.  0.
     999903    2    3    3    0    0 -0.44107560624E-01 -0.93311508942E-01 -0.73367996023E-01  0.12830322167E+00  0.20647984061E-01 0.  0.
         14    1    1    2    0    0 -0.75925498469E-02 -0.22280601672E-01 -0.25570580795E-04  0.23538748435E-01  0.00000000000E+00 0.  1.
     999901    1    3    3    0    0  0.51700110471E-01  0.11559211061E+00  0.73393566604E-01  0.89208802989E+00  0.88000000000E+00 0. -1.
        -11    1    4    4    0    0 -0.10943499857E-01 -0.33048486829E-01 -0.35743786830E-01  0.49898317494E-01  0.51100000000E-03 0.  1.
         11    1    4    4    0    0 -0.33164060768E-01 -0.60263022113E-01 -0.37624209193E-01  0.78404904179E-01  0.51100000000E-03 0. -1.
</event>
<event>
 8    1  0.1041149E+005  0.1043930E+01  0.7957747E-01            NaN
         13   -1    0    0    0    0  0.00000000000E+00  0.00000000000E+00  0.74505805969E-08  0.10566000000E+00  0.10566000000E+00 0. -1.
     999900   -1    0    0    0    0 -0.00000000000E+00 -0.00000000000E+00 -0.74505805969E-08  0.93827000000E+00  0.93827000000E+00 0. -1.
     999902    2    1    2    0    0  0.18452221645E-01 -0.13274299767E-01 -0.34340278633E-02  0.10209412187E+01  0.10206823639E+01 0.  0.
     999903    2    3    3    0    0 -0.12284314953E+00 -0.19775486926E-01 -0.17266216134E-01  0.12953896564E+00  0.31634034340E-01 0.  0.
         14    1    1    2    0    0 -0.18452221645E-01  0.13274299767E-01  0.34340278633E-02  0.22988781293E-01  0.00000000000E+00 0.  1.
     999901    1    3    3    0    0  0.14129537118E+00  0.65011871592E-02  0.13832188270E-01  0.89140225307E+00  0.88000000000E+00 0. -1.
        -11    1    4    4    0    0 -0.78098542799E-01 -0.23779174243E-01 -0.66256861767E-03  0.81642707165E-01  0.51100000000E-03 0.  1.
         11    1    4    4    0    0 -0.44744606731E-01  0.40036873166E-02 -0.16603647516E-01  0.47896258471E-01  0.51100000000E-03 0. -1.
</event>
<event>
 8    1  0.1041149E+005  0.1043930E+01  0.7957747E-01            NaN
         13   -1    0    0    0    0  0.00000000000E+00  0.00000000000E+00  0.74505805969E-08  0.10566000000E+00  0.10566000000E+00 0. -1.
     999900   -1    0    0    0    0 -0.00000000000E+00 -0.00000000000E+00 -0.74505805969E-08  0.93827000000E+00  0.93827000000E+00 0.  1.
     999902    2    1    2    0    0  0.60035022353E-02  0.56442732054E-02  0.19904111620E-01  0.10223876343E+01  0.10221606534E+01 0.  0.
     999903    2    3    3    0    0 -0.66848736306E-01  0.72466574922E-01  0.87852520843E-01  0.13424932586E+00  0.24179703230E-01 0.  0.
         14    1    1    2    0    0 -0.60035022353E-02 -0.56442732054E-02 -0.19904111620E-01  0.21542365666E-01  0.00000000000E+00 0.  1.
     999901    1    3    3    0    0  0.72852238541E-01 -0.66822301717E-01 -0.67948409222E-01  0.88813830848E+00  0.88000000000E+00 0.  1.
        -11    1    4    4    0    0 -0.33585092277E-01  0.45448707000E-01  0.63303600576E-01  0.84859592022E-01  0.51100000000E-03 0. -1.
         11    1    4    4    0    0 -0.33263644029E-01  0.27017867922E-01  0.24548920266E-01  0.49389733836E-01  0.51100000000E-03 0.  1.
</event>
<event>
 8    1  0.1041149E+005  0.1043930E+01  0.7957747E-01            NaN
         13   -1    0    0    0    0  0.00000000000E+00  0.00000000000E+00  0.74505805969E-08  0.10566000000E+00  0.10566000000E+00 0.  1.
     999900   -1    0    0    0    0 -0.00000000000E+00 -0.00000000000E+00 -0.74505805969E-08  0.93827000000E+00  0.93827000000E+00 0.  1.
     999902    2    1    2    0    0  0.13017557206E-01 -0.21906010047E-01  0.52123274842E-02  0.10179204166E+01  0.10175880680E+01 0.  0.
     999903    2    3    3    0    0  0.90704779615E-01  0.72737983452E-01  0.50383286057E-01  0.12829509909E+00  0.20074502577E-01 0.  0.
         14    1    1    2    0    0 -0.13017557206E-01  0.21906010047E-01 -0.52123274842E-02  0.26009583418E-01  0.00000000000E+00 0.  1.
     999901    1    3    3    0    0 -0.77687222409E-01 -0.94643993499E-01 -0.45170958573E-01  0.88962531750E+00  0.88000000000E+00 0.  1.
        -11    1    4    4    0    0  0.64327336761E-01  0.56330809211E-01  0.45457011260E-01  0.96838872953E-01  0.51100000000E-03 0.  1.
         11    1    4    4    0    0  0.26377442855E-01  0.16407174242E-01  0.49262747967E-02  0.31456226133E-01  0.51100000000E-03 0. -1.
</event>
<event>
 8    1  0.1041149E+005  0.1043930E+01  0.7957747E-01            NaN
         13   -1    0    0    0    0  0.00000000000E+00  0.00000000000E+00  0.74505805969E-08  0.10566000000E+00  0.10566000000E+00 0. -1.
     999900   -1    0    0    0    0 -0.00000000000E+00 -0.00000000000E+00 -0.74505805969E-08  0.93827000000E+00  0.93827000000E+00 0. -1.
     999902    2    1    2    0    0 -0.10825074468E-01  0.16677444121E-01  0.11641247364E-01  0.10208900777E+01  0.10206300567E+01 0.  0.
     999903    2    3    3    0    0 -0.17359112946E-01 -0.11293171780E+00 -0.56535055736E-01  0.12876383281E+00  0.18138368861E-01 0.  0.
         14    1    1    2    0    0  0.10825074468E-01 -0.16677444121E-01 -0.11641247364E-01  0.23039922305E-01  0.00000000000E+00 0. -1.
     999901    1    3    3    0    0  0.65340384778E-02  0.12960916192E+00  0.68176303100E-01  0.89212624489E+00  0.88000000000E+00 0. -1.
        -11    1    4    4    0    0  0.30743861950E-02 -0.14042887163E-01 -0.39698176734E-02  0.14922302225E-01  0.51100000000E-03 0. -1.
         11    1    4    4    0    0 -0.20433499141E-01 -0.98888830636E-01 -0.52565238063E-01  0.11384153058E+00  0.51100000000E-03 0.  1.
</event>
<event>
 8    1  0.1041149E+005  0.1043930E+01  0.7957747E-01            NaN
         13   -1    0    0    0    0  0.00000000000E+00  0.00000000000E+00  0.74505805969E-08  0.10566000000E+00  0.10566000000E+00 0. -1.
     999900   -1    0    0    0    0 -0.00000000000E+00 -0.00000000000E+00 -0.74505805969E-08  0.93827000000E+00  0.93827000000E+00 0. -1.
     999902    2    1    2    0    0  0.38420281030E-02  0.20508847192E-02  0.23358617117E-01  0.10201688489E+01  0.10198920962E+01 0.  0.
     999903    2    3    3    0    0 -0.11222266884E+00  0.37631320135E-01  0.53480766650E-01  0.13132447267E+00  0.19387652344E-01 0.  0.
         14    1    1    2    0    0 -0.38420281030E-02 -0.20508847192E-02 -0.23358617117E-01  0.23761151102E-01  0.00000000000E+00 0.  1.
     999901    1    3    3    0    0  0.11606469694E+00 -0.35580435415E-01 -0.30122149533E-01  0.88884437623E+00  0.88000000000E+00 0. -1.
        -11    1    4    4    0    0 -0.99020560177E-01  0.27298771450E-01  0.49805246177E-01  0.11415392209E+00  0.51100000000E-03 0.  1.
         11    1    4    4    0    0 -0.13202108665E-01  0.10332548684E-01  0.36755204732E-02  0.17170550581E-01  0.51100000000E-03 0. -1.
</event>
<event>
 8    1  0.1041149E+005  0.1043930E+01  0.7957747E-01            NaN
         13   -1    0    0    0    0  0.00000000000E+00  0.00000000000E+00  0.74505805969E-08  0.10566000000E+00  0.10566000000E+00 0.  1.
     999900   -1    0    0    0    0 -0.00000000000E+00 -0.00000000000E+00 -0.74505805969E-08  0.93827000000E+00  0.93827000000E+00 0. -1.
     999902    2    1    2    0    0 -0.36473344980E-02  0.65949182102E-02 -0.21952201456E-01  0.10207201929E+01  0.10204562789E+01 0.  0.
     999903    2    3    3    0    0 -0.46446756359E-01 -0.10905719715E+00  0.47829305679E-01  0.12938599016E+00  0.20057879805E-01 0.  0.
         14    1    1    2    0    0  0.36473344980E-02 -0.65949182102E-02  0.21952201456E-01  0.23209807063E-01  0.00000000000E+00 0.  1.
     999901    1    3    3    0    0  0.42799421861E-01  0.11565211536E+00 -0.69781507135E-01  0.89133420278E+00  0.88000000000E+00 0.  1.
        -11    1    4    4    0    0 -0.12605423666E-01 -0.36601970855E-01  0.25493714797E-01  0.46355060041E-01  0.51100000000E-03 0.  1.
         11    1    4    4    0    0 -0.33841332692E-01 -0.72455226294E-01  0.22335590883E-01  0.83030930121E-01  0.51100000000E-03 0. -1.
</event>
<event>
 8    1  0.1041149E+005  0.1043930E+01  0.7957747E-01            NaN
         13   -1    0    0    0    0  0.00000000000E+00  0.00000000000E+00  0.74505805969E-08  0.10566000000E+00  0.10566000000E+00 0. -1.
     999900   -1    0    0    0    0 -0.00000000000E+00 -0.00000000000E+00 -0.74505805969E-08  0.93827000000E+00  0.93827000000E+00 0. -1.
     999902    2    1    2    0    0 -0.52663023987E-02  0.25414882944E-01  0.34483527878E-04  0.10179752046E+01  0.10176442727E+01 0.  0.
     999903    2    3    3    0    0  0.94806982337E-01 -0.72689695903E-01  0.36083735919E-01  0.12615755545E+00  0.18480719919E-01 0.  0.
         14    1    1    2    0    0  0.52663023987E-02 -0.25414882944E-01 -0.34483527878E-04  0.25954795417E-01  0.00000000000E+00 0. -1.
     999901    1    3    3    0    0 -0.10007328474E+00  0.98104578847E-01 -0.36049252391E-01  0.89181764913E+00  0.88000000000E+00 0. -1.
        -11    1    4    4    0    0  0.37892782826E-01 -0.33754713229E-01  0.24035348630E-01  0.56153386008E-01  0.51100000000E-03 0. -1.
         11    1    4    4    0    0  0.56914199511E-01 -0.38934982674E-01  0.12048387289E-01  0.70004169441E-01  0.51100000000E-03 0.  1.
</event>
<event>
 8    1  0.1041149E+005  0.1043930E+01  0.7957747E-01            NaN
         13   -1    0    0    0    0  0.00000000000E+00  0.00000000000E+00  0.74505805969E-08  0.10566000000E+00  0.10566000000E+00 0.  1.
     999900   -1    0    0    0    0 -0.00000000000E+00 -0.00000000000E+00 -0.74505805969E-08  0.93827000000E+00  0.93827000000E+00 0.  1.
     999902    2    1    2    0    0  0.67645417818E-02  0.62098965563E-03  0.22433264687E-01  0.10204908017E+01  0.10202215839E+01 0.  0.
     999903    2    3    3    0    0  0.28262325334E-01 -0.70270245860E-01  0.10777334429E+00  0.13326442066E+00  0.20190234992E-01 0.  0.
         14    1    1    2    0    0 -0.67645417818E-02 -0.62098965563E-03 -0.22433264687E-01  0.23439198327E-01  0.00000000000E+00 0. -1.
     999901    1    3    3    0    0 -0.21497783552E-01  0.70891235515E-01 -0.85340079603E-01  0.88722638101E+00  0.88000000000E+00 0.  1.
        -11    1    4    4    0    0  0.18263095778E-01 -0.61191068938E-01  0.79880568590E-01  0.10226951620E+00  0.51100000000E-03 0. -1.
         11    1    4    4    0    0  0.99992295556E-02 -0.90791769214E-02  0.27892775701E-01  0.30994904461E-01  0.51100000000E-03 0.  1.
</event>
<event>
 8    1  0.1041149E+005  0.1043930E+01  0.7957747E-01            NaN
         13   -1    0    0    0    0  0.00000000000E+00  0.00000000000E+00  0.74505805969E-08  0.10566000000E+00  0.10566000000E+00 0. -1.
     999900   -1    0    0    0    0 -0.00000000000E+00 -0.00000000000E+00 -0.74505805969E-08  0.93827000000E+00  0.93827000000E+00 0. -1.
     999902    2    1    2    0    0 -0.51618238292E-02 -0.17106753265E-02 -0.22468428713E-01  0.10208128824E+01  0.10205510961E+01 0.  0.
     999903    2    3    3    0    0 -0.96760882222E-01 -0.72112335902E-01 -0.51566519969E-01  0.13278502239E+00  0.20245959417E-01 0.  0.
         14    1    1    2    0    0  0.51618238292E-02  0.17106753265E-02  0.22468428713E-01  0.23117117557E-01  0.00000000000E+00 0. -1.
     999901    1    3    3    0    0  0.91599058393E-01  0.70401660575E-01  0.29098091256E-01  0.88802786005E+00  0.88000000000E+00 0.  1.
        -11    1    4    4    0    0 -0.39815067352E-01 -0.24416386440E-01 -0.29696651113E-01  0.55349360641E-01  0.51100000000E-03 0. -1.
         11    1    4    4    0    0 -0.56945814870E-01 -0.47695949462E-01 -0.21869868856E-01  0.77435661752E-01  0.51100000000E-03 0.  1.
</event>
<event>
 8    1  0.1041149E+005  0.1043930E+01  0.7957747E-01            NaN
         13   -1    0    0    0    0  0.00000000000E+00  0.00000000000E+00  0.74505805969E-08  0.10566000000E+00  0.10566000000E+00 0. -1.
     999900   -1    0    0    0    0 -0.00000000000E+00 -0.00000000000E+00 -0.74505805969E-08  0.93827000000E+00  0.93827000000E+00 0.  1.
     999902    2    1    2    0    0 -0.22908665913E-01  0.98825726510E-03 -0.57651254613E-02  0.10202863899E+01  0.10200124005E+01 0.  0.
     999903    2    3    3    0    0  0.95390971933E-01 -0.52618190829E-01 -0.65591636751E-01  0.12874409308E+00  0.20116340586E-01 0.  0.
         14    1    1    2    0    0  0.22908665913E-01 -0.98825726510E-03  0.57651254613E-02  0.23643610086E-01  0.00000000000E+00 0. -1.
     999901    1    3    3    0    0 -0.11829963785E+00  0.53606448094E-01  0.59826511290E-01  0.89154229683E+00  0.88000000000E+00 0.  1.
        -11    1    4    4    0    0  0.55519867167E-01 -0.27652526742E-01 -0.25999092035E-01  0.67255719408E-01  0.51100000000E-03 0.  1.
         11    1    4    4    0    0  0.39871104766E-01 -0.24965664087E-01 -0.39592544716E-01  0.61488373671E-01  0.51100000000E-03 0. -1.
</event>
<event>
 8    1  0.1041149E+005  0.1043930E+01  0.7957747E-01            NaN
         13   -1    0    0    0    0  0.00000000000E+00  0.00000000000E+00  0.74505805969E-08  0.10566000000E+00  0.10566000000E+00 0.  1.
     999900   -1    0    0    0    0 -0.00000000000E+00 -0.00000000000E+00 -0.74505805969E-08  0.93827000000E+00  0.93827000000E+00 0.  1.
     999902    2    1    2    0    0  0.17766502188E-01 -0.49526821155E-02  0.15340926737E-01  0.10199399668E+01  0.10196577927E+01 0.  0.
     999903    2    3    3    0    0 -0.11678494620E+00  0.63087618155E-02  0.51046604526E-01  0.12892604557E+00  0.18375126083E-01 0.  0.
         14    1    1    2    0    0 -0.17766502188E-01  0.49526821155E-02 -0.15340926737E-01  0.23990033207E-01  0.00000000000E+00 0. -1.
     999901    1    3    3    0    0  0.13455144839E+00 -0.11261443931E-01 -0.35705677789E-01  0.89101392122E+00  0.88000000000E+00 0.  1.
        -11    1    4    4    0    0 -0.96107794803E-01  0.12148911115E-01  0.40775240428E-01  0.10510559270E+00  0.51100000000E-03 0. -1.
         11    1    4    4    0    0 -0.20677151398E-01 -0.58401492997E-02  0.10271364098E-01  0.23820452876E-01  0.51100000000E-03 0.  1.
</event>
<event>
 8    1  0.1041149E+005  0.1043930E+01  0.7957747E-01            NaN
         13   -1    0    0    0    0  0.00000000000E+00  0.00000000000E+00  0.74505805969E-08  0.10566000000E+00  0.10566000000E+00 0.  1.
     999900   -1    0    0    0    0 -0.00000000000E+00 -0.00000000000E+00 -0.74505805969E-08  0.93827000000E+00  0.93827000000E+00 0.  1.
     999902    2    1    2    0    0 -0.48817033478E-02  0.21685333074E-01  0.55715142487E-02  0.10210143619E+01  0.10207571703E+01 0.  0.
     999903    2    3    3    0    0  0.74361764148E-01 -0.21207395070E-01 -0.10237716817E+00  0.12985094743E+00  0.20018951329E-01 0.  0.
         14    1    1    2    0    0  0.48817033478E-02 -0.21685333074E-01 -0.55715142487E-02  0.22915638092E-01  0.00000000000E+00 0. -1.
     999901    1    3    3    0    0 -0.79243467496E-01  0.42892728145E-01  0.10794868242E+00  0.89116341448E+00  0.88000000000E+00 0. -1.
        -11    1    4    4    0    0  0.14499661592E-01 -0.10772934396E-01 -0.33001191881E-01  0.37624939712E-01  0.51100000000E-03 0.  1.
         11    1    4    4    0    0  0.59862102556E-01 -0.10434460674E-01 -0.69375976293E-01  0.92226007718E-01  0.51100000000E-03 0. -1.
</event>
<event>
 8    1  0.1041149E+005  0.1043930E+01  0.7957747E-01            NaN
         13   -1    0    0    0    0  0.00000000000E+00  0.00000000000E+00  0.74505805969E-08  0.10566000000E+00  0.10566000000E+00 0.  1.
     999900   -1    0    0    0    0 -0.00000000000E+00 -0.00000000000E+00 -0.74505805969E-08  0.93827000000E+00  0.93827000000E+00 0. -1.
     999902    2    1    2    0    0 -0.83001746475E-02 -0.10835774601E-02  0.19667362012E-01  0.10225554318E+01  0.10223320101E+01 0.  0.
     999903    2    3    3    0    0  0.89664792355E-01  0.75905481874E-01 -0.52007781246E-01  0.13089306506E+00  0.25035335097E-01 0.  0.
         14    1    1    2    0    0  0.83001746475E-02  0.10835774601E-02 -0.19667362012E-01  0.21374568249E-01  0.00000000000E+00 0. -1.
     999901    1    3    3    0    0 -0.97964967003E-01 -0.76989059334E-01  0.71675143259E-01  0.89166236669E+00  0.88000000000E+00 0.  1.
        -11    1    4    4    0    0  0.25535808434E-01  0.13766007731E-01 -0.22926140841E-01  0.36979041849E-01  0.51100000000E-03 0.  1.
         11    1    4    4    0    0  0.64128983921E-01  0.62139474143E-01 -0.29081640405E-01  0.93914023208E-01  0.51100000000E-03 0. -1.
</event>
<event>
 8    1  0.1218739E+005  0.1043930E+01  0.7957747E-01            NaN
         13   -1    0    0    0    0  0.00000000000E+00  0.00000000000E+00  0.74505805969E-08  0.10566000000E+00  0.10566000000E+00 0. -1.
     999900   -1    0    0    0    0 -0.00000000000E+00 -0.00000000000E+00 -0.74505805969E-08  0.93827000000E+00  0.93827000000E+00 0. -1.
     999902    2    1    2    0    0 -0.23110764535E-01  0.10719518222E-01  0.76869576587E-02  0.10173197609E+01  0.10169716766E+01 0.  0.
     999903    2    3    3    0    0 -0.22067011481E-01  0.47912404473E-01 -0.11483178928E+00  0.12805307221E+00  0.20705022943E-01 0.  0.
         14    1    1    2    0    0  0.23110764535E-01 -0.10719518222E-01 -0.76869576587E-02  0.26610239126E-01  0.00000000000E+00 0.  1.
     999901    1    3    3    0    0 -0.10437530535E-02 -0.37192886251E-01  0.12251874694E+00  0.88926668866E+00  0.88000000000E+00 0.  1.
        -11    1    4    4    0    0 -0.12168394345E-01  0.10095146285E-01 -0.48975578180E-01  0.51466981440E-01  0.51100000000E-03 0.  1.
         11    1    4    4    0    0 -0.98986171363E-02  0.37817258188E-01 -0.65856211104E-01  0.76586090774E-01  0.51100000000E-03 0. -1.
</event>
<event>
 8    1  0.1041149E+005  0.1043930E+01  0.7957747E-01            NaN
         13   -1    0    0    0    0  0.00000000000E+00  0.00000000000E+00  0.74505805969E-08  0.10566000000E+00  0.10566000000E+00 0.  1.
     999900   -1    0    0    0    0 -0.00000000000E+00 -0.00000000000E+00 -0.74505805969E-08  0.93827000000E+00  0.93827000000E+00 0.  1.
     999902    2    1    2    0    0  0.11815845382E-01 -0.19960429812E-01 -0.28145378369E-02  0.10205643290E+01  0.10202968171E+01 0.  0.
     999903    2    3    3    0    0  0.80540688455E-01 -0.10215249919E+00  0.23593562833E-01  0.13367311346E+00  0.19746125412E-01 0.  0.
         14    1    1    2    0    0 -0.11815845382E-01  0.19960429812E-01  0.28145378369E-02  0.23365671050E-01  0.00000000000E+00 0. -1.
     999901    1    3    3    0    0 -0.68724843072E-01  0.82192069378E-01 -0.26408100670E-01  0.88689121549E+00  0.88000000000E+00 0. -1.
        -11    1    4    4    0    0  0.74997210749E-01 -0.84290727714E-01  0.19095511443E-01  0.11443080039E+00  0.51100000000E-03 0.  1.
         11    1    4    4    0    0  0.55434777060E-02 -0.17861771476E-01  0.44980513902E-02  0.19242313079E-01  0.51100000000E-03 0. -1.
</event>
<event>
 8    1  0.1041149E+005  0.1043930E+01  0.7957747E-01            NaN
         13   -1    0    0    0    0  0.00000000000E+00  0.00000000000E+00  0.74505805969E-08  0.10566000000E+00  0.10566000000E+00 0.  1.
     999900   -1    0    0    0    0 -0.00000000000E+00 -0.00000000000E+00 -0.74505805969E-08  0.93827000000E+00  0.93827000000E+00 0.  1.
     999902    2    1    2    0    0 -0.11336857376E-01  0.16121132705E-01  0.13752225373E-01  0.10198979598E+01  0.10196147848E+01 0.  0.
     999903    2    3    3    0    0 -0.12216623242E+00  0.46988747725E-01  0.64472767498E-02  0.13237932768E+00  0.18713317788E-01 0.  0.
         14    1    1    2    0    0  0.11336857376E-01 -0.16121132705E-01 -0.13752225373E-01  0.24032040229E-01  0.00000000000E+00 0. -1.
     999901    1    3    3    0    0  0.11082937505E+00 -0.30867615020E-01  0.73049486235E-02  0.88751863209E+00  0.88000000000E+00 0. -1.
        -11    1    4    4    0    0 -0.48737127892E-01  0.91427059649E-02  0.35959339653E-02  0.49720102269E-01  0.51100000000E-03 0.  1.
         11    1    4    4    0    0 -0.73429104532E-01  0.37846041760E-01  0.28513427845E-02  0.82659225413E-01  0.51100000000E-03 0. -1.
</event>
<event>
 8    1  0.1041149E+005  0.1043930E+01  0.7957747E-01            NaN
         13   -1    0    0    0    0  0.00000000000E+00  0.00000000000E+00  0.74505805969E-08  0.10566000000E+00  0.10566000000E+00 0.  1.
     999900   -1    0    0    0    0 -0.00000000000E+00 -0.00000000000E+00 -0.74505805969E-08  0.93827000000E+00  0.93827000000E+00 0.  1.
     999902    2    1    2    0    0  0.72417311923E-02  0.16276348106E-01  0.13973190191E-01  0.10212890587E+01  0.10210380645E+01 0.  0.
     999903    2    3    3    0    0 -0.33571015355E-01  0.12674604269E+00  0.15101131169E-01  0.13344306646E+00  0.19683379148E-01 0.  0.
         14    1    1    2    0    0 -0.72417311923E-02 -0.16276348106E-01 -0.13973190191E-01  0.22640941289E-01  0.00000000000E+00 0. -1.
     999901    1    3    3    0    0  0.40812746547E-01 -0.11046969458E+00 -0.11279409781E-02  0.88784599225E+00  0.88000000000E+00 0. -1.
        -11    1    4    4    0    0 -0.35765742446E-01  0.11568839294E+00  0.11695282431E-01  0.12165538765E+00  0.51100000000E-03 0.  1.
         11    1    4    4    0    0  0.21947270909E-02  0.11057649753E-01  0.34058487376E-02  0.11787678808E-01  0.51100000000E-03 0. -1.
</event>
<event>
 8    1  0.1041149E+005  0.1043930E+01  0.7957747E-01            NaN
         13   -1    0    0    0    0  0.00000000000E+00  0.00000000000E+00  0.74505805969E-08  0.10566000000E+00  0.10566000000E+00 0. -1.
     999900   -1    0    0    0    0 -0.00000000000E+00 -0.00000000000E+00 -0.74505805969E-08  0.93827000000E+00  0.93827000000E+00 0.  1.
     999902    2    1    2    0    0 -0.10800450350E-01  0.20204094990E-01 -0.45352102344E-02  0.10205757003E+01  0.10203084518E+01 0.  0.
     999903    2    3    3    0    0 -0.10309039302E-01  0.11543750838E+00 -0.63162882167E-01  0.13349799885E+00  0.20001784463E-01 0.  0.
         14    1    1    2    0    0  0.10800450350E-01 -0.20204094990E-01  0.45352102344E-02  0.23354299690E-01  0.00000000000E+00 0.  1.
     999901    1    3    3    0    0 -0.49141104833E-03 -0.95233413387E-01  0.58627671932E-01  0.88707770146E+00  0.88000000000E+00 0.  1.
        -11    1    4    4    0    0 -0.72505021738E-02  0.19206143777E-01 -0.54577143014E-02  0.21248376572E-01  0.51100000000E-03 0.  1.
         11    1    4    4    0    0 -0.30585371278E-02  0.96231364601E-01 -0.57705167865E-01  0.11224962228E+00  0.51100000000E-03 0. -1.
</event>
<event>
 8    1  0.1041149E+005  0.1043930E+01  0.7957747E-01            NaN
         13   -1    0    0    0    0  0.00000000000E+00  0.00000000000E+00  0.74505805969E-08  0.10566000000E+00  0.10566000000E+00 0.  1.
     999900   -1    0    0    0    0 -0.00000000000E+00 -0.00000000000E+00 -0.74505805969E-08  0.93827000000E+00  0.93827000000E+00 0. -1.
     999902    2    1    2    0    0  0.95143194747E-02 -0.21174227591E-01  0.33978399642E-02  0.10204690643E+01  0.10201993411E+01 0.  0.
     999903    2    3    3    0    0  0.46475402915E-02  0.20736430829E-02  0.12960159358E+00  0.13114823551E+00  0.19426450869E-01 0.  0.
         14    1    1    2    0    0 -0.95143194747E-02  0.21174227591E-01 -0.33978399642E-02  0.23460935735E-01  0.00000000000E+00 0. -1.
     999901    1    3    3    0    0  0.48667791831E-02 -0.23247870674E-01 -0.12620375361E+00  0.88932082875E+00  0.88000000000E+00 0. -1.
        -11    1    4    4    0    0 -0.14880571867E-02  0.81424035997E-02  0.99064836124E-01  0.99411347078E-01  0.51100000000E-03 0.  1.
         11    1    4    4    0    0  0.61355974783E-02 -0.60687605168E-02  0.30536757453E-01  0.31736888433E-01  0.51100000000E-03 0. -1.
</event>
<event>
 8    1  0.1041149E+005  0.1043930E+01  0.7957747E-01            NaN
         13   -1    0    0    0    0  0.00000000000E+00  0.00000000000E+00  0.74505805969E-08  0.10566000000E+00  0.10566000000E+00 0. -1.
     999900   -1    0    0    0    0 -0.00000000000E+00 -0.00000000000E+00 -0.74505805969E-08  0.93827000000E+00  0.93827000000E+00 0.  1.
     999902    2    1    2    0    0  0.37423487053E-02  0.30863322403E-03 -0.23581599084E-01  0.10200513015E+01  0.10197717712E+01 0.  0.
     999903    2    3    3    0    0  0.52035029043E-02  0.12900930155E+00 -0.24254126680E-03  0.13038242564E+00  0.18139508298E-01 0.  0.
         14    1    1    2    0    0 -0.37423487053E-02 -0.30863322403E-03  0.23581599084E-01  0.23878698534E-01  0.00000000000E+00 0. -1.
     999901    1    3    3    0    0 -0.14611541990E-02 -0.12870066832E+00 -0.23339057817E-01  0.88966887583E+00  0.88000000000E+00 0.  1.
        -11    1    4    4    0    0  0.72492348203E-03  0.92682300501E-01 -0.77672718657E-02  0.93011429263E-01  0.51100000000E-03 0.  1.
         11    1    4    4    0    0  0.44785794223E-02  0.36327001044E-01  0.75247305989E-02  0.37370996375E-01  0.51100000000E-03 0. -1.
</event>
<event>
 8    1  0.1041149E+005  0.1043930E+01  0.7957747E-01            NaN
         13   -1    0    0    0    0  0.00000000000E+00  0.00000000000E+00  0.74505805969E-08  0.10566000000E+00  0.10566000000E+00 0. -1.
     999900   -1    0    0    0    0 -0.00000000000E+00 -0.00000000000E+00 -0.74505805969E-08  0.93827000000E+00  0.93827000000E+00 0.  1.
     999902    2    1    2    0    0 -0.84851035369E-02  0.17199253538E-02 -0.22283215589E-01  0.10200240003E+01  0.10197438229E+01 0.  0.
     999903    2    3    3    0    0  0.56699780703E-01  0.51420988130E-01 -0.10606188362E+00  0.13225256011E+00  0.19561016023E-01 0.  0.
         14    1    1    2    0    0  0.84851035369E-02 -0.17199253538E-02  0.22283215589E-01  0.23905999712E-01  0.00000000000E+00 0. -1.
     999901    1    3    3    0    0 -0.65184884239E-01 -0.49701062777E-01  0.83778668028E-01  0.88777144018E+00  0.88000000000E+00 0. -1.
        -11    1    4    4    0    0  0.46209187894E-01  0.30146495564E-01 -0.71028385064E-01  0.89941052064E-01  0.51100000000E-03 0.  1.
         11    1    4    4    0    0  0.10490592808E-01  0.21274492567E-01 -0.35033498553E-01  0.42311508048E-01  0.51100000000E-03 0. -1.
</event>
<event>
 8    1  0.1041149E+005  0.1043930E+01  0.7957747E-01            NaN
         13   -1    0    0    0    0  0.00000000000E+00  0.00000000000E+00  0.74505805969E-08  0.10566000000E+00  0.10566000000E+00 0.  1.
     999900   -1    0    0    0    0 -0.00000000000E+00 -0.00000000000E+00 -0.74505805969E-08  0.93827000000E+00  0.93827000000E+00 0. -1.
     999902    2    1    2    0    0  0.17769589677E-01  0.15236848979E-01  0.31248305209E-02  0.10203146565E+01  0.10200413294E+01 0.  0.
     999903    2    3    3    0    0  0.64118842288E-02 -0.12518598770E+00  0.22428928638E-01  0.12889992766E+00  0.19987264359E-01 0.  0.
         14    1    1    2    0    0 -0.17769589677E-01 -0.15236848979E-01 -0.31248305209E-02  0.23615343527E-01  0.00000000000E+00 0. -1.
     999901    1    3    3    0    0  0.11357705448E-01  0.14042283668E+00 -0.19304098118E-01  0.89141472881E+00  0.88000000000E+00 0. -1.
        -11    1    4    4    0    0  0.11304908790E-01 -0.54971782717E-01  0.15181007669E-01  0.58141396377E-01  0.51100000000E-03 0. -1.
         11    1    4    4    0    0 -0.48930245607E-02 -0.70214204981E-01  0.72479209694E-02  0.70758531287E-01  0.51100000000E-03 0.  1.
</event>
<event>
 8    1  0.1041149E+005  0.1043930E+01  0.7957747E-01            NaN
         13   -1    0    0    0    0  0.00000000000E+00  0.00000000000E+00  0.74505805969E-08  0.10566000000E+00  0.10566000000E+00 0. -1.
     999900   -1    0    0    0    0 -0.00000000000E+00 -0.00000000000E+00 -0.74505805969E-08  0.93827000000E+00  0.93827000000E+00 0.  1.
     999902    2    1    2    0    0 -0.13600949046E-01 -0.15793440577E-01  0.96278249151E-02  0.10209710455E+01  0.10207128696E+01 0.  0.
     999903    2    3    3    0    0 -0.23105632216E-01 -0.92046162637E-01  0.92040355649E-01  0.13378637369E+00  0.20518294814E-01 0.  0.
         14    1    1    2    0    0  0.13600949046E-01  0.15793440577E-01 -0.96278249151E-02  0.22958954523E-01  0.00000000000E+00 0.  1.
     999901    1    3    3    0    0  0.95046831703E-02  0.76252722060E-01 -0.82412530733E-01  0.88718467178E+00  0.88000000000E+00 0.  1.
        -11    1    4    4    0    0 -0.20339575674E-01 -0.66418450697E-01  0.54730223677E-01  0.88435102964E-01  0.51100000000E-03 0.  1.
         11    1    4    4    0    0 -0.27660565418E-02 -0.25627711940E-01  0.37310131972E-01  0.45351270730E-01  0.51100000000E-03 0. -1.
</event>
<event>
 8    1  0.1041149E+005  0.1043930E+01  0.7957747E-01            NaN
         13   -1    0    0    0    0  0.00000000000E+00  0.00000000000E+00  0.74505805969E-08  0.10566000000E+00  0.10566000000E+00 0.  1.
     999900   -1    0    0    0    0 -0.00000000000E+00 -0.00000000000E+00 -0.74505805969E-08  0.93827000000E+00  0.93827000000E+00 0. -1.
     999902    2    1    2    0    0  0.97213240039E-02  0.20760587706E-01 -0.33616756804E-02  0.10207609041E+01  0.10204979257E+01 0.  0.
     999903    2    3    3    0    0 -0.44117962390E-01 -0.55780608207E-01  0.10573629683E+00  0.12909976271E+00  0.20705395593E-01 0.  0.
         14    1    1    2    0    0 -0.97213240039E-02 -0.20760587706E-01  0.33616756804E-02  0.23169095918E-01  0.00000000000E+00 0.  1.
     999901    1    3    3    0    0  0.53839286394E-01  0.76541195913E-01 -0.10909797251E+00  0.89166114137E+00  0.88000000000E+00 0. -1.
        -11    1    4    4    0    0 -0.32622382421E-01 -0.32262573248E-01  0.52169449647E-01  0.69476658417E-01  0.51100000000E-03 0. -1.
         11    1    4    4    0    0 -0.11495579969E-01 -0.23518034959E-01  0.53566847182E-01  0.59623104290E-01  0.51100000000E-03 0.  1.
</event>
<event>
 8    1  0.1041149E+005  0.1043930E+01  0.7957747E-01            NaN
         13   -1    0    0    0    0  0.00000000000E+00  0.00000000000E+00  0.74505805969E-08  0.10566000000E+00  0.10566000000E+00 0.  1.
     999900   -1    0    0    0    0 -0.00000000000E+00 -0.00000000000E+00 -0.74505805969E-08  0.93827000000E+00  0.93827000000E+00 0. -1.
     999902    2    1    2    0    0 -0.18448503526E-01 -0.15565760441E-01 -0.36835461632E-02  0.10195126149E+01  0.10192201741E+01 0.  0.
     999903    2    3    3    0    0  0.84700415358E-01 -0.96218947963E-01  0.55150008458E-02  0.12977712089E+00  0.19479208466E-01 0.  0.
         14    1    1    2    0    0  0.18448503526E-01  0.15565760441E-01  0.36835461632E-02  0.24417385052E-01  0.00000000000E+00 0. -1.
     999901    1    3    3    0    0 -0.10314891888E+00  0.80653187522E-01 -0.91985470090E-02  0.88973549406E+00  0.88000000000E+00 0. -1.
        -11    1    4    4    0    0  0.26294707840E-01 -0.44019900398E-01  0.39069345776E-02  0.51426535468E-01  0.51100000000E-03 0. -1.
         11    1    4    4    0    0  0.58405707518E-01 -0.52199047565E-01  0.16080662682E-02  0.78350585419E-01  0.51100000000E-03 0.  1.
</event>
<event>
 8    1  0.1041149E+005  0.1043930E+01  0.7957747E-01            NaN
         13   -1    0    0    0    0  0.00000000000E+00  0.00000000000E+00  0.74505805969E-08  0.10566000000E+00  0.10566000000E+00 0.  1.
     999900   -1    0    0    0    0 -0.00000000000E+00 -0.00000000000E+00 -0.74505805969E-08  0.93827000000E+00  0.93827000000E+00 0.  1.
     999902    2    1    2    0    0 -0.18812054232E-01  0.65369804145E-02  0.13607419402E-01  0.10198097313E+01  0.10195244483E+01 0.  0.
     999903    2    3    3    0    0  0.59424188646E-01  0.11177566759E+00 -0.18116107870E-01  0.12952748780E+00  0.20594724346E-01 0.  0.
         14    1    1    2    0    0  0.18812054232E-01 -0.65369804145E-02 -0.13607419402E-01  0.24120268658E-01  0.00000000000E+00 0. -1.
     999901    1    3    3    0    0 -0.78236242878E-01 -0.10523868718E+00  0.31723527271E-01  0.89028224354E+00  0.88000000000E+00 0. -1.
        -11    1    4    4    0    0  0.57589324189E-01  0.93586707135E-01 -0.17108382765E-01  0.11121132988E+00  0.51100000000E-03 0. -1.
         11    1    4    4    0    0  0.18348644570E-02  0.18188960455E-01 -0.10077251047E-02  0.18316157919E-01  0.51100000000E-03 0.  1.
</event>
<event>
 8    1  0.1041149E+005  0.1043930E+01  0.7957747E-01            NaN
         13   -1    0    0    0    0  0.00000000000E+00  0.00000000000E+00  0.74505805969E-08  0.10566000000E+00  0.10566000000E+00 0. -1.
     999900   -1    0    0    0    0 -0.00000000000E+00 -0.00000000000E+00 -0.74505805969E-08  0.93827000000E+00  0.93827000000E+00 0.  1.
     999902    2    1    2    0    0 -0.92244288466E-02  0.20239030575E-01 -0.46013214316E-02  0.10212169948E+01  0.10209643823E+01 0.  0.
     999903    2    3    3    0    0 -0.92357999943E-01  0.30315521107E-02 -0.93097440820E-01  0.13271328006E+00  0.20161615916E-01 0.  0.
         14    1    1    2    0    0  0.92244288466E-02 -0.20239030575E-01  0.46013214316E-02  0.22713005197E-01  0.00000000000E+00 0. -1.
     999901    1    3    3    0    0  0.83133571096E-01  0.17207478465E-01  0.88496119389E-01  0.88850371474E+00  0.88000000000E+00 0. -1.
        -11    1    4    4    0    0 -0.41999330807E-01  0.11397257348E-01 -0.41932582871E-01  0.60435452265E-01  0.51100000000E-03 0.  1.
         11    1    4    4    0    0 -0.50358669136E-01 -0.83657052375E-02 -0.51164857949E-01  0.72277827798E-01  0.51100000000E-03 0. -1.
</event>
<event>
 8    1  0.1041149E+005  0.1043930E+01  0.7957747E-01            NaN
         13   -1    0    0    0    0  0.00000000000E+00  0.00000000000E+00  0.74505805969E-08  0.10566000000E+00  0.10566000000E+00 0.  1.
     999900   -1    0    0    0    0 -0.00000000000E+00 -0.00000000000E+00 -0.74505805969E-08  0.93827000000E+00  0.93827000000E+00 0.  1.
     999902    2    1    2    0    0  0.93853589077E-02  0.17520406477E-01  0.11181548475E-01  0.10211248113E+01  0.10208701208E+01 0.  0.
     999903    2    3    3    0    0  0.74371310647E-01 -0.40184424299E-01 -0.96860288993E-01  0.13026788673E+00  0.21022058104E-01 0.  0.
         14    1    1    2    0    0 -0.93853589077E-02 -0.17520406477E-01 -0.11181548475E-01  0.22805188691E-01  0.00000000000E+00 0.  1.
     999901    1    3    3    0    0 -0.64985951739E-01  0.57704830776E-01  0.10804183747E+00  0.89085692457E+00  0.88000000000E+00 0. -1.
        -11    1    4    4    0    0  0.17450209688E-01 -0.17609577894E-01 -0.19154320231E-01  0.31332988307E-01  0.51100000000E-03 0. -1.
         11    1    4    4    0    0  0.56921100959E-01 -0.22574846405E-01 -0.77705968762E-01  0.98934898427E-01  0.51100000000E-03 0.  1.
</event>
<event>
 8    1  0.1041149E+005  0.1043930E+01  0.7957747E-01            NaN
         13   -1    0    0    0    0  0.00000000000E+00  0.00000000000E+00  0.74505805969E-08  0.10566000000E+00  0.10566000000E+00 0. -1.
     999900   -1    0    0    0    0 -0.00000000000E+00 -0.00000000000E+00 -0.74505805969E-08  0.93827000000E+00  0.93827000000E+00 0.  1.
     999902    2    1    2    0    0  0.13490428749E-01  0.11139452307E-01 -0.12906878305E-01  0.10221891037E+01  0.10219578744E+01 0.  0.
     999903    2    3    3    0    0  0.45389571516E-01  0.12055387142E+00  0.30073614856E-01  0.13379932817E+00  0.20109420485E-01 0.  0.
         14    1    1    2    0    0 -0.13490428749E-01 -0.11139452307E-01  0.12906878305E-01  0.21740896328E-01  0.00000000000E+00 0. -1.
     999901    1    3    3    0    0 -0.31899142767E-01 -0.10941441911E+00 -0.42980493161E-01  0.88838977550E+00  0.88000000000E+00 0.  1.
        -11    1    4    4    0    0  0.18352832163E-01  0.37190260520E-01  0.18443301986E-01  0.45391171335E-01  0.51100000000E-03 0.  1.
         11    1    4    4    0    0  0.27036739353E-01  0.83363610900E-01  0.11630312870E-01  0.88408156839E-01  0.51100000000E-03 0. -1.
</event>
<event>
 8    1  0.1041149E+005  0.1043930E+01  0.7957747E-01            NaN
         13   -1    0    0    0    0  0.00000000000E+00  0.00000000000E+00  0.74505805969E-08  0.10566000000E+00  0.10566000000E+00 0.  1.
     999900   -1    0    0    0    0 -0.00000000000E+00 -0.00000000000E+00 -0.74505805969E-08  0.93827000000E+00  0.93827000000E+00 0.  1.
     999902    2    1    2    0    0  0.19124112641E-01 -0.61021708276E-02 -0.12077149992E-01  0.10205029702E+01  0.10202340351E+01 0.  0.
     999903    2    3    3    0    0 -0.66876484408E-01  0.58152639756E-01 -0.93390274604E-01  0.13025771882E+00  0.19777164722E-01 0.  0.
         14    1    1    2    0    0 -0.19124112641E-01  0.61021708276E-02  0.12077149992E-01  0.23427029796E-01  0.00000000000E+00 0.  1.
     999901    1    3    3    0    0  0.86000597049E-01 -0.64254810583E-01  0.81313124612E-01  0.89024525138E+00  0.88000000000E+00 0. -1.
        -11    1    4    4    0    0 -0.24519929502E-01  0.18432621100E-01 -0.46064735016E-01  0.55346268136E-01  0.51100000000E-03 0. -1.
         11    1    4    4    0    0 -0.42356554906E-01  0.39720018655E-01 -0.47325539588E-01  0.74911450685E-01  0.51100000000E-03 0.  1.
</event>
<event>
 8    1  0.1041149E+005  0.1043930E+01  0.7957747E-01            NaN
         13   -1    0    0    0    0  0.00000000000E+00  0.00000000000E+00  0.74505805969E-08  0.10566000000E+00  0.10566000000E+00 0.  1.
     999900   -1    0    0    0    0 -0.00000000000E+00 -0.00000000000E+00 -0.74505805969E-08  0.93827000000E+00  0.93827000000E+00 0.  1.
     999902    2    1    2    0    0  0.82689401040E-02  0.55812843507E-02 -0.22402367781E-01  0.10194067011E+01  0.10191116868E+01 0.  0.
     999903    2    3    3    0    0 -0.93238291810E-01  0.14799641535E-01  0.82918308002E-01  0.12728499363E+00  0.20337535545E-01 0.  0.
         14    1    1    2    0    0 -0.82689401040E-02 -0.55812843507E-02  0.22402367781E-01  0.24523298874E-01  0.00000000000E+00 0.  1.
     999901    1    3    3    0    0  0.10150723191E+00 -0.92183571840E-02 -0.10532067578E+00  0.89212170750E+00  0.88000000000E+00 0.  1.
        -11    1    4    4    0    0 -0.74753425596E-01  0.35719667344E-02  0.66661918470E-01  0.10022427889E+00  0.51100000000E-03 0. -1.
         11    1    4    4    0    0 -0.18484866214E-01  0.11227674800E-01  0.16256389532E-01  0.27060714735E-01  0.51100000000E-03 0.  1.
</event>
<event>
 8    1  0.1041149E+005  0.1043930E+01  0.7957747E-01            NaN
         13   -1    0    0    0    0  0.00000000000E+00  0.00000000000E+00  0.74505805969E-08  0.10566000000E+00  0.10566000000E+00 0.  1.
     999900   -1    0    0    0    0 -0.00000000000E+00 -0.00000000000E+00 -0.74505805969E-08  0.93827000000E+00  0.93827000000E+00 0. -1.
     999902    2    1    2    0    0 -0.79089674326E-02 -0.15444109319E-02 -0.22323440595E-01  0.10201966275E+01  0.10199205291E+01 0.  0.
     999903    2    3    3    0    0 -0.11785035943E-01  0.69984020331E-01 -0.11050442564E+00  0.13289328222E+00  0.20316156161E-01 0.  0.
         14    1    1    2    0    0  0.79089674326E-02  0.15444109319E-02  0.22323440595E-01  0.23733372515E-01  0.00000000000E+00 0.  1.
     999901    1    3    3    0    0  0.38760685107E-02 -0.71528431263E-01  0.88180985043E-01  0.88730334526E+00  0.88000000000E+00 0.  1.
        -11    1    4    4    0    0 -0.92801535326E-02  0.52808035621E-01 -0.65458509760E-01  0.84616118422E-01  0.51100000000E-03 0.  1.
         11    1    4    4    0    0 -0.25048824107E-02  0.17175984710E-01 -0.45045915877E-01  0.48277163803E-01  0.51100000000E-03 0. -1.
</event>
<event>
 8    1  0.1041149E+005  0.1043930E+01  0.7957747E-01            NaN
         13   -1    0    0    0    0  0.00000000000E+00  0.00000000000E+00  0.74505805969E-08  0.10566000000E+00  0.10566000000E+00 0.  1.
     999900   -1    0    0    0    0 -0.00000000000E+00 -0.00000000000E+00 -0.74505805969E-08  0.93827000000E+00  0.93827000000E+00 0.  1.
     999902    2    1    2    0    0  0.12296431180E-01  0.23964167377E-01  0.14256781499E-01  0.10134547747E+01  0.10129964664E+01 0.  0.
     999903    2    3    3    0    0  0.95924734500E-01  0.38735406675E-01 -0.68203469670E-01  0.12552934110E+00  0.20097656148E-01 0.  0.
         14    1    1    2    0    0 -0.12296431180E-01 -0.23964167377E-01 -0.14256781499E-01  0.30475225291E-01  0.00000000000E+00 0. -1.
     999901    1    3    3    0    0 -0.83628303321E-01 -0.14771239298E-01  0.82460251169E-01  0.88792543361E+00  0.88000000000E+00 0. -1.
        -11    1    4    4    0    0  0.35746391009E-01  0.88836437559E-02 -0.14751924669E-01  0.39681280209E-01  0.51100000000E-03 0.  1.
         11    1    4    4    0    0  0.60178343491E-01  0.29851762919E-01 -0.53451545001E-01  0.85848060891E-01  0.51100000000E-03 0. -1.
</event>
<event>
 8    1  0.1041149E+005  0.1043930E+01  0.7957747E-01            NaN
         13   -1    0    0    0    0  0.00000000000E+00  0.00000000000E+00  0.74505805969E-08  0.10566000000E+00  0.10566000000E+00 0.  1.
     999900   -1    0    0    0    0 -0.00000000000E+00 -0.00000000000E+00 -0.74505805969E-08  0.93827000000E+00  0.93827000000E+00 0. -1.
     999902    2    1    2    0    0  0.15613633771E-01 -0.16555580892E-01 -0.54555798868E-02  0.10205283725E+01  0.10202600271E+01 0.  0.
     999903    2    3    3    0    0 -0.10893909197E-01 -0.47133391744E-02  0.12791953176E+00  0.13000503819E+00  0.19925122948E-01 0.  0.
         14    1    1    2    0    0 -0.15613633771E-01  0.16555580892E-01  0.54555798868E-02  0.23401627510E-01  0.00000000000E+00 0.  1.
     999901    1    3    3    0    0  0.26507542968E-01 -0.11842241718E-01 -0.13337511165E+00  0.89052333430E+00  0.88000000000E+00 0. -1.
        -11    1    4    4    0    0 -0.60636992412E-02  0.64237366921E-02  0.28398449877E-01  0.29745015011E-01  0.51100000000E-03 0. -1.
         11    1    4    4    0    0 -0.48302099556E-02 -0.11137075866E-01  0.99521081888E-01  0.10026002318E+00  0.51100000000E-03 0.  1.
</event>
<event>
 8    1  0.1041149E+005  0.1043930E+01  0.7957747E-01            NaN
         13   -1    0    0    0    0  0.00000000000E+00  0.00000000000E+00  0.74505805969E-08  0.10566000000E+00  0.10566000000E+00 0.  1.
     999900   -1    0    0    0    0 -0.00000000000E+00 -0.00000000000E+00 -0.74505805969E-08  0.93827000000E+00  0.93827000000E+00 0.  1.
     999902    2    1    2    0    0  0.28314649413E-01 -0.25556246247E-02  0.15899338243E-01  0.10113563980E+01  0.10108316993E+01 0.  0.
     999903    2    3    3    0    0 -0.47339308357E-01  0.67050505396E-01  0.88583503077E-01  0.12239547511E+00  0.19920715867E-01 0.  0.
         14    1    1    2    0    0 -0.28314649413E-01  0.25556246247E-02 -0.15899338243E-01  0.32573601968E-01  0.00000000000E+00 0. -1.
     999901    1    3    3    0    0  0.75653957769E-01 -0.69606130021E-01 -0.72684164834E-01  0.88896092292E+00  0.88000000000E+00 0. -1.
        -11    1    4    4    0    0 -0.28406783901E-01  0.28982104549E-01  0.54212673164E-01  0.67721361536E-01  0.51100000000E-03 0.  1.
         11    1    4    4    0    0 -0.18932524456E-01  0.38068400847E-01  0.34370829913E-01  0.54674113575E-01  0.51100000000E-03 0. -1.
</event>
<event>
 8    1  0.1041149E+005  0.1043930E+01  0.7957747E-01            NaN
         13   -1    0    0    0    0  0.00000000000E+00  0.00000000000E+00  0.74505805969E-08  0.10566000000E+00  0.10566000000E+00 0.  1.
     999900   -1    0    0    0    0 -0.00000000000E+00 -0.00000000000E+00 -0.74505805969E-08  0.93827000000E+00  0.93827000000E+00 0. -1.
     999902    2    1    2    0    0  0.18603114067E-01 -0.25211765886E-02  0.14016457348E-01  0.10205015288E+01  0.10202325603E+01 0.  0.
     999903    2    3    3    0    0  0.97915386544E-01  0.52587424715E-01  0.71060947424E-01  0.13338176897E+00  0.19702230439E-01 0.  0.
         14    1    1    2    0    0 -0.18603114067E-01  0.25211765886E-02 -0.14016457348E-01  0.23428471161E-01  0.00000000000E+00 0. -1.
     999901    1    3    3    0    0 -0.79312272477E-01 -0.55108601304E-01 -0.57044490076E-01  0.88711975987E+00  0.88000000000E+00 0. -1.
        -11    1    4    4    0    0  0.28893528130E-01  0.23456608700E-01  0.30914259799E-01  0.48383892354E-01  0.51100000000E-03 0.  1.
         11    1    4    4    0    0  0.69021858414E-01  0.29130816016E-01  0.40146687625E-01  0.84997876614E-01  0.51100000000E-03 0. -1.
</event>
<event>
 8    1  0.1041149E+005  0.1043930E+01  0.7957747E-01            NaN
         13   -1    0    0    0    0  0.00000000000E+00  0.00000000000E+00  0.74505805969E-08  0.10566000000E+00  0.10566000000E+00 0. -1.
     999900   -1    0    0    0    0 -0.00000000000E+00 -0.00000000000E+00 -0.74505805969E-08  0.93827000000E+00  0.93827000000E+00 0. -1.
     999902    2    1    2    0    0  0.98242353806E-02 -0.20253830202E-01 -0.66753623970E-02  0.10204503556E+01  0.10201801971E+01 0.  0.
     999903    2    3    3    0    0  0.52679381388E-01  0.25943727635E-01 -0.11599302958E+00  0.13145028233E+00  0.19406173912E-01 0.  0.
         14    1    1    2    0    0 -0.98242353806E-02  0.20253830202E-01  0.66753623970E-02  0.23479644414E-01  0.00000000000E+00 0. -1.
     999901    1    3    3    0    0 -0.42855146007E-01 -0.46197557837E-01  0.10931766719E+00  0.88900007326E+00  0.88000000000E+00 0.  1.
        -11    1    4    4    0    0  0.26690218906E-01  0.76170005875E-02 -0.36702504644E-01  0.46018707623E-01  0.51100000000E-03 0.  1.
         11    1    4    4    0    0  0.25989162482E-01  0.18326727047E-01 -0.79290524940E-01  0.85431574707E-01  0.51100000000E-03 0. -1.
</event>
<event>
 8    1  0.1041149E+005  0.1043930E+01  0.7957747E-01            NaN
         13   -1    0    0    0    0  0.00000000000E+00  0.00000000000E+00  0.74505805969E-08  0.10566000000E+00  0.10566000000E+00 0.  1.
     999900   -1    0    0    0    0 -0.00000000000E+00 -0.00000000000E+00 -0.74505805969E-08  0.93827000000E+00  0.93827000000E+00 0. -1.
     999902    2    1    2    0    0  0.18561032789E-01 -0.22663724045E-02  0.13297762871E-01  0.10209848724E+01  0.10207270109E+01 0.  0.
     999903    2    3    3    0    0 -0.11716390435E+00  0.44307390864E-01  0.25102833545E-01  0.12928439935E+00  0.19843847820E-01 0.  0.
         14    1    1    2    0    0 -0.18561032789E-01  0.22663724045E-02 -0.13297762871E-01  0.22945127575E-01  0.00000000000E+00 0. -1.
     999901    1    3    3    0    0  0.13572493714E+00 -0.46573763269E-01 -0.11805070674E-01  0.89170047307E+00  0.88000000000E+00 0. -1.
        -11    1    4    4    0    0 -0.10490224625E+00  0.33883041995E-01  0.25605863213E-01  0.11317448102E+00  0.51100000000E-03 0.  1.
         11    1    4    4    0    0 -0.12261658098E-01  0.10424348869E-01 -0.50302966809E-03  0.16109918327E-01  0.51100000000E-03 0. -1.
</event>
<event>
 8    1  0.1041149E+005  0.1043930E+01  0.7957747E-01            NaN
         13   -1    0    0    0    0  0.00000000000E+00  0.00000000000E+00  0.74505805969E-08  0.10566000000E+00  0.10566000000E+00 0. -1.
     999900   -1    0    0    0    0 -0.00000000000E+00 -0.00000000000E+00 -0.74505805969E-08  0.93827000000E+00  0.93827000000E+00 0.  1.
     999902    2    1    2    0    0 -0.20141843315E-01 -0.54822539819E-02 -0.11928567345E-01  0.10198875442E+01  0.10196041208E+01 0.  0.
     999903    2    3    3    0    0  0.72808814632E-01  0.17995123161E-02  0.10287530069E+00  0.12754636673E+00  0.19503498160E-01 0.  0.
         14    1    1    2    0    0  0.20141843315E-01  0.54822539819E-02  0.11928567345E-01  0.24042455777E-01  0.00000000000E+00 0. -1.
     999901    1    3    3    0    0 -0.92950657947E-01 -0.72817662979E-02 -0.11480386804E+00  0.89234117749E+00  0.88000000000E+00 0.  1.
        -11    1    4    4    0    0  0.58553573662E-01  0.92653022327E-02  0.79925377786E-01  0.99512280394E-01  0.51100000000E-03 0. -1.
         11    1    4    4    0    0  0.14255240970E-01 -0.74657899166E-02  0.22949922908E-01  0.28034086336E-01  0.51100000000E-03 0.  1.
</event>
<event>
 8    1  0.1041149E+005  0.1043930E+01  0.7957747E-01            NaN
         13   -1    0    0    0    0  0.00000000000E+00  0.00000000000E+00  0.74505805969E-08  0.10566000000E+00  0.10566000000E+00 0.  1.
     999900   -1    0    0    0    0 -0.00000000000E+00 -0.00000000000E+00 -0.74505805969E-08  0.93827000000E+00  0.93827000000E+00 0. -1.
     999902    2    1    2    0    0  0.17406385825E-01 -0.14929775748E-01 -0.79901924753E-03  0.10209840003E+01  0.10207261190E+01 0.  0.
     999903    2    3    3    0    0 -0.70189589132E-02 -0.32894314780E-01 -0.12572972254E+00  0.13164323165E+00  0.19765514874E-01 0.  0.
         14    1    1    2    0    0 -0.17406385825E-01  0.14929775748E-01  0.79901924753E-03  0.22945999719E-01  0.00000000000E+00 0. -1.
     999901    1    3    3    0    0  0.24425344738E-01  0.17964539033E-01  0.12493070330E+00  0.88934076863E+00  0.88000000000E+00 0.  1.
        -11    1    4    4    0    0 -0.12881703948E-01 -0.29557321641E-01 -0.10424833357E+00  0.10912171980E+00  0.51100000000E-03 0. -1.
         11    1    4    4    0    0  0.58627450350E-02 -0.33369931396E-02 -0.21481388970E-01  0.22521511842E-01  0.51100000000E-03 0.  1.
</event>
<event>
 8    1  0.1041149E+005  0.1043930E+01  0.7957747E-01            NaN
         13   -1    0    0    0    0  0.00000000000E+00  0.00000000000E+00  0.74505805969E-08  0.10566000000E+00  0.10566000000E+00 0. -1.
     999900   -1    0    0    0    0 -0.00000000000E+00 -0.00000000000E+00 -0.74505805969E-08  0.93827000000E+00  0.93827000000E+00 0.  1.
     999902    2    1    2    0    0 -0.16989700496E-01 -0.96252518133E-02  0.15147047042E-01  0.10192170797E+01  0.10189174290E+01 0.  0.
     999903    2    3    3    0    0 -0.25620980171E-01  0.12114573812E+00  0.30884671008E-01  0.12937258565E+00  0.21229190354E-01 0.  0.
         14    1    1    2    0    0  0.16989700496E-01  0.96252518133E-02 -0.15147047042E-01  0.24712920295E-01  0.00000000000E+00 0.  1.
     999901    1    3    3    0    0  0.86312796756E-02 -0.13077098994E+00 -0.15737623966E-01  0.88984449406E+00  0.88000000000E+00 0.  1.
        -11    1    4    4    0    0 -0.10644253820E-01  0.81879266090E-01  0.12547741696E-01  0.83517790305E-01  0.51100000000E-03 0.  1.
         11    1    4    4    0    0 -0.14976726351E-01  0.39266472034E-01  0.18336929312E-01  0.45854795342E-01  0.51100000000E-03 0. -1.
</event>
<event>
 8    1  0.1041149E+005  0.1043930E+01  0.7957747E-01            NaN
         13   -1    0    0    0    0  0.00000000000E+00  0.00000000000E+00  0.74505805969E-08  0.10566000000E+00  0.10566000000E+00 0.  1.
     999900   -1    0    0    0    0 -0.00000000000E+00 -0.00000000000E+00 -0.74505805969E-08  0.93827000000E+00  0.93827000000E+00 0. -1.
     999902    2    1    2    0    0 -0.14230277649E-01  0.32171460813E-03 -0.19195446318E-01  0.10200329403E+01  0.10197529749E+01 0.  0.
     999903    2    3    3    0    0 -0.76157403817E-01 -0.24838004550E-01 -0.10448565207E+00  0.13338622396E+00  0.21395247790E-01 0.  0.
         14    1    1    2    0    0  0.14230277649E-01 -0.32171460813E-03  0.19195446318E-01  0.23897059685E-01  0.00000000000E+00 0. -1.
     999901    1    3    3    0    0  0.61927126169E-01  0.25159719158E-01  0.85290205751E-01  0.88664671635E+00  0.88000000000E+00 0.  1.
        -11    1    4    4    0    0 -0.46791693897E-01 -0.63742933024E-02 -0.49863039959E-01  0.68678075889E-01  0.51100000000E-03 0.  1.
         11    1    4    4    0    0 -0.29365709920E-01 -0.18463711248E-01 -0.54622612110E-01  0.64708148072E-01  0.51100000000E-03 0. -1.
</event>
<event>
 8    1  0.1041149E+005  0.1043930E+01  0.7957747E-01            NaN
         13   -1    0    0    0    0  0.00000000000E+00  0.00000000000E+00  0.74505805969E-08  0.10566000000E+00  0.10566000000E+00 0.  1.
     999900   -1    0    0    0    0 -0.00000000000E+00 -0.00000000000E+00 -0.74505805969E-08  0.93827000000E+00  0.93827000000E+00 0.  1.
     999902    2    1    2    0    0  0.12957323580E-01  0.26470521402E-02 -0.30212811625E-01  0.10109495042E+01  0.10104113949E+01 0.  0.
     999903    2    3    3    0    0  0.19619897952E-01 -0.10908565419E+00  0.44145121780E-01  0.12074857751E+00  0.18622750771E-01 0.  0.
         14    1    1    2    0    0 -0.12957323580E-01 -0.26470521402E-02  0.30212811625E-01  0.32980495837E-01  0.00000000000E+00 0.  1.
     999901    1    3    3    0    0 -0.66625743718E-02  0.11173270633E+00 -0.74357933405E-01  0.89020092666E+00  0.88000000000E+00 0.  1.
        -11    1    4    4    0    0  0.62782227540E-02 -0.50016933778E-01  0.29628637348E-01  0.58474156836E-01  0.51100000000E-03 0.  1.
         11    1    4    4    0    0  0.13341675198E-01 -0.59068720414E-01  0.14516484432E-01  0.62274420669E-01  0.51100000000E-03 0. -1.
</event>
<event>
 8    1  0.1041149E+005  0.1043930E+01  0.7957747E-01            NaN
         13   -1    0    0    0    0  0.00000000000E+00  0.00000000000E+00  0.74505805969E-08  0.10566000000E+00  0.10566000000E+00 0.  1.
     999900   -1    0    0    0    0 -0.00000000000E+00 -0.00000000000E+00 -0.74505805969E-08  0.93827000000E+00  0.93827000000E+00 0.  1.
     999902    2    1    2    0    0  0.11235133877E-01  0.14699502653E-01  0.14763032387E-01  0.10202603837E+01  0.10199857841E+01 0.  0.
     999903    2    3    3    0    0  0.24788932113E-01 -0.82258201927E-01  0.96739773834E-01  0.13104461230E+00  0.20813544462E-01 0.  0.
         14    1    1    2    0    0 -0.11235133877E-01 -0.14699502653E-01 -0.14763032387E-01  0.23669616320E-01  0.00000000000E+00 0. -1.
     999901    1    3    3    0    0 -0.13553798235E-01  0.96957704580E-01 -0.81976741447E-01  0.88921577138E+00  0.88000000000E+00 0.  1.
        -11    1    4    4    0    0  0.12645157719E-01 -0.28466206974E-01  0.49204826961E-01  0.58237454190E-01  0.51100000000E-03 0.  1.
         11    1    4    4    0    0  0.12143774394E-01 -0.53791994953E-01  0.47534946873E-01  0.72807158115E-01  0.51100000000E-03 0. -1.
</event>
<event>
 8    1  0.1041149E+005  0.1043930E+01  0.7957747E-01            NaN
         13   -1    0    0    0    0  0.00000000000E+00  0.00000000000E+00  0.74505805969E-08  0.10566000000E+00  0.10566000000E+00 0.  1.
     999900   -1    0    0    0    0 -0.00000000000E+00 -0.00000000000E+00 -0.74505805969E-08  0.93827000000E+00  0.93827000000E+00 0. -1.
     999902    2    1    2    0    0 -0.17543009997E-01 -0.16182927389E-01 -0.94797397578E-02  0.10182490770E+01  0.10179251805E+01 0.  0.
     999903    2    3    3    0    0  0.48121499950E-01 -0.85569866017E-01 -0.82977649619E-01  0.13003270819E+00  0.19629929607E-01 0.  0.
         14    1    1    2    0    0  0.17543009997E-01  0.16182927389E-01  0.94797397578E-02  0.25680922968E-01  0.00000000000E+00 0.  1.
     999901    1    3    3    0    0 -0.65664509947E-01  0.69386938628E-01  0.73497909861E-01  0.88821636884E+00  0.88000000000E+00 0.  1.
        -11    1    4    4    0    0  0.75845328118E-02 -0.25725534424E-01 -0.31038625705E-01  0.41024208293E-01  0.51100000000E-03 0. -1.
         11    1    4    4    0    0  0.40536967138E-01 -0.59844331592E-01 -0.51939023914E-01  0.89008499901E-01  0.51100000000E-03 0.  1.
</event>
<event>
 8    1  0.1041149E+005  0.1043930E+01  0.7957747E-01            NaN
         13   -1    0    0    0    0  0.00000000000E+00  0.00000000000E+00  0.74505805969E-08  0.10566000000E+00  0.10566000000E+00 0.  1.
     999900   -1    0    0    0    0 -0.00000000000E+00 -0.00000000000E+00 -0.74505805969E-08  0.93827000000E+00  0.93827000000E+00 0. -1.
     999902    2    1    2    0    0  0.95674965626E-02  0.19805030092E-01 -0.77831110461E-02  0.10205986257E+01  0.10203319077E+01 0.  0.
     999903    2    3    3    0    0 -0.12161269975E+00  0.28031111881E-01 -0.32455128564E-01  0.13049491224E+00  0.20004868822E-01 0.  0.
         14    1    1    2    0    0 -0.95674965626E-02 -0.19805030092E-01  0.77831110461E-02  0.23331374262E-01  0.00000000000E+00 0.  1.
     999901    1    3    3    0    0  0.13118019632E+00 -0.82260817893E-02  0.24672017518E-01  0.89010371349E+00  0.88000000000E+00 0.  1.
        -11    1    4    4    0    0 -0.69197689787E-01  0.25659929130E-01 -0.21760650311E-01  0.76945040501E-01  0.51100000000E-03 0. -1.
         11    1    4    4    0    0 -0.52415009968E-01  0.23711827516E-02 -0.10694478252E-01  0.53549871742E-01  0.51100000000E-03 0.  1.
</event>
<event>
 8    1  0.1041149E+005  0.1043930E+01  0.7957747E-01            NaN
         13   -1    0    0    0    0  0.00000000000E+00  0.00000000000E+00  0.74505805969E-08  0.10566000000E+00  0.10566000000E+00 0.  1.
     999900   -1    0    0    0    0 -0.00000000000E+00 -0.00000000000E+00 -0.74505805969E-08  0.93827000000E+00  0.93827000000E+00 0.  1.
     999902    2    1    2    0    0 -0.51329551976E-02  0.37369611363E-02  0.22643329070E-01  0.10204133578E+01  0.10201423373E+01 0.  0.
     999903    2    3    3    0    0  0.41522525653E-01  0.76076220970E-01  0.98823199783E-01  0.13293768205E+00  0.19866830608E-01 0.  0.
         14    1    1    2    0    0  0.51329551976E-02 -0.37369611363E-02 -0.22643329070E-01  0.23516642170E-01  0.00000000000E+00 0. -1.
     999901    1    3    3    0    0 -0.46655480851E-01 -0.72339259834E-01 -0.76179870713E-01  0.88747567578E+00  0.88000000000E+00 0.  1.
        -11    1    4    4    0    0  0.34710896161E-01  0.43617065014E-01  0.62427528288E-01  0.83694396957E-01  0.51100000000E-03 0. -1.
         11    1    4    4    0    0  0.68116294920E-02  0.32459155957E-01  0.36395671495E-01  0.49243285089E-01  0.51100000000E-03 0.  1.
</event>
<event>
 8    1  0.1041149E+005  0.1043930E+01  0.7957747E-01            NaN
         13   -1    0    0    0    0  0.00000000000E+00  0.00000000000E+00  0.74505805969E-08  0.10566000000E+00  0.10566000000E+00 0. -1.
     999900   -1    0    0    0    0 -0.00000000000E+00 -0.00000000000E+00 -0.74505805969E-08  0.93827000000E+00  0.93827000000E+00 0. -1.
     999902    2    1    2    0    0  0.25198154646E-01  0.19246565969E-03  0.19241290155E-02  0.10186577561E+01  0.10183442138E+01 0.  0.
     999903    2    3    3    0    0  0.11130278346E+00 -0.52595156059E-01 -0.42628838848E-01  0.13176119669E+00  0.19729039604E-01 0.  0.
         14    1    1    2    0    0 -0.25198154646E-01 -0.19246565969E-03 -0.19241290155E-02  0.25272243926E-01  0.00000000000E+00 0. -1.
     999901    1    3    3    0    0 -0.86104628815E-01  0.52787621719E-01  0.44552967863E-01  0.88689655939E+00  0.88000000000E+00 0.  1.
        -11    1    4    4    0    0  0.10703220446E-01 -0.10880686972E-01 -0.14900578507E-02  0.15343717617E-01  0.51100000000E-03 0.  1.
         11    1    4    4    0    0  0.10059956301E+00 -0.41714469086E-01 -0.41138780997E-01  0.11641747907E+00  0.51100000000E-03 0. -1.
</event>
<event>
 8    1  0.1041149E+005  0.1043930E+01  0.7957747E-01            NaN
         13   -1    0    0    0    0  0.00000000000E+00  0.00000000000E+00  0.74505805969E-08  0.10566000000E+00  0.10566000000E+00 0. -1.
     999900   -1    0    0    0    0 -0.00000000000E+00 -0.00000000000E+00 -0.74505805969E-08  0.93827000000E+00  0.93827000000E+00 0.  1.
     999902    2    1    2    0    0 -0.16963323808E-01 -0.11651966170E-02  0.14543755205E-01  0.10215551737E+01  0.10213101096E+01 0.  0.
     999903    2    3    3    0    0 -0.13023587973E-01 -0.10980939337E+00 -0.67817934536E-01  0.13104827817E+00  0.18618868120E-01 0.  0.
         14    1    1    2    0    0  0.16963323808E-01  0.11651966170E-02 -0.14543755205E-01  0.22374826328E-01  0.00000000000E+00 0.  1.
     999901    1    3    3    0    0 -0.39397358344E-02  0.10864419675E+00  0.82361689741E-01  0.89050689551E+00  0.88000000000E+00 0. -1.
        -11    1    4    4    0    0 -0.47028662571E-02 -0.82294770498E-01 -0.42510834048E-01  0.92746850808E-01  0.51100000000E-03 0.  1.
         11    1    4    4    0    0 -0.83207217161E-02 -0.27514622869E-01 -0.25307100489E-01  0.38301427358E-01  0.51100000000E-03 0. -1.
</event>
<event>
 8    1  0.1041149E+005  0.1043930E+01  0.7957747E-01            NaN
         13   -1    0    0    0    0  0.00000000000E+00  0.00000000000E+00  0.74505805969E-08  0.10566000000E+00  0.10566000000E+00 0. -1.
     999900   -1    0    0    0    0 -0.00000000000E+00 -0.00000000000E+00 -0.74505805969E-08  0.93827000000E+00  0.93827000000E+00 0. -1.
     999902    2    1    2    0    0 -0.23643266743E-01  0.58691118322E-02  0.35057410717E-02  0.10193181988E+01  0.10190210252E+01 0.  0.
     999903    2    3    3    0    0  0.85399353764E-01  0.39620748300E-01  0.84732860293E-01  0.12823609771E+00  0.20049584124E-01 0.  0.
         14    1    1    2    0    0  0.23643266743E-01 -0.58691118322E-02 -0.35057410717E-02  0.24611801162E-01  0.00000000000E+00 0.  1.
     999901    1    3    3    0    0 -0.10904262051E+00 -0.33751636468E-01 -0.81227119222E-01  0.89108210113E+00  0.88000000000E+00 0. -1.
        -11    1    4    4    0    0  0.41052005216E-01  0.14636829052E-01  0.51390084817E-01  0.67384759667E-01  0.51100000000E-03 0.  1.
         11    1    4    4    0    0  0.44347348549E-01  0.24983919248E-01  0.33342775477E-01  0.60851338045E-01  0.51100000000E-03 0. -1.
</event>
<event>
 8    1  0.1041149E+005  0.1043930E+01  0.7957747E-01            NaN
         13   -1    0    0    0    0  0.00000000000E+00  0.00000000000E+00  0.74505805969E-08  0.10566000000E+00  0.10566000000E+00 0. -1.
     999900   -1    0    0    0    0 -0.00000000000E+00 -0.00000000000E+00 -0.74505805969E-08  0.93827000000E+00  0.93827000000E+00 0.  1.
     999902    2    1    2    0    0 -0.19605430112E-01  0.12643165948E-01 -0.33848696020E-02  0.10203571368E+01  0.10200848037E+01 0.  0.
     999903    2    3    3    0    0  0.90473590981E-01  0.31924555652E-01 -0.84756778968E-01  0.12956504522E+00  0.19968511277E-01 0.  0.
         14    1    1    2    0    0  0.19605430112E-01 -0.12643165948E-01  0.33848696020E-02  0.23572863154E-01  0.00000000000E+00 0. -1.
     999901    1    3    3    0    0 -0.11007902109E+00 -0.19281389703E-01  0.81371909366E-01  0.89079209163E+00  0.88000000000E+00 0. -1.
        -11    1    4    4    0    0  0.22410611688E-01  0.37291247978E-02 -0.10750019945E-01  0.25138932710E-01  0.51100000000E-03 0. -1.
         11    1    4    4    0    0  0.68062979293E-01  0.28195430854E-01 -0.74006759023E-01  0.10442611251E+00  0.51100000000E-03 0.  1.
</event>
<event>
 8    1  0.1041149E+005  0.1043930E+01  0.7957747E-01            NaN
         13   -1    0    0    0    0  0.00000000000E+00  0.00000000000E+00  0.74505805969E-08  0.10566000000E+00  0.10566000000E+00 0.  1.
     999900   -1    0    0    0    0 -0.00000000000E+00 -0.00000000000E+00 -0.74505805969E-08  0.93827000000E+00  0.93827000000E+00 0.  1.
     999902    2    1    2    0    0  0.31614492611E-02 -0.63461180764E-03  0.23549216536E-01  0.10201610477E+01  0.10198841111E+01 0.  0.
     999903    2    3    3    0    0  0.25971521014E-01  0.47525163978E-01 -0.11395014352E+00  0.12789105640E+00  0.20936236144E-01 0.  0.
         14    1    1    2    0    0 -0.31614492611E-02  0.63461180764E-03 -0.23549216536E-01  0.23768952292E-01  0.00000000000E+00 0. -1.
     999901    1    3    3    0    0 -0.22810071753E-01 -0.48159775786E-01  0.13749936005E+00  0.89226999131E+00  0.88000000000E+00 0. -1.
        -11    1    4    4    0    0  0.18654152692E-01  0.46299039865E-01 -0.91357758694E-01  0.10410609828E+00  0.51100000000E-03 0. -1.
         11    1    4    4    0    0  0.73173683220E-02  0.12261241132E-02 -0.22592384824E-01  0.23784958116E-01  0.51100000000E-03 0.  1.
</event>
<event>
 8    1  0.1041149E+005  0.1043930E+01  0.7957747E-01            NaN
         13   -1    0    0    0    0  0.00000000000E+00  0.00000000000E+00  0.74505805969E-08  0.10566000000E+00  0.10566000000E+00 0.  1.
     999900   -1    0    0    0    0 -0.00000000000E+00 -0.00000000000E+00 -0.74505805969E-08  0.93827000000E+00  0.93827000000E+00 0. -1.
     999902    2    1    2    0    0  0.39803227188E-02  0.19418894683E-01  0.15922009155E-01  0.10185046816E+01  0.10181872812E+01 0.  0.
     999903    2    3    3    0    0  0.33461715627E-01  0.11621139810E+00 -0.45217173376E-01  0.13059931453E+00  0.19667555164E-01 0.  0.
         14    1    1    2    0    0 -0.39803227188E-02 -0.19418894683E-01 -0.15922009155E-01  0.25425318389E-01  0.00000000000E+00 0. -1.
     999901    1    3    3    0    0 -0.29481392908E-01 -0.96792503422E-01  0.61139182531E-01  0.88790536708E+00  0.88000000000E+00 0.  1.
        -11    1    4    4    0    0  0.13061399033E-01  0.52522321964E-01 -0.30478676046E-01  0.62116062848E-01  0.51100000000E-03 0. -1.
         11    1    4    4    0    0  0.20400316594E-01  0.63689076141E-01 -0.14738497330E-01  0.68483251685E-01  0.51100000000E-03 0.  1.
</event>
<event>
 8    1  0.1041149E+005  0.1043930E+01  0.7957747E-01            NaN
         13   -1    0    0    0    0  0.00000000000E+00  0.00000000000E+00  0.74505805969E-08  0.10566000000E+00  0.10566000000E+00 0. -1.
     999900   -1    0    0    0    0 -0.00000000000E+00 -0.00000000000E+00 -0.74505805969E-08  0.93827000000E+00  0.93827000000E+00 0.  1.
     999902    2    1    2    0    0  0.77592439131E-02 -0.22024912159E-01 -0.60645258605E-02  0.10198036431E+01  0.10195182144E+01 0.  0.
     999903    2    3    3    0    0  0.10682303902E+00 -0.28729538768E-01  0.67636958178E-01  0.13115832791E+00  0.19778796887E-01 0.  0.
         14    1    1    2    0    0 -0.77592439131E-02  0.22024912159E-01  0.60645258605E-02  0.24126356866E-01  0.00000000000E+00 0. -1.
     999901    1    3    3    0    0 -0.99063795104E-01  0.67046266094E-02 -0.73701484038E-01  0.88864531522E+00  0.88000000000E+00 0. -1.
        -11    1    4    4    0    0  0.46172495495E-01 -0.22602585173E-01  0.31270861536E-01  0.60173948674E-01  0.51100000000E-03 0.  1.
         11    1    4    4    0    0  0.60650543521E-01 -0.61269535955E-02  0.36366096641E-01  0.70984379237E-01  0.51100000000E-03 0. -1.
</event>
<event>
 8    1  0.1041149E+005  0.1043930E+01  0.7957747E-01            NaN
         13   -1    0    0    0    0  0.00000000000E+00  0.00000000000E+00  0.74505805969E-08  0.10566000000E+00  0.10566000000E+00 0. -1.
     999900   -1    0    0    0    0 -0.00000000000E+00 -0.00000000000E+00 -0.74505805969E-08  0.93827000000E+00  0.93827000000E+00 0.  1.
     999902    2    1    2    0    0  0.71028331181E-02 -0.22829198160E-01 -0.38247928624E-02  0.10197173676E+01  0.10194298692E+01 0.  0.
     999903    2    3    3    0    0  0.10208259271E+00  0.45451893151E-01 -0.63664442775E-01  0.12996220698E+00  0.18715866120E-01 0.  0.
         14    1    1    2    0    0 -0.71028331181E-02  0.22829198160E-01  0.38247928624E-02  0.24212632392E-01  0.00000000000E+00 0. -1.
     999901    1    3    3    0    0 -0.94979759589E-01 -0.68281091310E-01  0.59839649912E-01  0.88975516063E+00  0.88000000000E+00 0. -1.
        -11    1    4    4    0    0  0.37795650955E-01  0.24777026485E-01 -0.19189939537E-01  0.49101193193E-01  0.51100000000E-03 0. -1.
         11    1    4    4    0    0  0.64286941752E-01  0.20674866666E-01 -0.44474503238E-01  0.80861013787E-01  0.51100000000E-03 0.  1.
</event>
<event>
 8    1  0.1041149E+005  0.1043930E+01  0.7957747E-01            NaN
         13   -1    0    0    0    0  0.00000000000E+00  0.00000000000E+00  0.74505805969E-08  0.10566000000E+00  0.10566000000E+00 0. -1.
     999900   -1    0    0    0    0 -0.00000000000E+00 -0.00000000000E+00 -0.74505805969E-08  0.93827000000E+00  0.93827000000E+00 0.  1.
     999902    2    1    2    0    0 -0.15969703895E-01  0.13061871016E-01 -0.13614814266E-01  0.10192114425E+01  0.10189116534E+01 0.  0.
     999903    2    3    3    0    0  0.23754672731E-01  0.29829454341E-02  0.12392829158E+00  0.12758499786E+00  0.18615256725E-01 0.  0.
         14    1    1    2    0    0  0.15969703895E-01 -0.13061871016E-01  0.13614814266E-01  0.24718557491E-01  0.00000000000E+00 0. -1.
     999901    1    3    3    0    0 -0.39724376626E-01  0.10078925582E-01 -0.13754310585E+00  0.89162644465E+00  0.88000000000E+00 0.  1.
        -11    1    4    4    0    0  0.30802591363E-02 -0.61296048621E-02  0.43555304814E-01  0.44095189653E-01  0.51100000000E-03 0.  1.
         11    1    4    4    0    0  0.20674413595E-01  0.91125502962E-02  0.80372986769E-01  0.83489808202E-01  0.51100000000E-03 0. -1.
</event>
<event>
 8    1  0.1041149E+005  0.1043930E+01  0.7957747E-01            NaN
         13   -1    0    0    0    0  0.00000000000E+00  0.00000000000E+00  0.74505805969E-08  0.10566000000E+00  0.10566000000E+00 0. -1.
     999900   -1    0    0    0    0 -0.00000000000E+00 -0.00000000000E+00 -0.74505805969E-08  0.93827000000E+00  0.93827000000E+00 0.  1.
     999902    2    1    2    0    0 -0.19347185491E-01 -0.12133998479E-01  0.55779858566E-02  0.10204212478E+01  0.10201504112E+01 0.  0.
     999903    2    3    3    0    0 -0.53037752043E-02  0.12658221106E+00 -0.15089211749E-01  0.12920492317E+00  0.20372571543E-01 0.  0.
         14    1    1    2    0    0  0.19347185491E-01  0.12133998479E-01 -0.55779858566E-02  0.23508752236E-01  0.00000000000E+00 0.  1.
     999901    1    3    3    0    0 -0.14043410286E-01 -0.13871620954E+00  0.20667197606E-01  0.89121632459E+00  0.88000000000E+00 0.  1.
        -11    1    4    4    0    0  0.36017284067E-03  0.24859206147E-01 -0.11135266655E-01  0.27246378460E-01  0.51100000000E-03 0. -1.
         11    1    4    4    0    0 -0.56639480450E-02  0.10172300492E+00 -0.39539450947E-02  0.10195854471E+00  0.51100000000E-03 0.  1.
</event>
<event>
 8    1  0.1041149E+005  0.1043930E+01  0.7957747E-01            NaN
         13   -1    0    0    0    0  0.00000000000E+00  0.00000000000E+00  0.74505805969E-08  0.10566000000E+00  0.10566000000E+00 0. -1.
     999900   -1    0    0    0    0 -0.00000000000E+00 -0.00000000000E+00 -0.74505805969E-08  0.93827000000E+00  0.93827000000E+00 0. -1.
     999902    2    1    2    0    0 -0.54495172825E-02  0.49026023974E-02 -0.22320561775E-01  0.10204365918E+01  0.10201661128E+01 0.  0.
     999903    2    3    3    0    0 -0.62510627513E-01 -0.93255420461E-01  0.60804018257E-01  0.12925722518E+00  0.20153154308E-01 0.  0.
         14    1    1    2    0    0  0.54495172825E-02 -0.49026023974E-02  0.22320561775E-01  0.23493408157E-01  0.00000000000E+00 0. -1.
     999901    1    3    3    0    0  0.57061110231E-01  0.98158022859E-01 -0.83124580033E-01  0.89117936666E+00  0.88000000000E+00 0. -1.
        -11    1    4    4    0    0 -0.38753672066E-01 -0.73732280674E-01  0.45192431530E-01  0.94767680676E-01  0.51100000000E-03 0.  1.
         11    1    4    4    0    0 -0.23756955447E-01 -0.19523139787E-01  0.15611586727E-01  0.34489544509E-01  0.51100000000E-03 0. -1.
</event>
<event>
 8    1  0.1041149E+005  0.1043930E+01  0.7957747E-01            NaN
         13   -1    0    0    0    0  0.00000000000E+00  0.00000000000E+00  0.74505805969E-08  0.10566000000E+00  0.10566000000E+00 0.  1.
     999900   -1    0    0    0    0 -0.00000000000E+00 -0.00000000000E+00 -0.74505805969E-08  0.93827000000E+00  0.93827000000E+00 0.  1.
     999902    2    1    2    0    0  0.22038099089E-01  0.14887633242E-02  0.12169762892E-01  0.10187110120E+01  0.10183988063E+01 0.  0.
     999903    2    3    3    0    0 -0.31193939740E-01  0.53979338038E-01  0.11217168691E+00  0.12989759219E+00  0.20101400485E-01 0.  0.
         14    1    1    2    0    0 -0.22038099089E-01 -0.14887633242E-02 -0.12169762892E-01  0.25218988016E-01  0.00000000000E+00 0.  1.
     999901    1    3    3    0    0  0.53232038830E-01 -0.52490574714E-01 -0.10000192402E+00  0.88881341979E+00  0.88000000000E+00 0.  1.
        -11    1    4    4    0    0 -0.20626863057E-01  0.34392892947E-01  0.51528475217E-01  0.65297652669E-01  0.51100000000E-03 0.  1.
         11    1    4    4    0    0 -0.10567076683E-01  0.19586445091E-01  0.60643211695E-01  0.64599939525E-01  0.51100000000E-03 0. -1.
</event>
<event>
 8    1  0.1041149E+005  0.1043930E+01  0.7957747E-01            NaN
         13   -1    0    0    0    0  0.00000000000E+00  0.00000000000E+00  0.74505805969E-08  0.10566000000E+00  0.10566000000E+00 0.  1.
     999900   -1    0    0    0    0 -0.00000000000E+00 -0.00000000000E+00 -0.74505805969E-08  0.93827000000E+00  0.93827000000E+00 0. -1.
     999902    2    1    2    0    0  0.38913672709E-02 -0.13351346762E-02  0.23323615304E-01  0.10202463273E+01  0.10199713976E+01 0.  0.
     999903    2    3    3    0    0  0.29930064726E-01 -0.88795293551E-01 -0.86272676764E-01  0.12876517749E+00  0.18896646424E-01 0.  0.
         14    1    1    2    0    0 -0.38913672709E-02  0.13351346762E-02 -0.23323615304E-01  0.23683672745E-01  0.00000000000E+00 0. -1.
     999901    1    3    3    0    0 -0.26038697455E-01  0.87460158875E-01  0.10959629207E+00  0.89148114977E+00  0.88000000000E+00 0.  1.
        -11    1    4    4    0    0  0.27918493719E-01 -0.57651260777E-01 -0.62848210566E-01  0.89740006982E-01  0.51100000000E-03 0.  1.
         11    1    4    4    0    0  0.20115710063E-02 -0.31144032774E-01 -0.23424466198E-01  0.39025170506E-01  0.51100000000E-03 0. -1.
</event>
<event>
 7    1  0.1041149E+005  0.1043930E+01  0.7957747E-01            NaN
         13   -1    0    0    0    0  0.00000000000E+00  0.00000000000E+00  0.74505805969E-08  0.10566000000E+00  0.10566000000E+00 0.  1.
     999900   -1    0    0    0    0 -0.00000000000E+00 -0.00000000000E+00 -0.74505805969E-08  0.93827000000E+00  0.93827000000E+00 0. -1.
     999903    2    1    2    0    0  0.99607903235E-01 -0.50520865944E-01  0.43070590140E-02  0.11338148930E+00  0.19045185122E-01 0.  0.
         14    1    1    2    0    0  0.12202294595E-01  0.38956987941E-01  0.14151102607E-01  0.43206441740E-01  0.00000000000E+00 0. -1.
     999901    1    1    2    0    0 -0.11181019783E+00  0.11563878003E-01 -0.18458161621E-01  0.88734206896E+00  0.88000000000E+00 0.  1.
        -11    1    3    3    0    0  0.28570079865E-01 -0.21578823404E-01 -0.48248628592E-02  0.36130811029E-01  0.51100000000E-03 0.  1.
         11    1    3    3    0    0  0.71037823370E-01 -0.28942042540E-01  0.91319218732E-02  0.77250678273E-01  0.51100000000E-03 0. -1.
</event>
<event>
 8    1  0.1041149E+005  0.1043930E+01  0.7957747E-01            NaN
         13   -1    0    0    0    0  0.00000000000E+00  0.00000000000E+00  0.74505805969E-08  0.10566000000E+00  0.10566000000E+00 0. -1.
     999900   -1    0    0    0    0 -0.00000000000E+00 -0.00000000000E+00 -0.74505805969E-08  0.93827000000E+00  0.93827000000E+00 0.  1.
     999902    2    1    2    0    0  0.23634854486E-02 -0.11407643058E-01 -0.18508927417E-01  0.10220599113E+01  0.10218258959E+01 0.  0.
     999903    2    3    3    0    0 -0.31051818041E-01 -0.40668675354E-01 -0.12306299140E+00  0.13475819107E+00  0.19927710585E-01 0.  0.
         14    1    1    2    0    0 -0.23634854486E-02  0.11407643058E-01  0.18508927417E-01  0.21870088654E-01  0.00000000000E+00 0.  1.
     999901    1    3    3    0    0  0.33415303490E-01  0.29261032296E-01  0.10455406398E+00  0.88730172028E+00  0.88000000000E+00 0. -1.
        -11    1    4    4    0    0 -0.10559772078E-02  0.35146301847E-03 -0.18081878829E-01  0.18123302048E-01  0.51100000000E-03 0.  1.
         11    1    4    4    0    0 -0.29995840833E-01 -0.41020138372E-01 -0.10498111257E+00  0.11663488902E+00  0.51100000000E-03 0. -1.
</event>
<event>
 8    1  0.1041149E+005  0.1043930E+01  0.7957747E-01            NaN
         13   -1    0    0    0    0  0.00000000000E+00  0.00000000000E+00  0.74505805969E-08  0.10566000000E+00  0.10566000000E+00 0. -1.
     999900   -1    0    0    0    0 -0.00000000000E+00 -0.00000000000E+00 -0.74505805969E-08  0.93827000000E+00  0.93827000000E+00 0.  1.
     999902    2    1    2    0    0  0.73701051730E-02 -0.20670075909E-01 -0.91885989444E-02  0.10201392279E+01  0.10198617766E+01 0.  0.
     999903    2    3    3    0    0  0.12069727989E+00  0.38885005314E-01 -0.24815685803E-01  0.13073827100E+00  0.19919845174E-01 0.  0.
         14    1    1    2    0    0 -0.73701051730E-02  0.20670075909E-01  0.91885989444E-02  0.23790772138E-01  0.00000000000E+00 0.  1.
     999901    1    3    3    0    0 -0.11332717471E+00 -0.59555081223E-01  0.15627086859E-01  0.88940095686E+00  0.88000000000E+00 0.  1.
        -11    1    4    4    0    0  0.66684578016E-01  0.29999785524E-01 -0.19864013010E-01  0.75773743543E-01  0.51100000000E-03 0.  1.
         11    1    4    4    0    0  0.54012701869E-01  0.88852197897E-02 -0.49516727935E-02  0.54964527455E-01  0.51100000000E-03 0. -1.
</event>
<event>
 8    1  0.1041149E+005  0.1043930E+01  0.7957747E-01            NaN
         13   -1    0    0    0    0  0.00000000000E+00  0.00000000000E+00  0.74505805969E-08  0.10566000000E+00  0.10566000000E+00 0.  1.
     999900   -1    0    0    0    0 -0.00000000000E+00 -0.00000000000E+00 -0.74505805969E-08  0.93827000000E+00  0.93827000000E+00 0. -1.
     999902    2    1    2    0    0  0.16347989680E-01  0.86368326836E-03  0.23188018798E-01  0.10155453751E+01  0.10151486206E+01 0.  0.
     999903    2    3    3    0    0  0.57474425238E-01  0.11084282199E+00 -0.11997946952E-01  0.12704954120E+00  0.20203822558E-01 0.  0.
         14    1    1    2    0    0 -0.16347989680E-01 -0.86368326836E-03 -0.23188018798E-01  0.28384624908E-01  0.00000000000E+00 0. -1.
     999901    1    3    3    0    0 -0.41126435558E-01 -0.10997913872E+00  0.35185965750E-01  0.88849583389E+00  0.88000000000E+00 0. -1.
        -11    1    4    4    0    0  0.36409059823E-01  0.80324655077E-01 -0.16395876892E-01  0.89703710907E-01  0.51100000000E-03 0. -1.
         11    1    4    4    0    0  0.21065365414E-01  0.30518166910E-01  0.43979299407E-02  0.37345830294E-01  0.51100000000E-03 0.  1.
</event>
<event>
 8    1  0.1041149E+005  0.1043930E+01  0.7957747E-01            NaN
         13   -1    0    0    0    0  0.00000000000E+00  0.00000000000E+00  0.74505805969E-08  0.10566000000E+00  0.10566000000E+00 0.  1.
     999900   -1    0    0    0    0 -0.00000000000E+00 -0.00000000000E+00 -0.74505805969E-08  0.93827000000E+00  0.93827000000E+00 0.  1.
     999902    2    1    2    0    0 -0.20298700429E-01 -0.89559474632E-02  0.78825036489E-02  0.10203847224E+01  0.10201130337E+01 0.  0.
     999903    2    3    3    0    0  0.81036626112E-01 -0.98684546495E-01  0.11979844658E-01  0.13002700883E+00  0.21399342476E-01 0.  0.
         14    1    1    2    0    0  0.20298700429E-01  0.89559474632E-02 -0.78825036489E-02  0.23545277613E-01  0.00000000000E+00 0. -1.
     999901    1    3    3    0    0 -0.10133532654E+00  0.89728599032E-01 -0.40973410089E-02  0.89035771356E+00  0.88000000000E+00 0. -1.
        -11    1    4    4    0    0  0.62100911125E-01 -0.86857316592E-01  0.61780799836E-02  0.10695394524E+00  0.51100000000E-03 0.  1.
         11    1    4    4    0    0  0.18935714987E-01 -0.11827229902E-01  0.58017646742E-02  0.23073063593E-01  0.51100000000E-03 0. -1.
</event>
<event>
 8    1  0.1041149E+005  0.1043930E+01  0.7957747E-01            NaN
         13   -1    0    0    0    0  0.00000000000E+00  0.00000000000E+00  0.74505805969E-08  0.10566000000E+00  0.10566000000E+00 0.  1.
     999900   -1    0    0    0    0 -0.00000000000E+00 -0.00000000000E+00 -0.74505805969E-08  0.93827000000E+00  0.93827000000E+00 0.  1.
     999902    2    1    2    0    0  0.69448360414E-02  0.16606365405E-01  0.12662462537E-01  0.10219222723E+01  0.10216852698E+01 0.  0.
     999903    2    3    3    0    0  0.33645590846E-01 -0.93590513016E-01 -0.81101682441E-01  0.12970705323E+00  0.18847462744E-01 0.  0.
         14    1    1    2    0    0 -0.69448360414E-02 -0.16606365405E-01 -0.12662462537E-01  0.22007727668E-01  0.00000000000E+00 0. -1.
     999901    1    3    3    0    0 -0.26700754805E-01  0.11019687842E+00  0.93764144978E-01  0.89221521911E+00  0.88000000000E+00 0. -1.
        -11    1    4    4    0    0  0.19562559607E-01 -0.55450607808E-01 -0.59545431896E-01  0.83686218849E-01  0.51100000000E-03 0.  1.
         11    1    4    4    0    0  0.14083031239E-01 -0.38139905208E-01 -0.21556250545E-01  0.46020834377E-01  0.51100000000E-03 0. -1.
</event>
<event>
 8    1  0.1041149E+005  0.1043930E+01  0.7957747E-01            NaN
         13   -1    0    0    0    0  0.00000000000E+00  0.00000000000E+00  0.74505805969E-08  0.10566000000E+00  0.10566000000E+00 0. -1.
     999900   -1    0    0    0    0 -0.00000000000E+00 -0.00000000000E+00 -0.74505805969E-08  0.93827000000E+00  0.93827000000E+00 0.  1.
     999902    2    1    2    0    0  0.18429240737E-01  0.14913320632E-01 -0.93974275166E-03  0.10202039139E+01  0.10199279870E+01 0.  0.
     999903    2    3    3    0    0 -0.60705702627E-01 -0.36746729080E-01 -0.10578488962E+00  0.12895557316E+00  0.20089612977E-01 0.  0.
         14    1    1    2    0    0 -0.18429240737E-01 -0.14913320632E-01  0.93974275166E-03  0.23726086125E-01  0.00000000000E+00 0. -1.
     999901    1    3    3    0    0  0.79134943363E-01  0.51660049712E-01  0.10484514686E+00  0.89124834071E+00  0.88000000000E+00 0. -1.
        -11    1    4    4    0    0 -0.32509741221E-01 -0.30315208403E-01 -0.70292905352E-01  0.83169999390E-01  0.51100000000E-03 0. -1.
         11    1    4    4    0    0 -0.28195961406E-01 -0.64315206775E-02 -0.35491984265E-01  0.45785573774E-01  0.51100000000E-03 0.  1.
</event>
<event>
 8    1  0.1041149E+005  0.1043930E+01  0.7957747E-01            NaN
         13   -1    0    0    0    0  0.00000000000E+00  0.00000000000E+00  0.74505805969E-08  0.10566000000E+00  0.10566000000E+00 0.  1.
     999900   -1    0    0    0    0 -0.00000000000E+00 -0.00000000000E+00 -0.74505805969E-08  0.93827000000E+00  0.93827000000E+00 0.  1.
     999902    2    1    2    0    0  0.16852318506E-01  0.13384162573E-01  0.84708128507E-02  0.10208022868E+01  0.10205402577E+01 0.  0.
     999903    2    3    3    0    0  0.12730044172E-01  0.62971632202E-01 -0.11211990514E+00  0.13118549766E+00  0.22611527601E-01 0.  0.
         14    1    1    2    0    0 -0.16852318506E-01 -0.13384162573E-01 -0.84708128507E-02  0.23127713185E-01  0.00000000000E+00 0. -1.
     999901    1    3    3    0    0  0.41222743340E-02 -0.49587469630E-01  0.12059071799E+00  0.88961678916E+00  0.88000000000E+00 0. -1.
        -11    1    4    4    0    0  0.10001459479E-01  0.47467755370E-01 -0.10055301130E+00  0.11164401549E+00  0.51100000000E-03 0. -1.
         11    1    4    4    0    0  0.27285846932E-02  0.15503876833E-01 -0.11566893832E-01  0.19541482165E-01  0.51100000000E-03 0.  1.
</event>
<event>
 8    1  0.1041149E+005  0.1043930E+01  0.7957747E-01            NaN
         13   -1    0    0    0    0  0.00000000000E+00  0.00000000000E+00  0.74505805969E-08  0.10566000000E+00  0.10566000000E+00 0.  1.
     999900   -1    0    0    0    0 -0.00000000000E+00 -0.00000000000E+00 -0.74505805969E-08  0.93827000000E+00  0.93827000000E+00 0.  1.
     999902    2    1    2    0    0  0.24801705982E-02 -0.10552368067E-01 -0.21548425277E-01  0.10198086744E+01  0.10195233661E+01 0.  0.
     999903    2    3    3    0    0  0.67719636728E-01 -0.52600334604E-01 -0.99295594899E-01  0.13297788904E+00  0.21696990768E-01 0.  0.
         14    1    1    2    0    0 -0.24801705982E-02  0.10552368067E-01  0.21548425277E-01  0.24121325626E-01  0.00000000000E+00 0.  1.
     999901    1    3    3    0    0 -0.65239466130E-01  0.42047966537E-01  0.77747169622E-01  0.88683078533E+00  0.88000000000E+00 0. -1.
        -11    1    4    4    0    0  0.26786882470E-01 -0.23866651236E-01 -0.26278733673E-01  0.44474566643E-01  0.51100000000E-03 0.  1.
         11    1    4    4    0    0  0.40932754258E-01 -0.28733683368E-01 -0.73016861226E-01  0.88503322397E-01  0.51100000000E-03 0. -1.
</event>
<event>
 8    1  0.1041149E+005  0.1043930E+01  0.7957747E-01            NaN
         13   -1    0    0    0    0  0.00000000000E+00  0.00000000000E+00  0.74505805969E-08  0.10566000000E+00  0.10566000000E+00 0. -1.
     999900   -1    0    0    0    0 -0.00000000000E+00 -0.00000000000E+00 -0.74505805969E-08  0.93827000000E+00  0.93827000000E+00 0. -1.
     999902    2    1    2    0    0 -0.13242336207E-01  0.16125958168E-01  0.90065833732E-02  0.10212028238E+01  0.10209498924E+01 0.  0.
     999903    2    3    3    0    0  0.10346027470E-01 -0.11818511067E+00  0.48429280125E-01  0.12982746898E+00  0.20857033843E-01 0.  0.
         14    1    1    2    0    0  0.13242336207E-01 -0.16125958168E-01 -0.90065833732E-02  0.22727176224E-01  0.00000000000E+00 0. -1.
     999901    1    3    3    0    0 -0.23588363677E-01  0.13431106884E+00 -0.39422696752E-01  0.89137535479E+00  0.88000000000E+00 0. -1.
        -11    1    4    4    0    0  0.26488658420E-02 -0.33919539374E-01  0.24377149183E-01  0.41857593873E-01  0.51100000000E-03 0.  1.
         11    1    4    4    0    0  0.76971616282E-02 -0.84265571296E-01  0.24052130942E-01  0.87969875110E-01  0.51100000000E-03 0. -1.
</event>
<event>
 8    1  0.1041149E+005  0.1043930E+01  0.7957747E-01            NaN
         13   -1    0    0    0    0  0.00000000000E+00  0.00000000000E+00  0.74505805969E-08  0.10566000000E+00  0.10566000000E+00 0. -1.
     999900   -1    0    0    0    0 -0.00000000000E+00 -0.00000000000E+00 -0.74505805969E-08  0.93827000000E+00  0.93827000000E+00 0. -1.
     999902    2    1    2    0    0 -0.18180565145E-01  0.17211632721E-01 -0.59327095859E-02  0.10182012166E+01  0.10178760962E+01 0.  0.
     999903    2    3    3    0    0  0.33527413265E-01 -0.54570378266E-01  0.10732094492E+00  0.12654390445E+00  0.19838369681E-01 0.  0.
         14    1    1    2    0    0  0.18180565145E-01 -0.17211632721E-01  0.59327095859E-02  0.25728783355E-01  0.00000000000E+00 0.  1.
     999901    1    3    3    0    0 -0.51707978409E-01  0.71782010987E-01 -0.11325365450E+00  0.89165731219E+00  0.88000000000E+00 0. -1.
        -11    1    4    4    0    0  0.92174582622E-02 -0.29139460136E-01  0.62393811086E-01  0.69478906559E-01  0.51100000000E-03 0. -1.
         11    1    4    4    0    0  0.24309955002E-01 -0.25430918130E-01  0.44927133830E-01  0.57064997891E-01  0.51100000000E-03 0.  1.
</event>
<event>
 8    1  0.1041149E+005  0.1043930E+01  0.7957747E-01            NaN
         13   -1    0    0    0    0  0.00000000000E+00  0.00000000000E+00  0.74505805969E-08  0.10566000000E+00  0.10566000000E+00 0. -1.
     999900   -1    0    0    0    0 -0.00000000000E+00 -0.00000000000E+00 -0.74505805969E-08  0.93827000000E+00  0.93827000000E+00 0.  1.
     999902    2    1    2    0    0  0.54426905725E-02  0.18032188786E-01  0.13621297033E-01  0.10206851630E+01  0.10204204426E+01 0.  0.
     999903    2    3    3    0    0 -0.20762737596E-01  0.16233345105E-01 -0.12466946272E+00  0.12949814868E+00  0.23079922238E-01 0.  0.
         14    1    1    2    0    0 -0.54426905725E-02 -0.18032188786E-01 -0.13621297033E-01  0.23244836974E-01  0.00000000000E+00 0.  1.
     999901    1    3    3    0    0  0.26205428169E-01  0.17988436815E-02  0.13829075975E+00  0.89118701435E+00  0.88000000000E+00 0. -1.
        -11    1    4    4    0    0 -0.11332112518E-01  0.27728832973E-02 -0.93784104018E-01  0.94508332666E-01  0.51100000000E-03 0. -1.
         11    1    4    4    0    0 -0.94306250782E-02  0.13460461808E-01 -0.30885358704E-01  0.34989816015E-01  0.51100000000E-03 0.  1.
</event>
<event>
 8    1  0.1041149E+005  0.1043930E+01  0.7957747E-01            NaN
         13   -1    0    0    0    0  0.00000000000E+00  0.00000000000E+00  0.74505805969E-08  0.10566000000E+00  0.10566000000E+00 0. -1.
     999900   -1    0    0    0    0 -0.00000000000E+00 -0.00000000000E+00 -0.74505805969E-08  0.93827000000E+00  0.93827000000E+00 0.  1.
     999902    2    1    2    0    0 -0.19516961517E-03 -0.15167172515E-01  0.18227667107E-01  0.10202165215E+01  0.10199408913E+01 0.  0.
     999903    2    3    3    0    0  0.10910277667E+00  0.48188305402E-01 -0.44884412832E-01  0.12895724820E+00  0.19744181278E-01 0.  0.
         14    1    1    2    0    0  0.19516961517E-03  0.15167172515E-01 -0.18227667107E-01  0.23713478476E-01  0.00000000000E+00 0.  1.
     999901    1    3    3    0    0 -0.10929794629E+00 -0.63355477917E-01  0.63112079939E-01  0.89125927332E+00  0.88000000000E+00 0. -1.
        -11    1    4    4    0    0  0.95972882562E-01  0.34692188755E-01 -0.38351296030E-01  0.10902029708E+00  0.51100000000E-03 0.  1.
         11    1    4    4    0    0  0.13129894108E-01  0.13496116647E-01 -0.65331168014E-02  0.19936951120E-01  0.51100000000E-03 0. -1.
</event>
<event>
 8    1  0.1041149E+005  0.1043930E+01  0.7957747E-01            NaN
         13   -1    0    0    0    0  0.00000000000E+00  0.00000000000E+00  0.74505805969E-08  0.10566000000E+00  0.10566000000E+00 0. -1.
     999900   -1    0    0    0    0 -0.00000000000E+00 -0.00000000000E+00 -0.74505805969E-08  0.93827000000E+00  0.93827000000E+00 0. -1.
     999902    2    1    2    0    0  0.25259009263E-01  0.92933831960E-02 -0.10615403319E-01  0.10149978154E+01  0.10145853803E+01 0.  0.
     999903    2    3    3    0    0  0.60191847017E-01 -0.10654746838E+00  0.22866826735E-01  0.12608810916E+00  0.19997450915E-01 0.  0.
         14    1    1    2    0    0 -0.25259009263E-01 -0.92933831960E-02  0.10615403319E-01  0.28932184636E-01  0.00000000000E+00 0. -1.
     999901    1    3    3    0    0 -0.34932837754E-01  0.11584085157E+00 -0.33482230054E-01  0.88890970620E+00  0.88000000000E+00 0. -1.
        -11    1    4    4    0    0  0.20746360211E-01 -0.19920895480E-01  0.38815935653E-02  0.29027253200E-01  0.51100000000E-03 0. -1.
         11    1    4    4    0    0  0.39445486806E-01 -0.86626572896E-01  0.18985233170E-01  0.97060855965E-01  0.51100000000E-03 0.  1.
</event>
<event>
 8    1  0.1041149E+005  0.1043930E+01  0.7957747E-01            NaN
         13   -1    0    0    0    0  0.00000000000E+00  0.00000000000E+00  0.74505805969E-08  0.10566000000E+00  0.10566000000E+00 0.  1.
     999900   -1    0    0    0    0 -0.00000000000E+00 -0.00000000000E+00 -0.74505805969E-08  0.93827000000E+00  0.93827000000E+00 0.  1.
     999902    2    1    2    0    0  0.78945071703E-02  0.14894037236E-01  0.91942208584E-03  0.10270480296E+01  0.10269092726E+01 0.  0.
     999903    2    3    3    0    0  0.82627121299E-02 -0.60667343849E-01 -0.11953323178E+00  0.13563426497E+00  0.18964738717E-01 0.  0.
         14    1    1    2    0    0 -0.78945071703E-02 -0.14894037236E-01 -0.91942208584E-03  0.16881970431E-01  0.00000000000E+00 0. -1.
     999901    1    3    3    0    0 -0.36820495952E-03  0.75561381085E-01  0.12045265386E+00  0.89141376459E+00  0.88000000000E+00 0. -1.
        -11    1    4    4    0    0  0.30614993937E-02 -0.56804106746E-01 -0.10001358162E+00  0.11506110095E+00  0.51100000000E-03 0. -1.
         11    1    4    4    0    0  0.52012127361E-02 -0.38632371030E-02 -0.19519650153E-01  0.20573164024E-01  0.51100000000E-03 0.  1.
</event>
<event>
 8    1  0.1041149E+005  0.1043930E+01  0.7957747E-01            NaN
         13   -1    0    0    0    0  0.00000000000E+00  0.00000000000E+00  0.74505805969E-08  0.10566000000E+00  0.10566000000E+00 0. -1.
     999900   -1    0    0    0    0 -0.00000000000E+00 -0.00000000000E+00 -0.74505805969E-08  0.93827000000E+00  0.93827000000E+00 0.  1.
     999902    2    1    2    0    0 -0.21142821231E-01  0.63049885092E-02 -0.99992968169E-02  0.10197069179E+01  0.10194191683E+01 0.  0.
     999903    2    3    3    0    0  0.38336284153E-01 -0.10811899659E+00  0.53481467953E-01  0.12804531177E+00  0.19389335864E-01 0.  0.
         14    1    1    2    0    0  0.21142821231E-01 -0.63049885092E-02  0.99992968169E-02  0.24223082102E-01  0.00000000000E+00 0. -1.
     999901    1    3    3    0    0 -0.59479105384E-01  0.11442398510E+00 -0.63480764770E-01  0.89166160613E+00  0.88000000000E+00 0. -1.
        -11    1    4    4    0    0  0.25641611804E-01 -0.44364183752E-01  0.21090631354E-01  0.55414338467E-01  0.51100000000E-03 0. -1.
         11    1    4    4    0    0  0.12694672349E-01 -0.63754812841E-01  0.32390836599E-01  0.72630973304E-01  0.51100000000E-03 0.  1.
</event>
<event>
 8    1  0.1041149E+005  0.1043930E+01  0.7957747E-01            NaN
         13   -1    0    0    0    0  0.00000000000E+00  0.00000000000E+00  0.74505805969E-08  0.10566000000E+00  0.10566000000E+00 0.  1.
     999900   -1    0    0    0    0 -0.00000000000E+00 -0.00000000000E+00 -0.74505805969E-08  0.93827000000E+00  0.93827000000E+00 0. -1.
     999902    2    1    2    0    0  0.13543608663E-01 -0.45987446169E-02  0.18611491485E-01  0.10204573478E+01  0.10201873520E+01 0.  0.
     999903    2    3    3    0    0  0.49255449751E-02  0.11107880760E+00 -0.62517819046E-01  0.12914509488E+00  0.20179577373E-01 0.  0.
         14    1    1    2    0    0 -0.13543608663E-01  0.45987446169E-02 -0.18611491485E-01  0.23472652235E-01  0.00000000000E+00 0. -1.
     999901    1    3    3    0    0  0.86180636880E-02 -0.11567755222E+00  0.81129310531E-01  0.89131225288E+00  0.88000000000E+00 0. -1.
        -11    1    4    4    0    0  0.62525218847E-02  0.19803532089E-01 -0.18427357901E-01  0.27768733376E-01  0.51100000000E-03 0.  1.
         11    1    4    4    0    0 -0.13269769095E-02  0.91275275512E-01 -0.44090461145E-01  0.10137636151E+00  0.51100000000E-03 0. -1.
</event>
<event>
 8    1  0.1041149E+005  0.1043930E+01  0.7957747E-01            NaN
         13   -1    0    0    0    0  0.00000000000E+00  0.00000000000E+00  0.74505805969E-08  0.10566000000E+00  0.10566000000E+00 0. -1.
     999900   -1    0    0    0    0 -0.00000000000E+00 -0.00000000000E+00 -0.74505805969E-08  0.93827000000E+00  0.93827000000E+00 0.  1.
     999902    2    1    2    0    0  0.13851081365E-01 -0.35008986654E-02  0.13676230862E-01  0.10241525371E+01  0.10239615575E+01 0.  0.
     999903    2    3    3    0    0 -0.59950001778E-01 -0.11812779037E+00 -0.46913026368E-02  0.13346556044E+00  0.15584284842E-01 0.  0.
         14    1    1    2    0    0 -0.13851081365E-01  0.35008986654E-02 -0.13676230862E-01  0.19777462857E-01  0.00000000000E+00 0. -1.
     999901    1    3    3    0    0  0.73801083143E-01  0.11462689170E+00  0.18367533499E-01  0.89068697670E+00  0.88000000000E+00 0. -1.
        -11    1    4    4    0    0 -0.15791565895E-01 -0.40944931621E-01  0.42528962786E-02  0.44093187984E-01  0.51100000000E-03 0. -1.
         11    1    4    4    0    0 -0.44158435883E-01 -0.77182858747E-01 -0.89441989154E-02  0.89372372460E-01  0.51100000000E-03 0.  1.
</event>
<event>
 8    1  0.1041149E+005  0.1043930E+01  0.7957747E-01            NaN
         13   -1    0    0    0    0  0.00000000000E+00  0.00000000000E+00  0.74505805969E-08  0.10566000000E+00  0.10566000000E+00 0. -1.
     999900   -1    0    0    0    0 -0.00000000000E+00 -0.00000000000E+00 -0.74505805969E-08  0.93827000000E+00  0.93827000000E+00 0. -1.
     999902    2    1    2    0    0  0.57953616021E-02 -0.20961536399E-01 -0.11044332886E-01  0.10195384131E+01  0.10192465973E+01 0.  0.
     999903    2    3    3    0    0  0.11998250791E+00  0.98449482018E-02  0.44013892698E-01  0.12992099413E+00  0.21201810197E-01 0.  0.
         14    1    1    2    0    0 -0.57953616021E-02  0.20961536399E-01  0.11044332886E-01  0.24391586935E-01  0.00000000000E+00 0. -1.
     999901    1    3    3    0    0 -0.11418714630E+00 -0.30806484601E-01 -0.55058225584E-01  0.88961741894E+00  0.88000000000E+00 0. -1.
        -11    1    4    4    0    0  0.83993729525E-01  0.15340758443E-01  0.35861415757E-01  0.92609868428E-01  0.51100000000E-03 0. -1.
         11    1    4    4    0    0  0.35988778382E-01 -0.54958102408E-02  0.81524769406E-02  0.37311125698E-01  0.51100000000E-03 0.  1.
</event>
<event>
 8    1  0.1041149E+005  0.1043930E+01  0.7957747E-01            NaN
         13   -1    0    0    0    0  0.00000000000E+00  0.00000000000E+00  0.74505805969E-08  0.10566000000E+00  0.10566000000E+00 0. -1.
     999900   -1    0    0    0    0 -0.00000000000E+00 -0.00000000000E+00 -0.74505805969E-08  0.93827000000E+00  0.93827000000E+00 0.  1.
     999902    2    1    2    0    0  0.19028780129E-02 -0.95642853405E-02  0.22498833498E-01  0.10194087030E+01  0.10191137374E+01 0.  0.
     999903    2    3    3    0    0  0.93213309661E-01 -0.85770795617E-01 -0.22784706300E-01  0.13025425851E+00  0.20041919596E-01 0.  0.
         14    1    1    2    0    0 -0.19028780129E-02  0.95642853405E-02 -0.22498833498E-01  0.24521297021E-01  0.00000000000E+00 0.  1.
     999901    1    3    3    0    0 -0.91310431648E-01  0.76206510276E-01  0.45283539798E-01  0.88915444447E+00  0.88000000000E+00 0. -1.
        -11    1    4    4    0    0  0.68308578026E-01 -0.63179469896E-01 -0.25607311914E-01  0.96507527130E-01  0.51100000000E-03 0.  1.
         11    1    4    4    0    0  0.24904731635E-01 -0.22591325721E-01  0.28226056141E-02  0.33746731384E-01  0.51100000000E-03 0. -1.
</event>
<event>
 8    1  0.1041149E+005  0.1043930E+01  0.7957747E-01            NaN
         13   -1    0    0    0    0  0.00000000000E+00  0.00000000000E+00  0.74505805969E-08  0.10566000000E+00  0.10566000000E+00 0.  1.
     999900   -1    0    0    0    0 -0.00000000000E+00 -0.00000000000E+00 -0.74505805969E-08  0.93827000000E+00  0.93827000000E+00 0.  1.
     999902    2    1    2    0    0  0.78792153151E-02 -0.21428141353E-01 -0.71546996660E-02  0.10200043442E+01  0.10197237005E+01 0.  0.
     999903    2    3    3    0    0  0.10909640600E+00  0.44199452947E-01  0.51303635601E-01  0.12985307745E+00  0.19342731322E-01 0.  0.
         14    1    1    2    0    0 -0.78792153151E-02  0.21428141353E-01  0.71546996660E-02  0.23925655751E-01  0.00000000000E+00 0. -1.
     999901    1    3    3    0    0 -0.10121719068E+00 -0.65627594300E-01 -0.58458335266E-01  0.89015126680E+00  0.88000000000E+00 0.  1.
        -11    1    4    4    0    0  0.67154557472E-01  0.36519068495E-01  0.29281303990E-01  0.81859836533E-01  0.51100000000E-03 0. -1.
         11    1    4    4    0    0  0.41941848525E-01  0.76803844522E-02  0.22022331610E-01  0.47993240916E-01  0.51100000000E-03 0.  1.
</event>
<event>
 8    1  0.1041149E+005  0.1043930E+01  0.7957747E-01            NaN
         13   -1    0    0    0    0  0.00000000000E+00  0.00000000000E+00  0.74505805969E-08  0.10566000000E+00  0.10566000000E+00 0.  1.
     999900   -1    0    0    0    0 -0.00000000000E+00 -0.00000000000E+00 -0.74505805969E-08  0.93827000000E+00  0.93827000000E+00 0.  1.
     999902    2    1    2    0    0  0.17011903327E-01  0.71398485919E-02 -0.14080410824E-01  0.10207213753E+01  0.10204574884E+01 0.  0.
     999903    2    3    3    0    0 -0.19275786622E-03  0.45649870927E-01  0.11971869384E+00  0.12960902400E+00  0.19544451309E-01 0.  0.
         14    1    1    2    0    0 -0.17011903327E-01 -0.71398485919E-02  0.14080410824E-01  0.23208624726E-01  0.00000000000E+00 0.  1.
     999901    1    3    3    0    0  0.17204661193E-01 -0.38510022335E-01 -0.13379910466E+00  0.89111235127E+00  0.88000000000E+00 0.  1.
        -11    1    4    4    0    0 -0.41247172486E-02  0.17215973911E-01  0.25017976357E-01  0.30652297012E-01  0.51100000000E-03 0.  1.
         11    1    4    4    0    0  0.39319593824E-02  0.28433897017E-01  0.94700717479E-01  0.98956726988E-01  0.51100000000E-03 0. -1.
</event>
<event>
 8    1  0.1041149E+005  0.1043930E+01  0.7957747E-01            NaN
         13   -1    0    0    0    0  0.00000000000E+00  0.00000000000E+00  0.74505805969E-08  0.10566000000E+00  0.10566000000E+00 0.  1.
     999900   -1    0    0    0    0 -0.00000000000E+00 -0.00000000000E+00 -0.74505805969E-08  0.93827000000E+00  0.93827000000E+00 0. -1.
     999902    2    1    2    0    0  0.11107042451E-01  0.14552552622E-01 -0.15210769360E-01  0.10201285151E+01  0.10198508110E+01 0.  0.
     999903    2    3    3    0    0 -0.82611358570E-01 -0.82994484989E-01  0.46894215935E-01  0.12762888347E+00  0.19425326330E-01 0.  0.
         14    1    1    2    0    0 -0.11107042451E-01 -0.14552552622E-01  0.15210769360E-01  0.23801484919E-01  0.00000000000E+00 0.  1.
     999901    1    3    3    0    0  0.93718401021E-01  0.97547037610E-01 -0.62104985295E-01  0.89249963162E+00  0.88000000000E+00 0.  1.
        -11    1    4    4    0    0 -0.36494030115E-01 -0.24118250066E-01  0.14073317352E-01  0.45954581954E-01  0.51100000000E-03 0. -1.
         11    1    4    4    0    0 -0.46117328456E-01 -0.58876234923E-01  0.32820898584E-01  0.81674301512E-01  0.51100000000E-03 0.  1.
</event>
<event>
 8    1  0.1041149E+005  0.1043930E+01  0.7957747E-01            NaN
         13   -1    0    0    0    0  0.00000000000E+00  0.00000000000E+00  0.74505805969E-08  0.10566000000E+00  0.10566000000E+00 0.  1.
     999900   -1    0    0    0    0 -0.00000000000E+00 -0.00000000000E+00 -0.74505805969E-08  0.93827000000E+00  0.93827000000E+00 0.  1.
     999902    2    1    2    0    0  0.90143545292E-02  0.17841492234E-01 -0.11586021827E-01  0.10208255992E+01  0.10205641042E+01 0.  0.
     999903    2    3    3    0    0 -0.48719752320E-01 -0.10396974720E+00  0.53331181314E-01  0.12819720600E+00  0.20173897181E-01 0.  0.
         14    1    1    2    0    0 -0.90143545292E-02 -0.17841492234E-01  0.11586021827E-01  0.23104400760E-01  0.00000000000E+00 0. -1.
     999901    1    3    3    0    0  0.57734106849E-01  0.12181123944E+00 -0.64917203141E-01  0.89262839324E+00  0.88000000000E+00 0.  1.
        -11    1    4    4    0    0 -0.24319860901E-01 -0.62360929032E-01  0.40674540774E-01  0.78326371626E-01  0.51100000000E-03 0. -1.
         11    1    4    4    0    0 -0.24399891418E-01 -0.41608818170E-01  0.12656640540E-01  0.49870834378E-01  0.51100000000E-03 0.  1.
</event>
<event>
 8    1  0.1041149E+005  0.1043930E+01  0.7957747E-01            NaN
         13   -1    0    0    0    0  0.00000000000E+00  0.00000000000E+00  0.74505805969E-08  0.10566000000E+00  0.10566000000E+00 0.  1.
     999900   -1    0    0    0    0 -0.00000000000E+00 -0.00000000000E+00 -0.74505805969E-08  0.93827000000E+00  0.93827000000E+00 0. -1.
     999902    2    1    2    0    0  0.20048416719E-01  0.25122736388E-04  0.12694175868E-01  0.10202006565E+01  0.10199246529E+01 0.  0.
     999903    2    3    3    0    0 -0.11863368020E+00 -0.24063006535E-01  0.38483023409E-01  0.12864133334E+00  0.20363476911E-01 0.  0.
         14    1    1    2    0    0 -0.20048416719E-01 -0.25122736388E-04 -0.12694175868E-01  0.23729343545E-01  0.00000000000E+00 0. -1.
     999901    1    3    3    0    0  0.13868209692E+00  0.24088129271E-01 -0.25788847541E-01  0.89155932312E+00  0.88000000000E+00 0. -1.
        -11    1    4    4    0    0 -0.39040325439E-01 -0.15827667538E-01  0.19375942030E-01  0.46371869928E-01  0.51100000000E-03 0. -1.
         11    1    4    4    0    0 -0.79593354759E-01 -0.82353389967E-02  0.19107081379E-01  0.82269463412E-01  0.51100000000E-03 0.  1.
</event>
<event>
 8    1  0.1041149E+005  0.1043930E+01  0.7957747E-01            NaN
         13   -1    0    0    0    0  0.00000000000E+00  0.00000000000E+00  0.74505805969E-08  0.10566000000E+00  0.10566000000E+00 0.  1.
     999900   -1    0    0    0    0 -0.00000000000E+00 -0.00000000000E+00 -0.74505805969E-08  0.93827000000E+00  0.93827000000E+00 0. -1.
     999902    2    1    2    0    0 -0.16092353372E-01 -0.15678082100E-01  0.71954156825E-02  0.10203388978E+01  0.10200661382E+01 0.  0.
     999903    2    3    3    0    0  0.11734369988E+00 -0.44228750191E-01  0.26092763890E-01  0.12962152922E+00  0.19879191721E-01 0.  0.
         14    1    1    2    0    0  0.16092353372E-01  0.15678082100E-01 -0.71954156825E-02  0.23591102183E-01  0.00000000000E+00 0. -1.
     999901    1    3    3    0    0 -0.13343605325E+00  0.28550668090E-01 -0.18897348207E-01  0.89071736860E+00  0.88000000000E+00 0. -1.
        -11    1    4    4    0    0  0.29154843135E-01 -0.18337013884E-01  0.12827161730E-01  0.36756606964E-01  0.51100000000E-03 0.  1.
         11    1    4    4    0    0  0.88188856747E-01 -0.25891736306E-01  0.13265602160E-01  0.92864922253E-01  0.51100000000E-03 0. -1.
</event>
<event>
 8    1  0.1041149E+005  0.1043930E+01  0.7957747E-01            NaN
         13   -1    0    0    0    0  0.00000000000E+00  0.00000000000E+00  0.74505805969E-08  0.10566000000E+00  0.10566000000E+00 0.  1.
     999900   -1    0    0    0    0 -0.00000000000E+00 -0.00000000000E+00 -0.74505805969E-08  0.93827000000E+00  0.93827000000E+00 0. -1.
     999902    2    1    2    0    0 -0.17915109228E-01  0.44952973604E-02 -0.14024391744E-01  0.10207385705E+01  0.10204750791E+01 0.  0.
     999903    2    3    3    0    0 -0.56336390136E-01 -0.63007104363E-01 -0.10096768955E+00  0.13304948865E+00  0.19078994796E-01 0.  0.
         14    1    1    2    0    0  0.17915109228E-01 -0.44952973604E-02  0.14024391744E-01  0.23191429469E-01  0.00000000000E+00 0.  1.
     999901    1    3    3    0    0  0.38421280908E-01  0.67502401723E-01  0.86943297805E-01  0.88768908189E+00  0.88000000000E+00 0.  1.
        -11    1    4    4    0    0 -0.50668527406E-01 -0.56198992252E-01 -0.79175761830E-01  0.10952026654E+00  0.51100000000E-03 0.  1.
         11    1    4    4    0    0 -0.56678627301E-02 -0.68081121112E-02 -0.21791927718E-01  0.23529222111E-01  0.51100000000E-03 0. -1.
</event>
<event>
 8    1  0.1041149E+005  0.1043930E+01  0.7957747E-01            NaN
         13   -1    0    0    0    0  0.00000000000E+00  0.00000000000E+00  0.74505805969E-08  0.10566000000E+00  0.10566000000E+00 0. -1.
     999900   -1    0    0    0    0 -0.00000000000E+00 -0.00000000000E+00 -0.74505805969E-08  0.93827000000E+00  0.93827000000E+00 0. -1.
     999902    2    1    2    0    0 -0.23979569194E-01 -0.33996046509E-02  0.10206917388E-01  0.10176477206E+01  0.10173082743E+01 0.  0.
     999903    2    3    3    0    0  0.66070860374E-01  0.10279423245E+00  0.26213931412E-01  0.12655713290E+00  0.19938025784E-01 0.  0.
         14    1    1    2    0    0  0.23979569194E-01  0.33996046509E-02 -0.10206917388E-01  0.26282279450E-01  0.00000000000E+00 0. -1.
     999901    1    3    3    0    0 -0.90050429568E-01 -0.10619383710E+00 -0.16007014024E-01  0.89109058765E+00  0.88000000000E+00 0. -1.
        -11    1    4    4    0    0  0.30170358820E-01  0.61014900823E-01  0.80017106350E-02  0.68537268460E-01  0.51100000000E-03 0. -1.
         11    1    4    4    0    0  0.35900501554E-01  0.41779331625E-01  0.18212220777E-01  0.58019864439E-01  0.51100000000E-03 0.  1.
</event>
<event>
 8    1  0.1041149E+005  0.1043930E+01  0.7957747E-01            NaN
         13   -1    0    0    0    0  0.00000000000E+00  0.00000000000E+00  0.74505805969E-08  0.10566000000E+00  0.10566000000E+00 0. -1.
     999900   -1    0    0    0    0 -0.00000000000E+00 -0.00000000000E+00 -0.74505805969E-08  0.93827000000E+00  0.93827000000E+00 0.  1.
     999902    2    1    2    0    0 -0.12916961808E-01 -0.47060911475E-02 -0.16763253984E-01  0.10222504732E+01  0.10220205615E+01 0.  0.
     999903    2    3    3    0    0  0.72887092044E-01 -0.17908814617E-02 -0.10995339068E+00  0.13317497832E+00  0.18168414478E-01 0.  0.
         14    1    1    2    0    0  0.12916961808E-01  0.47060911475E-02  0.16763253984E-01  0.21679526756E-01  0.00000000000E+00 0. -1.
     999901    1    3    3    0    0 -0.85804053852E-01 -0.29152096858E-02  0.93190136694E-01  0.88907549493E+00  0.88000000000E+00 0. -1.
        -11    1    4    4    0    0  0.38582230205E-01  0.68727469339E-02 -0.49636334099E-01  0.63244366720E-01  0.51100000000E-03 0.  1.
         11    1    4    4    0    0  0.34304861840E-01 -0.86636283956E-02 -0.60317056579E-01  0.69930611596E-01  0.51100000000E-03 0. -1.
</event>
<event>
 8    1  0.1041149E+005  0.1043930E+01  0.7957747E-01            NaN
         13   -1    0    0    0    0  0.00000000000E+00  0.00000000000E+00  0.74505805969E-08  0.10566000000E+00  0.10566000000E+00 0.  1.
     999900   -1    0    0    0    0 -0.00000000000E+00 -0.00000000000E+00 -0.74505805969E-08  0.93827000000E+00  0.93827000000E+00 0.  1.
     999902    2    1    2    0    0 -0.31180863337E-02 -0.24423458664E-01 -0.56242445104E-02  0.10186741111E+01  0.10183609796E+01 0.  0.
     999903    2    3    3    0    0  0.12302088780E+00  0.28528154095E-01 -0.14713975193E-02  0.12809443463E+00  0.21401513028E-01 0.  0.
         14    1    1    2    0    0  0.31180863337E-02  0.24423458664E-01  0.56242445104E-02  0.25255888854E-01  0.00000000000E+00 0.  1.
     999901    1    3    3    0    0 -0.12613897414E+00 -0.52951612759E-01 -0.41528469911E-02  0.89057967652E+00  0.88000000000E+00 0.  1.
        -11    1    4    4    0    0  0.29632693538E-01  0.27380065772E-02 -0.85038388182E-02  0.30954314756E-01  0.51100000000E-03 0. -1.
         11    1    4    4    0    0  0.93388194265E-01  0.25790147518E-01  0.70324412989E-02  0.97140119872E-01  0.51100000000E-03 0.  1.
</event>
<event>
 8    1  0.1041149E+005  0.1043930E+01  0.7957747E-01            NaN
         13   -1    0    0    0    0  0.00000000000E+00  0.00000000000E+00  0.74505805969E-08  0.10566000000E+00  0.10566000000E+00 0. -1.
     999900   -1    0    0    0    0 -0.00000000000E+00 -0.00000000000E+00 -0.74505805969E-08  0.93827000000E+00  0.93827000000E+00 0.  1.
     999902    2    1    2    0    0  0.13201706116E-01  0.16378081210E-01 -0.99340017101E-02  0.10206660584E+01  0.10204008976E+01 0.  0.
     999903    2    3    3    0    0  0.49865998583E-01  0.28637691330E-01 -0.11840260056E+00  0.13316394274E+00  0.20167415443E-01 0.  0.
         14    1    1    2    0    0 -0.13201706116E-01 -0.16378081210E-01  0.99340017101E-02  0.23263941594E-01  0.00000000000E+00 0. -1.
     999901    1    3    3    0    0 -0.36664292466E-01 -0.12259610120E-01  0.10846859885E+00  0.88750211567E+00  0.88000000000E+00 0. -1.
        -11    1    4    4    0    0  0.45664244180E-01  0.22688124377E-01 -0.86281476252E-01  0.10022339273E+00  0.51100000000E-03 0. -1.
         11    1    4    4    0    0  0.42017544031E-02  0.59495669527E-02 -0.32121124311E-01  0.32940550010E-01  0.51100000000E-03 0.  1.
</event>
<event>
 8    1  0.1041149E+005  0.1043930E+01  0.7957747E-01            NaN
         13   -1    0    0    0    0  0.00000000000E+00  0.00000000000E+00  0.74505805969E-08  0.10566000000E+00  0.10566000000E+00 0.  1.
     999900   -1    0    0    0    0 -0.00000000000E+00 -0.00000000000E+00 -0.74505805969E-08  0.93827000000E+00  0.93827000000E+00 0. -1.
     999902    2    1    2    0    0  0.12034080573E-01 -0.20339470987E-01 -0.12233032991E-01  0.10173187191E+01  0.10169706072E+01 0.  0.
     999903    2    3    3    0    0  0.45780346547E-02 -0.46054673612E-01  0.11687683630E+00  0.12749501598E+00  0.21278930293E-01 0.  0.
         14    1    1    2    0    0 -0.12034080573E-01  0.20339470987E-01  0.12233032991E-01  0.26611280906E-01  0.00000000000E+00 0. -1.
     999901    1    3    3    0    0  0.74560459179E-02  0.25715202625E-01 -0.12910986929E+00  0.88982370311E+00  0.88000000000E+00 0. -1.
        -11    1    4    4    0    0  0.10933186348E-01 -0.15605739642E-01  0.34107456498E-01  0.39072412048E-01  0.51100000000E-03 0. -1.
         11    1    4    4    0    0 -0.63551516934E-02 -0.30448933971E-01  0.82769379803E-01  0.88422603936E-01  0.51100000000E-03 0.  1.
</event>
<event>
 8    1  0.1041149E+005  0.1043930E+01  0.7957747E-01            NaN
         13   -1    0    0    0    0  0.00000000000E+00  0.00000000000E+00  0.74505805969E-08  0.10566000000E+00  0.10566000000E+00 0. -1.
     999900   -1    0    0    0    0 -0.00000000000E+00 -0.00000000000E+00 -0.74505805969E-08  0.93827000000E+00  0.93827000000E+00 0.  1.
     999902    2    1    2    0    0 -0.82610479652E-02  0.21173161664E-01 -0.81514927345E-02  0.10197847205E+01  0.10194988385E+01 0.  0.
     999903    2    3    3    0    0  0.10044522178E-01  0.12566499072E+00 -0.37182496818E-01  0.13293837787E+00  0.19937199451E-01 0.  0.
         14    1    1    2    0    0  0.82610479652E-02 -0.21173161664E-01  0.81514927345E-02  0.24145279500E-01  0.00000000000E+00 0. -1.
     999901    1    3    3    0    0 -0.18305570144E-01 -0.10449182906E+00  0.29031004084E-01  0.88684634263E+00  0.88000000000E+00 0. -1.
        -11    1    4    4    0    0  0.11297828393E-01  0.73245672825E-01 -0.30233763318E-01  0.80043182591E-01  0.51100000000E-03 0. -1.
         11    1    4    4    0    0 -0.12533062149E-02  0.52419317897E-01 -0.69487335009E-02  0.52895195278E-01  0.51100000000E-03 0.  1.
</event>
<event>
 8    1  0.1041149E+005  0.1043930E+01  0.7957747E-01            NaN
         13   -1    0    0    0    0  0.00000000000E+00  0.00000000000E+00  0.74505805969E-08  0.10566000000E+00  0.10566000000E+00 0. -1.
     999900   -1    0    0    0    0 -0.00000000000E+00 -0.00000000000E+00 -0.74505805969E-08  0.93827000000E+00  0.93827000000E+00 0. -1.
     999902    2    1    2    0    0  0.28947167669E-03  0.89133306193E-02  0.21648764523E-01  0.10205163232E+01  0.10202476982E+01 0.  0.
     999903    2    3    3    0    0 -0.65484486377E-01  0.35332712587E-01 -0.10335411545E+00  0.12886060639E+00  0.19656148234E-01 0.  0.
         14    1    1    2    0    0 -0.28947167669E-03 -0.89133306193E-02 -0.21648764523E-01  0.23413676814E-01  0.00000000000E+00 0.  1.
     999901    1    3    3    0    0  0.65773958054E-01 -0.26419381968E-01  0.12500287997E+00  0.89165571680E+00  0.88000000000E+00 0.  1.
        -11    1    4    4    0    0 -0.34031164066E-01  0.22864366677E-01 -0.71310185030E-01  0.82257540696E-01  0.51100000000E-03 0.  1.
         11    1    4    4    0    0 -0.31453322312E-01  0.12468345910E-01 -0.32043930416E-01  0.46603065690E-01  0.51100000000E-03 0. -1.
</event>
<event>
 8    1  0.1041149E+005  0.1043930E+01  0.7957747E-01            NaN
         13   -1    0    0    0    0  0.00000000000E+00  0.00000000000E+00  0.74505805969E-08  0.10566000000E+00  0.10566000000E+00 0. -1.
     999900   -1    0    0    0    0 -0.00000000000E+00 -0.00000000000E+00 -0.74505805969E-08  0.93827000000E+00  0.93827000000E+00 0. -1.
     999902    2    1    2    0    0 -0.10650319472E-01  0.19537329352E-01  0.50116240754E-02  0.10211209466E+01  0.10208661688E+01 0.  0.
     999903    2    3    3    0    0  0.10839651037E+00 -0.15380089115E-01  0.67526926714E-01  0.13022278354E+00  0.20291301567E-01 0.  0.
         14    1    1    2    0    0  0.10650319472E-01 -0.19537329352E-01 -0.50116240754E-02  0.22809053443E-01  0.00000000000E+00 0.  1.
     999901    1    3    3    0    0 -0.11904682984E+00  0.34917418467E-01 -0.62515302639E-01  0.89089816302E+00  0.88000000000E+00 0. -1.
        -11    1    4    4    0    0  0.38594271066E-01 -0.83963586037E-02  0.35486693314E-01  0.53099746895E-01  0.51100000000E-03 0.  1.
         11    1    4    4    0    0  0.69802239303E-01 -0.69837305113E-02  0.32040233400E-01  0.77123036642E-01  0.51100000000E-03 0. -1.
</event>
<event>
 8    1  0.1041149E+005  0.1043930E+01  0.7957747E-01            NaN
         13   -1    0    0    0    0  0.00000000000E+00  0.00000000000E+00  0.74505805969E-08  0.10566000000E+00  0.10566000000E+00 0.  1.
     999900   -1    0    0    0    0 -0.00000000000E+00 -0.00000000000E+00 -0.74505805969E-08  0.93827000000E+00  0.93827000000E+00 0.  1.
     999902    2    1    2    0    0  0.10472373182E-01  0.11330969426E-01  0.17020432023E-01  0.10209570469E+01  0.10206985525E+01 0.  0.
     999903    2    3    3    0    0  0.18835994864E-01  0.45493016115E-01  0.12281103379E+00  0.13392342463E+00  0.20700831522E-01 0.  0.
         14    1    1    2    0    0 -0.10472373182E-01 -0.11330969426E-01 -0.17020432023E-01  0.22972953107E-01  0.00000000000E+00 0. -1.
     999901    1    3    3    0    0 -0.83636216820E-02 -0.34162046689E-01 -0.10579060177E+00  0.88703362226E+00  0.88000000000E+00 0.  1.
        -11    1    4    4    0    0  0.22639349575E-01  0.32225810959E-01  0.95961430093E-01  0.10372993892E+00  0.51100000000E-03 0. -1.
         11    1    4    4    0    0 -0.38033547110E-02  0.13267205156E-01  0.26849603700E-01  0.30193485714E-01  0.51100000000E-03 0.  1.
</event>
<event>
 8    1  0.1041149E+005  0.1043930E+01  0.7957747E-01            NaN
         13   -1    0    0    0    0  0.00000000000E+00  0.00000000000E+00  0.74505805969E-08  0.10566000000E+00  0.10566000000E+00 0. -1.
     999900   -1    0    0    0    0 -0.00000000000E+00 -0.00000000000E+00 -0.74505805969E-08  0.93827000000E+00  0.93827000000E+00 0. -1.
     999902    2    1    2    0    0 -0.13631041922E-01  0.19416253560E-01  0.62812166185E-03  0.10201983599E+01  0.10199223023E+01 0.  0.
     999903    2    3    3    0    0 -0.93824100074E-01  0.78597771704E-01 -0.48468294248E-01  0.13321254448E+00  0.20392032435E-01 0.  0.
         14    1    1    2    0    0  0.13631041922E-01 -0.19416253560E-01 -0.62812166185E-03  0.23731640125E-01  0.00000000000E+00 0.  1.
     999901    1    3    3    0    0  0.80193058152E-01 -0.59181518144E-01  0.49096415909E-01  0.88698581540E+00  0.88000000000E+00 0.  1.
        -11    1    4    4    0    0 -0.14401298020E-01  0.19270179781E-01 -0.15993574140E-01  0.28892780210E-01  0.51100000000E-03 0.  1.
         11    1    4    4    0    0 -0.79422802053E-01  0.59327591923E-01 -0.32474720107E-01  0.10431976427E+00  0.51100000000E-03 0. -1.
</event>
<event>
 8    1  0.1041149E+005  0.1043930E+01  0.7957747E-01            NaN
         13   -1    0    0    0    0  0.00000000000E+00  0.00000000000E+00  0.74505805969E-08  0.10566000000E+00  0.10566000000E+00 0.  1.
     999900   -1    0    0    0    0 -0.00000000000E+00 -0.00000000000E+00 -0.74505805969E-08  0.93827000000E+00  0.93827000000E+00 0. -1.
     999902    2    1    2    0    0 -0.94922240607E-02  0.20724838005E-01 -0.37566214077E-02  0.10208273285E+01  0.10205658730E+01 0.  0.
     999903    2    3    3    0    0  0.96442829093E-01 -0.42399915255E-01  0.71814117725E-01  0.12902134812E+00  0.19755218751E-01 0.  0.
         14    1    1    2    0    0  0.94922240607E-02 -0.20724838005E-01  0.37566214077E-02  0.23102671542E-01  0.00000000000E+00 0.  1.
     999901    1    3    3    0    0 -0.10593505315E+00  0.63124753260E-01 -0.75570739133E-01  0.89180598034E+00  0.88000000000E+00 0.  1.
        -11    1    4    4    0    0  0.75346283516E-01 -0.23744374601E-01  0.54045534417E-01  0.95718538833E-01  0.51100000000E-03 0. -1.
         11    1    4    4    0    0  0.21096545577E-01 -0.18655540653E-01  0.17768583308E-01  0.33302809283E-01  0.51100000000E-03 0.  1.
</event>
<event>
 8    1  0.1041149E+005  0.1043930E+01  0.7957747E-01            NaN
         13   -1    0    0    0    0  0.00000000000E+00  0.00000000000E+00  0.74505805969E-08  0.10566000000E+00  0.10566000000E+00 0. -1.
     999900   -1    0    0    0    0 -0.00000000000E+00 -0.00000000000E+00 -0.74505805969E-08  0.93827000000E+00  0.93827000000E+00 0. -1.
     999902    2    1    2    0    0  0.66201745762E-02  0.18970818962E-01  0.11597835469E-01  0.10207302485E+01  0.10204665657E+01 0.  0.
     999903    2    3    3    0    0 -0.92438798454E-01 -0.63604260119E-01 -0.59690539841E-01  0.12847840270E+00  0.18796437145E-01 0.  0.
         14    1    1    2    0    0 -0.66201745762E-02 -0.18970818962E-01 -0.11597835469E-01  0.23199751530E-01  0.00000000000E+00 0.  1.
     999901    1    3    3    0    0  0.99058973030E-01  0.82575079081E-01  0.71288375310E-01  0.89225184577E+00  0.88000000000E+00 0.  1.
        -11    1    4    4    0    0 -0.66866674897E-01 -0.35477684186E-01 -0.37820345356E-01  0.84619489073E-01  0.51100000000E-03 0. -1.
         11    1    4    4    0    0 -0.25572123556E-01 -0.28126575933E-01 -0.21870194485E-01  0.43858913629E-01  0.51100000000E-03 0.  1.
</event>
<event>
 8    1  0.1041149E+005  0.1043930E+01  0.7957747E-01            NaN
         13   -1    0    0    0    0  0.00000000000E+00  0.00000000000E+00  0.74505805969E-08  0.10566000000E+00  0.10566000000E+00 0.  1.
     999900   -1    0    0    0    0 -0.00000000000E+00 -0.00000000000E+00 -0.74505805969E-08  0.93827000000E+00  0.93827000000E+00 0.  1.
     999902    2    1    2    0    0  0.14347011655E-01  0.18679484972E-01  0.86792097433E-03  0.10203606727E+01  0.10200884223E+01 0.  0.
     999903    2    3    3    0    0  0.12638276142E+00  0.12725199138E-01  0.32798420911E-01  0.13266307804E+00  0.19728729891E-01 0.  0.
         14    1    1    2    0    0 -0.14347011655E-01 -0.18679484972E-01 -0.86792097433E-03  0.23569327294E-01  0.00000000000E+00 0. -1.
     999901    1    3    3    0    0 -0.11203574977E+00  0.59542858340E-02 -0.31930499936E-01  0.88769759466E+00  0.88000000000E+00 0.  1.
        -11    1    4    4    0    0  0.58922843771E-01  0.15073855941E-01  0.19417722239E-01  0.63846939699E-01  0.51100000000E-03 0. -1.
         11    1    4    4    0    0  0.67459917653E-01 -0.23486568022E-02  0.13380698672E-01  0.68816138343E-01  0.51100000000E-03 0.  1.
</event>
<event>
 8    1  0.1041149E+005  0.1043930E+01  0.7957747E-01            NaN
         13   -1    0    0    0    0  0.00000000000E+00  0.00000000000E+00  0.74505805969E-08  0.10566000000E+00  0.10566000000E+00 0.  1.
     999900   -1    0    0    0    0 -0.00000000000E+00 -0.00000000000E+00 -0.74505805969E-08  0.93827000000E+00  0.93827000000E+00 0.  1.
     999902    2    1    2    0    0  0.75285215710E-02  0.23979117229E-02 -0.22846171857E-01  0.10197561260E+01  0.10194695583E+01 0.  0.
     999903    2    3    3    0    0  0.87876174601E-01 -0.90560038567E-01 -0.29779246674E-01  0.13119268231E+00  0.20034313320E-01 0.  0.
         14    1    1    2    0    0 -0.75285215710E-02 -0.23979117229E-02  0.22846171857E-01  0.24173874042E-01  0.00000000000E+00 0.  1.
     999901    1    3    3    0    0 -0.80347653030E-01  0.92957950290E-01  0.69330748170E-02  0.88856344365E+00  0.88000000000E+00 0. -1.
        -11    1    4    4    0    0  0.49166699920E-01 -0.47702135603E-01 -0.26141415094E-01  0.73324571777E-01  0.51100000000E-03 0.  1.
         11    1    4    4    0    0  0.38709474681E-01 -0.42857902963E-01 -0.36378315803E-02  0.57868110529E-01  0.51100000000E-03 0. -1.
</event>
<event>
 8    1  0.1041149E+005  0.1043930E+01  0.7957747E-01            NaN
         13   -1    0    0    0    0  0.00000000000E+00  0.00000000000E+00  0.74505805969E-08  0.10566000000E+00  0.10566000000E+00 0. -1.
     999900   -1    0    0    0    0 -0.00000000000E+00 -0.00000000000E+00 -0.74505805969E-08  0.93827000000E+00  0.93827000000E+00 0.  1.
     999902    2    1    2    0    0  0.16809657889E-01 -0.31884012993E-02 -0.16840281850E-01  0.10199232178E+01  0.10196406448E+01 0.  0.
     999903    2    3    3    0    0 -0.99935488399E-01  0.93335053302E-02  0.75696544374E-01  0.12731507778E+00  0.20123271046E-01 0.  0.
         14    1    1    2    0    0 -0.16809657889E-01  0.31884012993E-02  0.16840281850E-01  0.24006782250E-01  0.00000000000E+00 0. -1.
     999901    1    3    3    0    0  0.11674514629E+00 -0.12521906630E-01 -0.92536826224E-01  0.89260813997E+00  0.88000000000E+00 0.  1.
        -11    1    4    4    0    0 -0.39210899321E-01 -0.31997919479E-02  0.38279703906E-01  0.54893807905E-01  0.51100000000E-03 0. -1.
         11    1    4    4    0    0 -0.60724589077E-01  0.12533297278E-01  0.37416840467E-01  0.72421269879E-01  0.51100000000E-03 0.  1.
</event>
<event>
 8    1  0.1041149E+005  0.1043930E+01  0.7957747E-01            NaN
         13   -1    0    0    0    0  0.00000000000E+00  0.00000000000E+00  0.74505805969E-08  0.10566000000E+00  0.10566000000E+00 0. -1.
     999900   -1    0    0    0    0 -0.00000000000E+00 -0.00000000000E+00 -0.74505805969E-08  0.93827000000E+00  0.93827000000E+00 0. -1.
     999902    2    1    2    0    0 -0.25296691485E-01 -0.96821872435E-02  0.83324493574E-02  0.10155910328E+01  0.10151955717E+01 0.  0.
     999903    2    3    3    0    0 -0.19814528291E-01  0.11690144158E+00  0.38124971029E-01  0.12601750377E+00  0.19192062544E-01 0.  0.
         14    1    1    2    0    0  0.25296691485E-01  0.96821872435E-02 -0.83324493574E-02  0.28338967205E-01  0.00000000000E+00 0. -1.
     999901    1    3    3    0    0 -0.54821631942E-02 -0.12658362882E+00 -0.29792521672E-01  0.88957352903E+00  0.88000000000E+00 0.  1.
        -11    1    4    4    0    0 -0.87670246915E-04  0.17052433991E-01 -0.72223225907E-03  0.17075594617E-01  0.51100000000E-03 0. -1.
         11    1    4    4    0    0 -0.19726858044E-01  0.99849007590E-01  0.38847203288E-01  0.10894190915E+00  0.51100000000E-03 0.  1.
</event>
<event>
 8    1  0.1041149E+005  0.1043930E+01  0.7957747E-01            NaN
         13   -1    0    0    0    0  0.00000000000E+00  0.00000000000E+00  0.74505805969E-08  0.10566000000E+00  0.10566000000E+00 0.  1.
     999900   -1    0    0    0    0 -0.00000000000E+00 -0.00000000000E+00 -0.74505805969E-08  0.93827000000E+00  0.93827000000E+00 0.  1.
     999902    2    1    2    0    0  0.22591618604E-01 -0.32744303465E-02  0.72289368958E-02  0.10199850495E+01  0.10197039475E+01 0.  0.
     999903    2    3    3    0    0  0.44883185705E-01 -0.72448449302E-01  0.97886104731E-01  0.13234735262E+00  0.25900850971E-01 0.  0.
         14    1    1    2    0    0 -0.22591618604E-01  0.32744303465E-02 -0.72289368958E-02  0.23944950488E-01  0.00000000000E+00 0. -1.
     999901    1    3    3    0    0 -0.22291567102E-01  0.69174018955E-01 -0.90657167836E-01  0.88763769689E+00  0.88000000000E+00 0.  1.
        -11    1    4    4    0    0  0.32872310486E-01 -0.29712850848E-01  0.54889601455E-01  0.70544821008E-01  0.51100000000E-03 0.  1.
         11    1    4    4    0    0  0.12010875219E-01 -0.42735598454E-01  0.42996503276E-01  0.61802531613E-01  0.51100000000E-03 0. -1.
</event>
<event>
 8    1  0.1041149E+005  0.1043930E+01  0.7957747E-01            NaN
         13   -1    0    0    0    0  0.00000000000E+00  0.00000000000E+00  0.74505805969E-08  0.10566000000E+00  0.10566000000E+00 0.  1.
     999900   -1    0    0    0    0 -0.00000000000E+00 -0.00000000000E+00 -0.74505805969E-08  0.93827000000E+00  0.93827000000E+00 0. -1.
     999902    2    1    2    0    0  0.19862285606E-01  0.12646445833E-01  0.20507800553E-02  0.10202942499E+01  0.10200204448E+01 0.  0.
     999903    2    3    3    0    0 -0.26556737759E-01 -0.91267956739E-01 -0.84894358656E-01  0.12871565782E+00  0.18043508230E-01 0.  0.
         14    1    1    2    0    0 -0.19862285606E-01 -0.12646445833E-01 -0.20507800553E-02  0.23635750052E-01  0.00000000000E+00 0. -1.
     999901    1    3    3    0    0  0.46419023365E-01  0.10391440257E+00  0.86945138711E-01  0.89157859213E+00  0.88000000000E+00 0.  1.
        -11    1    4    4    0    0 -0.18656767710E-01 -0.40660062469E-01 -0.47805480249E-01  0.65474733479E-01  0.51100000000E-03 0.  1.
         11    1    4    4    0    0 -0.78999700485E-02 -0.50607894270E-01 -0.37088878407E-01  0.63240924342E-01  0.51100000000E-03 0. -1.
</event>
<event>
 8    1  0.1041149E+005  0.1043930E+01  0.7957747E-01            NaN
         13   -1    0    0    0    0  0.00000000000E+00  0.00000000000E+00  0.74505805969E-08  0.10566000000E+00  0.10566000000E+00 0. -1.
     999900   -1    0    0    0    0 -0.00000000000E+00 -0.00000000000E+00 -0.74505805969E-08  0.93827000000E+00  0.93827000000E+00 0. -1.
     999902    2    1    2    0    0 -0.20764072416E-01 -0.16001092632E-02 -0.12285373541E-01  0.10197507226E+01  0.10194640252E+01 0.  0.
     999903    2    3    3    0    0  0.54548067986E-01  0.13807018974E-01  0.11275257770E+00  0.12759390491E+00  0.20023368766E-01 0.  0.
         14    1    1    2    0    0  0.20764072416E-01  0.16001092632E-02  0.12285373541E-01  0.24179277409E-01  0.00000000000E+00 0. -1.
     999901    1    3    3    0    0 -0.75312140402E-01 -0.15407128237E-01 -0.12503795124E+00  0.89215681769E+00  0.88000000000E+00 0. -1.
        -11    1    4    4    0    0  0.63688323480E-02  0.91592375703E-02  0.24868162126E-01  0.27260599166E-01  0.51100000000E-03 0. -1.
         11    1    4    4    0    0  0.48179235638E-01  0.46477814035E-02  0.87884415575E-01  0.10033330574E+00  0.51100000000E-03 0.  1.
</event>
<event>
 8    1  0.1041149E+005  0.1043930E+01  0.7957747E-01            NaN
         13   -1    0    0    0    0  0.00000000000E+00  0.00000000000E+00  0.74505805969E-08  0.10566000000E+00  0.10566000000E+00 0. -1.
     999900   -1    0    0    0    0 -0.00000000000E+00 -0.00000000000E+00 -0.74505805969E-08  0.93827000000E+00  0.93827000000E+00 0. -1.
     999902    2    1    2    0    0 -0.10019995541E-01 -0.19380005542E-01  0.10423438946E-01  0.10197508146E+01  0.10194641195E+01 0.  0.
     999903    2    3    3    0    0 -0.10740418880E+00 -0.72614976544E-01 -0.17531287519E-01  0.13233934865E+00  0.19943985758E-01 0.  0.
         14    1    1    2    0    0  0.10019995541E-01  0.19380005542E-01 -0.10423438946E-01  0.24179185365E-01  0.00000000000E+00 0.  1.
     999901    1    3    3    0    0  0.97384193260E-01  0.53234971003E-01  0.27954726465E-01  0.88741146599E+00  0.88000000000E+00 0.  1.
        -11    1    4    4    0    0 -0.10050500310E+00 -0.60758145663E-01 -0.15896805609E-01  0.11851488287E+00  0.51100000000E-03 0.  1.
         11    1    4    4    0    0 -0.68991857019E-02 -0.11856830881E-01 -0.16344819096E-02  0.13824465777E-01  0.51100000000E-03 0. -1.
</event>
<event>
 8    1  0.1041149E+005  0.1043930E+01  0.7957747E-01            NaN
         13   -1    0    0    0    0  0.00000000000E+00  0.00000000000E+00  0.74505805969E-08  0.10566000000E+00  0.10566000000E+00 0.  1.
     999900   -1    0    0    0    0 -0.00000000000E+00 -0.00000000000E+00 -0.74505805969E-08  0.93827000000E+00  0.93827000000E+00 0.  1.
     999902    2    1    2    0    0 -0.27477519533E-02 -0.23284081201E-01  0.21976892863E-02  0.10203815730E+01  0.10201098108E+01 0.  0.
     999903    2    3    3    0    0 -0.11403663586E+00 -0.39285389828E-01  0.51420226858E-01  0.13186364080E+00  0.14010134286E-01 0.  0.
         14    1    1    2    0    0  0.27477519533E-02  0.23284081201E-01 -0.21976892863E-02  0.23548427046E-01  0.00000000000E+00 0. -1.
     999901    1    3    3    0    0  0.11128888390E+00  0.16001308627E-01 -0.49222537572E-01  0.88851793216E+00  0.88000000000E+00 0.  1.
        -11    1    4    4    0    0 -0.10617646034E+00 -0.32607947494E-01  0.46267150249E-01  0.12032302059E+00  0.51100000000E-03 0.  1.
         11    1    4    4    0    0 -0.78601755141E-02 -0.66774423338E-02  0.51530766095E-02  0.11540620208E-01  0.51100000000E-03 0. -1.
</event>
<event>
 7    1  0.1041149E+005  0.1043930E+01  0.7957747E-01            NaN
         13   -1    0    0    0    0  0.00000000000E+00  0.00000000000E+00  0.74505805969E-08  0.10566000000E+00  0.10566000000E+00 0.  1.
     999900   -1    0    0    0    0 -0.00000000000E+00 -0.00000000000E+00 -0.74505805969E-08  0.93827000000E+00  0.93827000000E+00 0. -1.
     999902    2    1    2    0    0  0.12719749083E-01 -0.16156367671E-01 -0.10738270350E-01  0.10207323561E+01  0.10204687218E+01 0.  0.
         14    1    1    2    0    0 -0.12719749083E-01  0.16156367671E-01  0.10738270350E-01  0.23197643915E-01  0.00000000000E+00 0.  1.
     999901    1    3    3    0    0 -0.12314857699E-01 -0.11908639485E+00  0.53793720464E-01  0.88973422409E+00  0.88000000000E+00 0. -1.
        -11    1    3    3    0    0  0.81379472519E-02 -0.14283671319E-02 -0.49654655722E-02  0.96531542766E-02  0.51100000000E-03 0. -1.
         11    1    3    3    0    0  0.16896659530E-01  0.10435839431E+00 -0.59566525242E-01  0.12134497772E+00  0.51100000000E-03 0.  1.
</event>
<event>
 8    1  0.1041149E+005  0.1043930E+01  0.7957747E-01            NaN
         13   -1    0    0    0    0  0.00000000000E+00  0.00000000000E+00  0.74505805969E-08  0.10566000000E+00  0.10566000000E+00 0. -1.
     999900   -1    0    0    0    0 -0.00000000000E+00 -0.00000000000E+00 -0.74505805969E-08  0.93827000000E+00  0.93827000000E+00 0. -1.
     999902    2    1    2    0    0  0.22030393845E-01  0.80161354189E-02 -0.33032106221E-02  0.10202549524E+01  0.10199802253E+01 0.  0.
     999903    2    3    3    0    0  0.80035165526E-01 -0.40979227315E-01 -0.94950831996E-01  0.13224347406E+00  0.19691397661E-01 0.  0.
         14    1    1    2    0    0 -0.22030393845E-01 -0.80161354189E-02  0.33032106221E-02  0.23675047633E-01  0.00000000000E+00 0. -1.
     999901    1    3    3    0    0 -0.58004771681E-01  0.48995362734E-01  0.91647621374E-01  0.88801147831E+00  0.88000000000E+00 0.  1.
        -11    1    4    4    0    0  0.18107741563E-01 -0.64562666625E-03 -0.17764419707E-01  0.25379969796E-01  0.51100000000E-03 0.  1.
         11    1    4    4    0    0  0.61927423963E-01 -0.40333600649E-01 -0.77186412289E-01  0.10686350426E+00  0.51100000000E-03 0. -1.
</event>
<event>
 8    1  0.1041149E+005  0.1043930E+01  0.7957747E-01            NaN
         13   -1    0    0    0    0  0.00000000000E+00  0.00000000000E+00  0.74505805969E-08  0.10566000000E+00  0.10566000000E+00 0. -1.
     999900   -1    0    0    0    0 -0.00000000000E+00 -0.00000000000E+00 -0.74505805969E-08  0.93827000000E+00  0.93827000000E+00 0.  1.
     999902    2    1    2    0    0 -0.15034104143E-01  0.12689405127E-02  0.19860249156E-01  0.10189887892E+01  0.10186835076E+01 0.  0.
     999903    2    3    3    0    0 -0.95826140635E-01  0.75962799301E-01 -0.39892406762E-01  0.13012608579E+00  0.19707815190E-01 0.  0.
         14    1    1    2    0    0  0.15034104143E-01 -0.12689405127E-02 -0.19860249156E-01  0.24941210755E-01  0.00000000000E+00 0. -1.
     999901    1    3    3    0    0  0.80792036492E-01 -0.74693858789E-01  0.59752655917E-01  0.88886270345E+00  0.88000000000E+00 0. -1.
        -11    1    4    4    0    0 -0.16175332806E-01  0.13562551208E-01  0.64128579220E-03  0.21124785327E-01  0.51100000000E-03 0. -1.
         11    1    4    4    0    0 -0.79650807829E-01  0.62400248094E-01 -0.40533692554E-01  0.10900130046E+00  0.51100000000E-03 0.  1.
</event>
<event>
 8    1  0.1041149E+005  0.1043930E+01  0.7957747E-01            NaN
         13   -1    0    0    0    0  0.00000000000E+00  0.00000000000E+00  0.74505805969E-08  0.10566000000E+00  0.10566000000E+00 0. -1.
     999900   -1    0    0    0    0 -0.00000000000E+00 -0.00000000000E+00 -0.74505805969E-08  0.93827000000E+00  0.93827000000E+00 0. -1.
     999902    2    1    2    0    0  0.20870082732E-01  0.87711112789E-03 -0.12096636306E-01  0.10197916843E+01  0.10195059691E+01 0.  0.
     999903    2    3    3    0    0  0.34049641224E-01  0.12094260464E+00  0.29336025049E-01  0.13057512519E+00  0.20069112289E-01 0.  0.
         14    1    1    2    0    0 -0.20870082732E-01 -0.87711112789E-03  0.12096636306E-01  0.24138315747E-01  0.00000000000E+00 0. -1.
     999901    1    3    3    0    0 -0.13179558492E-01 -0.12006549351E+00 -0.41432661355E-01  0.88921655907E+00  0.88000000000E+00 0. -1.
        -11    1    4    4    0    0  0.29706164285E-01  0.93171205130E-01  0.14739762888E-01  0.98898187005E-01  0.51100000000E-03 0.  1.
         11    1    4    4    0    0  0.43434769388E-02  0.27771399506E-01  0.14596262162E-01  0.31676938181E-01  0.51100000000E-03 0. -1.
</event>
<event>
 8    1  0.1041149E+005  0.1043930E+01  0.7957747E-01            NaN
         13   -1    0    0    0    0  0.00000000000E+00  0.00000000000E+00  0.74505805969E-08  0.10566000000E+00  0.10566000000E+00 0.  1.
     999900   -1    0    0    0    0 -0.00000000000E+00 -0.00000000000E+00 -0.74505805969E-08  0.93827000000E+00  0.93827000000E+00 0. -1.
     999902    2    1    2    0    0  0.19804546147E-01 -0.15947130734E-01 -0.13879236244E-02  0.10184651741E+01  0.10181467740E+01 0.  0.
     999903    2    3    3    0    0 -0.84314865516E-01 -0.80473902583E-01 -0.50497430414E-01  0.12862457048E+00  0.20229782729E-01 0.  0.
         14    1    1    2    0    0 -0.19804546147E-01  0.15947130734E-01  0.13879236244E-02  0.25464825911E-01  0.00000000000E+00 0.  1.
     999901    1    3    3    0    0  0.10411941166E+00  0.64526771849E-01  0.49109506789E-01  0.88984060361E+00  0.88000000000E+00 0.  1.
        -11    1    4    4    0    0 -0.19497779522E-01 -0.91438116120E-02 -0.53684699287E-02  0.22200321787E-01  0.51100000000E-03 0.  1.
         11    1    4    4    0    0 -0.64817085994E-01 -0.71330090971E-01 -0.45128960485E-01  0.10642424869E+00  0.51100000000E-03 0. -1.
</event>
<event>
 8    1  0.1041149E+005  0.1043930E+01  0.7957747E-01            NaN
         13   -1    0    0    0    0  0.00000000000E+00  0.00000000000E+00  0.74505805969E-08  0.10566000000E+00  0.10566000000E+00 0.  1.
     999900   -1    0    0    0    0 -0.00000000000E+00 -0.00000000000E+00 -0.74505805969E-08  0.93827000000E+00  0.93827000000E+00 0.  1.
     999902    2    1    2    0    0  0.49356401878E-02  0.35872075535E-02 -0.24363464052E-01  0.10188141289E+01  0.10185045028E+01 0.  0.
     999903    2    3    3    0    0  0.86051440932E-02 -0.52383392778E-01  0.11299158105E+00  0.12639461890E+00  0.19759401656E-01 0.  0.
         14    1    1    2    0    0 -0.49356401878E-02 -0.35872075535E-02  0.24363464052E-01  0.25115871131E-01  0.00000000000E+00 0.  1.
     999901    1    3    3    0    0 -0.36695039054E-02  0.55970600332E-01 -0.13735504510E+00  0.89241950997E+00  0.88000000000E+00 0.  1.
        -11    1    4    4    0    0  0.10716394962E-01 -0.25108900586E-01  0.39887658060E-01  0.48338229138E-01  0.51100000000E-03 0.  1.
         11    1    4    4    0    0 -0.21112508691E-02 -0.27274492192E-01  0.73103922992E-01  0.78056389761E-01  0.51100000000E-03 0. -1.
</event>
<event>
 8    1  0.1041149E+005  0.1043930E+01  0.7957747E-01            NaN
         13   -1    0    0    0    0  0.00000000000E+00  0.00000000000E+00  0.74505805969E-08  0.10566000000E+00  0.10566000000E+00 0.  1.
     999900   -1    0    0    0    0 -0.00000000000E+00 -0.00000000000E+00 -0.74505805969E-08  0.93827000000E+00  0.93827000000E+00 0.  1.
     999902    2    1    2    0    0 -0.23160641960E-01 -0.52001186563E-02  0.64923610162E-02  0.10193209098E+01  0.10190238024E+01 0.  0.
     999903    2    3    3    0    0  0.54687068555E-01  0.60966809866E-01 -0.95641427647E-01  0.12754199141E+00  0.20299002864E-01 0.  0.
         14    1    1    2    0    0  0.23160641960E-01  0.52001186563E-02 -0.64923610162E-02  0.24609090223E-01  0.00000000000E+00 0.  1.
     999901    1    3    3    0    0 -0.77847710515E-01 -0.66166928523E-01  0.10213378866E+00  0.89177891837E+00  0.88000000000E+00 0. -1.
        -11    1    4    4    0    0  0.28448743591E-01  0.16950879641E-01 -0.36468452748E-01  0.49263297691E-01  0.51100000000E-03 0.  1.
         11    1    4    4    0    0  0.26238324964E-01  0.44015930226E-01 -0.59172974899E-01  0.78278693717E-01  0.51100000000E-03 0. -1.
</event>
<event>
 8    1  0.1041149E+005  0.1043930E+01  0.7957747E-01            NaN
         13   -1    0    0    0    0  0.00000000000E+00  0.00000000000E+00  0.74505805969E-08  0.10566000000E+00  0.10566000000E+00 0.  1.
     999900   -1    0    0    0    0 -0.00000000000E+00 -0.00000000000E+00 -0.74505805969E-08  0.93827000000E+00  0.93827000000E+00 0.  1.
     999902    2    1    2    0    0 -0.16842166431E-01 -0.59965710481E-02 -0.21534945273E-01  0.10159412290E+01  0.10155556161E+01 0.  0.
     999903    2    3    3    0    0 -0.58938568769E-01  0.10782152706E+00  0.20637395151E-01  0.12661273353E+00  0.22486565501E-01 0.  0.
         14    1    1    2    0    0  0.16842166431E-01  0.59965710481E-02  0.21534945273E-01  0.27988771004E-01  0.00000000000E+00 0. -1.
     999901    1    3    3    0    0  0.42096402338E-01 -0.11381809811E+00 -0.42172340424E-01  0.88932849546E+00  0.88000000000E+00 0.  1.
        -11    1    4    4    0    0 -0.32010460554E-01  0.51700027417E-01  0.21085257292E-01  0.64361569402E-01  0.51100000000E-03 0.  1.
         11    1    4    4    0    0 -0.26928108215E-01  0.56121499642E-01 -0.44786214078E-03  0.62251164131E-01  0.51100000000E-03 0. -1.
</event>
<event>
 8    1  0.1041149E+005  0.1043930E+01  0.7957747E-01            NaN
         13   -1    0    0    0    0  0.00000000000E+00  0.00000000000E+00  0.74505805969E-08  0.10566000000E+00  0.10566000000E+00 0. -1.
     999900   -1    0    0    0    0 -0.00000000000E+00 -0.00000000000E+00 -0.74505805969E-08  0.93827000000E+00  0.93827000000E+00 0. -1.
     999902    2    1    2    0    0 -0.18054521915E-01  0.97235736531E-02  0.11041204542E-01  0.10206400484E+01  0.10203742875E+01 0.  0.
     999903    2    3    3    0    0 -0.12512511697E+00  0.22239889544E-01  0.36716444635E-01  0.13369022548E+00  0.19340928050E-01 0.  0.
         14    1    1    2    0    0  0.18054521915E-01 -0.97235736531E-02 -0.11041204542E-01  0.23289951565E-01  0.00000000000E+00 0.  1.
     999901    1    3    3    0    0  0.10707059506E+00 -0.12516315891E-01 -0.25675240093E-01  0.88694982296E+00  0.88000000000E+00 0.  1.
        -11    1    4    4    0    0 -0.37881020802E-01 -0.21829102299E-02  0.10441637784E-01  0.39357664497E-01  0.51100000000E-03 0. -1.
         11    1    4    4    0    0 -0.87244096169E-01  0.24422799774E-01  0.26274806851E-01  0.94332560981E-01  0.51100000000E-03 0.  1.
</event>
<event>
 8    1  0.1041149E+005  0.1043930E+01  0.7957747E-01            NaN
         13   -1    0    0    0    0  0.00000000000E+00  0.00000000000E+00  0.74505805969E-08  0.10566000000E+00  0.10566000000E+00 0.  1.
     999900   -1    0    0    0    0 -0.00000000000E+00 -0.00000000000E+00 -0.74505805969E-08  0.93827000000E+00  0.93827000000E+00 0. -1.
     999902    2    1    2    0    0  0.74766427917E-02 -0.17372077054E-02  0.22768922447E-01  0.10199020599E+01  0.10196189827E+01 0.  0.
     999903    2    3    3    0    0  0.12304925309E+00 -0.12485215149E-02 -0.37959687745E-01  0.13026998357E+00  0.19663500032E-01 0.  0.
         14    1    1    2    0    0 -0.74766427917E-02  0.17372077054E-02 -0.22768922447E-01  0.24027940141E-01  0.00000000000E+00 0. -1.
     999901    1    3    3    0    0 -0.11557261030E+00 -0.48868619045E-03  0.60728610192E-01  0.88963207629E+00  0.88000000000E+00 0. -1.
        -11    1    4    4    0    0  0.84720774234E-01  0.45202565091E-02 -0.18250225586E-01  0.86783490139E-01  0.51100000000E-03 0.  1.
         11    1    4    4    0    0  0.38328478857E-01 -0.57687780240E-02 -0.19709462159E-01  0.43486493432E-01  0.51100000000E-03 0. -1.
</event>
<event>
 8    1  0.1041149E+005  0.1043930E+01  0.7957747E-01            NaN
         13   -1    0    0    0    0  0.00000000000E+00  0.00000000000E+00  0.74505805969E-08  0.10566000000E+00  0.10566000000E+00 0. -1.
     999900   -1    0    0    0    0 -0.00000000000E+00 -0.00000000000E+00 -0.74505805969E-08  0.93827000000E+00  0.93827000000E+00 0. -1.
     999902    2    1    2    0    0  0.21785456581E-01  0.78826191011E-02 -0.50227554047E-02  0.10202240962E+01  0.10199486441E+01 0.  0.
     999903    2    3    3    0    0  0.89956426128E-01 -0.60297776173E-01  0.72070115240E-01  0.13160766710E+00  0.19962367501E-01 0.  0.
         14    1    1    2    0    0 -0.21785456581E-01 -0.78826191011E-02  0.50227554047E-02  0.23705903783E-01  0.00000000000E+00 0. -1.
     999901    1    3    3    0    0 -0.68170969547E-01  0.68180395274E-01 -0.77092870644E-01  0.88861642911E+00  0.88000000000E+00 0. -1.
        -11    1    4    4    0    0  0.74233356756E-02 -0.69939696583E-02  0.14491310232E-01  0.17727964276E-01  0.51100000000E-03 0.  1.
         11    1    4    4    0    0  0.82533090452E-01 -0.53303806515E-01  0.57578805007E-01  0.11387970283E+00  0.51100000000E-03 0. -1.
</event>
<event>
 8    1  0.1041149E+005  0.1043930E+01  0.7957747E-01            NaN
         13   -1    0    0    0    0  0.00000000000E+00  0.00000000000E+00  0.74505805969E-08  0.10566000000E+00  0.10566000000E+00 0. -1.
     999900   -1    0    0    0    0 -0.00000000000E+00 -0.00000000000E+00 -0.74505805969E-08  0.93827000000E+00  0.93827000000E+00 0. -1.
     999902    2    1    2    0    0  0.11024919934E-01 -0.21034102322E-01 -0.11950623239E-02  0.10201516381E+01  0.10198744797E+01 0.  0.
     999903    2    3    3    0    0  0.95587182417E-01  0.41273823895E-01  0.76246270118E-01  0.13052800203E+00  0.19586414329E-01 0.  0.
         14    1    1    2    0    0 -0.11024919934E-01  0.21034102322E-01  0.11950623239E-02  0.23778361886E-01  0.00000000000E+00 0. -1.
     999901    1    3    3    0    0 -0.84562262483E-01 -0.62307926217E-01 -0.77441332442E-01  0.88962363608E+00  0.88000000000E+00 0. -1.
        -11    1    4    4    0    0  0.46487743329E-01  0.10162052346E-01  0.30092602474E-01  0.56304559605E-01  0.51100000000E-03 0.  1.
         11    1    4    4    0    0  0.49099439088E-01  0.31111771549E-01  0.46153667644E-01  0.74223442427E-01  0.51100000000E-03 0. -1.
</event>
<event>
 8    1  0.1041149E+005  0.1043930E+01  0.7957747E-01            NaN
         13   -1    0    0    0    0  0.00000000000E+00  0.00000000000E+00  0.74505805969E-08  0.10566000000E+00  0.10566000000E+00 0. -1.
     999900   -1    0    0    0    0 -0.00000000000E+00 -0.00000000000E+00 -0.74505805969E-08  0.93827000000E+00  0.93827000000E+00 0. -1.
     999902    2    1    2    0    0 -0.21380012554E-02 -0.12378349957E-01  0.20241754269E-01  0.10201072543E+01  0.10198290480E+01 0.  0.
     999903    2    3    3    0    0 -0.16634123351E-01  0.94746995872E-01  0.85299187459E-01  0.13110869024E+00  0.25687545413E-01 0.  0.
         14    1    1    2    0    0  0.21380012554E-02  0.12378349957E-01 -0.20241754269E-01  0.23822745705E-01  0.00000000000E+00 0. -1.
     999901    1    3    3    0    0  0.14496122096E-01 -0.10712534583E+00 -0.65057433190E-01  0.88899856405E+00  0.88000000000E+00 0.  1.
        -11    1    4    4    0    0 -0.11002279947E-01  0.78266703799E-01  0.55458698715E-01  0.96553899308E-01  0.51100000000E-03 0.  1.
         11    1    4    4    0    0 -0.56318434038E-02  0.16480292073E-01  0.29840488745E-01  0.34554790934E-01  0.51100000000E-03 0. -1.
</event>
<event>
 8    1  0.1041149E+005  0.1043930E+01  0.7957747E-01            NaN
         13   -1    0    0    0    0  0.00000000000E+00  0.00000000000E+00  0.74505805969E-08  0.10566000000E+00  0.10566000000E+00 0. -1.
     999900   -1    0    0    0    0 -0.00000000000E+00 -0.00000000000E+00 -0.74505805969E-08  0.93827000000E+00  0.93827000000E+00 0.  1.
     999902    2    1    2    0    0  0.26917604564E-02 -0.20888205214E-01 -0.59298032427E-02  0.10220502089E+01  0.10218159836E+01 0.  0.
     999903    2    3    3    0    0 -0.11639435042E+00  0.14213932792E-01  0.52422096163E-01  0.13142200026E+00  0.27820591115E-01 0.  0.
         14    1    1    2    0    0 -0.26917604564E-02  0.20888205214E-01  0.59298032427E-02  0.21879791084E-01  0.00000000000E+00 0. -1.
     999901    1    3    3    0    0  0.11908611088E+00 -0.35102138006E-01 -0.58351899405E-01  0.89062820866E+00  0.88000000000E+00 0.  1.
        -11    1    4    4    0    0 -0.60481594089E-01  0.80308579896E-05  0.13926713725E-01  0.62066398028E-01  0.51100000000E-03 0. -1.
         11    1    4    4    0    0 -0.55912756331E-01  0.14205901934E-01  0.38495382437E-01  0.69355602227E-01  0.51100000000E-03 0.  1.
</event>
<event>
 8    1  0.1041149E+005  0.1043930E+01  0.7957747E-01            NaN
         13   -1    0    0    0    0  0.00000000000E+00  0.00000000000E+00  0.74505805969E-08  0.10566000000E+00  0.10566000000E+00 0. -1.
     999900   -1    0    0    0    0 -0.00000000000E+00 -0.00000000000E+00 -0.74505805969E-08  0.93827000000E+00  0.93827000000E+00 0.  1.
     999902    2    1    2    0    0  0.16709881564E-01  0.15897656959E-01  0.11344076457E-02  0.10208379555E+01  0.10205767432E+01 0.  0.
     999903    2    3    3    0    0 -0.51679463238E-01  0.13639325125E-01  0.11739071213E+00  0.13055837532E+00  0.20201781131E-01 0.  0.
         14    1    1    2    0    0 -0.16709881564E-01 -0.15897656959E-01 -0.11344076457E-02  0.23092044504E-01  0.00000000000E+00 0.  1.
     999901    1    3    3    0    0  0.68389344801E-01  0.22583318340E-02 -0.11625630449E+00  0.89027958018E+00  0.88000000000E+00 0.  1.
        -11    1    4    4    0    0 -0.46206570401E-01  0.44807413786E-02  0.97092264958E-01  0.10762106312E+00  0.51100000000E-03 0.  1.
         11    1    4    4    0    0 -0.54728928365E-02  0.91585837467E-02  0.20298447174E-01  0.22937312199E-01  0.51100000000E-03 0. -1.
</event>
<event>
 8    1  0.1041149E+005  0.1043930E+01  0.7957747E-01            NaN
         13   -1    0    0    0    0  0.00000000000E+00  0.00000000000E+00  0.74505805969E-08  0.10566000000E+00  0.10566000000E+00 0.  1.
     999900   -1    0    0    0    0 -0.00000000000E+00 -0.00000000000E+00 -0.74505805969E-08  0.93827000000E+00  0.93827000000E+00 0.  1.
     999902    2    1    2    0    0  0.59087013786E-02 -0.14731056247E-01  0.17602178965E-01  0.10202286609E+01  0.10199533161E+01 0.  0.
     999903    2    3    3    0    0  0.36720904235E-01  0.92097201814E-01 -0.77539645443E-01  0.12814478856E+00  0.24049341563E-01 0.  0.
         14    1    1    2    0    0 -0.59087013786E-02  0.14731056247E-01 -0.17602178965E-01  0.23701339085E-01  0.00000000000E+00 0.  1.
     999901    1    3    3    0    0 -0.30812202857E-01 -0.10682825806E+00  0.95141824408E-01  0.89208387236E+00  0.88000000000E+00 0.  1.
        -11    1    4    4    0    0  0.70346295554E-02  0.49881385164E-01 -0.39961491960E-01  0.64302570396E-01  0.51100000000E-03 0. -1.
         11    1    4    4    0    0  0.29686274680E-01  0.42215816650E-01 -0.37578153483E-01  0.63842218163E-01  0.51100000000E-03 0.  1.
</event>
<event>
 7    1  0.1041149E+005  0.1043930E+01  0.7957747E-01            NaN
         13   -1    0    0    0    0  0.00000000000E+00  0.00000000000E+00  0.74505805969E-08  0.10566000000E+00  0.10566000000E+00 0.  1.
     999900   -1    0    0    0    0 -0.00000000000E+00 -0.00000000000E+00 -0.74505805969E-08  0.93827000000E+00  0.93827000000E+00 0. -1.
     999903    2    1    2    0    0 -0.35522298120E-01 -0.89323010327E-01  0.48299480461E-01  0.10938186030E+00  0.19776696215E-01 0.  0.
         14    1    1    2    0    0 -0.18113277156E-01 -0.15591650394E-01  0.35449510468E-01  0.42753457916E-01  0.00000000000E+00 0.  1.
     999901    1    1    2    0    0  0.53635575276E-01  0.10491466072E+00 -0.83748990929E-01  0.89179468178E+00  0.88000000000E+00 0.  1.
        -11    1    3    3    0    0 -0.15281469454E-01 -0.54501804070E-01  0.19520048302E-01  0.59877068751E-01  0.51100000000E-03 0.  1.
         11    1    3    3    0    0 -0.20240828666E-01 -0.34821206257E-01  0.28779432159E-01  0.49504791553E-01  0.51100000000E-03 0. -1.
</event>
<event>
 8    1  0.1041149E+005  0.1043930E+01  0.7957747E-01            NaN
         13   -1    0    0    0    0  0.00000000000E+00  0.00000000000E+00  0.74505805969E-08  0.10566000000E+00  0.10566000000E+00 0. -1.
     999900   -1    0    0    0    0 -0.00000000000E+00 -0.00000000000E+00 -0.74505805969E-08  0.93827000000E+00  0.93827000000E+00 0.  1.
     999902    2    1    2    0    0  0.17261696146E-01 -0.15965282235E-01  0.44347407910E-02  0.10200025405E+01  0.10197218539E+01 0.  0.
     999903    2    3    3    0    0  0.84220938532E-02  0.10946611742E+00  0.64764258921E-01  0.12901947372E+00  0.19946248688E-01 0.  0.
         14    1    1    2    0    0 -0.17261696146E-01  0.15965282235E-01 -0.44347407910E-02  0.23927459468E-01  0.00000000000E+00 0.  1.
     999901    1    3    3    0    0  0.88396022929E-02 -0.12543139966E+00 -0.60329518130E-01  0.89098306681E+00  0.88000000000E+00 0.  1.
        -11    1    4    4    0    0  0.10938872314E-01  0.63007939161E-01  0.46334066311E-01  0.78973198915E-01  0.51100000000E-03 0.  1.
         11    1    4    4    0    0 -0.25167784603E-02  0.46458178262E-01  0.18430192609E-01  0.50046274805E-01  0.51100000000E-03 0. -1.
</event>
<event>
 8    1  0.1041149E+005  0.1043930E+01  0.7957747E-01            NaN
         13   -1    0    0    0    0  0.00000000000E+00  0.00000000000E+00  0.74505805969E-08  0.10566000000E+00  0.10566000000E+00 0. -1.
     999900   -1    0    0    0    0 -0.00000000000E+00 -0.00000000000E+00 -0.74505805969E-08  0.93827000000E+00  0.93827000000E+00 0.  1.
     999902    2    1    2    0    0 -0.13959622824E-01  0.11601057711E-01 -0.14578630730E-01  0.10206492766E+01  0.10203837286E+01 0.  0.
     999903    2    3    3    0    0  0.14215905732E-01  0.12909760818E+00  0.12421098261E-01  0.13198269953E+00  0.19921467816E-01 0.  0.
         14    1    1    2    0    0  0.13959622824E-01 -0.11601057711E-01  0.14578630730E-01  0.23280723428E-01  0.00000000000E+00 0.  1.
     999901    1    3    3    0    0 -0.28175528556E-01 -0.11749655047E+00 -0.26999728991E-01  0.88866657704E+00  0.88000000000E+00 0. -1.
        -11    1    4    4    0    0  0.17628134921E-01  0.96067514603E-01  0.41627764248E-02  0.97761486954E-01  0.51100000000E-03 0. -1.
         11    1    4    4    0    0 -0.34122291887E-02  0.33030093578E-01  0.82583218364E-02  0.34221212579E-01  0.51100000000E-03 0.  1.
</event>
<event>
 8    1  0.1041149E+005  0.1043930E+01  0.7957747E-01            NaN
         13   -1    0    0    0    0  0.00000000000E+00  0.00000000000E+00  0.74505805969E-08  0.10566000000E+00  0.10566000000E+00 0.  1.
     999900   -1    0    0    0    0 -0.00000000000E+00 -0.00000000000E+00 -0.74505805969E-08  0.93827000000E+00  0.93827000000E+00 0.  1.
     999902    2    1    2    0    0  0.72554814791E-02 -0.58937905367E-03 -0.22487063475E-01  0.10202940654E+01  0.10200202560E+01 0.  0.
     999903    2    3    3    0    0  0.70719242945E-01 -0.84179454030E-01  0.65929580797E-01  0.12965808332E+00  0.19419504161E-01 0.  0.
         14    1    1    2    0    0 -0.72554814791E-02  0.58937905367E-03  0.22487063475E-01  0.23635934568E-01  0.00000000000E+00 0.  1.
     999901    1    3    3    0    0 -0.63463761466E-01  0.83590074976E-01 -0.88416644272E-01  0.89063598212E+00  0.88000000000E+00 0. -1.
        -11    1    4    4    0    0  0.44786087516E-01 -0.57659777693E-01  0.33272239104E-01  0.80235569510E-01  0.51100000000E-03 0. -1.
         11    1    4    4    0    0  0.25933155429E-01 -0.26519676336E-01  0.32657341694E-01  0.49422513807E-01  0.51100000000E-03 0.  1.
</event>
<event>
 8    1  0.1041149E+005  0.1043930E+01  0.7957747E-01            NaN
         13   -1    0    0    0    0  0.00000000000E+00  0.00000000000E+00  0.74505805969E-08  0.10566000000E+00  0.10566000000E+00 0.  1.
     999900   -1    0    0    0    0 -0.00000000000E+00 -0.00000000000E+00 -0.74505805969E-08  0.93827000000E+00  0.93827000000E+00 0.  1.
     999902    2    1    2    0    0 -0.16479010092E-01 -0.15922441446E-01  0.34880050267E-02  0.10207513871E+01  0.10204881902E+01 0.  0.
     999903    2    3    3    0    0 -0.11825498418E+00  0.53098852262E-01  0.15789391910E-01  0.13211557197E+00  0.20037216984E-01 0.  0.
         14    1    1    2    0    0  0.16479010092E-01  0.15922441446E-01 -0.34880050267E-02  0.23178612863E-01  0.00000000000E+00 0. -1.
     999901    1    3    3    0    0  0.10177597409E+00 -0.69021293708E-01 -0.12301386883E-01  0.88863581517E+00  0.88000000000E+00 0. -1.
        -11    1    4    4    0    0 -0.74775418099E-01  0.42702474713E-01  0.14951968697E-01  0.87399582306E-01  0.51100000000E-03 0. -1.
         11    1    4    4    0    0 -0.43479566079E-01  0.10396377550E-01  0.83742321315E-03  0.44715989659E-01  0.51100000000E-03 0.  1.
</event>
<event>
 8    1  0.1041149E+005  0.1043930E+01  0.7957747E-01            NaN
         13   -1    0    0    0    0  0.00000000000E+00  0.00000000000E+00  0.74505805969E-08  0.10566000000E+00  0.10566000000E+00 0.  1.
     999900   -1    0    0    0    0 -0.00000000000E+00 -0.00000000000E+00 -0.74505805969E-08  0.93827000000E+00  0.93827000000E+00 0. -1.
     999902    2    1    2    0    0 -0.22821276403E-01  0.64771955538E-02  0.45143480987E-02  0.10197816241E+01  0.10194956679E+01 0.  0.
     999903    2    3    3    0    0 -0.24099626454E-01  0.10201649930E+00  0.77161212449E-01  0.13163357360E+00  0.19631272688E-01 0.  0.
         14    1    1    2    0    0  0.22821276403E-01 -0.64771955538E-02 -0.45143480987E-02  0.24148375880E-01  0.00000000000E+00 0. -1.
     999901    1    3    3    0    0  0.12783500511E-02 -0.95539303748E-01 -0.72646864351E-01  0.88814805052E+00  0.88000000000E+00 0. -1.
        -11    1    4    4    0    0 -0.16032812391E-01  0.50618492011E-01  0.27898259236E-01  0.59982137308E-01  0.51100000000E-03 0. -1.
         11    1    4    4    0    0 -0.80668140630E-02  0.51398007291E-01  0.49262953213E-01  0.71651436294E-01  0.51100000000E-03 0.  1.
</event>
<event>
 8    1  0.1041149E+005  0.1043930E+01  0.7957747E-01            NaN
         13   -1    0    0    0    0  0.00000000000E+00  0.00000000000E+00  0.74505805969E-08  0.10566000000E+00  0.10566000000E+00 0. -1.
     999900   -1    0    0    0    0 -0.00000000000E+00 -0.00000000000E+00 -0.74505805969E-08  0.93827000000E+00  0.93827000000E+00 0.  1.
     999902    2    1    2    0    0  0.12772676591E-01  0.19798068786E-01 -0.22233976174E-02  0.10202646605E+01  0.10199901613E+01 0.  0.
     999903    2    3    3    0    0  0.50818639174E-01  0.11505911297E+00  0.36767869899E-01  0.13344873784E+00  0.25210232217E-01 0.  0.
         14    1    1    2    0    0 -0.12772676591E-01 -0.19798068786E-01  0.22233976174E-02  0.23665339464E-01  0.00000000000E+00 0. -1.
     999901    1    3    3    0    0 -0.38045962583E-01 -0.95261044185E-01 -0.38991267517E-01  0.88681592270E+00  0.88000000000E+00 0.  1.
        -11    1    4    4    0    0  0.34173652245E-01  0.46416137977E-01  0.15785065215E-01  0.59763917018E-01  0.51100000000E-03 0.  1.
         11    1    4    4    0    0  0.16644986929E-01  0.68642974994E-01  0.20982804684E-01  0.73684820820E-01  0.51100000000E-03 0. -1.
</event>
<event>
 8    1  0.1041149E+005  0.1043930E+01  0.7957747E-01            NaN
         13   -1    0    0    0    0  0.00000000000E+00  0.00000000000E+00  0.74505805969E-08  0.10566000000E+00  0.10566000000E+00 0.  1.
     999900   -1    0    0    0    0 -0.00000000000E+00 -0.00000000000E+00 -0.74505805969E-08  0.93827000000E+00  0.93827000000E+00 0.  1.
     999902    2    1    2    0    0  0.15468512515E-01  0.14089720931E-01 -0.79230827221E-02  0.10215565703E+01  0.10213115372E+01 0.  0.
     999903    2    3    3    0    0  0.77731413633E-01  0.48582490533E-01 -0.95982866478E-01  0.13430184618E+00  0.20538845601E-01 0.  0.
         14    1    1    2    0    0 -0.15468512515E-01 -0.14089720931E-01  0.79230827221E-02  0.22373429669E-01  0.00000000000E+00 0. -1.
     999901    1    3    3    0    0 -0.62262901118E-01 -0.34492769602E-01  0.88059783756E-01  0.88725472415E+00  0.88000000000E+00 0. -1.
        -11    1    4    4    0    0  0.42342416745E-01  0.26594738537E-01 -0.37543190065E-01  0.62529294054E-01  0.51100000000E-03 0. -1.
         11    1    4    4    0    0  0.35388996888E-01  0.21987751995E-01 -0.58439676414E-01  0.71772552128E-01  0.51100000000E-03 0.  1.
</event>
<event>
 8    1  0.1041149E+005  0.1043930E+01  0.7957747E-01            NaN
         13   -1    0    0    0    0  0.00000000000E+00  0.00000000000E+00  0.74505805969E-08  0.10566000000E+00  0.10566000000E+00 0. -1.
     999900   -1    0    0    0    0 -0.00000000000E+00 -0.00000000000E+00 -0.74505805969E-08  0.93827000000E+00  0.93827000000E+00 0. -1.
     999902    2    1    2    0    0 -0.23400527936E-01 -0.10131104158E-01 -0.52518316276E-02  0.10178952979E+01  0.10175622987E+01 0.  0.
     999903    2    3    3    0    0  0.78305674218E-01  0.95929963069E-01 -0.96640879150E-02  0.12569993276E+00  0.19306529226E-01 0.  0.
         14    1    1    2    0    0  0.23400527936E-01  0.10131104158E-01  0.52518316276E-02  0.26034702122E-01  0.00000000000E+00 0.  1.
     999901    1    3    3    0    0 -0.10170620215E+00 -0.10606106723E+00  0.44122562874E-02  0.89219536512E+00  0.88000000000E+00 0.  1.
        -11    1    4    4    0    0  0.21023907540E-01  0.29939211116E-01 -0.11320930807E-01  0.38298637650E-01  0.51100000000E-03 0.  1.
         11    1    4    4    0    0  0.57281766677E-01  0.65990751953E-01  0.16568428920E-02  0.87401295107E-01  0.51100000000E-03 0. -1.
</event>
<event>
 8    1  0.1041149E+005  0.1043930E+01  0.7957747E-01            NaN
         13   -1    0    0    0    0  0.00000000000E+00  0.00000000000E+00  0.74505805969E-08  0.10566000000E+00  0.10566000000E+00 0.  1.
     999900   -1    0    0    0    0 -0.00000000000E+00 -0.00000000000E+00 -0.74505805969E-08  0.93827000000E+00  0.93827000000E+00 0.  1.
     999902    2    1    2    0    0  0.77809820356E-02 -0.18229538057E-01  0.13223945128E-01  0.10201028629E+01  0.10198245527E+01 0.  0.
     999903    2    3    3    0    0  0.27894088905E-01  0.31188213945E-01  0.12348263171E+00  0.13161896923E+00  0.18022426096E-01 0.  0.
         14    1    1    2    0    0 -0.77809820356E-02  0.18229538057E-01 -0.13223945128E-01  0.23827137133E-01  0.00000000000E+00 0. -1.
     999901    1    3    3    0    0 -0.20113106869E-01 -0.49417752001E-01 -0.11025868658E+00  0.88848389363E+00  0.88000000000E+00 0.  1.
        -11    1    4    4    0    0  0.10337187039E-01  0.64557227831E-02  0.17161141876E-01  0.21054683660E-01  0.51100000000E-03 0.  1.
         11    1    4    4    0    0  0.17556901866E-01  0.24732491161E-01  0.10632148984E+00  0.11056428557E+00  0.51100000000E-03 0. -1.
</event>
<event>
 8    1  0.1041149E+005  0.1043930E+01  0.7957747E-01            NaN
         13   -1    0    0    0    0  0.00000000000E+00  0.00000000000E+00  0.74505805969E-08  0.10566000000E+00  0.10566000000E+00 0.  1.
     999900   -1    0    0    0    0 -0.00000000000E+00 -0.00000000000E+00 -0.74505805969E-08  0.93827000000E+00  0.93827000000E+00 0. -1.
     999902    2    1    2    0    0  0.18913214344E-01 -0.72353625864E-02  0.15126756044E-01  0.10186539462E+01  0.10183403081E+01 0.  0.
     999903    2    3    3    0    0  0.10536708057E+00  0.73932989320E-01  0.11632313023E-01  0.13069292030E+00  0.19417006280E-01 0.  0.
         14    1    1    2    0    0 -0.18913214344E-01  0.72353625864E-02 -0.15126756044E-01  0.25276053825E-01  0.00000000000E+00 0.  1.
     999901    1    3    3    0    0 -0.86453866228E-01 -0.81168351906E-01  0.34944430201E-02  0.88796102587E+00  0.88000000000E+00 0. -1.
        -11    1    4    4    0    0  0.10162759690E+00  0.73385226015E-01  0.14107831289E-01  0.12614615283E+00  0.51100000000E-03 0.  1.
         11    1    4    4    0    0  0.37394836669E-02  0.54776330484E-03 -0.24755182659E-02  0.45467674691E-02  0.51100000000E-03 0. -1.
</event>
<event>
 8    1  0.1041149E+005  0.1043930E+01  0.7957747E-01            NaN
         13   -1    0    0    0    0  0.00000000000E+00  0.00000000000E+00  0.74505805969E-08  0.10566000000E+00  0.10566000000E+00 0. -1.
     999900   -1    0    0    0    0 -0.00000000000E+00 -0.00000000000E+00 -0.74505805969E-08  0.93827000000E+00  0.93827000000E+00 0.  1.
     999902    2    1    2    0    0 -0.17793642526E-02  0.23021643318E-01  0.60973216365E-02  0.10200482176E+01  0.10197686143E+01 0.  0.
     999903    2    3    3    0    0 -0.91126579336E-01 -0.39849909356E-01  0.81568249276E-01  0.13008663537E+00  0.19418668185E-01 0.  0.
         14    1    1    2    0    0  0.17793642526E-02 -0.23021643318E-01 -0.60973216365E-02  0.23881782373E-01  0.00000000000E+00 0. -1.
     999901    1    3    3    0    0  0.89347215084E-01  0.62871552674E-01 -0.75470927639E-01  0.88996158226E+00  0.88000000000E+00 0.  1.
        -11    1    4    4    0    0 -0.44358003775E-01 -0.13122280759E-01  0.27780960839E-01  0.53961742534E-01  0.51100000000E-03 0.  1.
         11    1    4    4    0    0 -0.46768575562E-01 -0.26727628597E-01  0.53787288437E-01  0.76124892833E-01  0.51100000000E-03 0. -1.
</event>
<event>
 8    1  0.1041149E+005  0.1043930E+01  0.7957747E-01            NaN
         13   -1    0    0    0    0  0.00000000000E+00  0.00000000000E+00  0.74505805969E-08  0.10566000000E+00  0.10566000000E+00 0.  1.
     999900   -1    0    0    0    0 -0.00000000000E+00 -0.00000000000E+00 -0.74505805969E-08  0.93827000000E+00  0.93827000000E+00 0.  1.
     999902    2    1    2    0    0  0.30310334604E-02  0.22684943041E-01 -0.27892642835E-02  0.10208741157E+01  0.10206137302E+01 0.  0.
     999903    2    3    3    0    0  0.11271736172E+00 -0.32845145679E-01 -0.54017873591E-01  0.13085217680E+00  0.20502543207E-01 0.  0.
         14    1    1    2    0    0 -0.30310334604E-02 -0.22684943041E-01  0.27892642835E-02  0.23055884278E-01  0.00000000000E+00 0. -1.
     999901    1    3    3    0    0 -0.10968632826E+00  0.55530088720E-01  0.51228609307E-01  0.89002193893E+00  0.88000000000E+00 0. -1.
        -11    1    4    4    0    0  0.89472273472E-01 -0.18688206702E-01 -0.36167879469E-01  0.98300119106E-01  0.51100000000E-03 0. -1.
         11    1    4    4    0    0  0.23245088243E-01 -0.14156938977E-01 -0.17849994122E-01  0.32552057689E-01  0.51100000000E-03 0.  1.
</event>
<event>
 8    1  0.1041149E+005  0.1043930E+01  0.7957747E-01            NaN
         13   -1    0    0    0    0  0.00000000000E+00  0.00000000000E+00  0.74505805969E-08  0.10566000000E+00  0.10566000000E+00 0.  1.
     999900   -1    0    0    0    0 -0.00000000000E+00 -0.00000000000E+00 -0.74505805969E-08  0.93827000000E+00  0.93827000000E+00 0.  1.
     999902    2    1    2    0    0 -0.17555094926E-01 -0.76667104642E-02  0.15618536683E-01  0.10192136391E+01  0.10189139040E+01 0.  0.
     999903    2    3    3    0    0  0.21297464931E-01 -0.11593490162E+00  0.48376160991E-01  0.13112322448E+00  0.30960678583E-01 0.  0.
         14    1    1    2    0    0  0.17555094926E-01  0.76667104642E-02 -0.15618536683E-01  0.24716360884E-01  0.00000000000E+00 0. -1.
     999901    1    3    3    0    0 -0.38852559857E-01  0.10826819116E+00 -0.32757624308E-01  0.88809041464E+00  0.88000000000E+00 0. -1.
        -11    1    4    4    0    0 -0.20280793094E-02 -0.71807961776E-01  0.25680277327E-01  0.76290459723E-01  0.51100000000E-03 0. -1.
         11    1    4    4    0    0  0.23325544240E-01 -0.44126939847E-01  0.22695883664E-01  0.54832764754E-01  0.51100000000E-03 0.  1.
</event>
<event>
 8    1  0.1041149E+005  0.1043930E+01  0.7957747E-01            NaN
         13   -1    0    0    0    0  0.00000000000E+00  0.00000000000E+00  0.74505805969E-08  0.10566000000E+00  0.10566000000E+00 0.  1.
     999900   -1    0    0    0    0 -0.00000000000E+00 -0.00000000000E+00 -0.74505805969E-08  0.93827000000E+00  0.93827000000E+00 0.  1.
     999902    2    1    2    0    0  0.12801126081E-01  0.19817619675E-01  0.37841983040E-02  0.10200359205E+01  0.10197560258E+01 0.  0.
     999903    2    3    3    0    0 -0.36408410557E-01 -0.11411508988E+00 -0.39067129267E-01  0.12751377205E+00  0.19639128716E-01 0.  0.
         14    1    1    2    0    0 -0.12801126081E-01 -0.19817619675E-01 -0.37841983040E-02  0.23894079504E-01  0.00000000000E+00 0. -1.
     999901    1    3    3    0    0  0.49209536638E-01  0.13393270956E+00  0.42851327571E-01  0.89252214844E+00  0.88000000000E+00 0.  1.
        -11    1    4    4    0    0 -0.13958920256E-01 -0.19264308551E-01 -0.98795715764E-02  0.25764939243E-01  0.51100000000E-03 0. -1.
         11    1    4    4    0    0 -0.22449490301E-01 -0.94850781329E-01 -0.29187557690E-01  0.10174883281E+00  0.51100000000E-03 0.  1.
</event>
<event>
 8    1  0.1041149E+005  0.1043930E+01  0.7957747E-01            NaN
         13   -1    0    0    0    0  0.00000000000E+00  0.00000000000E+00  0.74505805969E-08  0.10566000000E+00  0.10566000000E+00 0.  1.
     999900   -1    0    0    0    0 -0.00000000000E+00 -0.00000000000E+00 -0.74505805969E-08  0.93827000000E+00  0.93827000000E+00 0. -1.
     999902    2    1    2    0    0  0.14419302554E-01  0.15560109209E-01 -0.95879423976E-02  0.10206499243E+01  0.10203843913E+01 0.  0.
     999903    2    3    3    0    0  0.61285150957E-01 -0.11229659254E+00  0.12025039256E-01  0.12991378779E+00  0.19146703752E-01 0.  0.
         14    1    1    2    0    0 -0.14419302554E-01 -0.15560109209E-01  0.95879423976E-02  0.23280075690E-01  0.00000000000E+00 0.  1.
     999901    1    3    3    0    0 -0.46865848404E-01  0.12785670175E+00 -0.21612981654E-01  0.89073613652E+00  0.88000000000E+00 0.  1.
        -11    1    4    4    0    0  0.10025863147E-01 -0.34953851924E-01  0.66500207702E-02  0.36969901182E-01  0.51100000000E-03 0. -1.
         11    1    4    4    0    0  0.51259287811E-01 -0.77342740616E-01  0.53750184858E-02  0.92943886607E-01  0.51100000000E-03 0.  1.
</event>
<event>
 8    1  0.1041149E+005  0.1043930E+01  0.7957747E-01            NaN
         13   -1    0    0    0    0  0.00000000000E+00  0.00000000000E+00  0.74505805969E-08  0.10566000000E+00  0.10566000000E+00 0. -1.
     999900   -1    0    0    0    0 -0.00000000000E+00 -0.00000000000E+00 -0.74505805969E-08  0.93827000000E+00  0.93827000000E+00 0. -1.
     999902    2    1    2    0    0  0.23958647822E-01  0.95716349492E-02 -0.60152546502E-02  0.10174381845E+01  0.10170932322E+01 0.  0.
     999903    2    3    3    0    0 -0.85905853757E-01 -0.75842886591E-01  0.46193844127E-01  0.12497438174E+00  0.18782057957E-01 0.  0.
         14    1    1    2    0    0 -0.23958647822E-01 -0.95716349492E-02  0.60152546502E-02  0.26491815520E-01  0.00000000000E+00 0. -1.
     999901    1    3    3    0    0  0.10986450158E+00  0.85414521540E-01 -0.52209098777E-01  0.89246380273E+00  0.88000000000E+00 0. -1.
        -11    1    4    4    0    0 -0.82599003126E-01 -0.66007838653E-01  0.42100186142E-01  0.11380824608E+00  0.51100000000E-03 0.  1.
         11    1    4    4    0    0 -0.33068506306E-02 -0.98350479382E-02  0.40936579851E-02  0.11166135667E-01  0.51100000000E-03 0. -1.
</event>
<event>
 8    1  0.1041149E+005  0.1043930E+01  0.7957747E-01            NaN
         13   -1    0    0    0    0  0.00000000000E+00  0.00000000000E+00  0.74505805969E-08  0.10566000000E+00  0.10566000000E+00 0.  1.
     999900   -1    0    0    0    0 -0.00000000000E+00 -0.00000000000E+00 -0.74505805969E-08  0.93827000000E+00  0.93827000000E+00 0. -1.
     999902    2    1    2    0    0  0.22813318782E-01  0.26974331512E-02 -0.54356037335E-02  0.10203234448E+01  0.10200503236E+01 0.  0.
     999903    2    3    3    0    0 -0.66970651748E-01 -0.71871185718E-01 -0.81772296938E-01  0.12934144107E+00  0.19798088259E-01 0.  0.
         14    1    1    2    0    0 -0.22813318782E-01 -0.26974331512E-02  0.54356037335E-02  0.23606555179E-01  0.00000000000E+00 0.  1.
     999901    1    3    3    0    0  0.89783970530E-01  0.74568618869E-01  0.76336693205E-01  0.89098200375E+00  0.88000000000E+00 0.  1.
        -11    1    4    4    0    0 -0.22222289041E-01 -0.27946567713E-01 -0.18325395919E-01  0.40136293224E-01  0.51100000000E-03 0.  1.
         11    1    4    4    0    0 -0.44748362707E-01 -0.43924618005E-01 -0.63446901019E-01  0.89205147843E-01  0.51100000000E-03 0. -1.
</event>
<event>
 8    1  0.1041149E+005  0.1043930E+01  0.7957747E-01            NaN
         13   -1    0    0    0    0  0.00000000000E+00  0.00000000000E+00  0.74505805969E-08  0.10566000000E+00  0.10566000000E+00 0.  1.
     999900   -1    0    0    0    0 -0.00000000000E+00 -0.00000000000E+00 -0.74505805969E-08  0.93827000000E+00  0.93827000000E+00 0. -1.
     999902    2    1    2    0    0  0.21246819562E-01  0.86963972034E-02  0.55519285560E-02  0.10203105467E+01  0.10200371234E+01 0.  0.
     999903    2    3    3    0    0 -0.24513700480E-01  0.15100890464E-01 -0.12463591358E+00  0.12953340451E+00  0.20391996612E-01 0.  0.
         14    1    1    2    0    0 -0.21246819562E-01 -0.86963972034E-02 -0.55519285560E-02  0.23619453349E-01  0.00000000000E+00 0.  1.
     999901    1    3    3    0    0  0.45760520043E-01 -0.64044932607E-02  0.13018784213E+00  0.89077714214E+00  0.88000000000E+00 0.  1.
        -11    1    4    4    0    0  0.16006813466E-03  0.10076681778E-01 -0.36687148823E-01  0.38049614284E-01  0.51100000000E-03 0.  1.
         11    1    4    4    0    0 -0.24673768615E-01  0.50242086863E-02 -0.87948764754E-01  0.91483790222E-01  0.51100000000E-03 0. -1.
</event>
<event>
 8    1  0.1041149E+005  0.1043930E+01  0.7957747E-01            NaN
         13   -1    0    0    0    0  0.00000000000E+00  0.00000000000E+00  0.74505805969E-08  0.10566000000E+00  0.10566000000E+00 0. -1.
     999900   -1    0    0    0    0 -0.00000000000E+00 -0.00000000000E+00 -0.74505805969E-08  0.93827000000E+00  0.93827000000E+00 0.  1.
     999902    2    1    2    0    0 -0.11390893887E-01 -0.19620743911E-01 -0.15869527753E-02  0.10211869907E+01  0.10209337027E+01 0.  0.
     999903    2    3    3    0    0 -0.99042872481E-01 -0.83269978025E-01  0.28600424243E-01  0.13403121398E+00  0.20074915281E-01 0.  0.
         14    1    1    2    0    0  0.11390893887E-01  0.19620743911E-01  0.15869527753E-02  0.22743009350E-01  0.00000000000E+00 0. -1.
     999901    1    3    3    0    0  0.87651978594E-01  0.63649234114E-01 -0.30187377018E-01  0.88715577667E+00  0.88000000000E+00 0.  1.
        -11    1    4    4    0    0 -0.75907420673E-01 -0.55365978601E-01  0.14189326965E-01  0.95020662071E-01  0.51100000000E-03 0.  1.
         11    1    4    4    0    0 -0.23135451808E-01 -0.27903999424E-01  0.14411097278E-01  0.39010551905E-01  0.51100000000E-03 0. -1.
</event>
<event>
 8    1  0.1041149E+005  0.1043930E+01  0.7957747E-01            NaN
         13   -1    0    0    0    0  0.00000000000E+00  0.00000000000E+00  0.74505805969E-08  0.10566000000E+00  0.10566000000E+00 0. -1.
     999900   -1    0    0    0    0 -0.00000000000E+00 -0.00000000000E+00 -0.74505805969E-08  0.93827000000E+00  0.93827000000E+00 0.  1.
     999902    2    1    2    0    0 -0.21301506655E-01  0.63011382891E-02 -0.58773775861E-02  0.10209517038E+01  0.10206930877E+01 0.  0.
     999903    2    3    3    0    0  0.98599236116E-01 -0.75130494550E-01  0.27635564611E-01  0.12846617660E+00  0.19324428199E-01 0.  0.
         14    1    1    2    0    0  0.21301506655E-01 -0.63011382891E-02  0.58773775861E-02  0.22978296212E-01  0.00000000000E+00 0. -1.
     999901    1    3    3    0    0 -0.11990074277E+00  0.81431632839E-01 -0.33512942197E-01  0.89248552719E+00  0.88000000000E+00 0.  1.
        -11    1    4    4    0    0  0.40924959853E-01 -0.36611885243E-01  0.34805751615E-02  0.55024158371E-01  0.51100000000E-03 0. -1.
         11    1    4    4    0    0  0.57674276262E-01 -0.38518609307E-01  0.24154989449E-01  0.73442018230E-01  0.51100000000E-03 0.  1.
</event>
<event>
 8    1  0.1041149E+005  0.1043930E+01  0.7957747E-01            NaN
         13   -1    0    0    0    0  0.00000000000E+00  0.00000000000E+00  0.74505805969E-08  0.10566000000E+00  0.10566000000E+00 0. -1.
     999900   -1    0    0    0    0 -0.00000000000E+00 -0.00000000000E+00 -0.74505805969E-08  0.93827000000E+00  0.93827000000E+00 0.  1.
     999902    2    1    2    0    0  0.20207370432E-02  0.23257066094E-01  0.32784616737E-02  0.10203562262E+01  0.10200838718E+01 0.  0.
     999903    2    3    3    0    0 -0.85909088905E-01  0.22152320681E-02 -0.95839034636E-01  0.13018843798E+00  0.19458417532E-01 0.  0.
         14    1    1    2    0    0 -0.20207370432E-02 -0.23257066094E-01 -0.32784616737E-02  0.23573773827E-01  0.00000000000E+00 0. -1.
     999901    1    3    3    0    0  0.87929825948E-01  0.21041834026E-01  0.99117496309E-01  0.89016778820E+00  0.88000000000E+00 0. -1.
        -11    1    4    4    0    0 -0.19528775953E-01  0.52804086006E-02 -0.13269319392E-01  0.24199003355E-01  0.51100000000E-03 0. -1.
         11    1    4    4    0    0 -0.66380312952E-01 -0.30651765325E-02 -0.82569715243E-01  0.10598943462E+00  0.51100000000E-03 0.  1.
</event>
<event>
 8    1  0.1041149E+005  0.1043930E+01  0.7957747E-01            NaN
         13   -1    0    0    0    0  0.00000000000E+00  0.00000000000E+00  0.74505805969E-08  0.10566000000E+00  0.10566000000E+00 0. -1.
     999900   -1    0    0    0    0 -0.00000000000E+00 -0.00000000000E+00 -0.74505805969E-08  0.93827000000E+00  0.93827000000E+00 0.  1.
     999902    2    1    2    0    0  0.25109369091E-02  0.10988122474E-01 -0.20325325741E-01  0.10206886036E+01  0.10204239624E+01 0.  0.
     999903    2    3    3    0    0  0.71024080021E-01 -0.17028703302E-01 -0.10943336463E+00  0.13309678532E+00  0.20117064633E-01 0.  0.
         14    1    1    2    0    0 -0.25109369091E-02 -0.10988122474E-01  0.20325325741E-01  0.23241396390E-01  0.00000000000E+00 0. -1.
     999901    1    3    3    0    0 -0.68513143112E-01  0.28016825776E-01  0.89108038885E-01  0.88759181829E+00  0.88000000000E+00 0. -1.
        -11    1    4    4    0    0  0.50845741693E-01 -0.15516141640E-01 -0.62936333524E-01  0.82384970099E-01  0.51100000000E-03 0. -1.
         11    1    4    4    0    0  0.20178338328E-01 -0.15125616622E-02 -0.46497031103E-01  0.50711815219E-01  0.51100000000E-03 0.  1.
</event>
<event>
 8    1  0.1041149E+005  0.1043930E+01  0.7957747E-01            NaN
         13   -1    0    0    0    0  0.00000000000E+00  0.00000000000E+00  0.74505805969E-08  0.10566000000E+00  0.10566000000E+00 0.  1.
     999900   -1    0    0    0    0 -0.00000000000E+00 -0.00000000000E+00 -0.74505805969E-08  0.93827000000E+00  0.93827000000E+00 0. -1.
     999902    2    1    2    0    0  0.84684959526E-02  0.16707867494E-03  0.23205188618E-01  0.10192272852E+01  0.10189278850E+01 0.  0.
     999903    2    3    3    0    0  0.63671644344E-01 -0.10863302007E+00  0.28453122552E-01  0.13079473860E+00  0.21035021245E-01 0.  0.
         14    1    1    2    0    0 -0.84684959526E-02 -0.16707867494E-03 -0.23205188618E-01  0.24702714786E-01  0.00000000000E+00 0. -1.
     999901    1    3    3    0    0 -0.55203148391E-01  0.10880009874E+00 -0.52479339335E-02  0.88843254662E+00  0.88000000000E+00 0.  1.
        -11    1    4    4    0    0  0.58171850522E-01 -0.82832947961E-01  0.20972248311E-01  0.10337000426E+00  0.51100000000E-03 0.  1.
         11    1    4    4    0    0  0.54997938215E-02 -0.25800072108E-01  0.74808742403E-02  0.27424734333E-01  0.51100000000E-03 0. -1.
</event>
<event>
 8    1  0.1041149E+005  0.1043930E+01  0.7957747E-01            NaN
         13   -1    0    0    0    0  0.00000000000E+00  0.00000000000E+00  0.74505805969E-08  0.10566000000E+00  0.10566000000E+00 0. -1.
     999900   -1    0    0    0    0 -0.00000000000E+00 -0.00000000000E+00 -0.74505805969E-08  0.93827000000E+00  0.93827000000E+00 0.  1.
     999902    2    1    2    0    0  0.51868309114E-02  0.10818032900E-01 -0.20578637546E-01  0.10201095597E+01  0.10198314079E+01 0.  0.
     999903    2    3    3    0    0 -0.10094426209E+00 -0.77089985795E-01  0.86024725761E-02  0.12890634732E+00  0.20254231319E-01 0.  0.
         14    1    1    2    0    0 -0.51868309114E-02 -0.10818032900E-01  0.20578637546E-01  0.23820440255E-01  0.00000000000E+00 0.  1.
     999901    1    3    3    0    0  0.10613109300E+00  0.87908018694E-01 -0.29181110122E-01  0.89120321243E+00  0.88000000000E+00 0. -1.
        -11    1    4    4    0    0 -0.38033830373E-01 -0.25148643227E-01 -0.61100417831E-02  0.46006741251E-01  0.51100000000E-03 0.  1.
         11    1    4    4    0    0 -0.62910431714E-01 -0.51941342568E-01  0.14712514359E-01  0.82899606067E-01  0.51100000000E-03 0. -1.
</event>
<event>
 8    1  0.1041149E+005  0.1043930E+01  0.7957747E-01            NaN
         13   -1    0    0    0    0  0.00000000000E+00  0.00000000000E+00  0.74505805969E-08  0.10566000000E+00  0.10566000000E+00 0.  1.
     999900   -1    0    0    0    0 -0.00000000000E+00 -0.00000000000E+00 -0.74505805969E-08  0.93827000000E+00  0.93827000000E+00 0.  1.
     999902    2    1    2    0    0 -0.82529513300E-03 -0.13221020164E-01 -0.17263464828E-01  0.10221698597E+01  0.10219382166E+01 0.  0.
     999903    2    3    3    0    0  0.25643357950E-01  0.12649206820E+00 -0.27396322192E-02  0.13063675415E+00  0.20015764393E-01 0.  0.
         14    1    1    2    0    0  0.82529513300E-03  0.13221020164E-01  0.17263464828E-01  0.21760140259E-01  0.00000000000E+00 0.  1.
     999901    1    3    3    0    0 -0.26468653083E-01 -0.13971308837E+00 -0.14523832609E-01  0.89153310559E+00  0.88000000000E+00 0. -1.
        -11    1    4    4    0    0 -0.58767555873E-03  0.42644518988E-01  0.15019507653E-02  0.42678066257E-01  0.51100000000E-03 0.  1.
         11    1    4    4    0    0  0.26231033508E-01  0.83847549214E-01 -0.42415829845E-02  0.87958687890E-01  0.51100000000E-03 0. -1.
</event>
<event>
 8    1  0.1041149E+005  0.1043930E+01  0.7957747E-01            NaN
         13   -1    0    0    0    0  0.00000000000E+00  0.00000000000E+00  0.74505805969E-08  0.10566000000E+00  0.10566000000E+00 0.  1.
     999900   -1    0    0    0    0 -0.00000000000E+00 -0.00000000000E+00 -0.74505805969E-08  0.93827000000E+00  0.93827000000E+00 0. -1.
     999902    2    1    2    0    0 -0.14167712926E-01  0.12771357187E-01  0.14071916496E-01  0.10202266144E+01  0.10199512215E+01 0.  0.
     999903    2    3    3    0    0  0.17971783602E-02 -0.52148435922E-01 -0.11542499770E+00  0.12824067951E+00  0.20001314167E-01 0.  0.
         14    1    1    2    0    0  0.14167712926E-01 -0.12771357187E-01 -0.14071916496E-01  0.23703385577E-01  0.00000000000E+00 0. -1.
     999901    1    3    3    0    0 -0.15964891286E-01  0.64919793109E-01  0.12949691420E+00  0.89198593491E+00  0.88000000000E+00 0.  1.
        -11    1    4    4    0    0 -0.55529888563E-02 -0.57470268273E-02 -0.99297224715E-02  0.12756351828E-01  0.51100000000E-03 0. -1.
         11    1    4    4    0    0  0.73501672165E-02 -0.46401409095E-01 -0.10549527523E+00  0.11548432769E+00  0.51100000000E-03 0.  1.
</event>
<event>
 8    1  0.1041149E+005  0.1043930E+01  0.7957747E-01            NaN
         13   -1    0    0    0    0  0.00000000000E+00  0.00000000000E+00  0.74505805969E-08  0.10566000000E+00  0.10566000000E+00 0.  1.
     999900   -1    0    0    0    0 -0.00000000000E+00 -0.00000000000E+00 -0.74505805969E-08  0.93827000000E+00  0.93827000000E+00 0.  1.
     999902    2    1    2    0    0  0.12559081192E-01  0.53341032376E-02 -0.19140849684E-01  0.10204235051E+01  0.10201527211E+01 0.  0.
     999903    2    3    3    0    0  0.36708036506E-01 -0.43413398284E-01 -0.11870413557E+00  0.13313981940E+00  0.20083242116E-01 0.  0.
         14    1    1    2    0    0 -0.12559081192E-01 -0.53341032376E-02  0.19140849684E-01  0.23506494940E-01  0.00000000000E+00 0.  1.
     999901    1    3    3    0    0 -0.24148955313E-01  0.48747501522E-01  0.99563285883E-01  0.88728368566E+00  0.88000000000E+00 0. -1.
        -11    1    4    4    0    0  0.23812522987E-01 -0.13071183286E-01 -0.48926033650E-01  0.55963469989E-01  0.51100000000E-03 0. -1.
         11    1    4    4    0    0  0.12895513519E-01 -0.30342214999E-01 -0.69778101916E-01  0.77176349408E-01  0.51100000000E-03 0.  1.
</event>
<event>
 8    1  0.1041149E+005  0.1043930E+01  0.7957747E-01            NaN
         13   -1    0    0    0    0  0.00000000000E+00  0.00000000000E+00  0.74505805969E-08  0.10566000000E+00  0.10566000000E+00 0. -1.
     999900   -1    0    0    0    0 -0.00000000000E+00 -0.00000000000E+00 -0.74505805969E-08  0.93827000000E+00  0.93827000000E+00 0. -1.
     999902    2    1    2    0    0 -0.20995228301E-01  0.22342881350E-02 -0.10154893511E-01  0.10205010965E+01  0.10202321180E+01 0.  0.
     999903    2    3    3    0    0  0.41861522758E-01  0.10495730615E+00  0.60187671256E-01  0.12951789468E+00  0.19593521142E-01 0.  0.
         14    1    1    2    0    0  0.20995228301E-01 -0.22342881350E-02  0.10154893511E-01  0.23428903455E-01  0.00000000000E+00 0. -1.
     999901    1    3    3    0    0 -0.62856751059E-01 -0.10272301801E+00 -0.70342564766E-01  0.89098320186E+00  0.88000000000E+00 0. -1.
        -11    1    4    4    0    0  0.20465072961E-01  0.45429930797E-01  0.15925960288E-01  0.52312476099E-01  0.51100000000E-03 0. -1.
         11    1    4    4    0    0  0.21396449797E-01  0.59527375349E-01  0.44261710968E-01  0.77205418583E-01  0.51100000000E-03 0.  1.
</event>
<event>
 8    1  0.1041149E+005  0.1043930E+01  0.7957747E-01            NaN
         13   -1    0    0    0    0  0.00000000000E+00  0.00000000000E+00  0.74505805969E-08  0.10566000000E+00  0.10566000000E+00 0.  1.
     999900   -1    0    0    0    0 -0.00000000000E+00 -0.00000000000E+00 -0.74505805969E-08  0.93827000000E+00  0.93827000000E+00 0.  1.
     999902    2    1    2    0    0 -0.12652529871E-01 -0.19671488423E-01  0.17599084879E-02  0.10204746968E+01  0.10202051047E+01 0.  0.
     999903    2    3    3    0    0 -0.32726289524E-01  0.11560493206E+00 -0.41851966233E-01  0.12884435785E+00  0.20341365040E-01 0.  0.
         14    1    1    2    0    0  0.12652529871E-01  0.19671488423E-01 -0.17599084879E-02  0.23455303170E-01  0.00000000000E+00 0. -1.
     999901    1    3    3    0    0  0.20073759653E-01 -0.13527642048E+00  0.43611874721E-01  0.89163033898E+00  0.88000000000E+00 0. -1.
        -11    1    4    4    0    0 -0.18960942287E-01  0.75866371723E-01 -0.36981505544E-01  0.86505008896E-01  0.51100000000E-03 0.  1.
         11    1    4    4    0    0 -0.13765347237E-01  0.39738560333E-01 -0.48704606886E-02  0.42339348958E-01  0.51100000000E-03 0. -1.
</event>
<event>
 8    1  0.1041149E+005  0.1043930E+01  0.7957747E-01            NaN
         13   -1    0    0    0    0  0.00000000000E+00  0.00000000000E+00  0.74505805969E-08  0.10566000000E+00  0.10566000000E+00 0.  1.
     999900   -1    0    0    0    0 -0.00000000000E+00 -0.00000000000E+00 -0.74505805969E-08  0.93827000000E+00  0.93827000000E+00 0. -1.
     999902    2    1    2    0    0 -0.17175478726E-01 -0.13174395594E-01 -0.62440174037E-02  0.10214011402E+01  0.10211526525E+01 0.  0.
     999903    2    3    3    0    0 -0.60403626953E-01  0.11530919439E+00  0.49811375799E-02  0.13095029387E+00  0.13355121665E-01 0.  0.
         14    1    1    2    0    0  0.17175478726E-01  0.13174395594E-01  0.62440174037E-02  0.22528859760E-01  0.00000000000E+00 0.  1.
     999901    1    3    3    0    0  0.43228148227E-01 -0.12848358998E+00 -0.11225154984E-01  0.89045084637E+00  0.88000000000E+00 0. -1.
        -11    1    4    4    0    0 -0.92222439821E-02  0.28590020254E-01 -0.11421793958E-02  0.30066671531E-01  0.51100000000E-03 0.  1.
         11    1    4    4    0    0 -0.51181382970E-01  0.86719174132E-01  0.61233169757E-02  0.10088362234E+00  0.51100000000E-03 0. -1.
</event>
<event>
 8    1  0.1041149E+005  0.1043930E+01  0.7957747E-01            NaN
         13   -1    0    0    0    0  0.00000000000E+00  0.00000000000E+00  0.74505805969E-08  0.10566000000E+00  0.10566000000E+00 0.  1.
     999900   -1    0    0    0    0 -0.00000000000E+00 -0.00000000000E+00 -0.74505805969E-08  0.93827000000E+00  0.93827000000E+00 0.  1.
     999902    2    1    2    0    0  0.20915261611E-01  0.92613814503E-02  0.60019706658E-02  0.10202816384E+01  0.10200075375E+01 0.  0.
     999903    2    3    3    0    0  0.63356182037E-01 -0.48482266840E-01  0.10331717381E+00  0.13202164864E+00  0.19767177450E-01 0.  0.
         14    1    1    2    0    0 -0.20915261611E-01 -0.92613814503E-02 -0.60019706658E-02  0.23648361603E-01  0.00000000000E+00 0. -1.
     999901    1    3    3    0    0 -0.42440920426E-01  0.57743648290E-01 -0.97315203145E-01  0.88825998976E+00  0.88000000000E+00 0.  1.
        -11    1    4    4    0    0  0.16112479095E-01 -0.24076512311E-01  0.38365697304E-01  0.48077835624E-01  0.51100000000E-03 0.  1.
         11    1    4    4    0    0  0.47243702942E-01 -0.24405754530E-01  0.64951476507E-01  0.83943813013E-01  0.51100000000E-03 0. -1.
</event>
<event>
 8    1  0.1041149E+005  0.1043930E+01  0.7957747E-01            NaN
         13   -1    0    0    0    0  0.00000000000E+00  0.00000000000E+00  0.74505805969E-08  0.10566000000E+00  0.10566000000E+00 0.  1.
     999900   -1    0    0    0    0 -0.00000000000E+00 -0.00000000000E+00 -0.74505805969E-08  0.93827000000E+00  0.93827000000E+00 0. -1.
     999902    2    1    2    0    0 -0.13444247204E-01 -0.14507806593E-01 -0.12041236883E-01  0.10207736700E+01  0.10205109846E+01 0.  0.
     999903    2    3    3    0    0  0.22813653242E-01 -0.11763469600E+00 -0.53990607441E-01  0.13301833185E+00  0.20506253664E-01 0.  0.
         14    1    1    2    0    0  0.13444247204E-01  0.14507806593E-01  0.12041236883E-01  0.23156330035E-01  0.00000000000E+00 0.  1.
     999901    1    3    3    0    0 -0.36257900445E-01  0.10312688940E+00  0.41949370558E-01  0.88775533812E+00  0.88000000000E+00 0.  1.
        -11    1    4    4    0    0  0.25680917675E-01 -0.92643131645E-01 -0.39126447401E-01  0.10379498726E+00  0.51100000000E-03 0.  1.
         11    1    4    4    0    0 -0.28672644327E-02 -0.24991564353E-01 -0.14864160040E-01  0.29223344587E-01  0.51100000000E-03 0. -1.
</event>
<event>
 8    1  0.1041149E+005  0.1043930E+01  0.7957747E-01            NaN
         13   -1    0    0    0    0  0.00000000000E+00  0.00000000000E+00  0.74505805969E-08  0.10566000000E+00  0.10566000000E+00 0. -1.
     999900   -1    0    0    0    0 -0.00000000000E+00 -0.00000000000E+00 -0.74505805969E-08  0.93827000000E+00  0.93827000000E+00 0.  1.
     999902    2    1    2    0    0  0.16869489726E-02 -0.89524824273E-02  0.22249065019E-01  0.10198880859E+01  0.10196046754E+01 0.  0.
     999903    2    3    3    0    0  0.49663035392E-01  0.15914471122E-02  0.12170533656E+00  0.13292448505E+00  0.19692130155E-01 0.  0.
         14    1    1    2    0    0 -0.16869489726E-02  0.89524824273E-02 -0.22249065019E-01  0.24041914081E-01  0.00000000000E+00 0.  1.
     999901    1    3    3    0    0 -0.47976086419E-01 -0.10543929539E-01 -0.99456271543E-01  0.88696360087E+00  0.88000000000E+00 0.  1.
        -11    1    4    4    0    0  0.23239304398E-01 -0.88285080489E-02  0.62189422796E-01  0.66976064769E-01  0.51100000000E-03 0. -1.
         11    1    4    4    0    0  0.26423730994E-01  0.10419955161E-01  0.59515913765E-01  0.65948420281E-01  0.51100000000E-03 0.  1.
</event>
<event>
 8    1  0.1041149E+005  0.1043930E+01  0.7957747E-01            NaN
         13   -1    0    0    0    0  0.00000000000E+00  0.00000000000E+00  0.74505805969E-08  0.10566000000E+00  0.10566000000E+00 0. -1.
     999900   -1    0    0    0    0 -0.00000000000E+00 -0.00000000000E+00 -0.74505805969E-08  0.93827000000E+00  0.93827000000E+00 0. -1.
     999902    2    1    2    0    0 -0.21013049038E-01  0.29103234991E-02  0.10386927196E-01  0.10203099562E+01  0.10200365191E+01 0.  0.
     999903    2    3    3    0    0 -0.20053801442E-01 -0.42487716343E-01  0.12183130700E+00  0.13211980090E+00  0.20134880968E-01 0.  0.
         14    1    1    2    0    0  0.21013049038E-01 -0.29103234991E-02 -0.10386927196E-01  0.23620043804E-01  0.00000000000E+00 0.  1.
     999901    1    3    3    0    0 -0.95924759569E-03  0.45398039842E-01 -0.11144437980E+00  0.88819015530E+00  0.88000000000E+00 0. -1.
        -11    1    4    4    0    0 -0.43516855648E-02 -0.24237711419E-01  0.41520538188E-01  0.48276495673E-01  0.51100000000E-03 0.  1.
         11    1    4    4    0    0 -0.15702115877E-01 -0.18250004924E-01  0.80310768813E-01  0.83843305225E-01  0.51100000000E-03 0. -1.
</event>
<event>
 8    1  0.1041149E+005  0.1043930E+01  0.7957747E-01            NaN
         13   -1    0    0    0    0  0.00000000000E+00  0.00000000000E+00  0.74505805969E-08  0.10566000000E+00  0.10566000000E+00 0. -1.
     999900   -1    0    0    0    0 -0.00000000000E+00 -0.00000000000E+00 -0.74505805969E-08  0.93827000000E+00  0.93827000000E+00 0.  1.
     999902    2    1    2    0    0 -0.57297582279E-02  0.39777156066E-02 -0.11294092641E-01  0.10306556307E+01  0.10305701433E+01 0.  0.
     999903    2    3    3    0    0  0.90402562495E-01 -0.44525447097E-01  0.92242569798E-01  0.13806736040E+00  0.19969115627E-01 0.  0.
         14    1    1    2    0    0  0.57297582279E-02 -0.39777156066E-02  0.11294092641E-01  0.13274369265E-01  0.00000000000E+00 0. -1.
     999901    1    3    3    0    0 -0.96132320722E-01  0.48503162704E-01 -0.10353666244E+00  0.89258827034E+00  0.88000000000E+00 0. -1.
        -11    1    4    4    0    0  0.42581721809E-01 -0.13775866375E-01  0.50836784282E-01  0.67731951720E-01  0.51100000000E-03 0. -1.
         11    1    4    4    0    0  0.47820840686E-01 -0.30749580722E-01  0.41405785515E-01  0.70335408676E-01  0.51100000000E-03 0.  1.
</event>
<event>
 8    1  0.1041149E+005  0.1043930E+01  0.7957747E-01            NaN
         13   -1    0    0    0    0  0.00000000000E+00  0.00000000000E+00  0.74505805969E-08  0.10566000000E+00  0.10566000000E+00 0. -1.
     999900   -1    0    0    0    0 -0.00000000000E+00 -0.00000000000E+00 -0.74505805969E-08  0.93827000000E+00  0.93827000000E+00 0. -1.
     999902    2    1    2    0    0 -0.75471171988E-02 -0.14946013082E-01 -0.17889895422E-01  0.10194271299E+01  0.10191326128E+01 0.  0.
     999903    2    3    3    0    0 -0.65370447059E-01  0.65947148394E-01  0.85563179227E-01  0.12780513617E+00  0.19767990825E-01 0.  0.
         14    1    1    2    0    0  0.75471171988E-02  0.14946013082E-01  0.17889895422E-01  0.24502870103E-01  0.00000000000E+00 0. -1.
     999901    1    3    3    0    0  0.57823329860E-01 -0.80893161476E-01 -0.10345307465E+00  0.89162199373E+00  0.88000000000E+00 0. -1.
        -11    1    4    4    0    0 -0.17197826941E-01  0.11852523357E-01  0.29781882289E-01  0.36379516147E-01  0.51100000000E-03 0. -1.
         11    1    4    4    0    0 -0.48172620117E-01  0.54094625037E-01  0.55781296938E-01  0.91425620020E-01  0.51100000000E-03 0.  1.
</event>
<event>
 8    1  0.1041149E+005  0.1043930E+01  0.7957747E-01            NaN
         13   -1    0    0    0    0  0.00000000000E+00  0.00000000000E+00  0.74505805969E-08  0.10566000000E+00  0.10566000000E+00 0.  1.
     999900   -1    0    0    0    0 -0.00000000000E+00 -0.00000000000E+00 -0.74505805969E-08  0.93827000000E+00  0.93827000000E+00 0. -1.
     999902    2    1    2    0    0  0.81217379938E-02  0.21615852256E-01 -0.52052404303E-02  0.10202592961E+01  0.10199846710E+01 0.  0.
     999903    2    3    3    0    0  0.83770222433E-01 -0.78014639676E-01 -0.57919105103E-01  0.12985058112E+00  0.20070289274E-01 0.  0.
         14    1    1    2    0    0 -0.81217379938E-02 -0.21615852256E-01  0.52052404303E-02  0.23670703934E-01  0.00000000000E+00 0.  1.
     999901    1    3    3    0    0 -0.75648484439E-01  0.99630491931E-01  0.52713864673E-01  0.89040871494E+00  0.88000000000E+00 0.  1.
        -11    1    4    4    0    0  0.62331453592E-01 -0.45333070964E-01 -0.40281388086E-01  0.86966365781E-01  0.51100000000E-03 0. -1.
         11    1    4    4    0    0  0.21438768841E-01 -0.32681568711E-01 -0.17637717017E-01  0.42884215341E-01  0.51100000000E-03 0.  1.
</event>
<event>
 8    1  0.1041149E+005  0.1043930E+01  0.7957747E-01            NaN
         13   -1    0    0    0    0  0.00000000000E+00  0.00000000000E+00  0.74505805969E-08  0.10566000000E+00  0.10566000000E+00 0.  1.
     999900   -1    0    0    0    0 -0.00000000000E+00 -0.00000000000E+00 -0.74505805969E-08  0.93827000000E+00  0.93827000000E+00 0. -1.
     999902    2    1    2    0    0 -0.13522737830E-01 -0.37390285159E-03  0.17250821122E-01  0.10220075213E+01  0.10217723712E+01 0.  0.
     999903    2    3    3    0    0  0.68386390965E-01  0.78188917467E-01 -0.75462743519E-01  0.12988811946E+00  0.19649240034E-01 0.  0.
         14    1    1    2    0    0  0.13522737830E-01  0.37390285159E-03 -0.17250821122E-01  0.21922478673E-01  0.00000000000E+00 0. -1.
     999901    1    3    3    0    0 -0.81909128796E-01 -0.78562820319E-01  0.92713564641E-01  0.89211940187E+00  0.88000000000E+00 0.  1.
        -11    1    4    4    0    0  0.29997771081E-01  0.46220392335E-01 -0.46764017345E-01  0.72272576934E-01  0.51100000000E-03 0.  1.
         11    1    4    4    0    0  0.38388619884E-01  0.31968525133E-01 -0.28698726173E-01  0.57615542527E-01  0.51100000000E-03 0. -1.
</event>
<event>
 8    1  0.1041149E+005  0.1043930E+01  0.7957747E-01            NaN
         13   -1    0    0    0    0  0.00000000000E+00  0.00000000000E+00  0.74505805969E-08  0.10566000000E+00  0.10566000000E+00 0. -1.
     999900   -1    0    0    0    0 -0.00000000000E+00 -0.00000000000E+00 -0.74505805969E-08  0.93827000000E+00  0.93827000000E+00 0.  1.
     999902    2    1    2    0    0  0.13982458383E-01  0.18637003565E-01  0.17774835617E-02  0.10205632182E+01  0.10202956806E+01 0.  0.
     999903    2    3    3    0    0 -0.86808054354E-01 -0.25397670878E-01  0.90178922573E-01  0.12932105445E+00  0.20273555701E-01 0.  0.
         14    1    1    2    0    0 -0.13982458383E-01 -0.18637003565E-01 -0.17774835617E-02  0.23366781809E-01  0.00000000000E+00 0.  1.
     999901    1    3    3    0    0  0.10079051274E+00  0.44034674443E-01 -0.88401439011E-01  0.89124216374E+00  0.88000000000E+00 0.  1.
        -11    1    4    4    0    0 -0.46707056902E-01 -0.42573822824E-02  0.39465246698E-01  0.61297971307E-01  0.51100000000E-03 0. -1.
         11    1    4    4    0    0 -0.40100997451E-01 -0.21140288596E-01  0.50713675875E-01  0.68023083142E-01  0.51100000000E-03 0.  1.
</event>
<event>
 8    1  0.1041149E+005  0.1043930E+01  0.7957747E-01            NaN
         13   -1    0    0    0    0  0.00000000000E+00  0.00000000000E+00  0.74505805969E-08  0.10566000000E+00  0.10566000000E+00 0.  1.
     999900   -1    0    0    0    0 -0.00000000000E+00 -0.00000000000E+00 -0.74505805969E-08  0.93827000000E+00  0.93827000000E+00 0.  1.
     999902    2    1    2    0    0  0.92590988394E-02 -0.22012014401E-01 -0.34940644460E-02  0.10197956225E+01  0.10195100017E+01 0.  0.
     999903    2    3    3    0    0  0.87436158567E-01  0.27427198769E-01  0.89519125802E-01  0.13007243973E+00  0.22535142217E-01 0.  0.
         14    1    1    2    0    0 -0.92590988394E-02  0.22012014401E-01  0.34940644460E-02  0.24134377466E-01  0.00000000000E+00 0. -1.
     999901    1    3    3    0    0 -0.78177059728E-01 -0.49439213169E-01 -0.93013190248E-01  0.88972318281E+00  0.88000000000E+00 0.  1.
        -11    1    4    4    0    0  0.78415033676E-01  0.25566121832E-01  0.68853510181E-01  0.10744119823E+00  0.51100000000E-03 0.  1.
         11    1    4    4    0    0  0.90211248912E-02  0.18610769368E-02  0.20665615620E-01  0.22631241496E-01  0.51100000000E-03 0. -1.
</event>
<event>
 8    1  0.1041149E+005  0.1043930E+01  0.7957747E-01            NaN
         13   -1    0    0    0    0  0.00000000000E+00  0.00000000000E+00  0.74505805969E-08  0.10566000000E+00  0.10566000000E+00 0. -1.
     999900   -1    0    0    0    0 -0.00000000000E+00 -0.00000000000E+00 -0.74505805969E-08  0.93827000000E+00  0.93827000000E+00 0. -1.
     999902    2    1    2    0    0  0.21479082352E-01 -0.44049393398E-02  0.86635402920E-02  0.10203543473E+01  0.10200819490E+01 0.  0.
     999903    2    3    3    0    0 -0.12624032132E+00 -0.35357830209E-02 -0.72412624778E-02  0.12790001212E+00  0.18890651903E-01 0.  0.
         14    1    1    2    0    0 -0.21479082352E-01  0.44049393398E-02 -0.86635402920E-02  0.23575652688E-01  0.00000000000E+00 0.  1.
     999901    1    3    3    0    0  0.14771940367E+00 -0.86915631892E-03  0.15904802770E-01  0.89245433519E+00  0.88000000000E+00 0. -1.
        -11    1    4    4    0    0 -0.44968458587E-01 -0.25726239267E-02 -0.11565322350E-01  0.46505897084E-01  0.51100000000E-03 0. -1.
         11    1    4    4    0    0 -0.81271862733E-01 -0.96315909413E-03  0.43240598726E-02  0.81394115035E-01  0.51100000000E-03 0.  1.
</event>
<event>
 8    1  0.1041149E+005  0.1043930E+01  0.7957747E-01            NaN
         13   -1    0    0    0    0  0.00000000000E+00  0.00000000000E+00  0.74505805969E-08  0.10566000000E+00  0.10566000000E+00 0.  1.
     999900   -1    0    0    0    0 -0.00000000000E+00 -0.00000000000E+00 -0.74505805969E-08  0.93827000000E+00  0.93827000000E+00 0.  1.
     999902    2    1    2    0    0  0.16668663634E-01 -0.62729809050E-02  0.29927435053E-02  0.10258703447E+01  0.10257113692E+01 0.  0.
     999903    2    3    3    0    0  0.11736781182E+00  0.58609890494E-01 -0.33557360299E-01  0.13700251674E+00  0.20815154278E-01 0.  0.
         14    1    1    2    0    0 -0.16668663634E-01  0.62729809050E-02 -0.29927435053E-02  0.18059655325E-01  0.00000000000E+00 0. -1.
     999901    1    3    3    0    0 -0.10069914819E+00 -0.64882871399E-01  0.36550103804E-01  0.88886782793E+00  0.88000000000E+00 0. -1.
        -11    1    4    4    0    0  0.74943285111E-01  0.39175485317E-01 -0.31655204496E-01  0.90296886578E-01  0.51100000000E-03 0.  1.
         11    1    4    4    0    0  0.42424526711E-01  0.19434405177E-01 -0.19021558032E-02  0.46705630163E-01  0.51100000000E-03 0. -1.
</event>
<event>
 8    1  0.1041149E+005  0.1043930E+01  0.7957747E-01            NaN
         13   -1    0    0    0    0  0.00000000000E+00  0.00000000000E+00  0.74505805969E-08  0.10566000000E+00  0.10566000000E+00 0.  1.
     999900   -1    0    0    0    0 -0.00000000000E+00 -0.00000000000E+00 -0.74505805969E-08  0.93827000000E+00  0.93827000000E+00 0. -1.
     999902    2    1    2    0    0 -0.10805621144E-01  0.12628900147E-01  0.16663716221E-01  0.10203942823E+01  0.10201228168E+01 0.  0.
     999903    2    3    3    0    0 -0.56864251673E-01 -0.10043618271E+00  0.58541104061E-01  0.13097940389E+00  0.20188448765E-01 0.  0.
         14    1    1    2    0    0  0.10805621144E-01 -0.12628900147E-01 -0.16663716221E-01  0.23535717655E-01  0.00000000000E+00 0. -1.
     999901    1    3    3    0    0  0.46058630529E-01  0.11306508285E+00 -0.41877387840E-01  0.88941487846E+00  0.88000000000E+00 0. -1.
        -11    1    4    4    0    0 -0.28465426604E-02 -0.15683696002E-01  0.32711911927E-02  0.16280139380E-01  0.51100000000E-03 0.  1.
         11    1    4    4    0    0 -0.54017709012E-01 -0.84752486704E-01  0.55269912868E-01  0.11469926451E+00  0.51100000000E-03 0. -1.
</event>
<event>
 8    1  0.1041149E+005  0.1043930E+01  0.7957747E-01            NaN
         13   -1    0    0    0    0  0.00000000000E+00  0.00000000000E+00  0.74505805969E-08  0.10566000000E+00  0.10566000000E+00 0. -1.
     999900   -1    0    0    0    0 -0.00000000000E+00 -0.00000000000E+00 -0.74505805969E-08  0.93827000000E+00  0.93827000000E+00 0.  1.
     999902    2    1    2    0    0  0.21576525085E-02  0.20364812159E-01  0.11596697343E-01  0.10203956755E+01  0.10201242425E+01 0.  0.
     999903    2    3    3    0    0 -0.12130157660E+00  0.40035480154E-01  0.24461858351E-01  0.13146675330E+00  0.19188865292E-01 0.  0.
         14    1    1    2    0    0 -0.21576525085E-02 -0.20364812159E-01 -0.11596697343E-01  0.23534324462E-01  0.00000000000E+00 0.  1.
     999901    1    3    3    0    0  0.12345922911E+00 -0.19670667995E-01 -0.12865161008E-01  0.88892892224E+00  0.88000000000E+00 0. -1.
        -11    1    4    4    0    0 -0.65636424366E-01  0.26546926900E-01  0.21971580844E-01  0.74134276938E-01  0.51100000000E-03 0. -1.
         11    1    4    4    0    0 -0.55665152235E-01  0.13488553254E-01  0.24902775064E-02  0.57332476357E-01  0.51100000000E-03 0.  1.
</event>
<event>
 8    1  0.1041149E+005  0.1043930E+01  0.7957747E-01            NaN
         13   -1    0    0    0    0  0.00000000000E+00  0.00000000000E+00  0.74505805969E-08  0.10566000000E+00  0.10566000000E+00 0. -1.
     999900   -1    0    0    0    0 -0.00000000000E+00 -0.00000000000E+00 -0.74505805969E-08  0.93827000000E+00  0.93827000000E+00 0. -1.
     999902    2    1    2    0    0 -0.89540330884E-02 -0.22576727548E-02 -0.21488510434E-01  0.10205413729E+01  0.10202733291E+01 0.  0.
     999903    2    3    3    0    0 -0.75331670859E-01  0.88656508525E-01 -0.60501572684E-01  0.13251355909E+00  0.19093609069E-01 0.  0.
         14    1    1    2    0    0  0.89540330884E-02  0.22576727548E-02  0.21488510434E-01  0.23388627055E-01  0.00000000000E+00 0. -1.
     999901    1    3    3    0    0  0.66377637771E-01 -0.90914181280E-01  0.39013062250E-01  0.88802781385E+00  0.88000000000E+00 0.  1.
        -11    1    4    4    0    0 -0.99497018817E-02  0.23749362936E-01 -0.12474089408E-01  0.28616303656E-01  0.51100000000E-03 0.  1.
         11    1    4    4    0    0 -0.65381968978E-01  0.64907145589E-01 -0.48027483276E-01  0.10389725543E+00  0.51100000000E-03 0. -1.
</event>
<event>
 8    1  0.1041149E+005  0.1043930E+01  0.7957747E-01            NaN
         13   -1    0    0    0    0  0.00000000000E+00  0.00000000000E+00  0.74505805969E-08  0.10566000000E+00  0.10566000000E+00 0.  1.
     999900   -1    0    0    0    0 -0.00000000000E+00 -0.00000000000E+00 -0.74505805969E-08  0.93827000000E+00  0.93827000000E+00 0. -1.
     999902    2    1    2    0    0 -0.62261448848E-02  0.14335664576E-02  0.22904625006E-01  0.10201509790E+01  0.10198738050E+01 0.  0.
     999903    2    3    3    0    0 -0.12854348696E+00  0.16730877032E-01  0.10204976292E-01  0.13146834670E+00  0.19401916287E-01 0.  0.
         14    1    1    2    0    0  0.62261448848E-02 -0.14335664576E-02 -0.22904625006E-01  0.23779020997E-01  0.00000000000E+00 0. -1.
     999901    1    3    3    0    0  0.12231734208E+00 -0.15297310575E-01  0.12699648715E-01  0.88868263231E+00  0.88000000000E+00 0. -1.
        -11    1    4    4    0    0 -0.45684170953E-01  0.12671614191E-01  0.10254681065E-01  0.48508070325E-01  0.51100000000E-03 0. -1.
         11    1    4    4    0    0 -0.82859316009E-01  0.40592628411E-02 -0.49704772974E-04  0.82960276372E-01  0.51100000000E-03 0.  1.
</event>
<event>
 8    1  0.1041149E+005  0.1043930E+01  0.7957747E-01            NaN
         13   -1    0    0    0    0  0.00000000000E+00  0.00000000000E+00  0.74505805969E-08  0.10566000000E+00  0.10566000000E+00 0.  1.
     999900   -1    0    0    0    0 -0.00000000000E+00 -0.00000000000E+00 -0.74505805969E-08  0.93827000000E+00  0.93827000000E+00 0.  1.
     999902    2    1    2    0    0 -0.17256742335E-01  0.16486009894E-01  0.34076609619E-02  0.10198219965E+01  0.10195370071E+01 0.  0.
     999903    2    3    3    0    0  0.69909297007E-01 -0.10439753578E+00  0.12930982728E-01  0.12724065923E+00  0.15388949373E-01 0.  0.
         14    1    1    2    0    0  0.17256742335E-01 -0.16486009894E-01 -0.34076609619E-02  0.24108003474E-01  0.00000000000E+00 0.  1.
     999901    1    3    3    0    0 -0.87166039342E-01  0.12088354567E+00 -0.95233217665E-02  0.89258133729E+00  0.88000000000E+00 0.  1.
        -11    1    4    4    0    0  0.37622704208E-01 -0.43949665395E-01  0.94298932944E-02  0.58619322486E-01  0.51100000000E-03 0. -1.
         11    1    4    4    0    0  0.32286592799E-01 -0.60447870384E-01  0.35010894340E-02  0.68621336745E-01  0.51100000000E-03 0.  1.
</event>
<event>
 8    1  0.1041149E+005  0.1043930E+01  0.7957747E-01            NaN
         13   -1    0    0    0    0  0.00000000000E+00  0.00000000000E+00  0.74505805969E-08  0.10566000000E+00  0.10566000000E+00 0.  1.
     999900   -1    0    0    0    0 -0.00000000000E+00 -0.00000000000E+00 -0.74505805969E-08  0.93827000000E+00  0.93827000000E+00 0. -1.
     999902    2    1    2    0    0 -0.13287040536E-01  0.17724178101E-01 -0.40755677134E-02  0.10214066302E+01  0.10211582649E+01 0.  0.
     999903    2    3    3    0    0  0.56451777206E-01  0.56925813757E-01  0.10212413375E+00  0.13141862604E+00  0.20351047979E-01 0.  0.
         14    1    1    2    0    0  0.13287040536E-01 -0.17724178101E-01  0.40755677134E-02  0.22523369814E-01  0.00000000000E+00 0.  1.
     999901    1    3    3    0    0 -0.69738817742E-01 -0.39201635656E-01 -0.10619970146E+00  0.88998800415E+00  0.88000000000E+00 0. -1.
        -11    1    4    4    0    0  0.27179802831E-01  0.17101940988E-01  0.51293947815E-01  0.60518990993E-01  0.51100000000E-03 0.  1.
         11    1    4    4    0    0  0.29271974375E-01  0.39823872770E-01  0.50830185935E-01  0.70899635044E-01  0.51100000000E-03 0. -1.
</event>
<event>
 8    1  0.1041149E+005  0.1043930E+01  0.7957747E-01            NaN
         13   -1    0    0    0    0  0.00000000000E+00  0.00000000000E+00  0.74505805969E-08  0.10566000000E+00  0.10566000000E+00 0.  1.
     999900   -1    0    0    0    0 -0.00000000000E+00 -0.00000000000E+00 -0.74505805969E-08  0.93827000000E+00  0.93827000000E+00 0. -1.
     999902    2    1    2    0    0  0.68288961838E-02 -0.18982426963E-01 -0.17163645288E-01  0.10174430773E+01  0.10170982541E+01 0.  0.
     999903    2    3    3    0    0 -0.10864838907E+00 -0.22993101593E-01 -0.61778194707E-01  0.12876903863E+00  0.20778950909E-01 0.  0.
         14    1    1    2    0    0 -0.68288961838E-02  0.18982426963E-01  0.17163645288E-01  0.26486922737E-01  0.00000000000E+00 0.  1.
     999901    1    3    3    0    0  0.11547728525E+00  0.40106746296E-02  0.44614549420E-01  0.88867403863E+00  0.88000000000E+00 0. -1.
        -11    1    4    4    0    0 -0.39658524205E-01  0.15612328336E-02 -0.23701429550E-01  0.46230453965E-01  0.51100000000E-03 0. -1.
         11    1    4    4    0    0 -0.68989864861E-01 -0.24554334427E-01 -0.38076765157E-01  0.82538584665E-01  0.51100000000E-03 0.  1.
</event>
<event>
 8    1  0.1041149E+005  0.1043930E+01  0.7957747E-01            NaN
         13   -1    0    0    0    0  0.00000000000E+00  0.00000000000E+00  0.74505805969E-08  0.10566000000E+00  0.10566000000E+00 0.  1.
     999900   -1    0    0    0    0 -0.00000000000E+00 -0.00000000000E+00 -0.74505805969E-08  0.93827000000E+00  0.93827000000E+00 0. -1.
     999902    2    1    2    0    0  0.21658759212E-01  0.10205748140E-01  0.37024856962E-02  0.10197025869E+01  0.10194147331E+01 0.  0.
     999903    2    3    3    0    0 -0.10792439001E+00  0.52573052562E-01  0.41035324421E-01  0.12842231565E+00  0.19919676007E-01 0.  0.
         14    1    1    2    0    0 -0.21658759212E-01 -0.10205748140E-01 -0.37024856962E-02  0.24227413111E-01  0.00000000000E+00 0. -1.
     999901    1    3    3    0    0  0.12958314922E+00 -0.42367304422E-01 -0.37332838725E-01  0.89128027124E+00  0.88000000000E+00 0. -1.
        -11    1    4    4    0    0 -0.75503818343E-01  0.33770819914E-01  0.18737227743E-01  0.84809431589E-01  0.51100000000E-03 0.  1.
         11    1    4    4    0    0 -0.32420571669E-01  0.18802232648E-01  0.22298096678E-01  0.43612884064E-01  0.51100000000E-03 0. -1.
</event>
<event>
 8    1  0.1041149E+005  0.1043930E+01  0.7957747E-01            NaN
         13   -1    0    0    0    0  0.00000000000E+00  0.00000000000E+00  0.74505805969E-08  0.10566000000E+00  0.10566000000E+00 0. -1.
     999900   -1    0    0    0    0 -0.00000000000E+00 -0.00000000000E+00 -0.74505805969E-08  0.93827000000E+00  0.93827000000E+00 0.  1.
     999902    2    1    2    0    0  0.90200514221E-02  0.20026800319E-01  0.27443106116E-02  0.10217948402E+01  0.10215550549E+01 0.  0.
     999903    2    3    3    0    0 -0.93389269219E-01  0.90865047420E-01 -0.15403627836E-01  0.13284316892E+00  0.20785170897E-01 0.  0.
         14    1    1    2    0    0 -0.90200514221E-02 -0.20026800319E-01 -0.27443106116E-02  0.22135159801E-01  0.00000000000E+00 0. -1.
     999901    1    3    3    0    0  0.10240932064E+00 -0.70838247100E-01  0.18147938447E-01  0.88895167128E+00  0.88000000000E+00 0. -1.
        -11    1    4    4    0    0 -0.18572424972E-01  0.30281375680E-01 -0.69589698104E-02  0.36202003594E-01  0.51100000000E-03 0.  1.
         11    1    4    4    0    0 -0.74816844247E-01  0.60583671740E-01 -0.84446580252E-02  0.96641165322E-01  0.51100000000E-03 0. -1.
</event>
<event>
 8    1  0.1041149E+005  0.1043930E+01  0.7957747E-01            NaN
         13   -1    0    0    0    0  0.00000000000E+00  0.00000000000E+00  0.74505805969E-08  0.10566000000E+00  0.10566000000E+00 0. -1.
     999900   -1    0    0    0    0 -0.00000000000E+00 -0.00000000000E+00 -0.74505805969E-08  0.93827000000E+00  0.93827000000E+00 0.  1.
     999902    2    1    2    0    0  0.12872856945E-01  0.24024665209E-01 -0.84496452892E-02  0.10153942069E+01  0.10149931546E+01 0.  0.
     999903    2    3    3    0    0 -0.41294361786E-01  0.10851194531E+00  0.48514152755E-01  0.12785994703E+00  0.22682073262E-01 0.  0.
         14    1    1    2    0    0 -0.12872856945E-01 -0.24024665209E-01  0.84496452892E-02  0.28535793135E-01  0.00000000000E+00 0. -1.
     999901    1    3    3    0    0  0.54167218731E-01 -0.84487280103E-01 -0.56963798045E-01  0.88753425983E+00  0.88000000000E+00 0. -1.
        -11    1    4    4    0    0 -0.20831378771E-01  0.78389880717E-01  0.26630223143E-01  0.85371831689E-01  0.51100000000E-03 0. -1.
         11    1    4    4    0    0 -0.20462983015E-01  0.30122064595E-01  0.21883929613E-01  0.42488115346E-01  0.51100000000E-03 0.  1.
</event>
<event>
 8    1  0.1041149E+005  0.1043930E+01  0.7957747E-01            NaN
         13   -1    0    0    0    0  0.00000000000E+00  0.00000000000E+00  0.74505805969E-08  0.10566000000E+00  0.10566000000E+00 0. -1.
     999900   -1    0    0    0    0 -0.00000000000E+00 -0.00000000000E+00 -0.74505805969E-08  0.93827000000E+00  0.93827000000E+00 0. -1.
     999902    2    1    2    0    0  0.12942861837E-01  0.72791883062E-02  0.12912192390E-01  0.10242518658E+01  0.10240628182E+01 0.  0.
     999903    2    3    3    0    0  0.31483768805E-01  0.11121953657E+00  0.69203791869E-01  0.13615496485E+00  0.19697630118E-01 0.  0.
         14    1    1    2    0    0 -0.12942861837E-01 -0.72791883062E-02 -0.12912192390E-01  0.19678134242E-01  0.00000000000E+00 0.  1.
     999901    1    3    3    0    0 -0.18540906968E-01 -0.10394034826E+00 -0.56291599479E-01  0.88809690091E+00  0.88000000000E+00 0. -1.
        -11    1    4    4    0    0  0.22221267316E-01  0.78440670241E-01  0.37969144735E-01  0.89936869758E-01  0.51100000000E-03 0. -1.
         11    1    4    4    0    0  0.92625014890E-02  0.32778866327E-01  0.31234647135E-01  0.46218095094E-01  0.51100000000E-03 0.  1.
</event>
<event>
 7    1  0.1041149E+005  0.1043930E+01  0.7957747E-01            NaN
         13   -1    0    0    0    0  0.00000000000E+00  0.00000000000E+00  0.74505805969E-08  0.10566000000E+00  0.10566000000E+00 0. -1.
     999900   -1    0    0    0    0 -0.00000000000E+00 -0.00000000000E+00 -0.74505805969E-08  0.93827000000E+00  0.93827000000E+00 0.  1.
     999903    2    1    2    0    0 -0.15089476665E-01  0.10484986457E+00 -0.29026973382E-01  0.11159466674E+00  0.19738745037E-01 0.  0.
         14    1    1    2    0    0  0.25014883124E-01  0.24764848206E-01  0.24300259530E-01  0.42773177315E-01  0.00000000000E+00 0. -1.
     999901    1    1    2    0    0 -0.99254064589E-02 -0.12961471277E+00  0.47267138518E-02  0.88956215594E+00  0.88000000000E+00 0. -1.
        -11    1    3    3    0    0 -0.93655408753E-02  0.39759075845E-01 -0.20471778922E-01  0.45693022675E-01  0.51100000000E-03 0.  1.
         11    1    3    3    0    0 -0.57239357899E-02  0.65090788724E-01 -0.85551944600E-02  0.65901644068E-01  0.51100000000E-03 0. -1.
</event>
<event>
 8    1  0.1041149E+005  0.1043930E+01  0.7957747E-01            NaN
         13   -1    0    0    0    0  0.00000000000E+00  0.00000000000E+00  0.74505805969E-08  0.10566000000E+00  0.10566000000E+00 0. -1.
     999900   -1    0    0    0    0 -0.00000000000E+00 -0.00000000000E+00 -0.74505805969E-08  0.93827000000E+00  0.93827000000E+00 0.  1.
     999902    2    1    2    0    0 -0.20916178858E-01 -0.93607379280E-02  0.56715908636E-02  0.10203232871E+01  0.10200501621E+01 0.  0.
     999903    2    3    3    0    0 -0.91045126540E-01  0.90492433175E-01  0.21353315057E-01  0.13176566848E+00  0.20691345931E-01 0.  0.
         14    1    1    2    0    0  0.20916178858E-01  0.93607379280E-02 -0.56715908636E-02  0.23606712933E-01  0.00000000000E+00 0.  1.
     999901    1    3    3    0    0  0.70128947682E-01 -0.99853171103E-01 -0.15681724194E-01  0.88855761859E+00  0.88000000000E+00 0.  1.
        -11    1    4    4    0    0 -0.42697134741E-01  0.29898371236E-01  0.36840541562E-02  0.52256973637E-01  0.51100000000E-03 0.  1.
         11    1    4    4    0    0 -0.48347991799E-01  0.60594061939E-01  0.17669260901E-01  0.79508694839E-01  0.51100000000E-03 0. -1.
</event>
<event>
 8    1  0.1041149E+005  0.1043930E+01  0.7957747E-01            NaN
         13   -1    0    0    0    0  0.00000000000E+00  0.00000000000E+00  0.74505805969E-08  0.10566000000E+00  0.10566000000E+00 0. -1.
     999900   -1    0    0    0    0 -0.00000000000E+00 -0.00000000000E+00 -0.74505805969E-08  0.93827000000E+00  0.93827000000E+00 0.  1.
     999902    2    1    2    0    0  0.11848264016E-01  0.11372649990E-01 -0.17294165129E-01  0.10200803318E+01  0.10198014888E+01 0.  0.
     999903    2    3    3    0    0 -0.66154452481E-01  0.11098379141E+00 -0.94871034049E-02  0.13099779706E+00  0.19406291888E-01 0.  0.
         14    1    1    2    0    0 -0.11848264016E-01 -0.11372649990E-01  0.17294165129E-01  0.23849668247E-01  0.00000000000E+00 0. -1.
     999901    1    3    3    0    0  0.78002716497E-01 -0.99611141423E-01 -0.78070617243E-02  0.88908253469E+00  0.88000000000E+00 0.  1.
        -11    1    4    4    0    0 -0.12184157104E-01  0.37211376981E-01 -0.65567131890E-03  0.39164158194E-01  0.51100000000E-03 0.  1.
         11    1    4    4    0    0 -0.53970295378E-01  0.73772414432E-01 -0.88314320860E-02  0.91833638869E-01  0.51100000000E-03 0. -1.
</event>
<event>
 8    1  0.1041149E+005  0.1043930E+01  0.7957747E-01            NaN
         13   -1    0    0    0    0  0.00000000000E+00  0.00000000000E+00  0.74505805969E-08  0.10566000000E+00  0.10566000000E+00 0.  1.
     999900   -1    0    0    0    0 -0.00000000000E+00 -0.00000000000E+00 -0.74505805969E-08  0.93827000000E+00  0.93827000000E+00 0.  1.
     999902    2    1    2    0    0  0.10379049179E-01 -0.70648828751E-02 -0.19938331435E-01  0.10203678632E+01  0.10200957807E+01 0.  0.
     999903    2    3    3    0    0 -0.11321234537E+00 -0.21645941380E-01 -0.58398915908E-01  0.13077994922E+00  0.20183652210E-01 0.  0.
         14    1    1    2    0    0 -0.10379049179E-01  0.70648828751E-02  0.19938331435E-01  0.23562136837E-01  0.00000000000E+00 0. -1.
     999901    1    3    3    0    0  0.12359139455E+00  0.14581058505E-01  0.38460584474E-01  0.88958791394E+00  0.88000000000E+00 0. -1.
        -11    1    4    4    0    0 -0.57445330900E-01 -0.20678046223E-01 -0.34170199250E-01  0.69967215720E-01  0.51100000000E-03 0.  1.
         11    1    4    4    0    0 -0.55767014470E-01 -0.96789515667E-03 -0.24228716658E-01  0.60812733501E-01  0.51100000000E-03 0. -1.
</event>
<event>
 8    1  0.1041149E+005  0.1043930E+01  0.7957747E-01            NaN
         13   -1    0    0    0    0  0.00000000000E+00  0.00000000000E+00  0.74505805969E-08  0.10566000000E+00  0.10566000000E+00 0. -1.
     999900   -1    0    0    0    0 -0.00000000000E+00 -0.00000000000E+00 -0.74505805969E-08  0.93827000000E+00  0.93827000000E+00 0. -1.
     999902    2    1    2    0    0 -0.18676537900E-01  0.12854625775E-01 -0.82755437774E-03  0.10212421328E+01  0.10209900854E+01 0.  0.
     999903    2    3    3    0    0 -0.13167699261E+00 -0.78242075097E-02  0.93106904181E-02  0.13371776642E+00  0.19841962979E-01 0.  0.
         14    1    1    2    0    0  0.18676537900E-01 -0.12854625775E-01  0.82755437774E-03  0.22687867199E-01  0.00000000000E+00 0. -1.
     999901    1    3    3    0    0  0.11300045471E+00  0.20678833285E-01 -0.10138244796E-01  0.88752436638E+00  0.88000000000E+00 0. -1.
        -11    1    4    4    0    0 -0.11182819196E-01  0.48817853504E-02  0.23271815761E-03  0.12214849656E-01  0.51100000000E-03 0.  1.
         11    1    4    4    0    0 -0.12049417341E+00 -0.12705992860E-01  0.90779722605E-02  0.12150291677E+00  0.51100000000E-03 0. -1.
</event>
<event>
 8    1  0.1041149E+005  0.1043930E+01  0.7957747E-01            NaN
         13   -1    0    0    0    0  0.00000000000E+00  0.00000000000E+00  0.74505805969E-08  0.10566000000E+00  0.10566000000E+00 0. -1.
     999900   -1    0    0    0    0 -0.00000000000E+00 -0.00000000000E+00 -0.74505805969E-08  0.93827000000E+00  0.93827000000E+00 0. -1.
     999902    2    1    2    0    0 -0.22028296166E-01  0.67507446599E-02 -0.20095040633E-02  0.10208030354E+01  0.10205410235E+01 0.  0.
     999903    2    3    3    0    0 -0.50413467484E-01  0.11870632144E+00 -0.26399677871E-01  0.13292092064E+00  0.18393468898E-01 0.  0.
         14    1    1    2    0    0  0.22028296166E-01 -0.67507446599E-02  0.20095040633E-02  0.23126964609E-01  0.00000000000E+00 0. -1.
     999901    1    3    3    0    0  0.28385171318E-01 -0.11195557678E+00  0.24390173808E-01  0.88788211475E+00  0.88000000000E+00 0. -1.
        -11    1    4    4    0    0 -0.26813260080E-01  0.72704050290E-01 -0.24143142188E-01  0.81166386395E-01  0.51100000000E-03 0. -1.
         11    1    4    4    0    0 -0.23600207404E-01  0.46002271148E-01 -0.22565356826E-02  0.51754534242E-01  0.51100000000E-03 0.  1.
</event>
<event>
 8    1  0.1041149E+005  0.1043930E+01  0.7957747E-01            NaN
         13   -1    0    0    0    0  0.00000000000E+00  0.00000000000E+00  0.74505805969E-08  0.10566000000E+00  0.10566000000E+00 0.  1.
     999900   -1    0    0    0    0 -0.00000000000E+00 -0.00000000000E+00 -0.74505805969E-08  0.93827000000E+00  0.93827000000E+00 0. -1.
     999902    2    1    2    0    0 -0.20832705973E-01 -0.56791216848E-02 -0.55001404282E-02  0.10216475943E+01  0.10214045727E+01 0.  0.
     999903    2    3    3    0    0  0.84904856729E-01  0.95960021009E-01  0.23686602191E-02  0.12947448015E+00  0.18462668596E-01 0.  0.
         14    1    1    2    0    0  0.20832705973E-01  0.56791216848E-02  0.55001404282E-02  0.22282405749E-01  0.00000000000E+00 0.  1.
     999901    1    3    3    0    0 -0.10573756270E+00 -0.10163914269E+00 -0.78688006473E-02  0.89217311410E+00  0.88000000000E+00 0. -1.
        -11    1    4    4    0    0  0.47540170143E-01  0.65481644855E-01 -0.28531902865E-02  0.80971077590E-01  0.51100000000E-03 0. -1.
         11    1    4    4    0    0  0.37364686586E-01  0.30478376154E-01  0.52218505055E-02  0.48503402564E-01  0.51100000000E-03 0.  1.
</event>
<event>
 8    1  0.1041149E+005  0.1043930E+01  0.7957747E-01            NaN
         13   -1    0    0    0    0  0.00000000000E+00  0.00000000000E+00  0.74505805969E-08  0.10566000000E+00  0.10566000000E+00 0.  1.
     999900   -1    0    0    0    0 -0.00000000000E+00 -0.00000000000E+00 -0.74505805969E-08  0.93827000000E+00  0.93827000000E+00 0.  1.
     999902    2    1    2    0    0  0.34216094322E-02  0.89396947005E-02  0.21002757986E-01  0.10208488086E+01  0.10205878447E+01 0.  0.
     999903    2    3    3    0    0 -0.85258474358E-01  0.98097588416E-01  0.28319822156E-02  0.13172369686E+00  0.21236004528E-01 0.  0.
         14    1    1    2    0    0 -0.34216094322E-02 -0.89396947005E-02 -0.21002757986E-01  0.23081191379E-01  0.00000000000E+00 0. -1.
     999901    1    3    3    0    0  0.88680083790E-01 -0.89157893715E-01  0.18170775770E-01  0.88912511176E+00  0.88000000000E+00 0. -1.
        -11    1    4    4    0    0 -0.79576866548E-01  0.85465855968E-01 -0.26770009971E-02  0.11680889384E+00  0.51100000000E-03 0.  1.
         11    1    4    4    0    0 -0.56816078103E-02  0.12631732448E-01  0.55089832128E-02  0.14914803015E-01  0.51100000000E-03 0. -1.
</event>
<event>
 8    1  0.1041149E+005  0.1043930E+01  0.7957747E-01            NaN
         13   -1    0    0    0    0  0.00000000000E+00  0.00000000000E+00  0.74505805969E-08  0.10566000000E+00  0.10566000000E+00 0. -1.
     999900   -1    0    0    0    0 -0.00000000000E+00 -0.00000000000E+00 -0.74505805969E-08  0.93827000000E+00  0.93827000000E+00 0.  1.
     999902    2    1    2    0    0  0.13147231148E-01 -0.17304585488E-01  0.96470663435E-02  0.10201526104E+01  0.10198754749E+01 0.  0.
     999903    2    3    3    0    0  0.84171017123E-01 -0.97169749336E-01  0.28397736508E-01  0.13348784277E+00  0.22042060243E-01 0.  0.
         14    1    1    2    0    0 -0.13147231148E-01  0.17304585488E-01 -0.96470663435E-02  0.23777389571E-01  0.00000000000E+00 0. -1.
     999901    1    3    3    0    0 -0.71023785975E-01  0.79865163848E-01 -0.18750670164E-01  0.88666476766E+00  0.88000000000E+00 0. -1.
        -11    1    4    4    0    0  0.84103267457E-01 -0.96520222886E-01  0.30171504616E-01  0.13152982109E+00  0.51100000000E-03 0.  1.
         11    1    4    4    0    0  0.67749666537E-04 -0.64952645017E-03 -0.17737681085E-02  0.19580216877E-02  0.51100000000E-03 0. -1.
</event>
<event>
 8    1  0.1041149E+005  0.1043930E+01  0.7957747E-01            NaN
         13   -1    0    0    0    0  0.00000000000E+00  0.00000000000E+00  0.74505805969E-08  0.10566000000E+00  0.10566000000E+00 0.  1.
     999900   -1    0    0    0    0 -0.00000000000E+00 -0.00000000000E+00 -0.74505805969E-08  0.93827000000E+00  0.93827000000E+00 0.  1.
     999902    2    1    2    0    0 -0.12455545593E-01  0.57122129951E-02  0.30010071954E-01  0.10109394800E+01  0.10104010381E+01 0.  0.
     999903    2    3    3    0    0 -0.86257109211E-02 -0.10490315485E+00  0.61592087538E-01  0.12344421184E+00  0.19126249045E-01 0.  0.
         14    1    1    2    0    0  0.12455545593E-01 -0.57122129951E-02 -0.30010071954E-01  0.32990520033E-01  0.00000000000E+00 0. -1.
     999901    1    3    3    0    0 -0.38298346718E-02  0.11061536785E+00 -0.31582015584E-01  0.88749526813E+00  0.88000000000E+00 0. -1.
        -11    1    4    4    0    0 -0.22007996065E-04 -0.51103945925E-02 -0.11348717408E-02  0.52598167374E-02  0.51100000000E-03 0.  1.
         11    1    4    4    0    0 -0.86037029250E-02 -0.99792760261E-01  0.62726959279E-01  0.11818439510E+00  0.51100000000E-03 0. -1.
</event>
<event>
 8    1  0.1041149E+005  0.1043930E+01  0.7957747E-01            NaN
         13   -1    0    0    0    0  0.00000000000E+00  0.00000000000E+00  0.74505805969E-08  0.10566000000E+00  0.10566000000E+00 0. -1.
     999900   -1    0    0    0    0 -0.00000000000E+00 -0.00000000000E+00 -0.74505805969E-08  0.93827000000E+00  0.93827000000E+00 0. -1.
     999902    2    1    2    0    0 -0.32728476449E-02  0.21847187722E-01  0.61259539219E-02  0.10210053745E+01  0.10207479788E+01 0.  0.
     999903    2    3    3    0    0  0.10980095913E+00 -0.30776285445E-01  0.60358643890E-01  0.13055823942E+00  0.19971419996E-01 0.  0.
         14    1    1    2    0    0  0.32728476449E-02 -0.21847187722E-01 -0.61259539219E-02  0.22924625505E-01  0.00000000000E+00 0.  1.
     999901    1    3    3    0    0 -0.11307380677E+00  0.52623473168E-01 -0.54232689968E-01  0.89044713508E+00  0.88000000000E+00 0.  1.
        -11    1    4    4    0    0  0.73574410573E-01 -0.10792649521E-01  0.37382080340E-01  0.83230740874E-01  0.51100000000E-03 0.  1.
         11    1    4    4    0    0  0.36226548554E-01 -0.19983635924E-01  0.22976563550E-01  0.47327498544E-01  0.51100000000E-03 0. -1.
</event>
<event>
 8    1  0.1157093E+005  0.1043930E+01  0.7957747E-01            NaN
         13   -1    0    0    0    0  0.00000000000E+00  0.00000000000E+00  0.74505805969E-08  0.10566000000E+00  0.10566000000E+00 0.  1.
     999900   -1    0    0    0    0 -0.00000000000E+00 -0.00000000000E+00 -0.74505805969E-08  0.93827000000E+00  0.93827000000E+00 0. -1.
     999902    2    1    2    0    0  0.11775005629E-01 -0.12053198218E-01  0.15628029895E-01  0.10209481449E+01  0.10206894478E+01 0.  0.
     999903    2    3    3    0    0  0.24296155587E-01  0.11409703127E+00  0.55700380296E-01  0.13096137374E+00  0.20974110852E-01 0.  0.
         14    1    1    2    0    0 -0.11775005629E-01  0.12053198218E-01 -0.15628029895E-01  0.22981855087E-01  0.00000000000E+00 0. -1.
     999901    1    3    3    0    0 -0.12521149958E-01 -0.12615022949E+00 -0.40072350400E-01  0.88998677117E+00  0.88000000000E+00 0.  1.
        -11    1    4    4    0    0  0.24418271940E-01  0.69445514062E-01  0.30469746578E-01  0.79671814372E-01  0.51100000000E-03 0. -1.
         11    1    4    4    0    0 -0.12211635331E-03  0.44651517207E-01  0.25230633718E-01  0.51289559368E-01  0.51100000000E-03 0.  1.
</event>
<event>
 8    1  0.1041149E+005  0.1043930E+01  0.7957747E-01            NaN
         13   -1    0    0    0    0  0.00000000000E+00  0.00000000000E+00  0.74505805969E-08  0.10566000000E+00  0.10566000000E+00 0.  1.
     999900   -1    0    0    0    0 -0.00000000000E+00 -0.00000000000E+00 -0.74505805969E-08  0.93827000000E+00  0.93827000000E+00 0.  1.
     999902    2    1    2    0    0  0.22937090055E-01  0.52802867179E-02  0.43263397336E-02  0.10199986661E+01  0.10197178875E+01 0.  0.
     999903    2    3    3    0    0 -0.43641029281E-01  0.12049879635E+00 -0.40883032902E-02  0.12995442158E+00  0.21140910697E-01 0.  0.
         14    1    1    2    0    0 -0.22937090055E-01 -0.52802867179E-02 -0.43263397336E-02  0.23931333926E-01  0.00000000000E+00 0.  1.
     999901    1    3    3    0    0  0.66578119336E-01 -0.11521850964E+00  0.84146430238E-02  0.89004424449E+00  0.88000000000E+00 0.  1.
        -11    1    4    4    0    0 -0.38579630473E-01  0.86806517796E-01  0.34455997393E-02  0.95057312701E-01  0.51100000000E-03 0. -1.
         11    1    4    4    0    0 -0.50613988082E-02  0.33692278558E-01 -0.75339030294E-02  0.34897108880E-01  0.51100000000E-03 0.  1.
</event>
<event>
 8    1  0.1041149E+005  0.1043930E+01  0.7957747E-01            NaN
         13   -1    0    0    0    0  0.00000000000E+00  0.00000000000E+00  0.74505805969E-08  0.10566000000E+00  0.10566000000E+00 0. -1.
     999900   -1    0    0    0    0 -0.00000000000E+00 -0.00000000000E+00 -0.74505805969E-08  0.93827000000E+00  0.93827000000E+00 0.  1.
     999902    2    1    2    0    0  0.10103416425E-01  0.19960559975E-01 -0.90671557964E-02  0.10197904828E+01  0.10195047388E+01 0.  0.
     999903    2    3    3    0    0  0.78250673928E-01  0.90212978577E-01 -0.55809778068E-01  0.13313140298E+00  0.18646438232E-01 0.  0.
         14    1    1    2    0    0 -0.10103416425E-01 -0.19960559975E-01  0.90671557964E-02  0.24139517232E-01  0.00000000000E+00 0.  1.
     999901    1    3    3    0    0 -0.68147257503E-01 -0.70252418602E-01  0.46742622272E-01  0.88665907978E+00  0.88000000000E+00 0.  1.
        -11    1    4    4    0    0  0.59827929828E-01  0.56912769628E-01 -0.34319480719E-01  0.89423332593E-01  0.51100000000E-03 0. -1.
         11    1    4    4    0    0  0.18422744100E-01  0.33300208949E-01 -0.21490297349E-01  0.43708070392E-01  0.51100000000E-03 0.  1.
</event>
<event>
 8    1  0.1041149E+005  0.1043930E+01  0.7957747E-01            NaN
         13   -1    0    0    0    0  0.00000000000E+00  0.00000000000E+00  0.74505805969E-08  0.10566000000E+00  0.10566000000E+00 0.  1.
     999900   -1    0    0    0    0 -0.00000000000E+00 -0.00000000000E+00 -0.74505805969E-08  0.93827000000E+00  0.93827000000E+00 0.  1.
     999902    2    1    2    0    0 -0.98781420097E-02 -0.14092995252E-01  0.16719215584E-01  0.10199357846E+01  0.10196535109E+01 0.  0.
     999903    2    3    3    0    0  0.60460892626E-01 -0.39907270845E-03 -0.11076305523E+00  0.12786693482E+00  0.20635402127E-01 0.  0.
         14    1    1    2    0    0  0.98781420097E-02  0.14092995252E-01 -0.16719215584E-01  0.23994215438E-01  0.00000000000E+00 0. -1.
     999901    1    3    3    0    0 -0.70339034635E-01 -0.13693922544E-01  0.12748227081E+00  0.89206884974E+00  0.88000000000E+00 0. -1.
        -11    1    4    4    0    0  0.41519577431E-01  0.49084631970E-02 -0.57574366763E-01  0.71155021960E-01  0.51100000000E-03 0.  1.
         11    1    4    4    0    0  0.18941315195E-01 -0.53075359055E-02 -0.53188688465E-01  0.56711912860E-01  0.51100000000E-03 0. -1.
</event>
<event>
 8    1  0.1041149E+005  0.1043930E+01  0.7957747E-01            NaN
         13   -1    0    0    0    0  0.00000000000E+00  0.00000000000E+00  0.74505805969E-08  0.10566000000E+00  0.10566000000E+00 0. -1.
     999900   -1    0    0    0    0 -0.00000000000E+00 -0.00000000000E+00 -0.74505805969E-08  0.93827000000E+00  0.93827000000E+00 0. -1.
     999902    2    1    2    0    0 -0.95750115824E-02  0.20693166432E-01  0.72187132632E-02  0.10200135244E+01  0.10197330985E+01 0.  0.
     999903    2    3    3    0    0  0.15857330573E-01  0.36427712740E-01  0.12395799456E+00  0.13180046451E+00  0.20672320656E-01 0.  0.
         14    1    1    2    0    0  0.95750115824E-02 -0.20693166432E-01 -0.72187132632E-02  0.23916475597E-01  0.00000000000E+00 0. -1.
     999901    1    3    3    0    0 -0.25432342155E-01 -0.15734546308E-01 -0.11673928129E+00  0.88821305990E+00  0.88000000000E+00 0. -1.
        -11    1    4    4    0    0 -0.18544412222E-03  0.22781974390E-01  0.50961141632E-01  0.55824294210E-01  0.51100000000E-03 0.  1.
         11    1    4    4    0    0  0.16042774695E-01  0.13645738351E-01  0.72996852924E-01  0.75976170296E-01  0.51100000000E-03 0. -1.
</event>
<event>
 8    1  0.1041149E+005  0.1043930E+01  0.7957747E-01            NaN
         13   -1    0    0    0    0  0.00000000000E+00  0.00000000000E+00  0.74505805969E-08  0.10566000000E+00  0.10566000000E+00 0. -1.
     999900   -1    0    0    0    0 -0.00000000000E+00 -0.00000000000E+00 -0.74505805969E-08  0.93827000000E+00  0.93827000000E+00 0.  1.
     999902    2    1    2    0    0  0.10771544529E-01  0.85986527249E-02 -0.19018360553E-01  0.10204425344E+01  0.10201721938E+01 0.  0.
     999903    2    3    3    0    0  0.13361697734E-01  0.11606039237E+00 -0.60029225201E-01  0.13295359062E+00  0.20605818088E-01 0.  0.
         14    1    1    2    0    0 -0.10771544529E-01 -0.85986527249E-02  0.19018360553E-01  0.23487465558E-01  0.00000000000E+00 0. -1.
     999901    1    3    3    0    0 -0.25901532054E-02 -0.10746173964E+00  0.41010864649E-01  0.88748894382E+00  0.88000000000E+00 0. -1.
        -11    1    4    4    0    0  0.44092678018E-03  0.48309929855E-01 -0.15027515844E-01  0.50597738017E-01  0.51100000000E-03 0. -1.
         11    1    4    4    0    0  0.12920770954E-01  0.67750462510E-01 -0.45001709358E-01  0.82355852606E-01  0.51100000000E-03 0.  1.
</event>
<event>
 8    1  0.1041149E+005  0.1043930E+01  0.7957747E-01            NaN
         13   -1    0    0    0    0  0.00000000000E+00  0.00000000000E+00  0.74505805969E-08  0.10566000000E+00  0.10566000000E+00 0. -1.
     999900   -1    0    0    0    0 -0.00000000000E+00 -0.00000000000E+00 -0.74505805969E-08  0.93827000000E+00  0.93827000000E+00 0. -1.
     999902    2    1    2    0    0  0.17891381539E-01  0.66174622547E-02  0.14376002227E-01  0.10200435649E+01  0.10197638514E+01 0.  0.
     999903    2    3    3    0    0  0.20356799827E-01 -0.92109940626E-01 -0.85556340955E-01  0.12889842997E+00  0.19906715162E-01 0.  0.
         14    1    1    2    0    0 -0.17891381539E-01 -0.66174622547E-02 -0.14376002227E-01  0.23886435064E-01  0.00000000000E+00 0.  1.
     999901    1    3    3    0    0 -0.24654182875E-02  0.98727402881E-01  0.99932343182E-01  0.89114513497E+00  0.88000000000E+00 0.  1.
        -11    1    4    4    0    0  0.91547088663E-02 -0.17917268785E-01 -0.10234686769E-01  0.22579795159E-01  0.51100000000E-03 0. -1.
         11    1    4    4    0    0  0.11202090960E-01 -0.74192671841E-01 -0.75321654186E-01  0.10631863481E+00  0.51100000000E-03 0.  1.
</event>
<event>
 8    1  0.1041149E+005  0.1043930E+01  0.7957747E-01            NaN
         13   -1    0    0    0    0  0.00000000000E+00  0.00000000000E+00  0.74505805969E-08  0.10566000000E+00  0.10566000000E+00 0.  1.
     999900   -1    0    0    0    0 -0.00000000000E+00 -0.00000000000E+00 -0.74505805969E-08  0.93827000000E+00  0.93827000000E+00 0. -1.
     999902    2    1    2    0    0  0.48181508221E-02 -0.21219035688E-01 -0.95933198127E-02  0.10201498857E+01  0.10198726859E+01 0.  0.
     999903    2    3    3    0    0 -0.70660267861E-01  0.97348876129E-01 -0.40482140694E-01  0.12846078028E+00  0.19841653600E-01 0.  0.
         14    1    1    2    0    0 -0.48181508221E-02  0.21219035688E-01  0.95933198127E-02  0.23780114337E-01  0.00000000000E+00 0.  1.
     999901    1    3    3    0    0  0.75478418684E-01 -0.11856791182E+00  0.30888820882E-01  0.89168910538E+00  0.88000000000E+00 0. -1.
        -11    1    4    4    0    0 -0.50209912711E-01  0.82299153494E-01 -0.34251403617E-01  0.10231131790E+00  0.51100000000E-03 0. -1.
         11    1    4    4    0    0 -0.20450355151E-01  0.15049722635E-01 -0.62307370770E-02  0.26149462379E-01  0.51100000000E-03 0.  1.
</event>
<event>
 8    1  0.1041149E+005  0.1043930E+01  0.7957747E-01            NaN
         13   -1    0    0    0    0  0.00000000000E+00  0.00000000000E+00  0.74505805969E-08  0.10566000000E+00  0.10566000000E+00 0.  1.
     999900   -1    0    0    0    0 -0.00000000000E+00 -0.00000000000E+00 -0.74505805969E-08  0.93827000000E+00  0.93827000000E+00 0.  1.
     999902    2    1    2    0    0  0.21155595266E-01  0.89119672639E-02 -0.31634300878E-02  0.10207569626E+01  0.10204938937E+01 0.  0.
     999903    2    3    3    0    0  0.72794909819E-02 -0.12112983610E+00  0.41846932992E-01  0.12995431911E+00  0.20286228677E-01 0.  0.
         14    1    1    2    0    0 -0.21155595266E-01 -0.89119672639E-02  0.31634300878E-02  0.23173037382E-01  0.00000000000E+00 0. -1.
     999901    1    3    3    0    0  0.13876104284E-01  0.13004180336E+00 -0.45010363079E-01  0.89080264351E+00  0.88000000000E+00 0.  1.
        -11    1    4    4    0    0 -0.34511503658E-02 -0.90395429078E-01  0.31564236357E-01  0.95811305047E-01  0.51100000000E-03 0. -1.
         11    1    4    4    0    0  0.10730641348E-01 -0.30734407018E-01  0.10282696635E-01  0.34143014067E-01  0.51100000000E-03 0.  1.
</event>
<event>
 7    1  0.1549775E+005  0.1043930E+01  0.7957747E-01            NaN
         13   -1    0    0    0    0  0.00000000000E+00  0.00000000000E+00  0.74505805969E-08  0.10566000000E+00  0.10566000000E+00 0. -1.
     999900   -1    0    0    0    0 -0.00000000000E+00 -0.00000000000E+00 -0.74505805969E-08  0.93827000000E+00  0.93827000000E+00 0.  1.
     999903    2    1    2    0    0  0.36567904860E-01  0.87538474856E-01  0.24642259311E-02  0.97320506850E-01  0.21564146126E-01 0.  0.
         14    1    1    2    0    0  0.36930970402E-01  0.25523314124E-01  0.32864358544E-01  0.55636338855E-01  0.00000000000E+00 0. -1.
     999901    1    1    2    0    0 -0.73498875262E-01 -0.11306178898E+00 -0.35328584475E-01  0.89097315429E+00  0.88000000000E+00 0. -1.
        -11    1    3    3    0    0  0.29846250856E-01  0.44128387597E-01 -0.64432100553E-03  0.53280292347E-01  0.51100000000E-03 0.  1.
         11    1    3    3    0    0  0.67216540043E-02  0.43410087259E-01  0.31085469366E-02  0.44040214503E-01  0.51100000000E-03 0. -1.
</event>
<event>
 8    1  0.1041149E+005  0.1043930E+01  0.7957747E-01            NaN
         13   -1    0    0    0    0  0.00000000000E+00  0.00000000000E+00  0.74505805969E-08  0.10566000000E+00  0.10566000000E+00 0.  1.
     999900   -1    0    0    0    0 -0.00000000000E+00 -0.00000000000E+00 -0.74505805969E-08  0.93827000000E+00  0.93827000000E+00 0. -1.
     999902    2    1    2    0    0 -0.21790313483E-01 -0.41582305862E-02 -0.90388767300E-02  0.10199756698E+01  0.10196943449E+01 0.  0.
     999903    2    3    3    0    0 -0.57989686255E-02 -0.13937761272E-01  0.12685137312E+00  0.12934806953E+00  0.20291944280E-01 0.  0.
         14    1    1    2    0    0  0.21790313483E-01  0.41582305862E-02  0.90388767300E-02  0.23954330211E-01  0.00000000000E+00 0.  1.
     999901    1    3    3    0    0 -0.15991344858E-01  0.97795306860E-02 -0.13589024985E+00  0.89062760025E+00  0.88000000000E+00 0. -1.
        -11    1    4    4    0    0 -0.24849028852E-02 -0.18323624096E-01  0.11171715527E+00  0.11323830556E+00  0.51100000000E-03 0. -1.
         11    1    4    4    0    0 -0.33140657403E-02  0.43858628240E-02  0.15134217851E-01  0.16109763978E-01  0.51100000000E-03 0.  1.
</event>
<event>
 8    1  0.1041149E+005  0.1043930E+01  0.7957747E-01            NaN
         13   -1    0    0    0    0  0.00000000000E+00  0.00000000000E+00  0.74505805969E-08  0.10566000000E+00  0.10566000000E+00 0.  1.
     999900   -1    0    0    0    0 -0.00000000000E+00 -0.00000000000E+00 -0.74505805969E-08  0.93827000000E+00  0.93827000000E+00 0.  1.
     999902    2    1    2    0    0 -0.43296937107E-02  0.18535325711E-01  0.14204156084E-01  0.10201799980E+01  0.10199035080E+01 0.  0.
     999903    2    3    3    0    0 -0.12908407855E+00 -0.84475817162E-02  0.53506931783E-04  0.13085892281E+00  0.19748261842E-01 0.  0.
         14    1    1    2    0    0  0.43296937107E-02 -0.18535325711E-01 -0.14204156084E-01  0.23750002040E-01  0.00000000000E+00 0. -1.
     999901    1    3    3    0    0  0.12475438484E+00  0.26982907427E-01  0.14150649152E-01  0.88932107515E+00  0.88000000000E+00 0. -1.
        -11    1    4    4    0    0 -0.28354319121E-01 -0.65492071657E-02 -0.67592681322E-02  0.29879898829E-01  0.51100000000E-03 0. -1.
         11    1    4    4    0    0 -0.10072975943E+00 -0.18983745505E-02  0.68127750639E-02  0.10097902398E+00  0.51100000000E-03 0.  1.
</event>
<event>
 8    1  0.1041149E+005  0.1043930E+01  0.7957747E-01            NaN
         13   -1    0    0    0    0  0.00000000000E+00  0.00000000000E+00  0.74505805969E-08  0.10566000000E+00  0.10566000000E+00 0. -1.
     999900   -1    0    0    0    0 -0.00000000000E+00 -0.00000000000E+00 -0.74505805969E-08  0.93827000000E+00  0.93827000000E+00 0.  1.
     999902    2    1    2    0    0 -0.20354647815E-01  0.88251249673E-02  0.45402484957E-02  0.10212847273E+01  0.10210336360E+01 0.  0.
     999903    2    3    3    0    0 -0.12621776760E+00 -0.18105819954E-01  0.35954776161E-01  0.13397466400E+00  0.19942895769E-01 0.  0.
         14    1    1    2    0    0  0.20354647815E-01 -0.88251249673E-02 -0.45402484957E-02  0.22645272680E-01  0.00000000000E+00 0.  1.
     999901    1    3    3    0    0  0.10586311978E+00  0.26930944921E-01 -0.31414527666E-01  0.88731006332E+00  0.88000000000E+00 0.  1.
        -11    1    4    4    0    0 -0.48274603670E-01 -0.11501578839E-01  0.51173423277E-02  0.49891602387E-01  0.51100000000E-03 0.  1.
         11    1    4    4    0    0 -0.77943163926E-01 -0.66042411146E-02  0.30837433833E-01  0.84083061611E-01  0.51100000000E-03 0. -1.
</event>
<event>
 8    1  0.1041149E+005  0.1043930E+01  0.7957747E-01            NaN
         13   -1    0    0    0    0  0.00000000000E+00  0.00000000000E+00  0.74505805969E-08  0.10566000000E+00  0.10566000000E+00 0.  1.
     999900   -1    0    0    0    0 -0.00000000000E+00 -0.00000000000E+00 -0.74505805969E-08  0.93827000000E+00  0.93827000000E+00 0. -1.
     999902    2    1    2    0    0  0.97195364463E-02 -0.77324936231E-02  0.19885616225E-01  0.10204843484E+01  0.10202149807E+01 0.  0.
     999903    2    3    3    0    0 -0.11609705001E+00 -0.55054844921E-01  0.77837532636E-02  0.13019469135E+00  0.19506662213E-01 0.  0.
         14    1    1    2    0    0 -0.97195364463E-02  0.77324936231E-02 -0.19885616225E-01  0.23445651601E-01  0.00000000000E+00 0. -1.
     999901    1    3    3    0    0  0.12581658646E+00  0.47322351298E-01  0.12101862961E-01  0.89028965705E+00  0.88000000000E+00 0.  1.
        -11    1    4    4    0    0 -0.24240033973E-01 -0.20594623971E-01  0.50663614242E-03  0.31815649997E-01  0.51100000000E-03 0.  1.
         11    1    4    4    0    0 -0.91857016037E-01 -0.34460220950E-01  0.72771171211E-02  0.98379041354E-01  0.51100000000E-03 0. -1.
</event>
<event>
 8    1  0.1041149E+005  0.1043930E+01  0.7957747E-01            NaN
         13   -1    0    0    0    0  0.00000000000E+00  0.00000000000E+00  0.74505805969E-08  0.10566000000E+00  0.10566000000E+00 0. -1.
     999900   -1    0    0    0    0 -0.00000000000E+00 -0.00000000000E+00 -0.74505805969E-08  0.93827000000E+00  0.93827000000E+00 0. -1.
     999902    2    1    2    0    0 -0.39986221638E-02 -0.23475135331E-01 -0.48070074534E-02  0.10196364149E+01  0.10193469675E+01 0.  0.
     999903    2    3    3    0    0 -0.10103720997E+00  0.59599987746E-01 -0.50128786628E-01  0.12925895150E+00  0.20839984544E-01 0.  0.
         14    1    1    2    0    0  0.39986221638E-02  0.23475135331E-01  0.48070074534E-02  0.24293585135E-01  0.00000000000E+00 0. -1.
     999901    1    3    3    0    0  0.97038587810E-01 -0.83075123077E-01  0.45321779175E-01  0.89037746336E+00  0.88000000000E+00 0.  1.
        -11    1    4    4    0    0 -0.16795740954E-01  0.14330347927E-01 -0.17609100834E-01  0.28245306497E-01  0.51100000000E-03 0. -1.
         11    1    4    4    0    0 -0.84241469020E-01  0.45269639819E-01 -0.32519685794E-01  0.10101364500E+00  0.51100000000E-03 0.  1.
</event>
<event>
 8    1  0.1041149E+005  0.1043930E+01  0.7957747E-01            NaN
         13   -1    0    0    0    0  0.00000000000E+00  0.00000000000E+00  0.74505805969E-08  0.10566000000E+00  0.10566000000E+00 0.  1.
     999900   -1    0    0    0    0 -0.00000000000E+00 -0.00000000000E+00 -0.74505805969E-08  0.93827000000E+00  0.93827000000E+00 0. -1.
     999902    2    1    2    0    0  0.18385028110E-01 -0.11310033911E-01 -0.16476570261E-01  0.10167748257E+01  0.10164121421E+01 0.  0.
     999903    2    3    3    0    0 -0.55314677515E-01  0.10946309391E+00 -0.12496159119E-01  0.12546475690E+00  0.23310271409E-01 0.  0.
         14    1    1    2    0    0 -0.18385028110E-01  0.11310033911E-01  0.16476570261E-01  0.27155174336E-01  0.00000000000E+00 0.  1.
     999901    1    3    3    0    0  0.73699705625E-01 -0.12077312782E+00 -0.39804111422E-02  0.89131006877E+00  0.88000000000E+00 0. -1.
        -11    1    4    4    0    0 -0.26511004060E-01  0.69563117326E-01 -0.15934905209E-01  0.76131747342E-01  0.51100000000E-03 0.  1.
         11    1    4    4    0    0 -0.28803673455E-01  0.39899976585E-01  0.34387460899E-02  0.49333009554E-01  0.51100000000E-03 0. -1.
</event>
<event>
 8    1  0.1041149E+005  0.1043930E+01  0.7957747E-01            NaN
         13   -1    0    0    0    0  0.00000000000E+00  0.00000000000E+00  0.74505805969E-08  0.10566000000E+00  0.10566000000E+00 0. -1.
     999900   -1    0    0    0    0 -0.00000000000E+00 -0.00000000000E+00 -0.74505805969E-08  0.93827000000E+00  0.93827000000E+00 0. -1.
     999902    2    1    2    0    0 -0.86910206133E-02 -0.38761076225E-02  0.23206516793E-01  0.10188481246E+01  0.10185393466E+01 0.  0.
     999903    2    3    3    0    0  0.93872989819E-01  0.22174778759E-01 -0.79517284617E-01  0.12657563023E+00  0.19862844320E-01 0.  0.
         14    1    1    2    0    0  0.86910206133E-02  0.38761076225E-02 -0.23206516793E-01  0.25081875354E-01  0.00000000000E+00 0.  1.
     999901    1    3    3    0    0 -0.10256401043E+00 -0.26050886381E-01  0.10272380141E+00  0.89227249442E+00  0.88000000000E+00 0. -1.
        -11    1    4    4    0    0  0.53590678502E-01  0.21532755101E-01 -0.52611164566E-01  0.78126923160E-01  0.51100000000E-03 0.  1.
         11    1    4    4    0    0  0.40282311317E-01  0.64202365764E-03 -0.26906120051E-01  0.48448707069E-01  0.51100000000E-03 0. -1.
</event>
<event>
 8    1  0.1041149E+005  0.1043930E+01  0.7957747E-01            NaN
         13   -1    0    0    0    0  0.00000000000E+00  0.00000000000E+00  0.74505805969E-08  0.10566000000E+00  0.10566000000E+00 0. -1.
     999900   -1    0    0    0    0 -0.00000000000E+00 -0.00000000000E+00 -0.74505805969E-08  0.93827000000E+00  0.93827000000E+00 0.  1.
     999902    2    1    2    0    0  0.11557882790E-01  0.14670800061E-01  0.14429068019E-01  0.10203288341E+01  0.10200558390E+01 0.  0.
     999903    2    3    3    0    0  0.45352283006E-01 -0.77889177686E-01  0.92716857437E-01  0.13137529821E+00  0.23227133944E-01 0.  0.
         14    1    1    2    0    0 -0.11557882790E-01 -0.14670800061E-01 -0.14429068019E-01  0.23601165923E-01  0.00000000000E+00 0.  1.
     999901    1    3    3    0    0 -0.33794400216E-01  0.92559977746E-01 -0.78287789418E-01  0.88895353587E+00  0.88000000000E+00 0.  1.
        -11    1    4    4    0    0  0.10161952450E-01 -0.27133185238E-01  0.16758831224E-01  0.33475282878E-01  0.51100000000E-03 0. -1.
         11    1    4    4    0    0  0.35190330556E-01 -0.50755992447E-01  0.75958026214E-01  0.97900015328E-01  0.51100000000E-03 0.  1.
</event>
<event>
 8    1  0.1041149E+005  0.1043930E+01  0.7957747E-01            NaN
         13   -1    0    0    0    0  0.00000000000E+00  0.00000000000E+00  0.74505805969E-08  0.10566000000E+00  0.10566000000E+00 0.  1.
     999900   -1    0    0    0    0 -0.00000000000E+00 -0.00000000000E+00 -0.74505805969E-08  0.93827000000E+00  0.93827000000E+00 0. -1.
     999902    2    1    2    0    0 -0.23613452537E-01  0.13449780094E-02 -0.53890969127E-03  0.10202721360E+01  0.10199978122E+01 0.  0.
     999903    2    3    3    0    0 -0.83570829106E-01 -0.96390855600E-01  0.28798590592E-01  0.13234878957E+00  0.20287009604E-01 0.  0.
         14    1    1    2    0    0  0.23613452537E-01 -0.13449780094E-02  0.53890969127E-03  0.23657864025E-01  0.00000000000E+00 0.  1.
     999901    1    3    3    0    0  0.59957376569E-01  0.97735833609E-01 -0.29337500283E-01  0.88792334641E+00  0.88000000000E+00 0.  1.
        -11    1    4    4    0    0 -0.56958287250E-01 -0.68961985154E-01  0.29311481865E-01  0.94124523760E-01  0.51100000000E-03 0. -1.
         11    1    4    4    0    0 -0.26612541856E-01 -0.27428870446E-01 -0.51289127247E-03  0.38224265806E-01  0.51100000000E-03 0.  1.
</event>
<event>
 8    1  0.1041149E+005  0.1043930E+01  0.7957747E-01            NaN
         13   -1    0    0    0    0  0.00000000000E+00  0.00000000000E+00  0.74505805969E-08  0.10566000000E+00  0.10566000000E+00 0.  1.
     999900   -1    0    0    0    0 -0.00000000000E+00 -0.00000000000E+00 -0.74505805969E-08  0.93827000000E+00  0.93827000000E+00 0. -1.
     999902    2    1    2    0    0  0.12265566833E-02  0.18787558133E-01  0.14130348544E-01  0.10203897466E+01  0.10201181752E+01 0.  0.
     999903    2    3    3    0    0 -0.30716755783E-01  0.12278357470E+00  0.36973063890E-01  0.13339632138E+00  0.20205093458E-01 0.  0.
         14    1    1    2    0    0 -0.12265566833E-02 -0.18787558133E-01 -0.14130348544E-01  0.23540253437E-01  0.00000000000E+00 0. -1.
     999901    1    3    3    0    0  0.31943312466E-01 -0.10399601657E+00 -0.22842715346E-01  0.88699342518E+00  0.88000000000E+00 0. -1.
        -11    1    4    4    0    0 -0.15450864223E-01  0.44026557339E-01  0.22781786663E-01  0.51926273513E-01  0.51100000000E-03 0. -1.
         11    1    4    4    0    0 -0.15265891560E-01  0.78757017363E-01  0.14191277227E-01  0.81470047866E-01  0.51100000000E-03 0.  1.
</event>
<event>
 8    1  0.1041149E+005  0.1043930E+01  0.7957747E-01            NaN
         13   -1    0    0    0    0  0.00000000000E+00  0.00000000000E+00  0.74505805969E-08  0.10566000000E+00  0.10566000000E+00 0. -1.
     999900   -1    0    0    0    0 -0.00000000000E+00 -0.00000000000E+00 -0.74505805969E-08  0.93827000000E+00  0.93827000000E+00 0.  1.
     999902    2    1    2    0    0  0.21419746814E-01  0.77970432923E-02  0.93597810071E-02  0.10192884713E+01  0.10189905705E+01 0.  0.
     999903    2    3    3    0    0  0.55773499690E-01 -0.16951831746E-01  0.11612867083E+00  0.13182450976E+00  0.22221280722E-01 0.  0.
         14    1    1    2    0    0 -0.21419746814E-01 -0.77970432923E-02 -0.93597810071E-02  0.24641528731E-01  0.00000000000E+00 0.  1.
     999901    1    3    3    0    0 -0.34353752876E-01  0.24748875039E-01 -0.10676888982E+00  0.88746396151E+00  0.88000000000E+00 0. -1.
        -11    1    4    4    0    0  0.19451610074E-01  0.28893568235E-02  0.50929850242E-01  0.54596925592E-01  0.51100000000E-03 0. -1.
         11    1    4    4    0    0  0.36321889616E-01 -0.19841188570E-01  0.65198820585E-01  0.77227584164E-01  0.51100000000E-03 0.  1.
</event>
<event>
 8    1  0.1041149E+005  0.1043930E+01  0.7957747E-01            NaN
         13   -1    0    0    0    0  0.00000000000E+00  0.00000000000E+00  0.74505805969E-08  0.10566000000E+00  0.10566000000E+00 0. -1.
     999900   -1    0    0    0    0 -0.00000000000E+00 -0.00000000000E+00 -0.74505805969E-08  0.93827000000E+00  0.93827000000E+00 0. -1.
     999902    2    1    2    0    0 -0.39328992614E-02  0.16941948902E-01  0.16886618792E-01  0.10196883989E+01  0.10194002039E+01 0.  0.
     999903    2    3    3    0    0  0.11741686088E+00 -0.20743232741E-01  0.48228528360E-01  0.13000966336E+00  0.18961030914E-01 0.  0.
         14    1    1    2    0    0  0.39328992614E-02 -0.16941948902E-01 -0.16886618792E-01  0.24241601090E-01  0.00000000000E+00 0.  1.
     999901    1    3    3    0    0 -0.12134976015E+00  0.37685181643E-01 -0.31341909568E-01  0.88967873555E+00  0.88000000000E+00 0.  1.
        -11    1    4    4    0    0  0.34332883558E-01 -0.87509202691E-03  0.65899754107E-02  0.34974298797E-01  0.51100000000E-03 0.  1.
         11    1    4    4    0    0  0.83083977327E-01 -0.19868140714E-01  0.41638552949E-01  0.95035364558E-01  0.51100000000E-03 0. -1.
</event>
<event>
 8    1  0.1041149E+005  0.1043930E+01  0.7957747E-01            NaN
         13   -1    0    0    0    0  0.00000000000E+00  0.00000000000E+00  0.74505805969E-08  0.10566000000E+00  0.10566000000E+00 0. -1.
     999900   -1    0    0    0    0 -0.00000000000E+00 -0.00000000000E+00 -0.74505805969E-08  0.93827000000E+00  0.93827000000E+00 0.  1.
     999902    2    1    2    0    0 -0.13022709337E-01 -0.23632580053E-01  0.11045358871E-01  0.10147737013E+01  0.10143547581E+01 0.  0.
     999903    2    3    3    0    0 -0.11767485916E+00  0.14399683200E-01  0.41903467981E-01  0.12722046441E+00  0.19350002082E-01 0.  0.
         14    1    1    2    0    0  0.13022709337E-01  0.23632580053E-01 -0.11045358871E-01  0.29156298652E-01  0.00000000000E+00 0. -1.
     999901    1    3    3    0    0  0.10465214982E+00 -0.38032263253E-01 -0.30858109110E-01  0.88755323694E+00  0.88000000000E+00 0. -1.
        -11    1    4    4    0    0 -0.47628320293E-01 -0.31557756680E-02  0.20011020965E-01  0.51760196049E-01  0.51100000000E-03 0.  1.
         11    1    4    4    0    0 -0.70046538865E-01  0.17555458868E-01  0.21892447016E-01  0.75460268356E-01  0.51100000000E-03 0. -1.
</event>
<event>
 8    1  0.1041149E+005  0.1043930E+01  0.7957747E-01            NaN
         13   -1    0    0    0    0  0.00000000000E+00  0.00000000000E+00  0.74505805969E-08  0.10566000000E+00  0.10566000000E+00 0. -1.
     999900   -1    0    0    0    0 -0.00000000000E+00 -0.00000000000E+00 -0.74505805969E-08  0.93827000000E+00  0.93827000000E+00 0. -1.
     999902    2    1    2    0    0  0.18140244533E-01 -0.87907818190E-02  0.12196907716E-01  0.10203692090E+01  0.10200971580E+01 0.  0.
     999903    2    3    3    0    0  0.41373247848E-01 -0.12398255989E+00 -0.93780413418E-02  0.13229579048E+00  0.18188120434E-01 0.  0.
         14    1    1    2    0    0 -0.18140244533E-01  0.87907818190E-02 -0.12196907716E-01  0.23560791042E-01  0.00000000000E+00 0.  1.
     999901    1    3    3    0    0 -0.23233003315E-01  0.11519177807E+00  0.21574949058E-01  0.88807341848E+00  0.88000000000E+00 0. -1.
        -11    1    4    4    0    0  0.20202046046E-01 -0.81550823069E-01 -0.33328190924E-03  0.84018043333E-01  0.51100000000E-03 0. -1.
         11    1    4    4    0    0  0.21171201802E-01 -0.42431736822E-01 -0.90447594326E-02  0.48277747148E-01  0.51100000000E-03 0.  1.
</event>
<event>
 8    1  0.1041149E+005  0.1043930E+01  0.7957747E-01            NaN
         13   -1    0    0    0    0  0.00000000000E+00  0.00000000000E+00  0.74505805969E-08  0.10566000000E+00  0.10566000000E+00 0. -1.
     999900   -1    0    0    0    0 -0.00000000000E+00 -0.00000000000E+00 -0.74505805969E-08  0.93827000000E+00  0.93827000000E+00 0.  1.
     999902    2    1    2    0    0  0.82000996523E-02  0.20573098433E-01 -0.69508634518E-02  0.10207177507E+01  0.10204537805E+01 0.  0.
     999903    2    3    3    0    0  0.10748238104E+00  0.58813516905E-01 -0.47108884796E-01  0.13340046380E+00  0.23768565626E-01 0.  0.
         14    1    1    2    0    0 -0.82000996523E-02 -0.20573098433E-01  0.69508634518E-02  0.23212249269E-01  0.00000000000E+00 0. -1.
     999901    1    3    3    0    0 -0.99282281385E-01 -0.38240418472E-01  0.40158021345E-01  0.88731728693E+00  0.88000000000E+00 0.  1.
        -11    1    4    4    0    0  0.20247113546E-01  0.62847898177E-02 -0.17094674225E-01  0.27238450724E-01  0.51100000000E-03 0. -1.
         11    1    4    4    0    0  0.87235267492E-01  0.52528727087E-01 -0.30014210571E-01  0.10616201308E+00  0.51100000000E-03 0.  1.
</event>
<event>
 8    1  0.1041149E+005  0.1043930E+01  0.7957747E-01            NaN
         13   -1    0    0    0    0  0.00000000000E+00  0.00000000000E+00  0.74505805969E-08  0.10566000000E+00  0.10566000000E+00 0.  1.
     999900   -1    0    0    0    0 -0.00000000000E+00 -0.00000000000E+00 -0.74505805969E-08  0.93827000000E+00  0.93827000000E+00 0.  1.
     999902    2    1    2    0    0 -0.95219758033E-02 -0.21182070223E-01  0.50188572386E-02  0.10201700116E+01  0.10198932863E+01 0.  0.
     999903    2    3    3    0    0 -0.19509452079E-01 -0.12637473365E+00 -0.30507826378E-01  0.13313709709E+00  0.21061033333E-01 0.  0.
         14    1    1    2    0    0  0.95219758033E-02  0.21182070223E-01 -0.50188572386E-02  0.23759988428E-01  0.00000000000E+00 0. -1.
     999901    1    3    3    0    0  0.99874762761E-02  0.10519266343E+00  0.35526683616E-01  0.88703291448E+00  0.88000000000E+00 0. -1.
        -11    1    4    4    0    0 -0.18699130853E-01 -0.85010746260E-01 -0.28950790849E-01  0.91732730725E-01  0.51100000000E-03 0.  1.
         11    1    4    4    0    0 -0.81032122617E-03 -0.41363987394E-01 -0.15570355285E-02  0.41404366367E-01  0.51100000000E-03 0. -1.
</event>
<event>
 8    1  0.1041149E+005  0.1043930E+01  0.7957747E-01            NaN
         13   -1    0    0    0    0  0.00000000000E+00  0.00000000000E+00  0.74505805969E-08  0.10566000000E+00  0.10566000000E+00 0.  1.
     999900   -1    0    0    0    0 -0.00000000000E+00 -0.00000000000E+00 -0.74505805969E-08  0.93827000000E+00  0.93827000000E+00 0.  1.
     999902    2    1    2    0    0 -0.20566052733E-01  0.47825835301E-02 -0.14554954036E-01  0.10182846824E+01  0.10179616948E+01 0.  0.
     999903    2    3    3    0    0  0.99040322360E-01 -0.73435754968E-01 -0.21481048051E-01  0.12672887130E+00  0.19924252440E-01 0.  0.
         14    1    1    2    0    0  0.20566052733E-01 -0.47825835301E-02  0.14554954036E-01  0.25645317647E-01  0.00000000000E+00 0.  1.
     999901    1    3    3    0    0 -0.11960637509E+00  0.78218338498E-01  0.69260940144E-02  0.89155581105E+00  0.88000000000E+00 0. -1.
        -11    1    4    4    0    0  0.34604494396E-01 -0.37054965537E-01 -0.12202602957E-01  0.52150801943E-01  0.51100000000E-03 0. -1.
         11    1    4    4    0    0  0.64435827964E-01 -0.36380789431E-01 -0.92784450937E-02  0.74578069359E-01  0.51100000000E-03 0.  1.
</event>
<event>
 8    1  0.1041149E+005  0.1043930E+01  0.7957747E-01            NaN
         13   -1    0    0    0    0  0.00000000000E+00  0.00000000000E+00  0.74505805969E-08  0.10566000000E+00  0.10566000000E+00 0. -1.
     999900   -1    0    0    0    0 -0.00000000000E+00 -0.00000000000E+00 -0.74505805969E-08  0.93827000000E+00  0.93827000000E+00 0.  1.
     999902    2    1    2    0    0 -0.21854477804E-01  0.12532083968E-02  0.63505217154E-02  0.10211370656E+01  0.10208826519E+01 0.  0.
     999903    2    3    3    0    0  0.12628187582E+00  0.14384562734E-01  0.20183184002E-02  0.12864864569E+00  0.19808397823E-01 0.  0.
         14    1    1    2    0    0  0.21854477804E-01 -0.12532083968E-02 -0.63505217154E-02  0.22792934375E-01  0.00000000000E+00 0.  1.
     999901    1    3    3    0    0 -0.14813635362E+00 -0.13131354337E-01  0.43322033152E-02  0.89248841993E+00  0.88000000000E+00 0.  1.
        -11    1    4    4    0    0  0.11905886991E+00  0.17012754205E-01 -0.12622023205E-02  0.12027594350E+00  0.51100000000E-03 0.  1.
         11    1    4    4    0    0  0.72230059065E-02 -0.26281914714E-02  0.32805207206E-02  0.83727021883E-02  0.51100000000E-03 0. -1.
</event>
<event>
 8    1  0.1041149E+005  0.1043930E+01  0.7957747E-01            NaN
         13   -1    0    0    0    0  0.00000000000E+00  0.00000000000E+00  0.74505805969E-08  0.10566000000E+00  0.10566000000E+00 0.  1.
     999900   -1    0    0    0    0 -0.00000000000E+00 -0.00000000000E+00 -0.74505805969E-08  0.93827000000E+00  0.93827000000E+00 0.  1.
     999902    2    1    2    0    0 -0.21085379965E-01 -0.42782350742E-02 -0.96919175896E-02  0.10203327584E+01  0.10200598552E+01 0.  0.
     999903    2    3    3    0    0  0.89708424327E-02 -0.37032825998E-01  0.12205786586E+00  0.12941511623E+00  0.19956038558E-01 0.  0.
         14    1    1    2    0    0  0.21085379965E-01  0.42782350742E-02  0.96919175896E-02  0.23597241580E-01  0.00000000000E+00 0. -1.
     999901    1    3    3    0    0 -0.30056222398E-01  0.32754590924E-01 -0.13174978345E+00  0.89091764219E+00  0.88000000000E+00 0.  1.
        -11    1    4    4    0    0 -0.28892336566E-02 -0.94157461837E-03  0.24946199447E-01  0.25135795625E-01  0.51100000000E-03 0. -1.
         11    1    4    4    0    0  0.11860076089E-01 -0.36091251379E-01  0.97111666411E-01  0.10427932060E+00  0.51100000000E-03 0.  1.
</event>
<event>
 8    1  0.1041149E+005  0.1043930E+01  0.7957747E-01            NaN
         13   -1    0    0    0    0  0.00000000000E+00  0.00000000000E+00  0.74505805969E-08  0.10566000000E+00  0.10566000000E+00 0. -1.
     999900   -1    0    0    0    0 -0.00000000000E+00 -0.00000000000E+00 -0.74505805969E-08  0.93827000000E+00  0.93827000000E+00 0. -1.
     999902    2    1    2    0    0  0.10815537570E-01 -0.11192143025E-02 -0.19974061349E-01  0.10211881527E+01  0.10209348909E+01 0.  0.
     999903    2    3    3    0    0  0.78338519943E-01  0.59235100018E-01 -0.88596214618E-01  0.13388268309E+00  0.20725897003E-01 0.  0.
         14    1    1    2    0    0 -0.10815537570E-01  0.11192143025E-02  0.19974061349E-01  0.22741847339E-01  0.00000000000E+00 0. -1.
     999901    1    3    3    0    0 -0.67522982373E-01 -0.60354314321E-01  0.68622153269E-01  0.88730546957E+00  0.88000000000E+00 0.  1.
        -11    1    4    4    0    0  0.45987311000E-01  0.37945482042E-01 -0.66405423489E-01  0.89244796880E-01  0.51100000000E-03 0. -1.
         11    1    4    4    0    0  0.32351208943E-01  0.21289617976E-01 -0.22190791129E-01  0.44637886214E-01  0.51100000000E-03 0.  1.
</event>
<event>
 8    1  0.1041149E+005  0.1043930E+01  0.7957747E-01            NaN
         13   -1    0    0    0    0  0.00000000000E+00  0.00000000000E+00  0.74505805969E-08  0.10566000000E+00  0.10566000000E+00 0. -1.
     999900   -1    0    0    0    0 -0.00000000000E+00 -0.00000000000E+00 -0.74505805969E-08  0.93827000000E+00  0.93827000000E+00 0.  1.
     999902    2    1    2    0    0 -0.19842111240E-01 -0.21600558896E-02  0.13115189803E-01  0.10200472987E+01  0.10197676736E+01 0.  0.
     999903    2    3    3    0    0  0.40126972228E-01 -0.34978819115E-01  0.11823998197E+00  0.13115777564E+00  0.19697134011E-01 0.  0.
         14    1    1    2    0    0  0.19842111240E-01  0.21600558896E-02 -0.13115189803E-01  0.23882701344E-01  0.00000000000E+00 0.  1.
     999901    1    3    3    0    0 -0.59969083468E-01  0.32818763225E-01 -0.10512479217E+00  0.88888952301E+00  0.88000000000E+00 0.  1.
        -11    1    4    4    0    0  0.19373318608E-01 -0.25158183724E-01  0.85148953292E-01  0.90878298014E-01  0.51100000000E-03 0.  1.
         11    1    4    4    0    0  0.20753653620E-01 -0.98206353907E-02  0.33091028681E-01  0.40279477631E-01  0.51100000000E-03 0. -1.
</event>
<event>
 8    1  0.1041149E+005  0.1043930E+01  0.7957747E-01            NaN
         13   -1    0    0    0    0  0.00000000000E+00  0.00000000000E+00  0.74505805969E-08  0.10566000000E+00  0.10566000000E+00 0. -1.
     999900   -1    0    0    0    0 -0.00000000000E+00 -0.00000000000E+00 -0.74505805969E-08  0.93827000000E+00  0.93827000000E+00 0. -1.
     999902    2    1    2    0    0  0.17353582552E-01 -0.11003572664E-01 -0.11341953570E-01  0.10204594791E+01  0.10201895330E+01 0.  0.
     999903    2    3    3    0    0  0.85357457607E-01 -0.62111934736E-02 -0.10020459227E+00  0.13336080228E+00  0.20485818993E-01 0.  0.
         14    1    1    2    0    0 -0.17353582552E-01  0.11003572664E-01  0.11341953570E-01  0.23470520862E-01  0.00000000000E+00 0. -1.
     999901    1    3    3    0    0 -0.68003875055E-01 -0.47923791905E-02  0.88862638702E-01  0.88709867685E+00  0.88000000000E+00 0.  1.
        -11    1    4    4    0    0  0.12527517470E-01 -0.26621458110E-03 -0.53788349078E-02  0.13645605524E-01  0.51100000000E-03 0.  1.
         11    1    4    4    0    0  0.72829940137E-01 -0.59449788925E-02 -0.94825757364E-01  0.11971519676E+00  0.51100000000E-03 0. -1.
</event>
<event>
 8    1  0.1041149E+005  0.1043930E+01  0.7957747E-01            NaN
         13   -1    0    0    0    0  0.00000000000E+00  0.00000000000E+00  0.74505805969E-08  0.10566000000E+00  0.10566000000E+00 0.  1.
     999900   -1    0    0    0    0 -0.00000000000E+00 -0.00000000000E+00 -0.74505805969E-08  0.93827000000E+00  0.93827000000E+00 0. -1.
     999902    2    1    2    0    0  0.61537270459E-02 -0.17785457891E-02  0.22892277094E-01  0.10201584218E+01  0.10198814233E+01 0.  0.
     999903    2    3    3    0    0  0.35057741691E-01  0.87236446470E-01 -0.85396796061E-01  0.12859483217E+00  0.20119026772E-01 0.  0.
         14    1    1    2    0    0 -0.61537270459E-02  0.17785457891E-02 -0.22892277094E-01  0.23771578244E-01  0.00000000000E+00 0. -1.
     999901    1    3    3    0    0 -0.28904014645E-01 -0.89014992259E-01  0.10828907316E+00  0.89156358959E+00  0.88000000000E+00 0.  1.
        -11    1    4    4    0    0  0.11203631834E-01  0.14686963052E-01 -0.25728877792E-01  0.31677508163E-01  0.51100000000E-03 0.  1.
         11    1    4    4    0    0  0.23854109857E-01  0.72549483417E-01 -0.59667918269E-01  0.96917324007E-01  0.51100000000E-03 0. -1.
</event>
<event>
 8    1  0.1041149E+005  0.1043930E+01  0.7957747E-01            NaN
         13   -1    0    0    0    0  0.00000000000E+00  0.00000000000E+00  0.74505805969E-08  0.10566000000E+00  0.10566000000E+00 0. -1.
     999900   -1    0    0    0    0 -0.00000000000E+00 -0.00000000000E+00 -0.74505805969E-08  0.93827000000E+00  0.93827000000E+00 0. -1.
     999902    2    1    2    0    0  0.21263670113E-01  0.71173545911E-02 -0.67826766303E-02  0.10205034103E+01  0.10202344855E+01 0.  0.
     999903    2    3    3    0    0 -0.12178340903E+00  0.16913684074E-01 -0.31943535112E-01  0.12854404815E+00  0.19644629174E-01 0.  0.
         14    1    1    2    0    0 -0.21263670113E-01 -0.71173545911E-02  0.67826766303E-02  0.23426589707E-01  0.00000000000E+00 0. -1.
     999901    1    3    3    0    0  0.14304707914E+00 -0.97963294826E-02  0.25160858482E-01  0.89195936215E+00  0.88000000000E+00 0. -1.
        -11    1    4    4    0    0 -0.40235759083E-01  0.70943703121E-02 -0.20168047903E-01  0.45565970596E-01  0.51100000000E-03 0.  1.
         11    1    4    4    0    0 -0.81547649943E-01  0.98193137616E-02 -0.11775487210E-01  0.82978077550E-01  0.51100000000E-03 0. -1.
</event>
<event>
 8    1  0.1041149E+005  0.1043930E+01  0.7957747E-01            NaN
         13   -1    0    0    0    0  0.00000000000E+00  0.00000000000E+00  0.74505805969E-08  0.10566000000E+00  0.10566000000E+00 0. -1.
     999900   -1    0    0    0    0 -0.00000000000E+00 -0.00000000000E+00 -0.74505805969E-08  0.93827000000E+00  0.93827000000E+00 0. -1.
     999902    2    1    2    0    0  0.21347901052E-01  0.38499178240E-02  0.85944215382E-02  0.10205972156E+01  0.10203304649E+01 0.  0.
     999903    2    3    3    0    0 -0.40608791802E-01 -0.82964432526E-01 -0.87687367850E-01  0.12894394992E+00  0.20131982141E-01 0.  0.
         14    1    1    2    0    0 -0.21347901052E-01 -0.38499178240E-02 -0.85944215382E-02  0.23332784406E-01  0.00000000000E+00 0.  1.
     999901    1    3    3    0    0  0.61956692854E-01  0.86814350350E-01  0.96281789388E-01  0.89165326567E+00  0.88000000000E+00 0.  1.
        -11    1    4    4    0    0 -0.36543313023E-01 -0.53507974907E-01 -0.60004972113E-01  0.88314069687E-01  0.51100000000E-03 0. -1.
         11    1    4    4    0    0 -0.40654787793E-02 -0.29456457619E-01 -0.27682395737E-01  0.40629880235E-01  0.51100000000E-03 0.  1.
</event>
<event>
 8    1  0.1041149E+005  0.1043930E+01  0.7957747E-01            NaN
         13   -1    0    0    0    0  0.00000000000E+00  0.00000000000E+00  0.74505805969E-08  0.10566000000E+00  0.10566000000E+00 0.  1.
     999900   -1    0    0    0    0 -0.00000000000E+00 -0.00000000000E+00 -0.74505805969E-08  0.93827000000E+00  0.93827000000E+00 0. -1.
     999902    2    1    2    0    0  0.38989673187E-02  0.31346913965E-02 -0.21329710020E-01  0.10220214454E+01  0.10217865971E+01 0.  0.
     999903    2    3    3    0    0  0.12284759429E+00 -0.46081168529E-01 -0.13379901833E-01  0.13262042436E+00  0.13933760018E-01 0.  0.
         14    1    1    2    0    0 -0.38989673187E-02 -0.31346913965E-02  0.21329710020E-01  0.21908554627E-01  0.00000000000E+00 0. -1.
     999901    1    3    3    0    0 -0.11894862697E+00  0.49215859926E-01 -0.79498081870E-02  0.88940102101E+00  0.88000000000E+00 0.  1.
        -11    1    4    4    0    0  0.43781348647E-01 -0.94025140221E-02 -0.46315848912E-02  0.45021400010E-01  0.51100000000E-03 0. -1.
         11    1    4    4    0    0  0.79066245645E-01 -0.36678654507E-01 -0.87483169420E-02  0.87599024350E-01  0.51100000000E-03 0.  1.
</event>
<event>
 8    1  0.1041149E+005  0.1043930E+01  0.7957747E-01            NaN
         13   -1    0    0    0    0  0.00000000000E+00  0.00000000000E+00  0.74505805969E-08  0.10566000000E+00  0.10566000000E+00 0. -1.
     999900   -1    0    0    0    0 -0.00000000000E+00 -0.00000000000E+00 -0.74505805969E-08  0.93827000000E+00  0.93827000000E+00 0.  1.
     999902    2    1    2    0    0 -0.21819734502E-01  0.10190000346E-01  0.37756879207E-02  0.10195539310E+01  0.10192624910E+01 0.  0.
     999903    2    3    3    0    0 -0.83388010015E-01  0.45191421921E-01  0.90729572742E-01  0.13243684169E+00  0.17658902468E-01 0.  0.
         14    1    1    2    0    0  0.21819734502E-01 -0.10190000346E-01 -0.37756879207E-02  0.24376069003E-01  0.00000000000E+00 0.  1.
     999901    1    3    3    0    0  0.61568275513E-01 -0.35001421575E-01 -0.86953884821E-01  0.88711708931E+00  0.88000000000E+00 0.  1.
        -11    1    4    4    0    0 -0.15381085691E-01  0.16010320317E-01  0.16946740483E-01  0.27934947426E-01  0.51100000000E-03 0. -1.
         11    1    4    4    0    0 -0.68006924324E-01  0.29181101603E-01  0.73782832258E-01  0.10450189426E+00  0.51100000000E-03 0.  1.
</event>
<event>
 8    1  0.1041149E+005  0.1043930E+01  0.7957747E-01            NaN
         13   -1    0    0    0    0  0.00000000000E+00  0.00000000000E+00  0.74505805969E-08  0.10566000000E+00  0.10566000000E+00 0. -1.
     999900   -1    0    0    0    0 -0.00000000000E+00 -0.00000000000E+00 -0.74505805969E-08  0.93827000000E+00  0.93827000000E+00 0. -1.
     999902    2    1    2    0    0 -0.77240084180E-02 -0.20565717469E-01  0.96401052823E-02  0.10199395713E+01  0.10196573877E+01 0.  0.
     999903    2    3    3    0    0  0.81831550051E-01 -0.62526558197E-01 -0.77048890261E-01  0.13016662711E+00  0.20021145279E-01 0.  0.
         14    1    1    2    0    0  0.77240084180E-02  0.20565717469E-01 -0.96401052823E-02  0.23990428735E-01  0.00000000000E+00 0.  1.
     999901    1    3    3    0    0 -0.89555558469E-01  0.41960840728E-01  0.86688995543E-01  0.88977294416E+00  0.88000000000E+00 0.  1.
        -11    1    4    4    0    0  0.32638754294E-01 -0.32917903713E-01 -0.44006897188E-01  0.63919830943E-01  0.51100000000E-03 0.  1.
         11    1    4    4    0    0  0.49192795756E-01 -0.29608654484E-01 -0.33041993073E-01  0.66246796163E-01  0.51100000000E-03 0. -1.
</event>
<event>
 8    1  0.1041149E+005  0.1043930E+01  0.7957747E-01            NaN
         13   -1    0    0    0    0  0.00000000000E+00  0.00000000000E+00  0.74505805969E-08  0.10566000000E+00  0.10566000000E+00 0. -1.
     999900   -1    0    0    0    0 -0.00000000000E+00 -0.00000000000E+00 -0.74505805969E-08  0.93827000000E+00  0.93827000000E+00 0.  1.
     999902    2    1    2    0    0 -0.69120978005E-02 -0.77649987397E-03 -0.23106710667E-01  0.10197991043E+01  0.10195135669E+01 0.  0.
     999903    2    3    3    0    0 -0.39407258966E-01 -0.10604175375E+00 -0.64815686641E-01  0.13194982216E+00  0.20295239251E-01 0.  0.
         14    1    1    2    0    0  0.69120978005E-02  0.77649987397E-03  0.23106710667E-01  0.24130895672E-01  0.00000000000E+00 0. -1.
     999901    1    3    3    0    0  0.32495161165E-01  0.10526525387E+00  0.41708975974E-01  0.88784928217E+00  0.88000000000E+00 0. -1.
        -11    1    4    4    0    0 -0.98739610857E-02 -0.52781857238E-01 -0.25388111369E-01  0.59398963635E-01  0.51100000000E-03 0.  1.
         11    1    4    4    0    0 -0.29533297880E-01 -0.53259896508E-01 -0.39427575272E-01  0.72550858524E-01  0.51100000000E-03 0. -1.
</event>
<event>
 8    1  0.1041149E+005  0.1043930E+01  0.7957747E-01            NaN
         13   -1    0    0    0    0  0.00000000000E+00  0.00000000000E+00  0.74505805969E-08  0.10566000000E+00  0.10566000000E+00 0.  1.
     999900   -1    0    0    0    0 -0.00000000000E+00 -0.00000000000E+00 -0.74505805969E-08  0.93827000000E+00  0.93827000000E+00 0. -1.
     999902    2    1    2    0    0 -0.21978549422E-01 -0.30742612291E-02  0.14954000454E-01  0.10171693975E+01  0.10168173156E+01 0.  0.
     999903    2    3    3    0    0  0.39827675733E-01  0.63160883674E-01 -0.98510478906E-01  0.12527181819E+00  0.20326657336E-01 0.  0.
         14    1    1    2    0    0  0.21978549422E-01  0.30742612291E-02 -0.14954000454E-01  0.26760602504E-01  0.00000000000E+00 0.  1.
     999901    1    3    3    0    0 -0.61806225155E-01 -0.66235144903E-01  0.11346447936E+00  0.89189757930E+00  0.88000000000E+00 0.  1.
        -11    1    4    4    0    0  0.30442371062E-01  0.32162931638E-01 -0.65104124892E-01  0.78740080812E-01  0.51100000000E-03 0.  1.
         11    1    4    4    0    0  0.93853046712E-02  0.30997952036E-01 -0.33406354015E-01  0.46531737381E-01  0.51100000000E-03 0. -1.
</event>
<event>
 8    1  0.1041149E+005  0.1043930E+01  0.7957747E-01            NaN
         13   -1    0    0    0    0  0.00000000000E+00  0.00000000000E+00  0.74505805969E-08  0.10566000000E+00  0.10566000000E+00 0.  1.
     999900   -1    0    0    0    0 -0.00000000000E+00 -0.00000000000E+00 -0.74505805969E-08  0.93827000000E+00  0.93827000000E+00 0.  1.
     999902    2    1    2    0    0  0.47341352859E-02 -0.77918242533E-02  0.21995442074E-01  0.10201198334E+01  0.10198419242E+01 0.  0.
     999903    2    3    3    0    0  0.57140328053E-01 -0.14615735394E-01  0.11792236798E+00  0.13333070968E+00  0.19818084244E-01 0.  0.
         14    1    1    2    0    0 -0.47341352859E-02  0.77918242533E-02 -0.21995442074E-01  0.23810166613E-01  0.00000000000E+00 0. -1.
     999901    1    3    3    0    0 -0.52406192767E-01  0.68239111403E-02 -0.95926925909E-01  0.88678912370E+00  0.88000000000E+00 0.  1.
        -11    1    4    4    0    0  0.37648578961E-01 -0.17461727810E-02  0.59789394323E-01  0.70678832840E-01  0.51100000000E-03 0. -1.
         11    1    4    4    0    0  0.19491749091E-01 -0.12869562613E-01  0.58132973660E-01  0.62651876844E-01  0.51100000000E-03 0.  1.
</event>
<event>
 8    1  0.1041149E+005  0.1043930E+01  0.7957747E-01            NaN
         13   -1    0    0    0    0  0.00000000000E+00  0.00000000000E+00  0.74505805969E-08  0.10566000000E+00  0.10566000000E+00 0. -1.
     999900   -1    0    0    0    0 -0.00000000000E+00 -0.00000000000E+00 -0.74505805969E-08  0.93827000000E+00  0.93827000000E+00 0.  1.
     999902    2    1    2    0    0  0.10625447715E-01  0.10425343121E-01  0.19147657517E-01  0.10196767382E+01  0.10193882625E+01 0.  0.
     999903    2    3    3    0    0  0.28822648490E-01  0.10358265656E+00 -0.70257287954E-01  0.13006858435E+00  0.20533833536E-01 0.  0.
         14    1    1    2    0    0 -0.10625447715E-01 -0.10425343121E-01 -0.19147657517E-01  0.24253261775E-01  0.00000000000E+00 0.  1.
     999901    1    3    3    0    0 -0.18197200774E-01 -0.93157313434E-01  0.89404945471E-01  0.88960815387E+00  0.88000000000E+00 0. -1.
        -11    1    4    4    0    0  0.11373333305E-01  0.70768155176E-01 -0.52669959321E-01  0.88948694388E-01  0.51100000000E-03 0. -1.
         11    1    4    4    0    0  0.17449315185E-01  0.32814501380E-01 -0.17587328633E-01  0.41119889964E-01  0.51100000000E-03 0.  1.
</event>
<event>
 8    1  0.1041149E+005  0.1043930E+01  0.7957747E-01            NaN
         13   -1    0    0    0    0  0.00000000000E+00  0.00000000000E+00  0.74505805969E-08  0.10566000000E+00  0.10566000000E+00 0. -1.
     999900   -1    0    0    0    0 -0.00000000000E+00 -0.00000000000E+00 -0.74505805969E-08  0.93827000000E+00  0.93827000000E+00 0.  1.
     999902    2    1    2    0    0 -0.92851407559E-02  0.21966526625E-01  0.38458893987E-02  0.10197735724E+01  0.10194874231E+01 0.  0.
     999903    2    3    3    0    0 -0.95586566324E-01 -0.76794124892E-01  0.36615981566E-01  0.12945032697E+00  0.19558317103E-01 0.  0.
         14    1    1    2    0    0  0.92851407559E-02 -0.21966526625E-01 -0.38458893987E-02  0.24156427636E-01  0.00000000000E+00 0.  1.
     999901    1    3    3    0    0  0.86301425568E-01  0.98760651518E-01 -0.32770092167E-01  0.89032324539E+00  0.88000000000E+00 0.  1.
        -11    1    4    4    0    0 -0.73634310556E-01 -0.55783059515E-01  0.18969150645E-01  0.94307217206E-01  0.51100000000E-03 0. -1.
         11    1    4    4    0    0 -0.21952255768E-01 -0.21011065377E-01  0.17646830921E-01  0.35143109768E-01  0.51100000000E-03 0.  1.
</event>
<event>
 8    1  0.1041149E+005  0.1043930E+01  0.7957747E-01            NaN
         13   -1    0    0    0    0  0.00000000000E+00  0.00000000000E+00  0.74505805969E-08  0.10566000000E+00  0.10566000000E+00 0.  1.
     999900   -1    0    0    0    0 -0.00000000000E+00 -0.00000000000E+00 -0.74505805969E-08  0.93827000000E+00  0.93827000000E+00 0. -1.
     999902    2    1    2    0    0 -0.20504622384E-01  0.79169234503E-02  0.80038741832E-02  0.10205381378E+01  0.10202700189E+01 0.  0.
     999903    2    3    3    0    0 -0.10241831460E+00  0.72986682923E-01 -0.39019268446E-01  0.13309512411E+00  0.19371156479E-01 0.  0.
         14    1    1    2    0    0  0.20504622384E-01 -0.79169234503E-02 -0.80038741832E-02  0.23391862217E-01  0.00000000000E+00 0. -1.
     999901    1    3    3    0    0  0.81913692215E-01 -0.65069759472E-01  0.47023142629E-01  0.88744301367E+00  0.88000000000E+00 0.  1.
        -11    1    4    4    0    0 -0.47062583584E-01  0.32054636342E-01 -0.77130268667E-02  0.57464235739E-01  0.51100000000E-03 0.  1.
         11    1    4    4    0    0 -0.55355731015E-01  0.40932046580E-01 -0.31306241579E-01  0.75630888374E-01  0.51100000000E-03 0. -1.
</event>
<event>
 8    1  0.1041149E+005  0.1043930E+01  0.7957747E-01            NaN
         13   -1    0    0    0    0  0.00000000000E+00  0.00000000000E+00  0.74505805969E-08  0.10566000000E+00  0.10566000000E+00 0.  1.
     999900   -1    0    0    0    0 -0.00000000000E+00 -0.00000000000E+00 -0.74505805969E-08  0.93827000000E+00  0.93827000000E+00 0. -1.
     999902    2    1    2    0    0  0.78330485153E-02 -0.20449566790E-01  0.11241981748E-01  0.10193144849E+01  0.10190172204E+01 0.  0.
     999903    2    3    3    0    0 -0.83654418851E-01 -0.19134854190E-01 -0.93392543867E-01  0.12840479860E+00  0.20035483923E-01 0.  0.
         14    1    1    2    0    0 -0.78330485153E-02  0.20449566790E-01 -0.11241981748E-01  0.24615515119E-01  0.00000000000E+00 0. -1.
     999901    1    3    3    0    0  0.91487467366E-01 -0.13147126009E-02  0.10463452561E+00  0.89090968628E+00  0.88000000000E+00 0.  1.
        -11    1    4    4    0    0 -0.14052319438E-01  0.19671431520E-02 -0.82321868936E-02  0.16412414685E-01  0.51100000000E-03 0.  1.
         11    1    4    4    0    0 -0.69602099413E-01 -0.21101997342E-01 -0.85160356973E-01  0.11199238392E+00  0.51100000000E-03 0. -1.
</event>
<event>
 8    1  0.1041149E+005  0.1043930E+01  0.7957747E-01            NaN
         13   -1    0    0    0    0  0.00000000000E+00  0.00000000000E+00  0.74505805969E-08  0.10566000000E+00  0.10566000000E+00 0. -1.
     999900   -1    0    0    0    0 -0.00000000000E+00 -0.00000000000E+00 -0.74505805969E-08  0.93827000000E+00  0.93827000000E+00 0. -1.
     999902    2    1    2    0    0  0.29943477636E-02  0.26243358224E-01 -0.13952648847E-01  0.10140576653E+01  0.10136175769E+01 0.  0.
     999903    2    3    3    0    0 -0.11643752549E+00  0.37506500745E-01  0.18534045085E-01  0.12532473805E+00  0.19958562072E-01 0.  0.
         14    1    1    2    0    0 -0.29943477636E-02 -0.26243358224E-01  0.13952648847E-01  0.29872334681E-01  0.00000000000E+00 0. -1.
     999901    1    3    3    0    0  0.11943187325E+00 -0.11263142521E-01 -0.32486693932E-01  0.88873292727E+00  0.88000000000E+00 0.  1.
        -11    1    4    4    0    0 -0.85315720410E-01  0.18482326306E-01  0.16062805209E-01  0.88761722420E-01  0.51100000000E-03 0.  1.
         11    1    4    4    0    0 -0.31121805080E-01  0.19024174439E-01  0.24712398760E-02  0.36563015631E-01  0.51100000000E-03 0. -1.
</event>
<event>
 8    1  0.1041149E+005  0.1043930E+01  0.7957747E-01            NaN
         13   -1    0    0    0    0  0.00000000000E+00  0.00000000000E+00  0.74505805969E-08  0.10566000000E+00  0.10566000000E+00 0. -1.
     999900   -1    0    0    0    0 -0.00000000000E+00 -0.00000000000E+00 -0.74505805969E-08  0.93827000000E+00  0.93827000000E+00 0.  1.
     999902    2    1    2    0    0  0.15949195212E-01 -0.11461733768E-01  0.11528790253E-01  0.10211558661E+01  0.10209018767E+01 0.  0.
     999903    2    3    3    0    0 -0.27267442009E-01 -0.12659079710E+00 -0.17110649934E-01  0.13214371970E+00  0.20011122224E-01 0.  0.
         14    1    1    2    0    0 -0.15949195212E-01  0.11461733768E-01 -0.11528790253E-01  0.22774133871E-01  0.00000000000E+00 0.  1.
     999901    1    3    3    0    0  0.43216637221E-01  0.11512906333E+00  0.28639440188E-01  0.88901214642E+00  0.88000000000E+00 0. -1.
        -11    1    4    4    0    0 -0.17320734918E-01 -0.97712592883E-01 -0.52548391836E-02  0.99376220102E-01  0.51100000000E-03 0.  1.
         11    1    4    4    0    0 -0.99467070911E-02 -0.28878204215E-01 -0.11855810751E-01  0.32767499602E-01  0.51100000000E-03 0. -1.
</event>
<event>
 8    1  0.1041149E+005  0.1043930E+01  0.7957747E-01            NaN
         13   -1    0    0    0    0  0.00000000000E+00  0.00000000000E+00  0.74505805969E-08  0.10566000000E+00  0.10566000000E+00 0.  1.
     999900   -1    0    0    0    0 -0.00000000000E+00 -0.00000000000E+00 -0.74505805969E-08  0.93827000000E+00  0.93827000000E+00 0.  1.
     999902    2    1    2    0    0 -0.21870512687E-01  0.82358659125E-02 -0.24142165955E-03  0.10205589261E+01  0.10202912890E+01 0.  0.
     999903    2    3    3    0    0 -0.97420860370E-02 -0.11332342841E+00  0.59848575111E-01  0.13009019080E+00  0.20112138951E-01 0.  0.
         14    1    1    2    0    0  0.21870512687E-01 -0.82358659125E-02  0.24142165955E-03  0.23371073936E-01  0.00000000000E+00 0. -1.
     999901    1    3    3    0    0 -0.12128426650E-01  0.12155929432E+00 -0.60089996770E-01  0.89046873526E+00  0.88000000000E+00 0.  1.
        -11    1    4    4    0    0 -0.11056294458E-01 -0.31264862241E-01  0.21303540391E-01  0.39418716522E-01  0.51100000000E-03 0. -1.
         11    1    4    4    0    0  0.13142084208E-02 -0.82058566168E-01  0.38545034720E-01  0.90671474279E-01  0.51100000000E-03 0.  1.
</event>
<event>
 8    1  0.1041149E+005  0.1043930E+01  0.7957747E-01            NaN
         13   -1    0    0    0    0  0.00000000000E+00  0.00000000000E+00  0.74505805969E-08  0.10566000000E+00  0.10566000000E+00 0. -1.
     999900   -1    0    0    0    0 -0.00000000000E+00 -0.00000000000E+00 -0.74505805969E-08  0.93827000000E+00  0.93827000000E+00 0.  1.
     999902    2    1    2    0    0  0.15736458932E-01 -0.13174348341E-01 -0.12290009787E-01  0.10200083794E+01  0.10197278313E+01 0.  0.
     999903    2    3    3    0    0 -0.84702501684E-01  0.33848381988E-01  0.86694190228E-01  0.12754157670E+00  0.20754383000E-01 0.  0.
         14    1    1    2    0    0 -0.15736458932E-01  0.13174348341E-01  0.12290009787E-01  0.23921620649E-01  0.00000000000E+00 0. -1.
     999901    1    3    3    0    0  0.10043896062E+00 -0.47022730329E-01 -0.98984200015E-01  0.89246680265E+00  0.88000000000E+00 0. -1.
        -11    1    4    4    0    0 -0.31788238709E-01  0.12922931787E-01  0.19432455032E-01  0.39438251936E-01  0.51100000000E-03 0.  1.
         11    1    4    4    0    0 -0.52914262975E-01  0.20925450201E-01  0.67261735196E-01  0.88103324766E-01  0.51100000000E-03 0. -1.
</event>
<event>
 8    1  0.1041149E+005  0.1043930E+01  0.7957747E-01            NaN
         13   -1    0    0    0    0  0.00000000000E+00  0.00000000000E+00  0.74505805969E-08  0.10566000000E+00  0.10566000000E+00 0. -1.
     999900   -1    0    0    0    0 -0.00000000000E+00 -0.00000000000E+00 -0.74505805969E-08  0.93827000000E+00  0.93827000000E+00 0.  1.
     999902    2    1    2    0    0  0.40051238457E-02 -0.23547263505E-01 -0.23348475035E-02  0.10199307053E+01  0.10196483106E+01 0.  0.
     999903    2    3    3    0    0 -0.87056945154E-01  0.74499952689E-01  0.53641812629E-01  0.12805686692E+00  0.19798041664E-01 0.  0.
         14    1    1    2    0    0 -0.40051238457E-02  0.23547263505E-01  0.23348475035E-02  0.23999294749E-01  0.00000000000E+00 0.  1.
     999901    1    3    3    0    0  0.91062068999E-01 -0.98047216194E-01 -0.55976660133E-01  0.89187383833E+00  0.88000000000E+00 0.  1.
        -11    1    4    4    0    0 -0.64558676150E-01  0.65558235592E-01  0.44039394588E-01  0.10200703072E+00  0.51100000000E-03 0.  1.
         11    1    4    4    0    0 -0.22498269004E-01  0.89417170967E-02  0.96024180414E-02  0.26049836200E-01  0.51100000000E-03 0. -1.
</event>
<event>
 8    1  0.1041149E+005  0.1043930E+01  0.7957747E-01            NaN
         13   -1    0    0    0    0  0.00000000000E+00  0.00000000000E+00  0.74505805969E-08  0.10566000000E+00  0.10566000000E+00 0.  1.
     999900   -1    0    0    0    0 -0.00000000000E+00 -0.00000000000E+00 -0.74505805969E-08  0.93827000000E+00  0.93827000000E+00 0.  1.
     999902    2    1    2    0    0  0.37931457243E-02  0.50931250431E-02 -0.23297649733E-01  0.10197823633E+01  0.10194964247E+01 0.  0.
     999903    2    3    3    0    0 -0.75675206803E-01 -0.12889853266E-02  0.10073022561E+00  0.12751622345E+00  0.19631874158E-01 0.  0.
         14    1    1    2    0    0 -0.37931457243E-02 -0.50931250431E-02  0.23297649733E-01  0.24147636743E-01  0.00000000000E+00 0.  1.
     999901    1    3    3    0    0  0.79468352527E-01  0.63821103697E-02 -0.12402787534E+00  0.89226613981E+00  0.88000000000E+00 0.  1.
        -11    1    4    4    0    0 -0.39579698381E-01  0.64115934178E-02  0.41358713920E-01  0.57606122871E-01  0.51100000000E-03 0. -1.
         11    1    4    4    0    0 -0.36095508422E-01 -0.77005787445E-02  0.59371511692E-01  0.69910100578E-01  0.51100000000E-03 0.  1.
</event>
<event>
 8    1  0.1041149E+005  0.1043930E+01  0.7957747E-01            NaN
         13   -1    0    0    0    0  0.00000000000E+00  0.00000000000E+00  0.74505805969E-08  0.10566000000E+00  0.10566000000E+00 0.  1.
     999900   -1    0    0    0    0 -0.00000000000E+00 -0.00000000000E+00 -0.74505805969E-08  0.93827000000E+00  0.93827000000E+00 0.  1.
     999902    2    1    2    0    0 -0.15440591803E-01 -0.17059518466E-01  0.55183437728E-02  0.10202679806E+01  0.10199935593E+01 0.  0.
     999903    2    3    3    0    0  0.13433007723E-01  0.43515804519E-02 -0.12726939576E+00  0.12958021054E+00  0.19853209256E-01 0.  0.
         14    1    1    2    0    0  0.15440591803E-01  0.17059518466E-01 -0.55183437728E-02  0.23662019430E-01  0.00000000000E+00 0. -1.
     999901    1    3    3    0    0 -0.28873599526E-01 -0.21411098918E-01  0.13278773953E+00  0.89068777003E+00  0.88000000000E+00 0. -1.
        -11    1    4    4    0    0 -0.46069078548E-03 -0.38634070728E-02 -0.69085777947E-01  0.69197138566E-01  0.51100000000E-03 0.  1.
         11    1    4    4    0    0  0.13893698508E-01  0.82149875247E-02 -0.58183617814E-01  0.60383071976E-01  0.51100000000E-03 0. -1.
</event>
<event>
 8    1  0.1041149E+005  0.1043930E+01  0.7957747E-01            NaN
         13   -1    0    0    0    0  0.00000000000E+00  0.00000000000E+00  0.74505805969E-08  0.10566000000E+00  0.10566000000E+00 0. -1.
     999900   -1    0    0    0    0 -0.00000000000E+00 -0.00000000000E+00 -0.74505805969E-08  0.93827000000E+00  0.93827000000E+00 0.  1.
     999902    2    1    2    0    0 -0.12030563635E-01 -0.80008237383E-02 -0.18219157228E-01  0.10206773586E+01  0.10204124583E+01 0.  0.
     999903    2    3    3    0    0  0.57048561716E-01 -0.41494919178E-01 -0.11055645654E+00  0.13252199110E+00  0.19052068907E-01 0.  0.
         14    1    1    2    0    0  0.12030563635E-01  0.80008237383E-02  0.18219157228E-01  0.23252641397E-01  0.00000000000E+00 0.  1.
     999901    1    3    3    0    0 -0.69079125351E-01  0.33494095440E-01  0.92337299313E-01  0.88815536751E+00  0.88000000000E+00 0. -1.
        -11    1    4    4    0    0  0.16215668026E-01 -0.86362492710E-02 -0.44856748031E-01  0.48475990510E-01  0.51100000000E-03 0. -1.
         11    1    4    4    0    0  0.40832893691E-01 -0.32858669907E-01 -0.65699708509E-01  0.84046000586E-01  0.51100000000E-03 0.  1.
</event>
<event>
 8    1  0.1041149E+005  0.1043930E+01  0.7957747E-01            NaN
         13   -1    0    0    0    0  0.00000000000E+00  0.00000000000E+00  0.74505805969E-08  0.10566000000E+00  0.10566000000E+00 0. -1.
     999900   -1    0    0    0    0 -0.00000000000E+00 -0.00000000000E+00 -0.74505805969E-08  0.93827000000E+00  0.93827000000E+00 0.  1.
     999902    2    1    2    0    0 -0.50250021883E-02 -0.10029558219E-01  0.26073962049E-01  0.10155452474E+01  0.10151484893E+01 0.  0.
     999903    2    3    3    0    0 -0.37076349617E-01  0.67174434367E-01 -0.94734644036E-01  0.12336675365E+00  0.18911446075E-01 0.  0.
         14    1    1    2    0    0  0.50250021883E-02  0.10029558219E-01 -0.26073962049E-01  0.28384752632E-01  0.00000000000E+00 0.  1.
     999901    1    3    3    0    0  0.32051347429E-01 -0.77203992586E-01  0.12080860609E+00  0.89217849371E+00  0.88000000000E+00 0. -1.
        -11    1    4    4    0    0 -0.35306480768E-01  0.64208155281E-01 -0.81139226586E-01  0.10933009650E+00  0.51100000000E-03 0. -1.
         11    1    4    4    0    0 -0.17698688485E-02  0.29662790861E-02 -0.13595417450E-01  0.14036657152E-01  0.51100000000E-03 0.  1.
</event>
<event>
 8    1  0.1041149E+005  0.1043930E+01  0.7957747E-01            NaN
         13   -1    0    0    0    0  0.00000000000E+00  0.00000000000E+00  0.74505805969E-08  0.10566000000E+00  0.10566000000E+00 0. -1.
     999900   -1    0    0    0    0 -0.00000000000E+00 -0.00000000000E+00 -0.74505805969E-08  0.93827000000E+00  0.93827000000E+00 0. -1.
     999902    2    1    2    0    0 -0.85810955946E-02 -0.21463662182E-01 -0.51560869919E-02  0.10202464777E+01  0.10199715516E+01 0.  0.
     999903    2    3    3    0    0 -0.17875666581E-01 -0.46406355212E-01  0.11959776779E+00  0.13104905795E+00  0.19928378536E-01 0.  0.
         14    1    1    2    0    0  0.85810955946E-02  0.21463662182E-01  0.51560869919E-02  0.23683522309E-01  0.00000000000E+00 0.  1.
     999901    1    3    3    0    0  0.92945709868E-02  0.24942693030E-01 -0.12475385478E+00  0.88919741974E+00  0.88000000000E+00 0. -1.
        -11    1    4    4    0    0 -0.81670500343E-02 -0.28476998552E-01  0.46319989004E-01  0.54985840497E-01  0.51100000000E-03 0. -1.
         11    1    4    4    0    0 -0.97086165470E-02 -0.17929356660E-01  0.73277778783E-01  0.76063217457E-01  0.51100000000E-03 0.  1.
</event>
<event>
 8    1  0.1041149E+005  0.1043930E+01  0.7957747E-01            NaN
         13   -1    0    0    0    0  0.00000000000E+00  0.00000000000E+00  0.74505805969E-08  0.10566000000E+00  0.10566000000E+00 0. -1.
     999900   -1    0    0    0    0 -0.00000000000E+00 -0.00000000000E+00 -0.74505805969E-08  0.93827000000E+00  0.93827000000E+00 0.  1.
     999902    2    1    2    0    0  0.17223470262E-01 -0.14792251421E-01 -0.40436497443E-02  0.10208689997E+01  0.10206084974E+01 0.  0.
     999903    2    3    3    0    0  0.10901199169E+00  0.42968625992E-01 -0.58478870826E-01  0.13254212019E+00  0.20438154005E-01 0.  0.
         14    1    1    2    0    0 -0.17223470262E-01  0.14792251421E-01  0.40436497443E-02  0.23061000265E-01  0.00000000000E+00 0. -1.
     999901    1    3    3    0    0 -0.91788521430E-01 -0.57760877414E-01  0.54435221082E-01  0.88832687954E+00  0.88000000000E+00 0. -1.
        -11    1    4    4    0    0  0.73989179923E-01  0.18854615079E-01 -0.35471715440E-01  0.84192630157E-01  0.51100000000E-03 0. -1.
         11    1    4    4    0    0  0.35022811769E-01  0.24114010914E-01 -0.23007155386E-01  0.48349490034E-01  0.51100000000E-03 0.  1.
</event>
<event>
 8    1  0.1041149E+005  0.1043930E+01  0.7957747E-01            NaN
         13   -1    0    0    0    0  0.00000000000E+00  0.00000000000E+00  0.74505805969E-08  0.10566000000E+00  0.10566000000E+00 0. -1.
     999900   -1    0    0    0    0 -0.00000000000E+00 -0.00000000000E+00 -0.74505805969E-08  0.93827000000E+00  0.93827000000E+00 0. -1.
     999902    2    1    2    0    0 -0.10415094824E-01 -0.21536903775E-01  0.33913092837E-02  0.10197677691E+01  0.10194814807E+01 0.  0.
     999903    2    3    3    0    0 -0.23934799645E-01  0.12022516973E+00  0.30624838911E-01  0.12790402778E+00  0.19864377527E-01 0.  0.
         14    1    1    2    0    0  0.10415094824E-01  0.21536903775E-01 -0.33913092837E-02  0.24162230921E-01  0.00000000000E+00 0.  1.
     999901    1    3    3    0    0  0.13519704821E-01 -0.14176207350E+00 -0.27233529627E-01  0.89186374130E+00  0.88000000000E+00 0. -1.
        -11    1    4    4    0    0 -0.21663679555E-01  0.58779581352E-01  0.17217132917E-01  0.64969569667E-01  0.51100000000E-03 0.  1.
         11    1    4    4    0    0 -0.22711200897E-02  0.61445588376E-01  0.13407705994E-01  0.62934458116E-01  0.51100000000E-03 0. -1.
</event>
<event>
 8    1  0.1041149E+005  0.1043930E+01  0.7957747E-01            NaN
         13   -1    0    0    0    0  0.00000000000E+00  0.00000000000E+00  0.74505805969E-08  0.10566000000E+00  0.10566000000E+00 0.  1.
     999900   -1    0    0    0    0 -0.00000000000E+00 -0.00000000000E+00 -0.74505805969E-08  0.93827000000E+00  0.93827000000E+00 0. -1.
     999902    2    1    2    0    0 -0.93000129330E-02 -0.29380866271E-02  0.21423153204E-01  0.10203912216E+01  0.10201196847E+01 0.  0.
     999903    2    3    3    0    0  0.53258608627E-01  0.61252573925E-01 -0.96774319272E-01  0.12797614751E+00  0.20597773060E-01 0.  0.
         14    1    1    2    0    0  0.93000129330E-02  0.29380866271E-02 -0.21423153204E-01  0.23538778362E-01  0.00000000000E+00 0. -1.
     999901    1    3    3    0    0 -0.62558621560E-01 -0.64190660552E-01  0.11819747248E+00  0.89241507413E+00  0.88000000000E+00 0. -1.
        -11    1    4    4    0    0  0.29777332711E-01  0.23507085368E-01 -0.56066749787E-01  0.67697962735E-01  0.51100000000E-03 0. -1.
         11    1    4    4    0    0  0.23481275916E-01  0.37745488557E-01 -0.40707569486E-01  0.60278184773E-01  0.51100000000E-03 0.  1.
</event>
<event>
 8    1  0.1041149E+005  0.1043930E+01  0.7957747E-01            NaN
         13   -1    0    0    0    0  0.00000000000E+00  0.00000000000E+00  0.74505805969E-08  0.10566000000E+00  0.10566000000E+00 0.  1.
     999900   -1    0    0    0    0 -0.00000000000E+00 -0.00000000000E+00 -0.74505805969E-08  0.93827000000E+00  0.93827000000E+00 0.  1.
     999902    2    1    2    0    0  0.14745016710E-01 -0.24401039888E-01  0.33662809409E-02  0.10152218459E+01  0.10148158642E+01 0.  0.
     999903    2    3    3    0    0 -0.10948292206E+00  0.23315367363E-01 -0.48693923810E-01  0.12369523315E+00  0.19982390012E-01 0.  0.
         14    1    1    2    0    0 -0.14745016710E-01  0.24401039888E-01 -0.33662809409E-02  0.28708154116E-01  0.00000000000E+00 0. -1.
     999901    1    3    3    0    0  0.12422793877E+00 -0.47716407251E-01  0.52060204751E-01  0.89152661273E+00  0.88000000000E+00 0. -1.
        -11    1    4    4    0    0 -0.79735088902E-01  0.25699468879E-01 -0.37978591571E-01  0.91982507259E-01  0.51100000000E-03 0. -1.
         11    1    4    4    0    0 -0.29747833156E-01 -0.23841015161E-02 -0.10715332239E-01  0.31712725893E-01  0.51100000000E-03 0.  1.
</event>
<event>
 8    1  0.1041149E+005  0.1043930E+01  0.7957747E-01            NaN
         13   -1    0    0    0    0  0.00000000000E+00  0.00000000000E+00  0.74505805969E-08  0.10566000000E+00  0.10566000000E+00 0. -1.
     999900   -1    0    0    0    0 -0.00000000000E+00 -0.00000000000E+00 -0.74505805969E-08  0.93827000000E+00  0.93827000000E+00 0. -1.
     999902    2    1    2    0    0 -0.19945089253E-01  0.91439444427E-02  0.86951881662E-02  0.10203286313E+01  0.10200556315E+01 0.  0.
     999903    2    3    3    0    0  0.11358264052E+00 -0.34829772241E-01 -0.42826308253E-01  0.12768211285E+00  0.18828170425E-01 0.  0.
         14    1    1    2    0    0  0.19945089253E-01 -0.91439444427E-02 -0.86951881662E-02  0.23601368658E-01  0.00000000000E+00 0.  1.
     999901    1    3    3    0    0 -0.13352772978E+00  0.43973716684E-01  0.51521496419E-01  0.89264651849E+00  0.88000000000E+00 0.  1.
        -11    1    4    4    0    0  0.84732795124E-01 -0.17513587242E-01 -0.28379277775E-01  0.91060511944E-01  0.51100000000E-03 0. -1.
         11    1    4    4    0    0  0.28849845398E-01 -0.17316184999E-01 -0.14447030478E-01  0.36621600908E-01  0.51100000000E-03 0.  1.
</event>
<event>
 8    1  0.1041149E+005  0.1043930E+01  0.7957747E-01            NaN
         13   -1    0    0    0    0  0.00000000000E+00  0.00000000000E+00  0.74505805969E-08  0.10566000000E+00  0.10566000000E+00 0. -1.
     999900   -1    0    0    0    0 -0.00000000000E+00 -0.00000000000E+00 -0.74505805969E-08  0.93827000000E+00  0.93827000000E+00 0. -1.
     999902    2    1    2    0    0 -0.15040980194E-01 -0.29505659560E-02  0.18852778149E-01  0.10196325893E+01  0.10193430497E+01 0.  0.
     999903    2    3    3    0    0 -0.10856943076E+00 -0.69773041930E-01 -0.15081474114E-01  0.13150852820E+00  0.20284068918E-01 0.  0.
         14    1    1    2    0    0  0.15040980194E-01  0.29505659560E-02 -0.18852778149E-01  0.24297410739E-01  0.00000000000E+00 0.  1.
     999901    1    3    3    0    0  0.93528450566E-01  0.66822475974E-01  0.33934252264E-01  0.88812406106E+00  0.88000000000E+00 0.  1.
        -11    1    4    4    0    0 -0.11729842392E-01 -0.12886035666E-01 -0.73827137103E-02  0.18931579450E-01  0.51100000000E-03 0. -1.
         11    1    4    4    0    0 -0.96839588368E-01 -0.56887006264E-01 -0.76987604039E-02  0.11257694875E+00  0.51100000000E-03 0.  1.
</event>
<event>
 8    1  0.1041149E+005  0.1043930E+01  0.7957747E-01            NaN
         13   -1    0    0    0    0  0.00000000000E+00  0.00000000000E+00  0.74505805969E-08  0.10566000000E+00  0.10566000000E+00 0.  1.
     999900   -1    0    0    0    0 -0.00000000000E+00 -0.00000000000E+00 -0.74505805969E-08  0.93827000000E+00  0.93827000000E+00 0. -1.
     999902    2    1    2    0    0  0.13711362839E-02 -0.23307082241E-01  0.36452230616E-02  0.10202997705E+01  0.10200260947E+01 0.  0.
     999903    2    3    3    0    0 -0.31784489556E-01 -0.11053328738E+00  0.64450780284E-01  0.13327946506E+00  0.19535898548E-01 0.  0.
         14    1    1    2    0    0 -0.13711362839E-02  0.23307082241E-01 -0.36452230616E-02  0.23630229547E-01  0.00000000000E+00 0. -1.
     999901    1    3    3    0    0  0.33155625840E-01  0.87226205141E-01 -0.60805557222E-01  0.88702030539E+00  0.88000000000E+00 0. -1.
        -11    1    4    4    0    0 -0.82367912988E-02 -0.60920469794E-01  0.29566690683E-01  0.68217290256E-01  0.51100000000E-03 0. -1.
         11    1    4    4    0    0 -0.23547698257E-01 -0.49612817587E-01  0.34884089601E-01  0.65062174805E-01  0.51100000000E-03 0.  1.
</event>
<event>
 8    1  0.1041149E+005  0.1043930E+01  0.7957747E-01            NaN
         13   -1    0    0    0    0  0.00000000000E+00  0.00000000000E+00  0.74505805969E-08  0.10566000000E+00  0.10566000000E+00 0.  1.
     999900   -1    0    0    0    0 -0.00000000000E+00 -0.00000000000E+00 -0.74505805969E-08  0.93827000000E+00  0.93827000000E+00 0.  1.
     999902    2    1    2    0    0  0.18366949058E-01  0.36068489875E-02  0.14496038303E-01  0.10202553447E+01  0.10199806268E+01 0.  0.
     999903    2    3    3    0    0  0.77853962046E-01 -0.47668573361E-01 -0.90616624685E-01  0.13052698976E+00  0.22189864679E-01 0.  0.
         14    1    1    2    0    0 -0.18366949058E-01 -0.36068489875E-02 -0.14496038303E-01  0.23674655305E-01  0.00000000000E+00 0. -1.
     999901    1    3    3    0    0 -0.59487012988E-01  0.51275422349E-01  0.10511266299E+00  0.88972835493E+00  0.88000000000E+00 0. -1.
        -11    1    4    4    0    0  0.48211955706E-01 -0.17718103072E-01 -0.43477346354E-01  0.67296839572E-01  0.51100000000E-03 0. -1.
         11    1    4    4    0    0  0.29642006340E-01 -0.29950470290E-01 -0.47139278331E-01  0.63230150190E-01  0.51100000000E-03 0.  1.
</event>
<event>
 8    1  0.1041149E+005  0.1043930E+01  0.7957747E-01            NaN
         13   -1    0    0    0    0  0.00000000000E+00  0.00000000000E+00  0.74505805969E-08  0.10566000000E+00  0.10566000000E+00 0. -1.
     999900   -1    0    0    0    0 -0.00000000000E+00 -0.00000000000E+00 -0.74505805969E-08  0.93827000000E+00  0.93827000000E+00 0.  1.
     999902    2    1    2    0    0  0.19626777494E-01  0.28290617956E-02 -0.15463474406E-01  0.10187837672E+01  0.10184733827E+01 0.  0.
     999903    2    3    3    0    0  0.75234502781E-01 -0.10283713978E+00  0.16841471395E-01  0.13013244364E+00  0.20374248478E-01 0.  0.
         14    1    1    2    0    0 -0.19626777494E-01 -0.28290617956E-02  0.15463474406E-01  0.25146232842E-01  0.00000000000E+00 0. -1.
     999901    1    3    3    0    0 -0.55607725287E-01  0.10566620158E+00 -0.32304945800E-01  0.88865132352E+00  0.88000000000E+00 0.  1.
        -11    1    4    4    0    0  0.34843257777E-01 -0.48974393797E-01 -0.22575814426E-02  0.60148995464E-01  0.51100000000E-03 0. -1.
         11    1    4    4    0    0  0.40391245004E-01 -0.53862745987E-01  0.19099052837E-01  0.69983448175E-01  0.51100000000E-03 0.  1.
</event>
<event>
 8    1  0.1041149E+005  0.1043930E+01  0.7957747E-01            NaN
         13   -1    0    0    0    0  0.00000000000E+00  0.00000000000E+00  0.74505805969E-08  0.10566000000E+00  0.10566000000E+00 0. -1.
     999900   -1    0    0    0    0 -0.00000000000E+00 -0.00000000000E+00 -0.74505805969E-08  0.93827000000E+00  0.93827000000E+00 0. -1.
     999902    2    1    2    0    0 -0.83899529412E-02 -0.51776678580E-02  0.21357183559E-01  0.10204070571E+01  0.10201358896E+01 0.  0.
     999903    2    3    3    0    0 -0.45367060930E-01 -0.11305300659E+00  0.49677753776E-01  0.13259713939E+00  0.16582208447E-01 0.  0.
         14    1    1    2    0    0  0.83899529412E-02  0.51776678580E-02 -0.21357183559E-01  0.23522942936E-01  0.00000000000E+00 0. -1.
     999901    1    3    3    0    0  0.36977107989E-01  0.10787533874E+00 -0.28320570217E-01  0.88780991767E+00  0.88000000000E+00 0.  1.
        -11    1    4    4    0    0 -0.21349552740E-01 -0.33769468339E-01  0.13209834085E-01  0.42082552580E-01  0.51100000000E-03 0.  1.
         11    1    4    4    0    0 -0.24017508190E-01 -0.79283538254E-01  0.36467919692E-01  0.90514586810E-01  0.51100000000E-03 0. -1.
</event>
<event>
 8    1  0.1041149E+005  0.1043930E+01  0.7957747E-01            NaN
         13   -1    0    0    0    0  0.00000000000E+00  0.00000000000E+00  0.74505805969E-08  0.10566000000E+00  0.10566000000E+00 0.  1.
     999900   -1    0    0    0    0 -0.00000000000E+00 -0.00000000000E+00 -0.74505805969E-08  0.93827000000E+00  0.93827000000E+00 0.  1.
     999902    2    1    2    0    0  0.54889762734E-02 -0.12394281674E-01  0.19367188442E-01  0.10202903074E+01  0.10200164098E+01 0.  0.
     999903    2    3    3    0    0 -0.56365491931E-01 -0.25360049533E-01  0.11590112002E+00  0.13275840017E+00  0.19274916364E-01 0.  0.
         14    1    1    2    0    0 -0.54889762734E-02  0.12394281674E-01 -0.19367188442E-01  0.23639692614E-01  0.00000000000E+00 0. -1.
     999901    1    3    3    0    0  0.61854468204E-01  0.12965767859E-01 -0.96533931583E-01  0.88753190721E+00  0.88000000000E+00 0.  1.
        -11    1    4    4    0    0 -0.28685773158E-01 -0.11913205768E-01  0.38550531825E-01  0.49509622078E-01  0.51100000000E-03 0. -1.
         11    1    4    4    0    0 -0.27679718773E-01 -0.13446843764E-01  0.77350588199E-01  0.83248778095E-01  0.51100000000E-03 0.  1.
</event>
<event>
 8    1  0.1041149E+005  0.1043930E+01  0.7957747E-01            NaN
         13   -1    0    0    0    0  0.00000000000E+00  0.00000000000E+00  0.74505805969E-08  0.10566000000E+00  0.10566000000E+00 0.  1.
     999900   -1    0    0    0    0 -0.00000000000E+00 -0.00000000000E+00 -0.74505805969E-08  0.93827000000E+00  0.93827000000E+00 0. -1.
     999902    2    1    2    0    0  0.14063015084E-01  0.14512839252E-01  0.17923282942E-01  0.10169182439E+01  0.10165594325E+01 0.  0.
     999903    2    3    3    0    0  0.16150830750E-01  0.12332286746E+00  0.34274484634E-01  0.13006349648E+00  0.16504358488E-01 0.  0.
         14    1    1    2    0    0 -0.14063015084E-01 -0.14512839252E-01 -0.17923282942E-01  0.27011756104E-01  0.00000000000E+00 0. -1.
     999901    1    3    3    0    0 -0.20878156658E-02 -0.10881002820E+00 -0.16351201691E-01  0.88685474741E+00  0.88000000000E+00 0. -1.
        -11    1    4    4    0    0  0.11937949740E-01  0.53875354878E-01  0.22019660724E-01  0.59415444849E-01  0.51100000000E-03 0. -1.
         11    1    4    4    0    0  0.42128810103E-02  0.69447512578E-01  0.12254823910E-01  0.70648051634E-01  0.51100000000E-03 0.  1.
</event>
<event>
 8    1  0.1041149E+005  0.1043930E+01  0.7957747E-01            NaN
         13   -1    0    0    0    0  0.00000000000E+00  0.00000000000E+00  0.74505805969E-08  0.10566000000E+00  0.10566000000E+00 0. -1.
     999900   -1    0    0    0    0 -0.00000000000E+00 -0.00000000000E+00 -0.74505805969E-08  0.93827000000E+00  0.93827000000E+00 0. -1.
     999902    2    1    2    0    0 -0.15876313835E-01  0.17281913754E-01 -0.28419714117E-02  0.10202910769E+01  0.10200171974E+01 0.  0.
     999903    2    3    3    0    0  0.19531357310E-01 -0.10192150823E+00  0.72869361340E-01  0.12832955032E+00  0.19724652184E-01 0.  0.
         14    1    1    2    0    0  0.15876313835E-01 -0.17281913754E-01  0.28419714117E-02  0.23638923104E-01  0.00000000000E+00 0. -1.
     999901    1    3    3    0    0 -0.35407671145E-01  0.11920342199E+00 -0.75711332752E-01  0.89196152658E+00  0.88000000000E+00 0. -1.
        -11    1    4    4    0    0  0.22805036647E-01 -0.80268361402E-01  0.61413510913E-01  0.10360965197E+00  0.51100000000E-03 0. -1.
         11    1    4    4    0    0 -0.32736793372E-02 -0.21653146831E-01  0.11455850427E-01  0.24719898343E-01  0.51100000000E-03 0.  1.
</event>
<event>
 8    1  0.1041149E+005  0.1043930E+01  0.7957747E-01            NaN
         13   -1    0    0    0    0  0.00000000000E+00  0.00000000000E+00  0.74505805969E-08  0.10566000000E+00  0.10566000000E+00 0. -1.
     999900   -1    0    0    0    0 -0.00000000000E+00 -0.00000000000E+00 -0.74505805969E-08  0.93827000000E+00  0.93827000000E+00 0. -1.
     999902    2    1    2    0    0  0.20880052757E-01 -0.45573944525E-02 -0.35699482977E-02  0.10222622595E+01  0.10220326004E+01 0.  0.
     999903    2    3    3    0    0  0.40558598583E-01  0.72286253693E-01  0.10143856877E+00  0.13247634139E+00  0.19745769163E-01 0.  0.
         14    1    1    2    0    0 -0.20880052757E-01  0.45573944525E-02  0.35699482977E-02  0.21667740495E-01  0.00000000000E+00 0. -1.
     999901    1    3    3    0    0 -0.19678545826E-01 -0.76843648146E-01 -0.10500851707E+00  0.88978591812E+00  0.88000000000E+00 0. -1.
        -11    1    4    4    0    0  0.20736666406E-01  0.44645424511E-01  0.45665402780E-01  0.67147698363E-01  0.51100000000E-03 0. -1.
         11    1    4    4    0    0  0.19821932177E-01  0.27640829182E-01  0.55773165994E-01  0.65328643022E-01  0.51100000000E-03 0.  1.
</event>
<event>
 8    1  0.1041149E+005  0.1043930E+01  0.7957747E-01            NaN
         13   -1    0    0    0    0  0.00000000000E+00  0.00000000000E+00  0.74505805969E-08  0.10566000000E+00  0.10566000000E+00 0. -1.
     999900   -1    0    0    0    0 -0.00000000000E+00 -0.00000000000E+00 -0.74505805969E-08  0.93827000000E+00  0.93827000000E+00 0. -1.
     999902    2    1    2    0    0 -0.13631590810E-01  0.15338961790E-01  0.12406523187E-01  0.10199503037E+01  0.10196683756E+01 0.  0.
     999903    2    3    3    0    0 -0.12507472893E+00 -0.29120600305E-01  0.21870146731E-01  0.13175787756E+00  0.19751906263E-01 0.  0.
         14    1    1    2    0    0  0.13631590810E-01 -0.15338961790E-01 -0.12406523187E-01  0.23979696295E-01  0.00000000000E+00 0. -1.
     999901    1    3    3    0    0  0.11144313812E+00  0.44459562095E-01 -0.94636235438E-02  0.88819242615E+00  0.88000000000E+00 0.  1.
        -11    1    4    4    0    0 -0.58558205855E-02  0.16190422918E-02  0.41373411930E-02  0.73682186327E-02  0.51100000000E-03 0. -1.
         11    1    4    4    0    0 -0.11921890835E+00 -0.30739642597E-01  0.17732805538E-01  0.12438965892E+00  0.51100000000E-03 0.  1.
</event>
<event>
 8    1  0.1041149E+005  0.1043930E+01  0.7957747E-01            NaN
         13   -1    0    0    0    0  0.00000000000E+00  0.00000000000E+00  0.74505805969E-08  0.10566000000E+00  0.10566000000E+00 0. -1.
     999900   -1    0    0    0    0 -0.00000000000E+00 -0.00000000000E+00 -0.74505805969E-08  0.93827000000E+00  0.93827000000E+00 0. -1.
     999902    2    1    2    0    0 -0.16829167199E-01 -0.75019967655E-02  0.17961345063E-01  0.10181984874E+01  0.10178732971E+01 0.  0.
     999903    2    3    3    0    0 -0.11633093953E+00  0.54669609553E-01 -0.48899859636E-02  0.13011735673E+00  0.19620419459E-01 0.  0.
         14    1    1    2    0    0  0.16829167199E-01  0.75019967655E-02 -0.17961345063E-01  0.25731512598E-01  0.00000000000E+00 0.  1.
     999901    1    3    3    0    0  0.99501772327E-01 -0.62171606319E-01  0.22851331027E-01  0.88808113067E+00  0.88000000000E+00 0.  1.
        -11    1    4    4    0    0 -0.96244447333E-01  0.43759257582E-01 -0.11413374437E-01  0.10634092582E+00  0.51100000000E-03 0.  1.
         11    1    4    4    0    0 -0.20086492193E-01  0.10910351971E-01  0.65233884729E-02  0.23776430912E-01  0.51100000000E-03 0. -1.
</event>
<event>
 8    1  0.1041149E+005  0.1043930E+01  0.7957747E-01            NaN
         13   -1    0    0    0    0  0.00000000000E+00  0.00000000000E+00  0.74505805969E-08  0.10566000000E+00  0.10566000000E+00 0.  1.
     999900   -1    0    0    0    0 -0.00000000000E+00 -0.00000000000E+00 -0.74505805969E-08  0.93827000000E+00  0.93827000000E+00 0. -1.
     999902    2    1    2    0    0  0.17850708508E-01 -0.83339445294E-02  0.14236697934E-01  0.10196239104E+01  0.10193341614E+01 0.  0.
     999903    2    3    3    0    0 -0.57532204156E-01 -0.47959224556E-01 -0.10176723245E+00  0.12793469420E+00  0.20016859042E-01 0.  0.
         14    1    1    2    0    0 -0.17850708508E-01  0.83339445294E-02 -0.14236697934E-01  0.24306089643E-01  0.00000000000E+00 0. -1.
     999901    1    3    3    0    0  0.75382912663E-01  0.39625280026E-01  0.11600393038E+00  0.89168921615E+00  0.88000000000E+00 0.  1.
        -11    1    4    4    0    0 -0.20701996434E-01 -0.29703524078E-01 -0.42984391670E-01  0.56203123109E-01  0.51100000000E-03 0.  1.
         11    1    4    4    0    0 -0.36830207721E-01 -0.18255700478E-01 -0.58782840779E-01  0.71731571095E-01  0.51100000000E-03 0. -1.
</event>
<event>
 8    1  0.1041149E+005  0.1043930E+01  0.7957747E-01            NaN
         13   -1    0    0    0    0  0.00000000000E+00  0.00000000000E+00  0.74505805969E-08  0.10566000000E+00  0.10566000000E+00 0. -1.
     999900   -1    0    0    0    0 -0.00000000000E+00 -0.00000000000E+00 -0.74505805969E-08  0.93827000000E+00  0.93827000000E+00 0. -1.
     999902    2    1    2    0    0 -0.19863706844E-01 -0.43934106484E-02  0.14470911960E-01  0.10189644998E+01  0.10186586159E+01 0.  0.
     999903    2    3    3    0    0 -0.90448624267E-01 -0.93029459498E-01  0.13075975153E-01  0.13169874167E+00  0.18388677619E-01 0.  0.
         14    1    1    2    0    0  0.19863706844E-01  0.43934106484E-02 -0.14470911960E-01  0.24965500189E-01  0.00000000000E+00 0.  1.
     999901    1    3    3    0    0  0.70584917422E-01  0.88636048850E-01  0.13949368073E-02  0.88726575814E+00  0.88000000000E+00 0.  1.
        -11    1    4    4    0    0 -0.25407155373E-01 -0.16050186847E-01  0.61690333515E-02  0.30683059421E-01  0.51100000000E-03 0.  1.
         11    1    4    4    0    0 -0.65041468894E-01 -0.76979272652E-01  0.69069418014E-02  0.10101568225E+00  0.51100000000E-03 0. -1.
</event>
<event>
 8    1  0.1041149E+005  0.1043930E+01  0.7957747E-01            NaN
         13   -1    0    0    0    0  0.00000000000E+00  0.00000000000E+00  0.74505805969E-08  0.10566000000E+00  0.10566000000E+00 0.  1.
     999900   -1    0    0    0    0 -0.00000000000E+00 -0.00000000000E+00 -0.74505805969E-08  0.93827000000E+00  0.93827000000E+00 0. -1.
     999902    2    1    2    0    0 -0.78760077559E-02  0.92993810456E-02 -0.20298514957E-01  0.10202542805E+01  0.10199795376E+01 0.  0.
     999903    2    3    3    0    0  0.73366519532E-01  0.92815911258E-01  0.49379032299E-01  0.12984408306E+00  0.20585371093E-01 0.  0.
         14    1    1    2    0    0  0.78760077559E-02 -0.92993810456E-02  0.20298514957E-01  0.23675719535E-01  0.00000000000E+00 0.  1.
     999901    1    3    3    0    0 -0.81242527288E-01 -0.83516530212E-01 -0.69677547257E-01  0.89041019741E+00  0.88000000000E+00 0.  1.
        -11    1    4    4    0    0  0.19235439827E-01  0.26028585477E-01  0.23707416110E-01  0.40122214631E-01  0.51100000000E-03 0.  1.
         11    1    4    4    0    0  0.54131079705E-01  0.66787325781E-01  0.25671616190E-01  0.89721868425E-01  0.51100000000E-03 0. -1.
</event>
<event>
 8    1  0.1041149E+005  0.1043930E+01  0.7957747E-01            NaN
         13   -1    0    0    0    0  0.00000000000E+00  0.00000000000E+00  0.74505805969E-08  0.10566000000E+00  0.10566000000E+00 0.  1.
     999900   -1    0    0    0    0 -0.00000000000E+00 -0.00000000000E+00 -0.74505805969E-08  0.93827000000E+00  0.93827000000E+00 0. -1.
     999902    2    1    2    0    0 -0.19665196222E-01  0.13271909826E-01  0.93693066977E-03  0.10201867616E+01  0.10199104309E+01 0.  0.
     999903    2    3    3    0    0 -0.33634020610E-02  0.40924539764E-01  0.12303434537E+00  0.13117709056E+00  0.19592052446E-01 0.  0.
         14    1    1    2    0    0  0.19665196222E-01 -0.13271909826E-01 -0.93693066977E-03  0.23743238447E-01  0.00000000000E+00 0.  1.
     999901    1    3    3    0    0 -0.16301794161E-01 -0.27652629938E-01 -0.12209741470E+00  0.88900967099E+00  0.88000000000E+00 0. -1.
        -11    1    4    4    0    0  0.24147486823E-02  0.31945701037E-01  0.68742950981E-01  0.75843346818E-01  0.51100000000E-03 0.  1.
         11    1    4    4    0    0 -0.57781507433E-02  0.89788387267E-02  0.54291394392E-01  0.55333743746E-01  0.51100000000E-03 0. -1.
</event>
<event>
 8    1  0.1041149E+005  0.1043930E+01  0.7957747E-01            NaN
         13   -1    0    0    0    0  0.00000000000E+00  0.00000000000E+00  0.74505805969E-08  0.10566000000E+00  0.10566000000E+00 0.  1.
     999900   -1    0    0    0    0 -0.00000000000E+00 -0.00000000000E+00 -0.74505805969E-08  0.93827000000E+00  0.93827000000E+00 0.  1.
     999902    2    1    2    0    0  0.47262152271E-02 -0.22220465925E-02  0.25457639021E-01  0.10179421954E+01  0.10176104104E+01 0.  0.
     999903    2    3    3    0    0 -0.37649176318E-01 -0.46768582980E-03  0.12426418325E+00  0.13139750690E+00  0.20150393877E-01 0.  0.
         14    1    1    2    0    0 -0.47262152271E-02  0.22220465925E-02 -0.25457639021E-01  0.25987804562E-01  0.00000000000E+00 0. -1.
     999901    1    3    3    0    0  0.42375391545E-01 -0.17543607626E-02 -0.98806544230E-01  0.88654468854E+00  0.88000000000E+00 0.  1.
        -11    1    4    4    0    0 -0.68128477400E-02  0.53996197929E-02  0.50275044841E-01  0.51023642001E-01  0.51100000000E-03 0.  1.
         11    1    4    4    0    0 -0.30836328578E-01 -0.58673056227E-02  0.73989138409E-01  0.80373864900E-01  0.51100000000E-03 0. -1.
</event>
<event>
 8    1  0.1041149E+005  0.1043930E+01  0.7957747E-01            NaN
         13   -1    0    0    0    0  0.00000000000E+00  0.00000000000E+00  0.74505805969E-08  0.10566000000E+00  0.10566000000E+00 0.  1.
     999900   -1    0    0    0    0 -0.00000000000E+00 -0.00000000000E+00 -0.74505805969E-08  0.93827000000E+00  0.93827000000E+00 0.  1.
     999902    2    1    2    0    0 -0.10855201032E-03 -0.11102266107E-01  0.21437315754E-01  0.10197881152E+01  0.10195023145E+01 0.  0.
     999903    2    3    3    0    0 -0.37155351545E-01  0.38175494298E-01 -0.11382513822E+00  0.12732148023E+00  0.20413444725E-01 0.  0.
         14    1    1    2    0    0  0.10855201032E-03  0.11102266107E-01 -0.21437315754E-01  0.24141884826E-01  0.00000000000E+00 0. -1.
     999901    1    3    3    0    0  0.37046799535E-01 -0.49277760404E-01  0.13526245397E+00  0.89246663494E+00  0.88000000000E+00 0. -1.
        -11    1    4    4    0    0 -0.24343009943E-01  0.10456333197E-01 -0.54018403970E-01  0.60167816359E-01  0.51100000000E-03 0.  1.
         11    1    4    4    0    0 -0.12812341602E-01  0.27719161101E-01 -0.59806734247E-01  0.67153663875E-01  0.51100000000E-03 0. -1.
</event>
<event>
 8    1  0.1041149E+005  0.1043930E+01  0.7957747E-01            NaN
         13   -1    0    0    0    0  0.00000000000E+00  0.00000000000E+00  0.74505805969E-08  0.10566000000E+00  0.10566000000E+00 0.  1.
     999900   -1    0    0    0    0 -0.00000000000E+00 -0.00000000000E+00 -0.74505805969E-08  0.93827000000E+00  0.93827000000E+00 0. -1.
     999902    2    1    2    0    0 -0.75938120292E-02  0.22146482410E-01 -0.35944816015E-02  0.10202434434E+01  0.10199684460E+01 0.  0.
     999903    2    3    3    0    0  0.40385111793E-01 -0.54607087717E-01 -0.10811296630E+00  0.12944761873E+00  0.21339663263E-01 0.  0.
         14    1    1    2    0    0  0.75938120292E-02 -0.22146482410E-01  0.35944816015E-02  0.23686556572E-01  0.00000000000E+00 0.  1.
     999901    1    3    3    0    0 -0.47978923822E-01  0.76753570127E-01  0.10451848470E+00  0.89079582470E+00  0.88000000000E+00 0.  1.
        -11    1    4    4    0    0  0.42211002993E-01 -0.51792758908E-01 -0.96686206769E-01  0.11752762377E+00  0.51100000000E-03 0.  1.
         11    1    4    4    0    0 -0.18258912008E-02 -0.28143288086E-02 -0.11426759534E-01  0.11919994956E-01  0.51100000000E-03 0. -1.
</event>
<event>
 8    1  0.1041149E+005  0.1043930E+01  0.7957747E-01            NaN
         13   -1    0    0    0    0  0.00000000000E+00  0.00000000000E+00  0.74505805969E-08  0.10566000000E+00  0.10566000000E+00 0. -1.
     999900   -1    0    0    0    0 -0.00000000000E+00 -0.00000000000E+00 -0.74505805969E-08  0.93827000000E+00  0.93827000000E+00 0. -1.
     999902    2    1    2    0    0  0.16940928609E-01 -0.26293061151E-02  0.16473723074E-01  0.10201541327E+01  0.10198770331E+01 0.  0.
     999903    2    3    3    0    0  0.19637711104E-01  0.18428050494E-01 -0.12493397196E+00  0.12861231031E+00  0.14401259313E-01 0.  0.
         14    1    1    2    0    0 -0.16940928609E-01  0.26293061151E-02 -0.16473723074E-01  0.23775867276E-01  0.00000000000E+00 0.  1.
     999901    1    3    3    0    0 -0.26967824951E-02 -0.21057356609E-01  0.14140769504E+00  0.89154182242E+00  0.88000000000E+00 0.  1.
        -11    1    4    4    0    0  0.15156842707E-01  0.19015580624E-01 -0.84729418965E-01  0.88151334343E-01  0.51100000000E-03 0. -1.
         11    1    4    4    0    0  0.44808683976E-02 -0.58753012981E-03 -0.40204552997E-01  0.40460975964E-01  0.51100000000E-03 0.  1.
</event>
<event>
 8    1  0.1041149E+005  0.1043930E+01  0.7957747E-01            NaN
         13   -1    0    0    0    0  0.00000000000E+00  0.00000000000E+00  0.74505805969E-08  0.10566000000E+00  0.10566000000E+00 0.  1.
     999900   -1    0    0    0    0 -0.00000000000E+00 -0.00000000000E+00 -0.74505805969E-08  0.93827000000E+00  0.93827000000E+00 0. -1.
     999902    2    1    2    0    0 -0.10743614767E-01  0.12913256581E-01 -0.58092084506E-02  0.10261557389E+01  0.10260017915E+01 0.  0.
     999903    2    3    3    0    0  0.10745076851E+00  0.76443061082E-01  0.20510316789E-01  0.13559486751E+00  0.24001786593E-01 0.  0.
         14    1    1    2    0    0  0.10743614767E-01 -0.12913256581E-01  0.58092084506E-02  0.17774261071E-01  0.00000000000E+00 0.  1.
     999901    1    3    3    0    0 -0.11819438327E+00 -0.63529804500E-01 -0.26319525240E-01  0.89056087142E+00  0.88000000000E+00 0.  1.
        -11    1    4    4    0    0  0.30987694208E-01  0.22675427717E-01  0.17153010916E-01  0.42058282406E-01  0.51100000000E-03 0.  1.
         11    1    4    4    0    0  0.76463074298E-01  0.53767633365E-01  0.33573058730E-02  0.93536585102E-01  0.51100000000E-03 0. -1.
</event>
<event>
 8    1  0.1041149E+005  0.1043930E+01  0.7957747E-01            NaN
         13   -1    0    0    0    0  0.00000000000E+00  0.00000000000E+00  0.74505805969E-08  0.10566000000E+00  0.10566000000E+00 0.  1.
     999900   -1    0    0    0    0 -0.00000000000E+00 -0.00000000000E+00 -0.74505805969E-08  0.93827000000E+00  0.93827000000E+00 0. -1.
     999902    2    1    2    0    0  0.52713894099E-02  0.18186415674E-01 -0.12323603681E-01  0.10213378671E+01  0.10210879660E+01 0.  0.
     999903    2    3    3    0    0  0.58532308711E-02 -0.57584349154E-01  0.11344646226E+00  0.12917215557E+00  0.21566835566E-01 0.  0.
         14    1    1    2    0    0 -0.52713894099E-02 -0.18186415674E-01  0.12323603681E-01  0.22592132902E-01  0.00000000000E+00 0. -1.
     999901    1    3    3    0    0 -0.58184146115E-03  0.75770764828E-01 -0.12577006594E+00  0.89216571153E+00  0.88000000000E+00 0. -1.
        -11    1    4    4    0    0 -0.57206084026E-02 -0.33778360834E-01  0.52103672352E-01  0.62359897488E-01  0.51100000000E-03 0. -1.
         11    1    4    4    0    0  0.11573839274E-01 -0.23805988320E-01  0.61342789906E-01  0.66812258081E-01  0.51100000000E-03 0.  1.
</event>
<event>
 8    1  0.1041149E+005  0.1043930E+01  0.7957747E-01            NaN
         13   -1    0    0    0    0  0.00000000000E+00  0.00000000000E+00  0.74505805969E-08  0.10566000000E+00  0.10566000000E+00 0.  1.
     999900   -1    0    0    0    0 -0.00000000000E+00 -0.00000000000E+00 -0.74505805969E-08  0.93827000000E+00  0.93827000000E+00 0. -1.
     999902    2    1    2    0    0  0.11937887212E-02  0.18043871599E-01 -0.14023262762E-01  0.10210464178E+01  0.10207899534E+01 0.  0.
     999903    2    3    3    0    0  0.12549188524E+00  0.52439595738E-02 -0.35084904801E-01  0.13196967914E+00  0.20231986887E-01 0.  0.
         14    1    1    2    0    0 -0.11937887212E-02 -0.18043871599E-01  0.14023262762E-01  0.22883582156E-01  0.00000000000E+00 0.  1.
     999901    1    3    3    0    0 -0.12429809652E+00  0.12799912025E-01  0.21061642039E-01  0.88907673871E+00  0.88000000000E+00 0. -1.
        -11    1    4    4    0    0  0.11111952590E-01 -0.53280141114E-02 -0.27491461656E-02  0.12636540285E-01  0.51100000000E-03 0. -1.
         11    1    4    4    0    0  0.11437993265E+00  0.10571973685E-01 -0.32335758636E-01  0.11933313885E+00  0.51100000000E-03 0.  1.
</event>
<event>
 8    1  0.1041149E+005  0.1043930E+01  0.7957747E-01            NaN
         13   -1    0    0    0    0  0.00000000000E+00  0.00000000000E+00  0.74505805969E-08  0.10566000000E+00  0.10566000000E+00 0. -1.
     999900   -1    0    0    0    0 -0.00000000000E+00 -0.00000000000E+00 -0.74505805969E-08  0.93827000000E+00  0.93827000000E+00 0. -1.
     999902    2    1    2    0    0  0.57957872657E-02 -0.18413281608E-01 -0.13890584047E-01  0.10201478972E+01  0.10198706505E+01 0.  0.
     999903    2    3    3    0    0 -0.10037136758E+00  0.64962840311E-01  0.41544817485E-01  0.12812988939E+00  0.19917696743E-01 0.  0.
         14    1    1    2    0    0 -0.57957872657E-02  0.18413281608E-01  0.13890584047E-01  0.23782102825E-01  0.00000000000E+00 0. -1.
     999901    1    3    3    0    0  0.10616715485E+00 -0.83376121919E-01 -0.55435401532E-01  0.89201800779E+00  0.88000000000E+00 0.  1.
        -11    1    4    4    0    0 -0.62873457312E-01  0.42905920309E-01  0.36220955987E-01  0.84298329791E-01  0.51100000000E-03 0. -1.
         11    1    4    4    0    0 -0.37497910268E-01  0.22056920002E-01  0.53238614974E-02  0.43831559596E-01  0.51100000000E-03 0.  1.
</event>
<event>
 8    1  0.1041149E+005  0.1043930E+01  0.7957747E-01            NaN
         13   -1    0    0    0    0  0.00000000000E+00  0.00000000000E+00  0.74505805969E-08  0.10566000000E+00  0.10566000000E+00 0. -1.
     999900   -1    0    0    0    0 -0.00000000000E+00 -0.00000000000E+00 -0.74505805969E-08  0.93827000000E+00  0.93827000000E+00 0.  1.
     999902    2    1    2    0    0  0.40004628540E-02 -0.31911542106E-02  0.23286769897E-01  0.10200875836E+01  0.10198089122E+01 0.  0.
     999903    2    3    3    0    0 -0.48456234160E-01  0.28514336789E-01  0.11857282144E+00  0.13282416450E+00  0.20534621033E-01 0.  0.
         14    1    1    2    0    0 -0.40004628540E-02  0.31911542106E-02 -0.23286769897E-01  0.23842416415E-01  0.00000000000E+00 0.  1.
     999901    1    3    3    0    0  0.52456697014E-01 -0.31705491000E-01 -0.95286051541E-01  0.88726341908E+00  0.88000000000E+00 0.  1.
        -11    1    4    4    0    0 -0.39854672853E-01  0.14418507983E-01  0.73873870796E-01  0.85169819936E-01  0.51100000000E-03 0. -1.
         11    1    4    4    0    0 -0.86015613069E-02  0.14095828807E-01  0.44698950643E-01  0.47654344568E-01  0.51100000000E-03 0.  1.
</event>
<event>
 8    1  0.1041149E+005  0.1043930E+01  0.7957747E-01            NaN
         13   -1    0    0    0    0  0.00000000000E+00  0.00000000000E+00  0.74505805969E-08  0.10566000000E+00  0.10566000000E+00 0.  1.
     999900   -1    0    0    0    0 -0.00000000000E+00 -0.00000000000E+00 -0.74505805969E-08  0.93827000000E+00  0.93827000000E+00 0. -1.
     999902    2    1    2    0    0  0.60274308035E-02 -0.22549651919E-01 -0.19550033128E-03  0.10205878719E+01  0.10203209051E+01 0.  0.
     999903    2    3    3    0    0 -0.23708941331E-01  0.65355157557E-01 -0.10714621100E+00  0.12926864633E+00  0.19916372048E-01 0.  0.
         14    1    1    2    0    0 -0.60274308035E-02  0.22549651919E-01  0.19550033128E-03  0.23342128098E-01  0.00000000000E+00 0.  1.
     999901    1    3    3    0    0  0.29736372135E-01 -0.87904809476E-01  0.10695071067E+00  0.89131922557E+00  0.88000000000E+00 0.  1.
        -11    1    4    4    0    0 -0.42887816518E-02  0.40478702192E-01 -0.62665836060E-01  0.74727418725E-01  0.51100000000E-03 0.  1.
         11    1    4    4    0    0 -0.19420159680E-01  0.24876455365E-01 -0.44480374936E-01  0.54541227608E-01  0.51100000000E-03 0. -1.
</event>
<event>
 8    1  0.1041149E+005  0.1043930E+01  0.7957747E-01            NaN
         13   -1    0    0    0    0  0.00000000000E+00  0.00000000000E+00  0.74505805969E-08  0.10566000000E+00  0.10566000000E+00 0.  1.
     999900   -1    0    0    0    0 -0.00000000000E+00 -0.00000000000E+00 -0.74505805969E-08  0.93827000000E+00  0.93827000000E+00 0.  1.
     999902    2    1    2    0    0  0.14498911059E-01 -0.51395619465E-02 -0.26938696955E-02  0.10283130076E+01  0.10281944131E+01 0.  0.
     999903    2    3    3    0    0  0.14413054520E-01  0.78620481158E-01 -0.11052129067E+00  0.13778366784E+00  0.19505569302E-01 0.  0.
         14    1    1    2    0    0 -0.14498911059E-01  0.51395619465E-02  0.26938696955E-02  0.15616992439E-01  0.00000000000E+00 0. -1.
     999901    1    3    3    0    0  0.85856539468E-04 -0.83760043105E-01  0.10782742097E+00  0.89052933972E+00  0.88000000000E+00 0. -1.
        -11    1    4    4    0    0  0.80309301242E-02  0.48500321540E-01 -0.83084685557E-01  0.96540681183E-01  0.51100000000E-03 0.  1.
         11    1    4    4    0    0  0.63821243953E-02  0.30120159618E-01 -0.27436605112E-01  0.41242986656E-01  0.51100000000E-03 0. -1.
</event>
<event>
 8    1  0.1041149E+005  0.1043930E+01  0.7957747E-01            NaN
         13   -1    0    0    0    0  0.00000000000E+00  0.00000000000E+00  0.74505805969E-08  0.10566000000E+00  0.10566000000E+00 0.  1.
     999900   -1    0    0    0    0 -0.00000000000E+00 -0.00000000000E+00 -0.74505805969E-08  0.93827000000E+00  0.93827000000E+00 0. -1.
     999902    2    1    2    0    0 -0.18908214343E-01  0.13739552397E-01 -0.38166285408E-02  0.10202474638E+01  0.10199725608E+01 0.  0.
     999903    2    3    3    0    0 -0.87289043904E-01  0.24066683901E-01 -0.95156676610E-01  0.13282107701E+00  0.19699313089E-01 0.  0.
         14    1    1    2    0    0  0.18908214343E-01 -0.13739552397E-01  0.38166285408E-02  0.23682536248E-01  0.00000000000E+00 0. -1.
     999901    1    3    3    0    0  0.68380829560E-01 -0.10327131504E-01  0.91340048070E-01  0.88742638674E+00  0.88000000000E+00 0.  1.
        -11    1    4    4    0    0 -0.57979627972E-01  0.24631207617E-01 -0.59447635878E-01  0.86617643589E-01  0.51100000000E-03 0.  1.
         11    1    4    4    0    0 -0.29309415932E-01 -0.56452371581E-03 -0.35709040732E-01  0.46203433425E-01  0.51100000000E-03 0. -1.
</event>
<event>
 8    1  0.1041149E+005  0.1043930E+01  0.7957747E-01            NaN
         13   -1    0    0    0    0  0.00000000000E+00  0.00000000000E+00  0.74505805969E-08  0.10566000000E+00  0.10566000000E+00 0. -1.
     999900   -1    0    0    0    0 -0.00000000000E+00 -0.00000000000E+00 -0.74505805969E-08  0.93827000000E+00  0.93827000000E+00 0.  1.
     999902    2    1    2    0    0 -0.65130743218E-03  0.28296044756E-02  0.27919883514E-01  0.10158595394E+01  0.10154716407E+01 0.  0.
     999903    2    3    3    0    0  0.96970377360E-01 -0.75785299109E-01  0.23932647487E-01  0.12696911057E+00  0.20042898444E-01 0.  0.
         14    1    1    2    0    0  0.65130743218E-03 -0.28296044756E-02 -0.27919883514E-01  0.28070460600E-01  0.00000000000E+00 0.  1.
     999901    1    3    3    0    0 -0.97621684792E-01  0.78614903585E-01  0.39872360266E-02  0.88889042883E+00  0.88000000000E+00 0. -1.
        -11    1    4    4    0    0  0.56301858765E-01 -0.36250789496E-01  0.20971397558E-01  0.70171786895E-01  0.51100000000E-03 0. -1.
         11    1    4    4    0    0  0.40668518594E-01 -0.39534509613E-01  0.29612499287E-02  0.56797323679E-01  0.51100000000E-03 0.  1.
</event>
<event>
 8    1  0.1041149E+005  0.1043930E+01  0.7957747E-01            NaN
         13   -1    0    0    0    0  0.00000000000E+00  0.00000000000E+00  0.74505805969E-08  0.10566000000E+00  0.10566000000E+00 0. -1.
     999900   -1    0    0    0    0 -0.00000000000E+00 -0.00000000000E+00 -0.74505805969E-08  0.93827000000E+00  0.93827000000E+00 0.  1.
     999902    2    1    2    0    0 -0.38662289183E-02 -0.69171462141E-03 -0.22835902973E-01  0.10207587968E+01  0.10204957700E+01 0.  0.
     999903    2    3    3    0    0  0.68500176851E-01  0.10441519454E+00 -0.35315223502E-01  0.13146689165E+00  0.21013602993E-01 0.  0.
         14    1    1    2    0    0  0.38662289183E-02  0.69171462141E-03  0.22835902973E-01  0.23171203244E-01  0.00000000000E+00 0. -1.
     999901    1    3    3    0    0 -0.72366405770E-01 -0.10510690916E+00  0.12479320529E-01  0.88929190510E+00  0.88000000000E+00 0. -1.
        -11    1    4    4    0    0  0.49319060118E-01  0.84901034206E-01 -0.20347689938E-01  0.10027384957E+00  0.51100000000E-03 0.  1.
         11    1    4    4    0    0  0.19181116733E-01  0.19514160335E-01 -0.14967533564E-01  0.31193042088E-01  0.51100000000E-03 0. -1.
</event>
<event>
 8    1  0.1041149E+005  0.1043930E+01  0.7957747E-01            NaN
         13   -1    0    0    0    0  0.00000000000E+00  0.00000000000E+00  0.74505805969E-08  0.10566000000E+00  0.10566000000E+00 0.  1.
     999900   -1    0    0    0    0 -0.00000000000E+00 -0.00000000000E+00 -0.74505805969E-08  0.93827000000E+00  0.93827000000E+00 0.  1.
     999902    2    1    2    0    0 -0.17308051934E-01  0.57968961922E-02 -0.15715098009E-01  0.10198439673E+01  0.10195595032E+01 0.  0.
     999903    2    3    3    0    0 -0.60565032938E-01 -0.92991026186E-01 -0.67926604940E-01  0.13172445872E+00  0.20539113916E-01 0.  0.
         14    1    1    2    0    0  0.17308051934E-01 -0.57968961922E-02  0.15715098009E-01  0.24086032729E-01  0.00000000000E+00 0.  1.
     999901    1    3    3    0    0  0.43256981004E-01  0.98787922378E-01  0.52211506931E-01  0.88811950855E+00  0.88000000000E+00 0. -1.
        -11    1    4    4    0    0 -0.61782407429E-01 -0.87897104009E-01 -0.63189164910E-01  0.12464388651E+00  0.51100000000E-03 0. -1.
         11    1    4    4    0    0  0.12173744918E-02 -0.50939221764E-02 -0.47374400302E-02  0.70805722108E-02  0.51100000000E-03 0.  1.
</event>
<event>
 8    1  0.1041149E+005  0.1043930E+01  0.7957747E-01            NaN
         13   -1    0    0    0    0  0.00000000000E+00  0.00000000000E+00  0.74505805969E-08  0.10566000000E+00  0.10566000000E+00 0.  1.
     999900   -1    0    0    0    0 -0.00000000000E+00 -0.00000000000E+00 -0.74505805969E-08  0.93827000000E+00  0.93827000000E+00 0.  1.
     999902    2    1    2    0    0  0.11906450498E-01 -0.20760973910E-01 -0.38442046780E-02  0.10196903731E+01  0.10194022256E+01 0.  0.
     999903    2    3    3    0    0  0.10301842808E+00  0.75956581162E-01 -0.22147098267E-02  0.12971378177E+00  0.20941859877E-01 0.  0.
         14    1    1    2    0    0 -0.11906450498E-01  0.20760973910E-01  0.38442046780E-02  0.24239626869E-01  0.00000000000E+00 0.  1.
     999901    1    3    3    0    0 -0.91111977584E-01 -0.96717555072E-01 -0.16294948513E-02  0.88997659136E+00  0.88000000000E+00 0.  1.
        -11    1    4    4    0    0  0.62223916867E-01  0.39590578546E-01  0.77532288709E-02  0.74159311073E-01  0.51100000000E-03 0. -1.
         11    1    4    4    0    0  0.40794511214E-01  0.36366002615E-01 -0.99679386976E-02  0.55554470696E-01  0.51100000000E-03 0.  1.
</event>
<event>
 8    1  0.1041149E+005  0.1043930E+01  0.7957747E-01            NaN
         13   -1    0    0    0    0  0.00000000000E+00  0.00000000000E+00  0.74505805969E-08  0.10566000000E+00  0.10566000000E+00 0. -1.
     999900   -1    0    0    0    0 -0.00000000000E+00 -0.00000000000E+00 -0.74505805969E-08  0.93827000000E+00  0.93827000000E+00 0. -1.
     999902    2    1    2    0    0  0.19725719061E-01 -0.97897590895E-02 -0.91882001213E-02  0.10200686003E+01  0.10197894797E+01 0.  0.
     999903    2    3    3    0    0  0.26636792971E-01  0.12347284814E+00  0.21053169404E-01  0.12949506268E+00  0.19252852993E-01 0.  0.
         14    1    1    2    0    0 -0.19725719061E-01  0.97897590895E-02  0.91882001213E-02  0.23861399728E-01  0.00000000000E+00 0. -1.
     999901    1    3    3    0    0 -0.69110739096E-02 -0.13326260723E+00 -0.30241369525E-01  0.89057353759E+00  0.88000000000E+00 0. -1.
        -11    1    4    4    0    0 -0.17942681537E-02  0.30280015811E-01  0.51017846772E-02  0.30763421195E-01  0.51100000000E-03 0. -1.
         11    1    4    4    0    0  0.28431061125E-01  0.93192832331E-01  0.15951384726E-01  0.98731641485E-01  0.51100000000E-03 0.  1.
</event>
<event>
 8    1  0.1041149E+005  0.1043930E+01  0.7957747E-01            NaN
         13   -1    0    0    0    0  0.00000000000E+00  0.00000000000E+00  0.74505805969E-08  0.10566000000E+00  0.10566000000E+00 0.  1.
     999900   -1    0    0    0    0 -0.00000000000E+00 -0.00000000000E+00 -0.74505805969E-08  0.93827000000E+00  0.93827000000E+00 0.  1.
     999902    2    1    2    0    0 -0.74348682377E-02 -0.12584896813E-01 -0.13787523591E-01  0.10238364015E+01  0.10236392061E+01 0.  0.
     999903    2    3    3    0    0  0.89954290957E-01 -0.63768366695E-01  0.70995831143E-01  0.13294212430E+00  0.21794983881E-01 0.  0.
         14    1    1    2    0    0  0.74348682377E-02  0.12584896813E-01  0.13787523591E-01  0.20093598490E-01  0.00000000000E+00 0.  1.
     999901    1    3    3    0    0 -0.97389159195E-01  0.51183469882E-01 -0.84783354734E-01  0.89089427721E+00  0.88000000000E+00 0.  1.
        -11    1    4    4    0    0  0.19135666428E-01 -0.24973009878E-01  0.23351650219E-01  0.39183997256E-01  0.51100000000E-03 0. -1.
         11    1    4    4    0    0  0.70818624529E-01 -0.38795356817E-01  0.47644180924E-01  0.93758127048E-01  0.51100000000E-03 0.  1.
</event>
<event>
 8    1  0.1193268E+005  0.1043930E+01  0.7957747E-01            NaN
         13   -1    0    0    0    0  0.00000000000E+00  0.00000000000E+00  0.74505805969E-08  0.10566000000E+00  0.10566000000E+00 0. -1.
     999900   -1    0    0    0    0 -0.00000000000E+00 -0.00000000000E+00 -0.74505805969E-08  0.93827000000E+00  0.93827000000E+00 0. -1.
     999902    2    1    2    0    0  0.16963379691E-01  0.61748255226E-02 -0.14524751662E-01  0.10207599087E+01  0.10204969074E+01 0.  0.
     999903    2    3    3    0    0 -0.30232638285E-01 -0.11233488720E+00  0.51897060622E-01  0.12908515112E+00  0.20893349164E-01 0.  0.
         14    1    1    2    0    0 -0.16963379691E-01 -0.61748255226E-02  0.14524751662E-01  0.23170091317E-01  0.00000000000E+00 0. -1.
     999901    1    3    3    0    0  0.47196017977E-01  0.11850971272E+00 -0.66421812284E-01  0.89167475756E+00  0.88000000000E+00 0. -1.
        -11    1    4    4    0    0 -0.27732484294E-02 -0.49869826505E-01  0.22666215201E-01  0.54851699472E-01  0.51100000000E-03 0.  1.
         11    1    4    4    0    0 -0.27459389856E-01 -0.62465060696E-01  0.29230845421E-01  0.74233451651E-01  0.51100000000E-03 0. -1.
</event>
<event>
 8    1  0.1041149E+005  0.1043930E+01  0.7957747E-01            NaN
         13   -1    0    0    0    0  0.00000000000E+00  0.00000000000E+00  0.74505805969E-08  0.10566000000E+00  0.10566000000E+00 0. -1.
     999900   -1    0    0    0    0 -0.00000000000E+00 -0.00000000000E+00 -0.74505805969E-08  0.93827000000E+00  0.93827000000E+00 0. -1.
     999902    2    1    2    0    0 -0.12368331354E-01 -0.23842755430E-01 -0.10620850671E-01  0.10150465259E+01  0.10146354984E+01 0.  0.
     999903    2    3    3    0    0 -0.80839870839E-01  0.89776173729E-01  0.22241023298E-01  0.12449752919E+00  0.20251557237E-01 0.  0.
         14    1    1    2    0    0  0.12368331354E-01  0.23842755430E-01  0.10620850671E-01  0.28883474098E-01  0.00000000000E+00 0. -1.
     999901    1    3    3    0    0  0.68471539484E-01 -0.11361892916E+00 -0.32861873970E-01  0.89054899671E+00  0.88000000000E+00 0.  1.
        -11    1    4    4    0    0 -0.40805281813E-01  0.36055674574E-01  0.19380680731E-02  0.54489447801E-01  0.51100000000E-03 0.  1.
         11    1    4    4    0    0 -0.40034589026E-01  0.53720499155E-01  0.20302955225E-01  0.70008081390E-01  0.51100000000E-03 0. -1.
</event>
<event>
 8    1  0.1041149E+005  0.1043930E+01  0.7957747E-01            NaN
         13   -1    0    0    0    0  0.00000000000E+00  0.00000000000E+00  0.74505805969E-08  0.10566000000E+00  0.10566000000E+00 0. -1.
     999900   -1    0    0    0    0 -0.00000000000E+00 -0.00000000000E+00 -0.74505805969E-08  0.93827000000E+00  0.93827000000E+00 0. -1.
     999902    2    1    2    0    0 -0.24044204757E-01 -0.52099556731E-02  0.97554681684E-02  0.10174642376E+01  0.10171199724E+01 0.  0.
     999903    2    3    3    0    0 -0.89523418087E-01 -0.86963318817E-01 -0.32024353356E-01  0.13026826530E+00  0.19162477181E-01 0.  0.
         14    1    1    2    0    0  0.24044204757E-01  0.52099556731E-02 -0.97554681684E-02  0.26465762405E-01  0.00000000000E+00 0.  1.
     999901    1    3    3    0    0  0.65479213330E-01  0.81753363143E-01  0.41779821525E-01  0.88719597229E+00  0.88000000000E+00 0. -1.
        -11    1    4    4    0    0 -0.45729678466E-01 -0.57250459658E-01 -0.20762403722E-01  0.76158762811E-01  0.51100000000E-03 0. -1.
         11    1    4    4    0    0 -0.43793739621E-01 -0.29712859159E-01 -0.11261949635E-01  0.54109502493E-01  0.51100000000E-03 0.  1.
</event>
<event>
 8    1  0.1041149E+005  0.1043930E+01  0.7957747E-01            NaN
         13   -1    0    0    0    0  0.00000000000E+00  0.00000000000E+00  0.74505805969E-08  0.10566000000E+00  0.10566000000E+00 0. -1.
     999900   -1    0    0    0    0 -0.00000000000E+00 -0.00000000000E+00 -0.74505805969E-08  0.93827000000E+00  0.93827000000E+00 0.  1.
     999902    2    1    2    0    0 -0.98738388122E-02  0.78107121639E-03  0.18958779014E-01  0.10225398605E+01  0.10223161098E+01 0.  0.
     999903    2    3    3    0    0  0.19478609300E-01 -0.12628421995E+00 -0.25829109663E-01  0.13180246409E+00  0.19432606801E-01 0.  0.
         14    1    1    2    0    0  0.98738388122E-02 -0.78107121639E-03 -0.18958779014E-01  0.21390139477E-01  0.00000000000E+00 0.  1.
     999901    1    3    3    0    0 -0.29352448112E-01  0.12706529116E+00  0.44787888677E-01  0.89073739643E+00  0.88000000000E+00 0. -1.
        -11    1    4    4    0    0 -0.11954950724E-02 -0.54091163853E-01 -0.12501744282E-01  0.55532314435E-01  0.51100000000E-03 0.  1.
         11    1    4    4    0    0  0.20674104372E-01 -0.72193056094E-01 -0.13327365381E-01  0.76270149657E-01  0.51100000000E-03 0. -1.
</event>
<event>
 8    1  0.1041149E+005  0.1043930E+01  0.7957747E-01            NaN
         13   -1    0    0    0    0  0.00000000000E+00  0.00000000000E+00  0.74505805969E-08  0.10566000000E+00  0.10566000000E+00 0.  1.
     999900   -1    0    0    0    0 -0.00000000000E+00 -0.00000000000E+00 -0.74505805969E-08  0.93827000000E+00  0.93827000000E+00 0.  1.
     999902    2    1    2    0    0 -0.48140714480E-02 -0.89238138848E-02  0.21301958611E-01  0.10203379849E+01  0.10200652039E+01 0.  0.
     999903    2    3    3    0    0 -0.59740678221E-01  0.11310334009E+00 -0.60830620861E-02  0.12980022720E+00  0.21208044768E-01 0.  0.
         14    1    1    2    0    0  0.48140714480E-02  0.89238138848E-02 -0.21301958611E-01  0.23592015150E-01  0.00000000000E+00 0. -1.
     999901    1    3    3    0    0  0.54926606773E-01 -0.12202715398E+00  0.27385020697E-01  0.89053775765E+00  0.88000000000E+00 0. -1.
        -11    1    4    4    0    0 -0.22460519092E-01  0.64177457682E-01 -0.89892727201E-04  0.67996251324E-01  0.51100000000E-03 0.  1.
         11    1    4    4    0    0 -0.37280159129E-01  0.48925882410E-01 -0.59931693589E-02  0.61803975878E-01  0.51100000000E-03 0. -1.
</event>
<event>
 8    1  0.1041149E+005  0.1043930E+01  0.7957747E-01            NaN
         13   -1    0    0    0    0  0.00000000000E+00  0.00000000000E+00  0.74505805969E-08  0.10566000000E+00  0.10566000000E+00 0. -1.
     999900   -1    0    0    0    0 -0.00000000000E+00 -0.00000000000E+00 -0.74505805969E-08  0.93827000000E+00  0.93827000000E+00 0.  1.
     999902    2    1    2    0    0 -0.18793144707E-01 -0.11205496963E-01  0.99728517227E-02  0.10198841434E+01  0.10196006388E+01 0.  0.
     999903    2    3    3    0    0 -0.59352730531E-01 -0.92703855997E-01  0.72117155119E-01  0.13300817854E+00  0.19327181834E-01 0.  0.
         14    1    1    2    0    0  0.18793144707E-01  0.11205496963E-01 -0.99728517227E-02  0.24045856642E-01  0.00000000000E+00 0.  1.
     999901    1    3    3    0    0  0.40559585823E-01  0.81498359034E-01 -0.62144303397E-01  0.88687596482E+00  0.88000000000E+00 0.  1.
        -11    1    4    4    0    0 -0.25129731345E-01 -0.23597935925E-01  0.25670860296E-01  0.42983952433E-01  0.51100000000E-03 0.  1.
         11    1    4    4    0    0 -0.34222999185E-01 -0.69105920072E-01  0.46446294823E-01  0.90024226107E-01  0.51100000000E-03 0. -1.
</event>
<event>
 8    1  0.1041149E+005  0.1043930E+01  0.7957747E-01            NaN
         13   -1    0    0    0    0  0.00000000000E+00  0.00000000000E+00  0.74505805969E-08  0.10566000000E+00  0.10566000000E+00 0. -1.
     999900   -1    0    0    0    0 -0.00000000000E+00 -0.00000000000E+00 -0.74505805969E-08  0.93827000000E+00  0.93827000000E+00 0. -1.
     999902    2    1    2    0    0 -0.18057427812E-01 -0.87524916623E-02 -0.11680880079E-01  0.10207110472E+01  0.10204469227E+01 0.  0.
     999903    2    3    3    0    0 -0.27183858252E-01 -0.33957138210E-01  0.12116743283E+00  0.13033627208E+00  0.20345703581E-01 0.  0.
         14    1    1    2    0    0  0.18057427812E-01  0.87524916623E-02  0.11680880079E-01  0.23218952795E-01  0.00000000000E+00 0.  1.
     999901    1    3    3    0    0  0.91264304404E-02  0.25204646547E-01 -0.13284831291E+00  0.89037477513E+00  0.88000000000E+00 0. -1.
        -11    1    4    4    0    0 -0.13762298859E-01 -0.17445794823E-01  0.34093498701E-01  0.40698702702E-01  0.51100000000E-03 0.  1.
         11    1    4    4    0    0 -0.13421559393E-01 -0.16511343386E-01  0.87073934133E-01  0.89637569375E-01  0.51100000000E-03 0. -1.
</event>
<event>
 8    1  0.1041149E+005  0.1043930E+01  0.7957747E-01            NaN
         13   -1    0    0    0    0  0.00000000000E+00  0.00000000000E+00  0.74505805969E-08  0.10566000000E+00  0.10566000000E+00 0.  1.
     999900   -1    0    0    0    0 -0.00000000000E+00 -0.00000000000E+00 -0.74505805969E-08  0.93827000000E+00  0.93827000000E+00 0.  1.
     999902    2    1    2    0    0  0.17029907903E-01  0.16828598366E-01  0.21495145798E-02  0.10198916993E+01  0.10196083750E+01 0.  0.
     999903    2    3    3    0    0  0.94150256437E-01  0.71653186651E-01 -0.57347381806E-01  0.13282171093E+00  0.18826437539E-01 0.  0.
         14    1    1    2    0    0 -0.17029907903E-01 -0.16828598366E-01 -0.21495145798E-02  0.24038300669E-01  0.00000000000E+00 0. -1.
     999901    1    3    3    0    0 -0.77120348534E-01 -0.54824588285E-01  0.59496896386E-01  0.88706998840E+00  0.88000000000E+00 0. -1.
        -11    1    4    4    0    0  0.25366121605E-01  0.29953539604E-01 -0.16149595967E-01  0.42446734044E-01  0.51100000000E-03 0. -1.
         11    1    4    4    0    0  0.68784134831E-01  0.41699647047E-01 -0.41197785839E-01  0.90374976887E-01  0.51100000000E-03 0.  1.
</event>
<event>
 8    1  0.1041149E+005  0.1043930E+01  0.7957747E-01            NaN
         13   -1    0    0    0    0  0.00000000000E+00  0.00000000000E+00  0.74505805969E-08  0.10566000000E+00  0.10566000000E+00 0. -1.
     999900   -1    0    0    0    0 -0.00000000000E+00 -0.00000000000E+00 -0.74505805969E-08  0.93827000000E+00  0.93827000000E+00 0.  1.
     999902    2    1    2    0    0  0.67206644997E-02  0.21257758977E-01 -0.77856413271E-02  0.10203148384E+01  0.10200415156E+01 0.  0.
     999903    2    3    3    0    0  0.50769707230E-01  0.87936625092E-01  0.82174810744E-01  0.13212607899E+00  0.19854168909E-01 0.  0.
         14    1    1    2    0    0 -0.67206644997E-02 -0.21257758977E-01  0.77856413271E-02  0.23615161633E-01  0.00000000000E+00 0. -1.
     999901    1    3    3    0    0 -0.44049042730E-01 -0.66678866114E-01 -0.89960452071E-01  0.88818875938E+00  0.88000000000E+00 0.  1.
        -11    1    4    4    0    0  0.14088005345E-01  0.24278556377E-01  0.34765510060E-01  0.44685814360E-01  0.51100000000E-03 0. -1.
         11    1    4    4    0    0  0.36681701885E-01  0.63658068715E-01  0.47409300685E-01  0.87440264627E-01  0.51100000000E-03 0.  1.
</event>
<event>
 8    1  0.1041149E+005  0.1043930E+01  0.7957747E-01            NaN
         13   -1    0    0    0    0  0.00000000000E+00  0.00000000000E+00  0.74505805969E-08  0.10566000000E+00  0.10566000000E+00 0. -1.
     999900   -1    0    0    0    0 -0.00000000000E+00 -0.00000000000E+00 -0.74505805969E-08  0.93827000000E+00  0.93827000000E+00 0.  1.
     999902    2    1    2    0    0  0.41094458555E-02  0.12777583322E-01 -0.59666302545E-02  0.10292414038E+01  0.10291365859E+01 0.  0.
     999903    2    3    3    0    0  0.49390683592E-02 -0.12889285198E+00 -0.42043555872E-01  0.13718045016E+00  0.20323720810E-01 0.  0.
         14    1    1    2    0    0 -0.41094458555E-02 -0.12777583322E-01  0.59666302545E-02  0.14688596168E-01  0.00000000000E+00 0. -1.
     999901    1    3    3    0    0 -0.82962250371E-03  0.14167043530E+00  0.36076925617E-01  0.89206095368E+00  0.88000000000E+00 0. -1.
        -11    1    4    4    0    0  0.21044618839E-02 -0.72110314992E-01 -0.34019061873E-01  0.79761419119E-01  0.51100000000E-03 0.  1.
         11    1    4    4    0    0  0.28346064753E-02 -0.56782536985E-01 -0.80244939985E-02  0.57419031037E-01  0.51100000000E-03 0. -1.
</event>
<event>
 8    1  0.1041149E+005  0.1043930E+01  0.7957747E-01            NaN
         13   -1    0    0    0    0  0.00000000000E+00  0.00000000000E+00  0.74505805969E-08  0.10566000000E+00  0.10566000000E+00 0.  1.
     999900   -1    0    0    0    0 -0.00000000000E+00 -0.00000000000E+00 -0.74505805969E-08  0.93827000000E+00  0.93827000000E+00 0. -1.
     999902    2    1    2    0    0  0.77022241041E-02 -0.22189683052E-01  0.13665949982E-02  0.10204018494E+01  0.10201305604E+01 0.  0.
     999903    2    3    3    0    0  0.12531963914E-01  0.12448186595E+00  0.18611017435E-01  0.12808282583E+00  0.20150812189E-01 0.  0.
         14    1    1    2    0    0 -0.77022241041E-02  0.22189683052E-01 -0.13665949982E-02  0.23528150629E-01  0.00000000000E+00 0. -1.
     999901    1    3    3    0    0 -0.48297398100E-02 -0.14667154900E+00 -0.17244422437E-01  0.89231902354E+00  0.88000000000E+00 0.  1.
        -11    1    4    4    0    0  0.10288007510E-01  0.12203366263E+00  0.15394566634E-01  0.12343140491E+00  0.51100000000E-03 0. -1.
         11    1    4    4    0    0  0.22439564045E-02  0.24482033164E-02  0.32164508011E-02  0.46514209204E-02  0.51100000000E-03 0.  1.
</event>
<event>
 8    1  0.1041149E+005  0.1043930E+01  0.7957747E-01            NaN
         13   -1    0    0    0    0  0.00000000000E+00  0.00000000000E+00  0.74505805969E-08  0.10566000000E+00  0.10566000000E+00 0.  1.
     999900   -1    0    0    0    0 -0.00000000000E+00 -0.00000000000E+00 -0.74505805969E-08  0.93827000000E+00  0.93827000000E+00 0.  1.
     999902    2    1    2    0    0  0.79967003729E-02  0.13483750408E-01  0.17900892676E-01  0.10201350278E+01  0.10198574774E+01 0.  0.
     999903    2    3    3    0    0  0.77588921696E-01 -0.46603960450E-01 -0.89745564917E-01  0.12882062197E+00  0.18668591882E-01 0.  0.
         14    1    1    2    0    0 -0.79967003729E-02 -0.13483750408E-01 -0.17900892676E-01  0.23794972168E-01  0.00000000000E+00 0. -1.
     999901    1    3    3    0    0 -0.69592221323E-01  0.60087710858E-01  0.10764645759E+00  0.89131440586E+00  0.88000000000E+00 0. -1.
        -11    1    4    4    0    0  0.20628522474E-01 -0.19632081644E-01 -0.36615048206E-01  0.46388333073E-01  0.51100000000E-03 0.  1.
         11    1    4    4    0    0  0.56960399221E-01 -0.26971878806E-01 -0.53130516710E-01  0.82432288897E-01  0.51100000000E-03 0. -1.
</event>
<event>
 8    1  0.1041149E+005  0.1043930E+01  0.7957747E-01            NaN
         13   -1    0    0    0    0  0.00000000000E+00  0.00000000000E+00  0.74505805969E-08  0.10566000000E+00  0.10566000000E+00 0.  1.
     999900   -1    0    0    0    0 -0.00000000000E+00 -0.00000000000E+00 -0.74505805969E-08  0.93827000000E+00  0.93827000000E+00 0. -1.
     999902    2    1    2    0    0 -0.10136113127E-01  0.10383586822E-01 -0.17299936406E-01  0.10213501979E+01  0.10211005725E+01 0.  0.
     999903    2    3    3    0    0 -0.12100134769E+00  0.24299262825E-02 -0.53494662876E-01  0.13362027319E+00  0.18586763166E-01 0.  0.
         14    1    1    2    0    0  0.10136113127E-01 -0.10383586822E-01  0.17299936406E-01  0.22579802131E-01  0.00000000000E+00 0.  1.
     999901    1    3    3    0    0  0.11086523457E+00  0.79536605400E-02  0.36194726470E-01  0.88772992468E+00  0.88000000000E+00 0. -1.
        -11    1    4    4    0    0 -0.47987065563E-01  0.81692295539E-02 -0.15360530248E-01  0.51046075102E-01  0.51100000000E-03 0. -1.
         11    1    4    4    0    0 -0.73014282131E-01 -0.57393032714E-02 -0.38134132627E-01  0.82574198085E-01  0.51100000000E-03 0.  1.
</event>
<event>
 8    1  0.1041149E+005  0.1043930E+01  0.7957747E-01            NaN
         13   -1    0    0    0    0  0.00000000000E+00  0.00000000000E+00  0.74505805969E-08  0.10566000000E+00  0.10566000000E+00 0. -1.
     999900   -1    0    0    0    0 -0.00000000000E+00 -0.00000000000E+00 -0.74505805969E-08  0.93827000000E+00  0.93827000000E+00 0. -1.
     999902    2    1    2    0    0  0.10008430543E-01 -0.17397570562E-01 -0.97310355539E-02  0.10216244582E+01  0.10213809262E+01 0.  0.
     999903    2    3    3    0    0  0.87426310643E-01 -0.83240734596E-01  0.53514486370E-01  0.13352038406E+00  0.19786687923E-01 0.  0.
         14    1    1    2    0    0 -0.10008430543E-01  0.17397570562E-01  0.97310355539E-02  0.22305541830E-01  0.00000000000E+00 0. -1.
     999901    1    3    3    0    0 -0.77417880101E-01  0.65843164034E-01 -0.63245521924E-01  0.88810407411E+00  0.88000000000E+00 0. -1.
        -11    1    4    4    0    0  0.78601956296E-02 -0.11222287783E-02  0.27996279073E-02  0.84345189659E-02  0.51100000000E-03 0. -1.
         11    1    4    4    0    0  0.79566115014E-01 -0.82118505818E-01  0.50714858463E-01  0.12508586509E+00  0.51100000000E-03 0.  1.
</event>
<event>
 7    1  0.1041149E+005  0.1043930E+01  0.7957747E-01            NaN
         13   -1    0    0    0    0  0.00000000000E+00  0.00000000000E+00  0.74505805969E-08  0.10566000000E+00  0.10566000000E+00 0.  1.
     999900   -1    0    0    0    0 -0.00000000000E+00 -0.00000000000E+00 -0.74505805969E-08  0.93827000000E+00  0.93827000000E+00 0. -1.
     999903    2    1    2    0    0  0.95151823274E-01 -0.58642790872E-02 -0.37754874049E-01  0.10434591080E+00  0.19348884857E-01 0.  0.
         14    1    1    2    0    0 -0.38971556938E-01 -0.15951974212E-01  0.39185301784E-01  0.57521609916E-01  0.00000000000E+00 0.  1.
     999901    1    1    2    0    0 -0.56180266336E-01  0.21816253299E-01 -0.14304277348E-02  0.88206247928E+00  0.88000000000E+00 0.  1.
        -11    1    3    3    0    0  0.54506965758E-01 -0.21560880736E-02 -0.11312944652E-01  0.55712672433E-01  0.51100000000E-03 0.  1.
         11    1    3    3    0    0  0.40644857516E-01 -0.37081910137E-02 -0.26441929397E-01  0.48633238370E-01  0.51100000000E-03 0. -1.
</event>
<event>
 7    1  0.1041149E+005  0.1043930E+01  0.7957747E-01            NaN
         13   -1    0    0    0    0  0.00000000000E+00  0.00000000000E+00  0.74505805969E-08  0.10566000000E+00  0.10566000000E+00 0. -1.
     999900   -1    0    0    0    0 -0.00000000000E+00 -0.00000000000E+00 -0.74505805969E-08  0.93827000000E+00  0.93827000000E+00 0.  1.
     999902    2    1    2    0    0 -0.45758537609E-02  0.23287153087E-01 -0.29228649141E-03  0.10201957343E+01  0.10199196149E+01 0.  0.
         14    1    1    2    0    0  0.45758537609E-02 -0.23287153087E-01  0.29228649141E-03  0.23734265692E-01  0.00000000000E+00 0.  1.
     999901    1    3    3    0    0 -0.38048430591E-01 -0.62873690927E-01 -0.84159842294E-01  0.88706463301E+00  0.88000000000E+00 0.  1.
        -11    1    3    3    0    0  0.26937557550E-01  0.81663533852E-01  0.52456815814E-01  0.10073005219E+00  0.51100000000E-03 0. -1.
         11    1    3    3    0    0  0.65350192802E-02  0.44973101628E-02  0.31410739988E-01  0.32401049108E-01  0.51100000000E-03 0.  1.
</event>
<event>
 8    1  0.1041149E+005  0.1043930E+01  0.7957747E-01            NaN
         13   -1    0    0    0    0  0.00000000000E+00  0.00000000000E+00  0.74505805969E-08  0.10566000000E+00  0.10566000000E+00 0. -1.
     999900   -1    0    0    0    0 -0.00000000000E+00 -0.00000000000E+00 -0.74505805969E-08  0.93827000000E+00  0.93827000000E+00 0.  1.
     999902    2    1    2    0    0 -0.14333903501E-01 -0.47846607164E-03 -0.18367934348E-01  0.10206261220E+01  0.10203600394E+01 0.  0.
     999903    2    3    3    0    0 -0.12832791629E+00 -0.17461308567E-01  0.21390866290E-01  0.13222091367E+00  0.15869765439E-01 0.  0.
         14    1    1    2    0    0  0.14333903501E-01  0.47846607164E-03  0.18367934348E-01  0.23303878037E-01  0.00000000000E+00 0. -1.
     999901    1    3    3    0    0  0.11399401279E+00  0.16982842495E-01 -0.39758800638E-01  0.88840520829E+00  0.88000000000E+00 0. -1.
        -11    1    4    4    0    0 -0.38007679215E-01  0.13505502018E-03  0.13008010424E-02  0.38033605187E-01  0.51100000000E-03 0.  1.
         11    1    4    4    0    0 -0.90320237076E-01 -0.17596363587E-01  0.20090065248E-01  0.94187308485E-01  0.51100000000E-03 0. -1.
</event>
<event>
 8    1  0.1041149E+005  0.1043930E+01  0.7957747E-01            NaN
         13   -1    0    0    0    0  0.00000000000E+00  0.00000000000E+00  0.74505805969E-08  0.10566000000E+00  0.10566000000E+00 0.  1.
     999900   -1    0    0    0    0 -0.00000000000E+00 -0.00000000000E+00 -0.74505805969E-08  0.93827000000E+00  0.93827000000E+00 0.  1.
     999902    2    1    2    0    0  0.49820642580E-02  0.74973243090E-02 -0.22089905793E-01  0.10200763887E+01  0.10197974524E+01 0.  0.
     999903    2    3    3    0    0 -0.10790030675E-01  0.30065180174E-01 -0.12794854883E+00  0.13330464835E+00  0.19466851443E-01 0.  0.
         14    1    1    2    0    0 -0.49820642580E-02 -0.74973243090E-02  0.22089905793E-01  0.23853611341E-01  0.00000000000E+00 0.  1.
     999901    1    3    3    0    0  0.15772094933E-01 -0.22567855865E-01  0.10585864303E+00  0.88677174030E+00  0.88000000000E+00 0. -1.
        -11    1    4    4    0    0 -0.14777844517E-01  0.15305300555E-01 -0.60213510922E-01  0.63863643274E-01  0.51100000000E-03 0. -1.
         11    1    4    4    0    0  0.39878138424E-02  0.14759879618E-01 -0.67735037906E-01  0.69441005081E-01  0.51100000000E-03 0.  1.
</event>
<event>
 8    1  0.1041149E+005  0.1043930E+01  0.7957747E-01            NaN
         13   -1    0    0    0    0  0.00000000000E+00  0.00000000000E+00  0.74505805969E-08  0.10566000000E+00  0.10566000000E+00 0.  1.
     999900   -1    0    0    0    0 -0.00000000000E+00 -0.00000000000E+00 -0.74505805969E-08  0.93827000000E+00  0.93827000000E+00 0.  1.
     999902    2    1    2    0    0  0.18129000578E-01 -0.14101943912E-01  0.66852987823E-02  0.10200089067E+01  0.10197283712E+01 0.  0.
     999903    2    3    3    0    0 -0.57571414252E-01  0.11226529805E+00  0.53188453698E-03  0.12774375714E+00  0.20005491763E-01 0.  0.
         14    1    1    2    0    0 -0.18129000578E-01  0.14101943912E-01 -0.66852987823E-02  0.23921093283E-01  0.00000000000E+00 0. -1.
     999901    1    3    3    0    0  0.75700414830E-01 -0.12636724196E+00  0.61534142453E-02  0.89226514958E+00  0.88000000000E+00 0. -1.
        -11    1    4    4    0    0 -0.27752665196E-01  0.53128486439E-01  0.10220410092E-01  0.60807601500E-01  0.51100000000E-03 0.  1.
         11    1    4    4    0    0 -0.29818749056E-01  0.59136811613E-01 -0.96885255546E-02  0.66936155637E-01  0.51100000000E-03 0. -1.
</event>
<event>
 8    1  0.1041149E+005  0.1043930E+01  0.7957747E-01            NaN
         13   -1    0    0    0    0  0.00000000000E+00  0.00000000000E+00  0.74505805969E-08  0.10566000000E+00  0.10566000000E+00 0. -1.
     999900   -1    0    0    0    0 -0.00000000000E+00 -0.00000000000E+00 -0.74505805969E-08  0.93827000000E+00  0.93827000000E+00 0. -1.
     999902    2    1    2    0    0  0.30693963563E-02 -0.17884347404E-01 -0.18909758865E-01  0.10177221757E+01  0.10173846749E+01 0.  0.
     999903    2    3    3    0    0  0.11971960949E+00 -0.26926894736E-01 -0.38017563356E-01  0.12977276940E+00  0.18379172995E-01 0.  0.
         14    1    1    2    0    0 -0.30693963563E-02  0.17884347404E-01  0.18909758865E-01  0.26207824336E-01  0.00000000000E+00 0. -1.
     999901    1    3    3    0    0 -0.11665021313E+00  0.90425473313E-02  0.19107804491E-01  0.88794940626E+00  0.88000000000E+00 0.  1.
        -11    1    4    4    0    0  0.68653768243E-01 -0.21166853344E-01 -0.29565726866E-01  0.77690211098E-01  0.51100000000E-03 0.  1.
         11    1    4    4    0    0  0.51065841242E-01 -0.57600413920E-02 -0.84518364896E-02  0.52082558306E-01  0.51100000000E-03 0. -1.
</event>
<event>
 8    1  0.1041149E+005  0.1043930E+01  0.7957747E-01            NaN
         13   -1    0    0    0    0  0.00000000000E+00  0.00000000000E+00  0.74505805969E-08  0.10566000000E+00  0.10566000000E+00 0. -1.
     999900   -1    0    0    0    0 -0.00000000000E+00 -0.00000000000E+00 -0.74505805969E-08  0.93827000000E+00  0.93827000000E+00 0.  1.
     999902    2    1    2    0    0  0.15660975246E-01  0.17583987409E-01  0.30900988647E-02  0.10201810743E+01  0.10199046097E+01 0.  0.
     999903    2    3    3    0    0 -0.39937438077E-01  0.42456656706E-01  0.11563613997E+00  0.13092495566E+00  0.19288869543E-01 0.  0.
         14    1    1    2    0    0 -0.15660975246E-01 -0.17583987409E-01 -0.30900988647E-02  0.23748925656E-01  0.00000000000E+00 0. -1.
     999901    1    3    3    0    0  0.55598413322E-01 -0.24872669297E-01 -0.11254604111E+00  0.88925611868E+00  0.88000000000E+00 0.  1.
        -11    1    4    4    0    0 -0.33079324889E-01  0.21989480352E-01  0.78084227424E-01  0.87608142742E-01  0.51100000000E-03 0.  1.
         11    1    4    4    0    0 -0.68581131877E-02  0.20467176354E-01  0.37551912551E-01  0.43316812921E-01  0.51100000000E-03 0. -1.
</event>
<event>
 8    1  0.1041149E+005  0.1043930E+01  0.7957747E-01            NaN
         13   -1    0    0    0    0  0.00000000000E+00  0.00000000000E+00  0.74505805969E-08  0.10566000000E+00  0.10566000000E+00 0.  1.
     999900   -1    0    0    0    0 -0.00000000000E+00 -0.00000000000E+00 -0.74505805969E-08  0.93827000000E+00  0.93827000000E+00 0. -1.
     999902    2    1    2    0    0 -0.14209117973E-01 -0.15574364086E-01 -0.10830363502E-01  0.10202285945E+01  0.10199532481E+01 0.  0.
     999903    2    3    3    0    0 -0.11320607985E+00 -0.66861728157E-01  0.15956670273E-02  0.13310673227E+00  0.20706250598E-01 0.  0.
         14    1    1    2    0    0  0.14209117973E-01  0.15574364086E-01  0.10830363502E-01  0.23701405524E-01  0.00000000000E+00 0.  1.
     999901    1    3    3    0    0  0.98996961879E-01  0.51287364072E-01 -0.12426030529E-01  0.88712186221E+00  0.88000000000E+00 0.  1.
        -11    1    4    4    0    0 -0.27883948517E-01 -0.67852393455E-02 -0.10492611404E-02  0.28721353169E-01  0.51100000000E-03 0.  1.
         11    1    4    4    0    0 -0.85322131334E-01 -0.60076488812E-01  0.26449281678E-02  0.10438537910E+00  0.51100000000E-03 0. -1.
</event>
<event>
 8    1  0.1041149E+005  0.1043930E+01  0.7957747E-01            NaN
         13   -1    0    0    0    0  0.00000000000E+00  0.00000000000E+00  0.74505805969E-08  0.10566000000E+00  0.10566000000E+00 0. -1.
     999900   -1    0    0    0    0 -0.00000000000E+00 -0.00000000000E+00 -0.74505805969E-08  0.93827000000E+00  0.93827000000E+00 0.  1.
     999902    2    1    2    0    0 -0.18360157459E-01  0.22711951889E-02 -0.13886109891E-01  0.10207982522E+01  0.10205361306E+01 0.  0.
     999903    2    3    3    0    0 -0.41485394997E-01 -0.54825954177E-01  0.10864661589E+00  0.13017536343E+00  0.20362093415E-01 0.  0.
         14    1    1    2    0    0  0.18360157459E-01 -0.22711951889E-02  0.13886109891E-01  0.23131747824E-01  0.00000000000E+00 0. -1.
     999901    1    3    3    0    0  0.23125237538E-01  0.57097149366E-01 -0.12253272578E+00  0.89062288875E+00  0.88000000000E+00 0.  1.
        -11    1    4    4    0    0 -0.42120920170E-01 -0.45897909028E-01  0.89660720037E-01  0.10917919128E+00  0.51100000000E-03 0. -1.
         11    1    4    4    0    0  0.63552517345E-03 -0.89280451490E-02  0.18985895857E-01  0.20996172150E-01  0.51100000000E-03 0.  1.
</event>
<event>
 8    1  0.1041149E+005  0.1043930E+01  0.7957747E-01            NaN
         13   -1    0    0    0    0  0.00000000000E+00  0.00000000000E+00  0.74505805969E-08  0.10566000000E+00  0.10566000000E+00 0. -1.
     999900   -1    0    0    0    0 -0.00000000000E+00 -0.00000000000E+00 -0.74505805969E-08  0.93827000000E+00  0.93827000000E+00 0.  1.
     999902    2    1    2    0    0 -0.87324418048E-02  0.11005358554E-01  0.17403334176E-01  0.10215637420E+01  0.10213188677E+01 0.  0.
     999903    2    3    3    0    0  0.83683657671E-01  0.62451175824E-01  0.80142985933E-01  0.13301229640E+00  0.19138152402E-01 0.  0.
         14    1    1    2    0    0  0.87324418048E-02 -0.11005358554E-01 -0.17403334176E-01  0.22366258006E-01  0.00000000000E+00 0.  1.
     999901    1    3    3    0    0 -0.92416099476E-01 -0.51445817270E-01 -0.62739651757E-01  0.88855144559E+00  0.88000000000E+00 0.  1.
        -11    1    4    4    0    0  0.38498369051E-01  0.34138516142E-01  0.50043552211E-01  0.71778694213E-01  0.51100000000E-03 0. -1.
         11    1    4    4    0    0  0.45185288620E-01  0.28312659683E-01  0.30099433722E-01  0.61233602191E-01  0.51100000000E-03 0.  1.
</event>
<event>
 8    1  0.1041149E+005  0.1043930E+01  0.7957747E-01            NaN
         13   -1    0    0    0    0  0.00000000000E+00  0.00000000000E+00  0.74505805969E-08  0.10566000000E+00  0.10566000000E+00 0.  1.
     999900   -1    0    0    0    0 -0.00000000000E+00 -0.00000000000E+00 -0.74505805969E-08  0.93827000000E+00  0.93827000000E+00 0.  1.
     999902    2    1    2    0    0  0.20873070857E-01 -0.72992711760E-02  0.34678751075E-02  0.10215471806E+01  0.10213019395E+01 0.  0.
     999903    2    3    3    0    0 -0.74810022267E-01 -0.50744589618E-01  0.92447129983E-01  0.13083956426E+00  0.20024158560E-01 0.  0.
         14    1    1    2    0    0 -0.20873070857E-01  0.72992711760E-02 -0.34678751075E-02  0.22382819404E-01  0.00000000000E+00 0. -1.
     999901    1    3    3    0    0  0.95683093124E-01  0.43445318442E-01 -0.88979254876E-01  0.89070761634E+00  0.88000000000E+00 0.  1.
        -11    1    4    4    0    0 -0.42666046306E-01 -0.26691898649E-01  0.37394619671E-01  0.62701416748E-01  0.51100000000E-03 0. -1.
         11    1    4    4    0    0 -0.32143975960E-01 -0.24052690969E-01  0.55052510312E-01  0.68138147510E-01  0.51100000000E-03 0.  1.
</event>
<event>
 8    1  0.1041149E+005  0.1043930E+01  0.7957747E-01            NaN
         13   -1    0    0    0    0  0.00000000000E+00  0.00000000000E+00  0.74505805969E-08  0.10566000000E+00  0.10566000000E+00 0.  1.
     999900   -1    0    0    0    0 -0.00000000000E+00 -0.00000000000E+00 -0.74505805969E-08  0.93827000000E+00  0.93827000000E+00 0. -1.
     999902    2    1    2    0    0  0.16696664342E-01  0.15640288076E-01  0.10566060547E-01  0.10187300229E+01  0.10184182936E+01 0.  0.
     999903    2    3    3    0    0  0.64159986970E-01  0.76383575731E-01 -0.81802511621E-01  0.13054396855E+00  0.19978044130E-01 0.  0.
         14    1    1    2    0    0 -0.16696664342E-01 -0.15640288076E-01 -0.10566060547E-01  0.25199977118E-01  0.00000000000E+00 0. -1.
     999901    1    3    3    0    0 -0.47463322628E-01 -0.60743287655E-01  0.92368572168E-01  0.88818605433E+00  0.88000000000E+00 0.  1.
        -11    1    4    4    0    0  0.24447576698E-01  0.38889615561E-01 -0.47323323170E-01  0.65953348980E-01  0.51100000000E-03 0.  1.
         11    1    4    4    0    0  0.39712410273E-01  0.37493960170E-01 -0.34479188451E-01  0.64590619568E-01  0.51100000000E-03 0. -1.
</event>
<event>
 8    1  0.1041149E+005  0.1043930E+01  0.7957747E-01            NaN
         13   -1    0    0    0    0  0.00000000000E+00  0.00000000000E+00  0.74505805969E-08  0.10566000000E+00  0.10566000000E+00 0.  1.
     999900   -1    0    0    0    0 -0.00000000000E+00 -0.00000000000E+00 -0.74505805969E-08  0.93827000000E+00  0.93827000000E+00 0.  1.
     999902    2    1    2    0    0 -0.82098124839E-02 -0.14645005318E-01 -0.18165843715E-01  0.10191938912E+01  0.10188936710E+01 0.  0.
     999903    2    3    3    0    0 -0.12358391641E+00 -0.11675575140E-01 -0.38216334587E-01  0.13143152232E+00  0.20111026314E-01 0.  0.
         14    1    1    2    0    0  0.82098124839E-02  0.14645005318E-01  0.18165843715E-01  0.24736108822E-01  0.00000000000E+00 0.  1.
     999901    1    3    3    0    0  0.11537410393E+00 -0.29694301781E-02  0.20050490873E-01  0.88776236886E+00  0.88000000000E+00 0. -1.
        -11    1    4    4    0    0 -0.28181698081E-01 -0.10592143935E-01 -0.57930890201E-02  0.30663049771E-01  0.51100000000E-03 0. -1.
         11    1    4    4    0    0 -0.95402218333E-01 -0.10834312049E-02 -0.32423245567E-01  0.10076847255E+00  0.51100000000E-03 0.  1.
</event>
<event>
 8    1  0.1041149E+005  0.1043930E+01  0.7957747E-01            NaN
         13   -1    0    0    0    0  0.00000000000E+00  0.00000000000E+00  0.74505805969E-08  0.10566000000E+00  0.10566000000E+00 0.  1.
     999900   -1    0    0    0    0 -0.00000000000E+00 -0.00000000000E+00 -0.74505805969E-08  0.93827000000E+00  0.93827000000E+00 0.  1.
     999902    2    1    2    0    0  0.14008418873E-01  0.18597224120E-01 -0.50595149174E-03  0.10206416224E+01  0.10203758978E+01 0.  0.
     999903    2    3    3    0    0 -0.63908112939E-01  0.35162590412E-01 -0.10662430289E+00  0.13069415103E+00  0.19787988377E-01 0.  0.
         14    1    1    2    0    0 -0.14008418873E-01 -0.18597224120E-01  0.50595149174E-03  0.23288377599E-01  0.00000000000E+00 0. -1.
     999901    1    3    3    0    0  0.77916531812E-01 -0.16565366292E-01  0.10611835140E+00  0.88994747137E+00  0.88000000000E+00 0. -1.
        -11    1    4    4    0    0 -0.48619894308E-01  0.30591443082E-01 -0.94723480512E-01  0.11078144878E+00  0.51100000000E-03 0.  1.
         11    1    4    4    0    0 -0.15288218632E-01  0.45711473296E-02 -0.11900822377E-01  0.19912702255E-01  0.51100000000E-03 0. -1.
</event>
<event>
 8    1  0.1041149E+005  0.1043930E+01  0.7957747E-01            NaN
         13   -1    0    0    0    0  0.00000000000E+00  0.00000000000E+00  0.74505805969E-08  0.10566000000E+00  0.10566000000E+00 0.  1.
     999900   -1    0    0    0    0 -0.00000000000E+00 -0.00000000000E+00 -0.74505805969E-08  0.93827000000E+00  0.93827000000E+00 0. -1.
     999902    2    1    2    0    0  0.14042854312E-01  0.77282061572E-02 -0.18168644511E-01  0.10197013688E+01  0.10194134857E+01 0.  0.
     999903    2    3    3    0    0  0.44438601863E-02 -0.46317506604E-01  0.11675021349E+00  0.12772817523E+00  0.22777512762E-01 0.  0.
         14    1    1    2    0    0 -0.14042854312E-01 -0.77282061572E-02  0.18168644511E-01  0.24228631224E-01  0.00000000000E+00 0.  1.
     999901    1    3    3    0    0  0.95989941258E-02  0.54045712761E-01 -0.13491885800E+00  0.89197319354E+00  0.88000000000E+00 0. -1.
        -11    1    4    4    0    0 -0.92217614500E-02 -0.15165634932E-01  0.42057316841E-01  0.45652123587E-01  0.51100000000E-03 0. -1.
         11    1    4    4    0    0  0.13665621636E-01 -0.31151871672E-01  0.74692896646E-01  0.82076051645E-01  0.51100000000E-03 0.  1.
</event>
<event>
 8    1  0.1041149E+005  0.1043930E+01  0.7957747E-01            NaN
         13   -1    0    0    0    0  0.00000000000E+00  0.00000000000E+00  0.74505805969E-08  0.10566000000E+00  0.10566000000E+00 0.  1.
     999900   -1    0    0    0    0 -0.00000000000E+00 -0.00000000000E+00 -0.74505805969E-08  0.93827000000E+00  0.93827000000E+00 0. -1.
     999902    2    1    2    0    0  0.19252180437E-01  0.13096999450E-01 -0.15088264338E-02  0.10205964533E+01  0.10203296850E+01 0.  0.
     999903    2    3    3    0    0 -0.99925247702E-01 -0.73027876722E-01  0.24750792233E-01  0.12801014301E+00  0.21351091092E-01 0.  0.
         14    1    1    2    0    0 -0.19252180437E-01 -0.13096999450E-01  0.15088264338E-02  0.23333546738E-01  0.00000000000E+00 0.  1.
     999901    1    3    3    0    0  0.11917742814E+00  0.86124876172E-01 -0.26259618666E-01  0.89258631025E+00  0.88000000000E+00 0. -1.
        -11    1    4    4    0    0 -0.77165838667E-01 -0.45523526360E-01  0.21641882492E-01  0.92171526559E-01  0.51100000000E-03 0. -1.
         11    1    4    4    0    0 -0.22759409036E-01 -0.27504350361E-01  0.31089097403E-02  0.35838616452E-01  0.51100000000E-03 0.  1.
</event>
<event>
 8    1  0.1041149E+005  0.1043930E+01  0.7957747E-01            NaN
         13   -1    0    0    0    0  0.00000000000E+00  0.00000000000E+00  0.74505805969E-08  0.10566000000E+00  0.10566000000E+00 0. -1.
     999900   -1    0    0    0    0 -0.00000000000E+00 -0.00000000000E+00 -0.74505805969E-08  0.93827000000E+00  0.93827000000E+00 0.  1.
     999902    2    1    2    0    0  0.48484692987E-02  0.20069030908E-01  0.12308374813E-01  0.10198931586E+01  0.10196098691E+01 0.  0.
     999903    2    3    3    0    0 -0.71975145259E-01 -0.93037696031E-01 -0.44454543469E-01  0.12752718636E+00  0.21225984288E-01 0.  0.
         14    1    1    2    0    0 -0.48484692987E-02 -0.20069030908E-01 -0.12308374813E-01  0.24036841445E-01  0.00000000000E+00 0.  1.
     999901    1    3    3    0    0  0.76823614557E-01  0.11310672694E+00  0.56762918282E-01  0.89236597219E+00  0.88000000000E+00 0. -1.
        -11    1    4    4    0    0 -0.34121021469E-01 -0.35634426117E-01 -0.28349427610E-01  0.56903493720E-01  0.51100000000E-03 0. -1.
         11    1    4    4    0    0 -0.37854123790E-01 -0.57403269914E-01 -0.16105115859E-01  0.70623692643E-01  0.51100000000E-03 0.  1.
</event>
<event>
 8    1  0.1041149E+005  0.1043930E+01  0.7957747E-01            NaN
         13   -1    0    0    0    0  0.00000000000E+00  0.00000000000E+00  0.74505805969E-08  0.10566000000E+00  0.10566000000E+00 0. -1.
     999900   -1    0    0    0    0 -0.00000000000E+00 -0.00000000000E+00 -0.74505805969E-08  0.93827000000E+00  0.93827000000E+00 0.  1.
     999902    2    1    2    0    0  0.20830279228E-01  0.10379432662E-01  0.25388504226E-02  0.10205189147E+01  0.10202503498E+01 0.  0.
     999903    2    3    3    0    0 -0.25684601753E-01 -0.11946547674E+00  0.36513577482E-01  0.12912808190E+00  0.20226747043E-01 0.  0.
         14    1    1    2    0    0 -0.20830279228E-01 -0.10379432662E-01 -0.25388504226E-02  0.23411085335E-01  0.00000000000E+00 0.  1.
     999901    1    3    3    0    0  0.46514880981E-01  0.12984490940E+00 -0.33974727059E-01  0.89139083276E+00  0.88000000000E+00 0. -1.
        -11    1    4    4    0    0 -0.13569111011E-01 -0.85313761736E-01  0.17276584256E-01  0.88098241751E-01  0.51100000000E-03 0.  1.
         11    1    4    4    0    0 -0.12115490741E-01 -0.34151715005E-01  0.19236993225E-01  0.41029840153E-01  0.51100000000E-03 0. -1.
</event>
<event>
 8    1  0.1041149E+005  0.1043930E+01  0.7957747E-01            NaN
         13   -1    0    0    0    0  0.00000000000E+00  0.00000000000E+00  0.74505805969E-08  0.10566000000E+00  0.10566000000E+00 0.  1.
     999900   -1    0    0    0    0 -0.00000000000E+00 -0.00000000000E+00 -0.74505805969E-08  0.93827000000E+00  0.93827000000E+00 0.  1.
     999902    2    1    2    0    0  0.15409408482E-01  0.33583266813E-02 -0.17434982482E-01  0.10204202820E+01  0.10201494229E+01 0.  0.
     999903    2    3    3    0    0 -0.10830314440E+00  0.24173830249E-01  0.61005052153E-01  0.12806893863E+00  0.19133517653E-01 0.  0.
         14    1    1    2    0    0 -0.15409408482E-01 -0.33583266813E-02  0.17434982482E-01  0.23509718033E-01  0.00000000000E+00 0.  1.
     999901    1    3    3    0    0  0.12371255288E+00 -0.20815503567E-01 -0.78440034635E-01  0.89235134334E+00  0.88000000000E+00 0.  1.
        -11    1    4    4    0    0 -0.10360673410E+00  0.20108209494E-01  0.53542366365E-01  0.11834585568E+00  0.51100000000E-03 0.  1.
         11    1    4    4    0    0 -0.46964102956E-02  0.40656207542E-02  0.74626857884E-02  0.97230829451E-02  0.51100000000E-03 0. -1.
</event>
<event>
 8    1  0.1041149E+005  0.1043930E+01  0.7957747E-01            NaN
         13   -1    0    0    0    0  0.00000000000E+00  0.00000000000E+00  0.74505805969E-08  0.10566000000E+00  0.10566000000E+00 0. -1.
     999900   -1    0    0    0    0 -0.00000000000E+00 -0.00000000000E+00 -0.74505805969E-08  0.93827000000E+00  0.93827000000E+00 0.  1.
     999902    2    1    2    0    0 -0.27321652504E-01 -0.52897121774E-02 -0.46503565491E-03  0.10160971056E+01  0.10157158353E+01 0.  0.
     999903    2    3    3    0    0 -0.94312184985E-02 -0.12429121471E+00  0.19151318566E-01  0.12769053959E+00  0.20021162877E-01 0.  0.
         14    1    1    2    0    0  0.27321652504E-01  0.52897121774E-02  0.46503565491E-03  0.27832894364E-01  0.00000000000E+00 0. -1.
     999901    1    3    3    0    0 -0.17890434006E-01  0.11900150253E+00 -0.19616354221E-01  0.88840656604E+00  0.88000000000E+00 0. -1.
        -11    1    4    4    0    0  0.28027128410E-02 -0.37421346930E-01 -0.15165832910E-02  0.37560265590E-01  0.51100000000E-03 0.  1.
         11    1    4    4    0    0 -0.12233931339E-01 -0.86869867779E-01  0.20667901857E-01  0.90130274004E-01  0.51100000000E-03 0. -1.
</event>
<event>
 8    1  0.1041149E+005  0.1043930E+01  0.7957747E-01            NaN
         13   -1    0    0    0    0  0.00000000000E+00  0.00000000000E+00  0.74505805969E-08  0.10566000000E+00  0.10566000000E+00 0.  1.
     999900   -1    0    0    0    0 -0.00000000000E+00 -0.00000000000E+00 -0.74505805969E-08  0.93827000000E+00  0.93827000000E+00 0.  1.
     999902    2    1    2    0    0 -0.44085744357E-02  0.95135170936E-02 -0.21442510114E-01  0.10200611128E+01  0.10197818149E+01 0.  0.
     999903    2    3    3    0    0  0.78838926311E-01 -0.50869367876E-02  0.98627522108E-01  0.12789513482E+00  0.19705942392E-01 0.  0.
         14    1    1    2    0    0  0.44085744357E-02 -0.95135170936E-02  0.21442510114E-01  0.23868887197E-01  0.00000000000E+00 0.  1.
     999901    1    3    3    0    0 -0.83247500747E-01  0.14600453881E-01 -0.12007003222E+00  0.89216597798E+00  0.88000000000E+00 0.  1.
        -11    1    4    4    0    0  0.22756199119E-01  0.29475783727E-02  0.17136467532E-01  0.28643541280E-01  0.51100000000E-03 0.  1.
         11    1    4    4    0    0  0.56082727192E-01 -0.80345151603E-02  0.81491054575E-01  0.99251593539E-01  0.51100000000E-03 0. -1.
</event>
<event>
 8    1  0.1041149E+005  0.1043930E+01  0.7957747E-01            NaN
         13   -1    0    0    0    0  0.00000000000E+00  0.00000000000E+00  0.74505805969E-08  0.10566000000E+00  0.10566000000E+00 0.  1.
     999900   -1    0    0    0    0 -0.00000000000E+00 -0.00000000000E+00 -0.74505805969E-08  0.93827000000E+00  0.93827000000E+00 0.  1.
     999902    2    1    2    0    0 -0.44289464653E-02 -0.21917746453E-01  0.10401861267E-01  0.10192682504E+01  0.10189698545E+01 0.  0.
     999903    2    3    3    0    0  0.26301990560E-01  0.86740434362E-01 -0.86370886676E-01  0.12679082462E+00  0.20007135786E-01 0.  0.
         14    1    1    2    0    0  0.44289464653E-02  0.21917746453E-01 -0.10401861267E-01  0.24661749617E-01  0.00000000000E+00 0. -1.
     999901    1    3    3    0    0 -0.30730937026E-01 -0.10865818081E+00  0.96772747943E-01  0.89247742576E+00  0.88000000000E+00 0. -1.
        -11    1    4    4    0    0  0.20656266704E-01  0.34407399669E-01 -0.39395764338E-01  0.56239113390E-01  0.51100000000E-03 0. -1.
         11    1    4    4    0    0  0.56457238559E-02  0.52333034693E-01 -0.46975122338E-01  0.70551711231E-01  0.51100000000E-03 0.  1.
</event>
<event>
 8    1  0.1041149E+005  0.1043930E+01  0.7957747E-01            NaN
         13   -1    0    0    0    0  0.00000000000E+00  0.00000000000E+00  0.74505805969E-08  0.10566000000E+00  0.10566000000E+00 0.  1.
     999900   -1    0    0    0    0 -0.00000000000E+00 -0.00000000000E+00 -0.74505805969E-08  0.93827000000E+00  0.93827000000E+00 0.  1.
     999902    2    1    2    0    0 -0.15414700940E-02  0.22807743561E-01  0.10911114136E-01  0.10185997472E+01  0.10182847457E+01 0.  0.
     999903    2    3    3    0    0  0.96969801770E-01 -0.77938729856E-01  0.19317024943E-01  0.12735063389E+00  0.19168944515E-01 0.  0.
         14    1    1    2    0    0  0.15414700940E-02 -0.22807743561E-01 -0.10911114136E-01  0.25330252823E-01  0.00000000000E+00 0. -1.
     999901    1    3    3    0    0 -0.98511271864E-01  0.10074647342E+00 -0.84059108072E-02  0.89124911328E+00  0.88000000000E+00 0.  1.
        -11    1    4    4    0    0  0.86737132051E-01 -0.71728454835E-01  0.11717475356E-01  0.11316298714E+00  0.51100000000E-03 0.  1.
         11    1    4    4    0    0  0.10232669719E-01 -0.62102750212E-02  0.75995495874E-02  0.14187646752E-01  0.51100000000E-03 0. -1.
</event>
<event>
 8    1  0.1041149E+005  0.1043930E+01  0.7957747E-01            NaN
         13   -1    0    0    0    0  0.00000000000E+00  0.00000000000E+00  0.74505805969E-08  0.10566000000E+00  0.10566000000E+00 0.  1.
     999900   -1    0    0    0    0 -0.00000000000E+00 -0.00000000000E+00 -0.74505805969E-08  0.93827000000E+00  0.93827000000E+00 0. -1.
     999902    2    1    2    0    0 -0.13416307142E-01 -0.12685840834E-01  0.16067260092E-01  0.10194537931E+01  0.10191599245E+01 0.  0.
     999903    2    3    3    0    0  0.32745989955E-02  0.69368630454E-02 -0.12591697657E+00  0.12770093483E+00  0.19839372469E-01 0.  0.
         14    1    1    2    0    0  0.13416307142E-01  0.12685840834E-01 -0.16067260092E-01  0.24476206852E-01  0.00000000000E+00 0. -1.
     999901    1    3    3    0    0 -0.16690906137E-01 -0.19622703880E-01  0.14198423666E+00  0.89175285832E+00  0.88000000000E+00 0.  1.
        -11    1    4    4    0    0 -0.73745612563E-02  0.69974673832E-02 -0.74332726182E-01  0.75026422054E-01  0.51100000000E-03 0.  1.
         11    1    4    4    0    0  0.10649160252E-01 -0.60604337841E-04 -0.51584250391E-01  0.52674512777E-01  0.51100000000E-03 0. -1.
</event>
<event>
 8    1  0.1041149E+005  0.1043930E+01  0.7957747E-01            NaN
         13   -1    0    0    0    0  0.00000000000E+00  0.00000000000E+00  0.74505805969E-08  0.10566000000E+00  0.10566000000E+00 0.  1.
     999900   -1    0    0    0    0 -0.00000000000E+00 -0.00000000000E+00 -0.74505805969E-08  0.93827000000E+00  0.93827000000E+00 0. -1.
     999902    2    1    2    0    0  0.43795540930E-02  0.26246538809E-01 -0.61465887153E-02  0.10166198948E+01  0.10162530042E+01 0.  0.
     999903    2    3    3    0    0 -0.87975427077E-01  0.61563891215E-01  0.66599617699E-01  0.12809934440E+00  0.21074735747E-01 0.  0.
         14    1    1    2    0    0 -0.43795540930E-02 -0.26246538809E-01  0.61465887153E-02  0.27310105206E-01  0.00000000000E+00 0.  1.
     999901    1    3    3    0    0  0.92354981170E-01 -0.35317352406E-01 -0.72746206414E-01  0.88852055040E+00  0.88000000000E+00 0.  1.
        -11    1    4    4    0    0 -0.16102047592E-01  0.78915232324E-02  0.20508334437E-01  0.27247109534E-01  0.51100000000E-03 0. -1.
         11    1    4    4    0    0 -0.71873379484E-01  0.53672367983E-01  0.46091283261E-01  0.10085223486E+00  0.51100000000E-03 0.  1.
</event>
<event>
 8    1  0.1041149E+005  0.1043930E+01  0.7957747E-01            NaN
         13   -1    0    0    0    0  0.00000000000E+00  0.00000000000E+00  0.74505805969E-08  0.10566000000E+00  0.10566000000E+00 0.  1.
     999900   -1    0    0    0    0 -0.00000000000E+00 -0.00000000000E+00 -0.74505805969E-08  0.93827000000E+00  0.93827000000E+00 0.  1.
     999902    2    1    2    0    0  0.35363867652E-02  0.21651152510E-01 -0.32378732432E-02  0.10217542867E+01  0.10215136123E+01 0.  0.
     999903    2    3    3    0    0 -0.14317736491E-02 -0.94174133742E-01 -0.87306660872E-01  0.13017829971E+00  0.21286597700E-01 0.  0.
         14    1    1    2    0    0 -0.35363867652E-02 -0.21651152510E-01  0.32378732432E-02  0.22175713280E-01  0.00000000000E+00 0.  1.
     999901    1    3    3    0    0  0.49681604143E-02  0.11582528625E+00  0.84068787629E-01  0.89157598701E+00  0.88000000000E+00 0. -1.
        -11    1    4    4    0    0 -0.10811563546E-01 -0.47907565532E-01 -0.39975299187E-01  0.63327011674E-01  0.51100000000E-03 0.  1.
         11    1    4    4    0    0  0.93797898968E-02 -0.46266568210E-01 -0.47331361685E-01  0.66851288039E-01  0.51100000000E-03 0. -1.
</event>
<event>
 8    1  0.1041149E+005  0.1043930E+01  0.7957747E-01            NaN
         13   -1    0    0    0    0  0.00000000000E+00  0.00000000000E+00  0.74505805969E-08  0.10566000000E+00  0.10566000000E+00 0.  1.
     999900   -1    0    0    0    0 -0.00000000000E+00 -0.00000000000E+00 -0.74505805969E-08  0.93827000000E+00  0.93827000000E+00 0.  1.
     999902    2    1    2    0    0 -0.14634274419E-01 -0.13461264173E-01  0.13799544100E-01  0.10197267969E+01  0.10194395251E+01 0.  0.
     999903    2    3    3    0    0 -0.12872639646E+00 -0.20362011151E-01 -0.63301313996E-02  0.13210647470E+00  0.20662851976E-01 0.  0.
         14    1    1    2    0    0  0.14634274419E-01  0.13461264173E-01 -0.13799544100E-01  0.24203203058E-01  0.00000000000E+00 0. -1.
     999901    1    3    3    0    0  0.11409212204E+00  0.69007469782E-02  0.20129675500E-01  0.88762032224E+00  0.88000000000E+00 0. -1.
        -11    1    4    4    0    0 -0.79616308007E-01 -0.19705948054E-01  0.31587129922E-02  0.82081176150E-01  0.51100000000E-03 0.  1.
         11    1    4    4    0    0 -0.49110088449E-01 -0.65606309711E-03 -0.94888443918E-02  0.50025298551E-01  0.51100000000E-03 0. -1.
</event>
<event>
 8    1  0.1041149E+005  0.1043930E+01  0.7957747E-01            NaN
         13   -1    0    0    0    0  0.00000000000E+00  0.00000000000E+00  0.74505805969E-08  0.10566000000E+00  0.10566000000E+00 0.  1.
     999900   -1    0    0    0    0 -0.00000000000E+00 -0.00000000000E+00 -0.74505805969E-08  0.93827000000E+00  0.93827000000E+00 0.  1.
     999902    2    1    2    0    0 -0.21084980032E-01  0.76007585652E-02 -0.66016791245E-02  0.10205648533E+01  0.10202973536E+01 0.  0.
     999903    2    3    3    0    0  0.12329575360E-01 -0.93959374338E-01  0.85836617711E-01  0.12928721314E+00  0.19154009663E-01 0.  0.
         14    1    1    2    0    0  0.21084980032E-01 -0.76007585652E-02  0.66016791245E-02  0.23365146714E-01  0.00000000000E+00 0. -1.
     999901    1    3    3    0    0 -0.33414555392E-01  0.10156013290E+00 -0.92438296836E-01  0.89127764015E+00  0.88000000000E+00 0.  1.
        -11    1    4    4    0    0  0.60905488760E-02 -0.13176357003E-01  0.20899865065E-01  0.25451456741E-01  0.51100000000E-03 0. -1.
         11    1    4    4    0    0  0.62390264841E-02 -0.80783017335E-01  0.64936752646E-01  0.10383575640E+00  0.51100000000E-03 0.  1.
</event>
<event>
 8    1  0.1041149E+005  0.1043930E+01  0.7957747E-01            NaN
         13   -1    0    0    0    0  0.00000000000E+00  0.00000000000E+00  0.74505805969E-08  0.10566000000E+00  0.10566000000E+00 0. -1.
     999900   -1    0    0    0    0 -0.00000000000E+00 -0.00000000000E+00 -0.74505805969E-08  0.93827000000E+00  0.93827000000E+00 0. -1.
     999902    2    1    2    0    0 -0.14529760152E-01 -0.18156702560E-02  0.22808545652E-01  0.10168257505E+01  0.10164644443E+01 0.  0.
     999903    2    3    3    0    0 -0.24096595350E-01  0.11344426395E+00 -0.47259478138E-01  0.12649665134E+00  0.17824073516E-01 0.  0.
         14    1    1    2    0    0  0.14529760152E-01  0.18156702560E-02 -0.22808545652E-01  0.27104249544E-01  0.00000000000E+00 0.  1.
     999901    1    3    3    0    0  0.95668351977E-02 -0.11525993421E+00  0.70068023790E-01  0.89032909911E+00  0.88000000000E+00 0. -1.
        -11    1    4    4    0    0 -0.28725405951E-02  0.29471621594E-01 -0.46852610881E-02  0.29984008427E-01  0.51100000000E-03 0. -1.
         11    1    4    4    0    0 -0.21224054755E-01  0.83972642356E-01 -0.42574217050E-01  0.96512642917E-01  0.51100000000E-03 0.  1.
</event>
<event>
 8    1  0.1041149E+005  0.1043930E+01  0.7957747E-01            NaN
         13   -1    0    0    0    0  0.00000000000E+00  0.00000000000E+00  0.74505805969E-08  0.10566000000E+00  0.10566000000E+00 0.  1.
     999900   -1    0    0    0    0 -0.00000000000E+00 -0.00000000000E+00 -0.74505805969E-08  0.93827000000E+00  0.93827000000E+00 0. -1.
     999902    2    1    2    0    0 -0.13042426564E-01  0.19405518327E-01 -0.95998948099E-03  0.10205291322E+01  0.10202608045E+01 0.  0.
     999903    2    3    3    0    0  0.11536057387E+00  0.51815491133E-01 -0.23489396804E-01  0.13033515840E+00  0.21037933107E-01 0.  0.
         14    1    1    2    0    0  0.13042426564E-01 -0.19405518327E-01  0.95998948099E-03  0.23400867762E-01  0.00000000000E+00 0. -1.
     999901    1    3    3    0    0 -0.12840300043E+00 -0.32409972807E-01  0.22529407323E-01  0.89019397383E+00  0.88000000000E+00 0.  1.
        -11    1    4    4    0    0  0.55354849247E-01  0.24450262688E-01 -0.58842673407E-03  0.60519270053E-01  0.51100000000E-03 0.  1.
         11    1    4    4    0    0  0.60005724620E-01  0.27365228445E-01 -0.22900970070E-01  0.69815888350E-01  0.51100000000E-03 0. -1.
</event>
<event>
 8    1  0.1041149E+005  0.1043930E+01  0.7957747E-01            NaN
         13   -1    0    0    0    0  0.00000000000E+00  0.00000000000E+00  0.74505805969E-08  0.10566000000E+00  0.10566000000E+00 0.  1.
     999900   -1    0    0    0    0 -0.00000000000E+00 -0.00000000000E+00 -0.74505805969E-08  0.93827000000E+00  0.93827000000E+00 0. -1.
     999902    2    1    2    0    0  0.15461823790E-01 -0.87628574785E-02  0.16596374434E-01  0.10196134355E+01  0.10193234337E+01 0.  0.
     999903    2    3    3    0    0 -0.85672455101E-01 -0.71040176990E-01  0.64757335608E-01  0.13032940600E+00  0.20143615448E-01 0.  0.
         14    1    1    2    0    0 -0.15461823790E-01  0.87628574785E-02 -0.16596374434E-01  0.24316564528E-01  0.00000000000E+00 0.  1.
     999901    1    3    3    0    0  0.10113427889E+00  0.62277319511E-01 -0.48160961174E-01  0.88928402947E+00  0.88000000000E+00 0. -1.
        -11    1    4    4    0    0 -0.21471755172E-01 -0.79335726220E-02  0.16165506564E-01  0.28027889114E-01  0.51100000000E-03 0. -1.
         11    1    4    4    0    0 -0.64200699930E-01 -0.63106604368E-01  0.48591829044E-01  0.10230151689E+00  0.51100000000E-03 0.  1.
</event>
<event>
 8    1  0.1041149E+005  0.1043930E+01  0.7957747E-01            NaN
         13   -1    0    0    0    0  0.00000000000E+00  0.00000000000E+00  0.74505805969E-08  0.10566000000E+00  0.10566000000E+00 0.  1.
     999900   -1    0    0    0    0 -0.00000000000E+00 -0.00000000000E+00 -0.74505805969E-08  0.93827000000E+00  0.93827000000E+00 0. -1.
     999902    2    1    2    0    0 -0.13836000724E-01  0.25090192235E-02 -0.18932363649E-01  0.10203468601E+01  0.10200742867E+01 0.  0.
     999903    2    3    3    0    0  0.42652049151E-01  0.72833259356E-01  0.94678369237E-01  0.12847030074E+00  0.20414299079E-01 0.  0.
         14    1    1    2    0    0  0.13836000724E-01 -0.25090192235E-02  0.18932363649E-01  0.23583139885E-01  0.00000000000E+00 0. -1.
     999901    1    3    3    0    0 -0.56488049874E-01 -0.70324240132E-01 -0.11361073289E+00  0.89187655937E+00  0.88000000000E+00 0. -1.
        -11    1    4    4    0    0  0.26463900357E-01  0.46149491206E-01  0.44419662933E-01  0.69307150690E-01  0.51100000000E-03 0.  1.
         11    1    4    4    0    0  0.16188148793E-01  0.26683768150E-01  0.50258706304E-01  0.59163150054E-01  0.51100000000E-03 0. -1.
</event>
<event>
 8    1  0.1041149E+005  0.1043930E+01  0.7957747E-01            NaN
         13   -1    0    0    0    0  0.00000000000E+00  0.00000000000E+00  0.74505805969E-08  0.10566000000E+00  0.10566000000E+00 0.  1.
     999900   -1    0    0    0    0 -0.00000000000E+00 -0.00000000000E+00 -0.74505805969E-08  0.93827000000E+00  0.93827000000E+00 0.  1.
     999902    2    1    2    0    0 -0.17920880671E-01 -0.10702634042E-01  0.28304034490E-02  0.10228654439E+01  0.10226485226E+01 0.  0.
     999903    2    3    3    0    0 -0.98108481149E-01 -0.85991090288E-01  0.30725368898E-01  0.13557939533E+00  0.20444619380E-01 0.  0.
         14    1    1    2    0    0  0.17920880671E-01  0.10702634042E-01 -0.28304034490E-02  0.21064556087E-01  0.00000000000E+00 0. -1.
     999901    1    3    3    0    0  0.80187600478E-01  0.75288456246E-01 -0.27894965449E-01  0.88728604858E+00  0.88000000000E+00 0.  1.
        -11    1    4    4    0    0 -0.35589667732E-01 -0.19068276895E-01  0.71124095068E-02  0.41000867345E-01  0.51100000000E-03 0.  1.
         11    1    4    4    0    0 -0.62518813417E-01 -0.66922813393E-01  0.23612959391E-01  0.94578527985E-01  0.51100000000E-03 0. -1.
</event>
<event>
 8    1  0.1041149E+005  0.1043930E+01  0.7957747E-01            NaN
         13   -1    0    0    0    0  0.00000000000E+00  0.00000000000E+00  0.74505805969E-08  0.10566000000E+00  0.10566000000E+00 0.  1.
     999900   -1    0    0    0    0 -0.00000000000E+00 -0.00000000000E+00 -0.74505805969E-08  0.93827000000E+00  0.93827000000E+00 0.  1.
     999902    2    1    2    0    0 -0.51328778292E-02 -0.22689418983E-01  0.33218088099E-02  0.10204312642E+01  0.10201606611E+01 0.  0.
     999903    2    3    3    0    0 -0.15354116405E-01  0.74991149784E-01 -0.10231341887E+00  0.12868871812E+00  0.15275112260E-01 0.  0.
         14    1    1    2    0    0  0.51328778292E-02  0.22689418983E-01 -0.33218088099E-02  0.23498735761E-01  0.00000000000E+00 0. -1.
     999901    1    3    3    0    0  0.10221238576E-01 -0.97680568768E-01  0.10563522768E+00  0.89174254612E+00  0.88000000000E+00 0. -1.
        -11    1    4    4    0    0 -0.10950261883E-01  0.62307861142E-01 -0.74057016892E-01  0.97400619440E-01  0.51100000000E-03 0.  1.
         11    1    4    4    0    0 -0.44038545223E-02  0.12683288643E-01 -0.28256401974E-01  0.31288098679E-01  0.51100000000E-03 0. -1.
</event>
<event>
 8    1  0.1041149E+005  0.1043930E+01  0.7957747E-01            NaN
         13   -1    0    0    0    0  0.00000000000E+00  0.00000000000E+00  0.74505805969E-08  0.10566000000E+00  0.10566000000E+00 0. -1.
     999900   -1    0    0    0    0 -0.00000000000E+00 -0.00000000000E+00 -0.74505805969E-08  0.93827000000E+00  0.93827000000E+00 0.  1.
     999902    2    1    2    0    0 -0.92462715492E-02  0.19378685070E-01 -0.11879536928E-01  0.10193912476E+01  0.10190958568E+01 0.  0.
     999903    2    3    3    0    0  0.81971633194E-01 -0.71869122725E-01 -0.65007363107E-01  0.12839773779E+00  0.19377883327E-01 0.  0.
         14    1    1    2    0    0  0.92462715492E-02 -0.19378685070E-01  0.11879536928E-01  0.24538752418E-01  0.00000000000E+00 0. -1.
     999901    1    3    3    0    0 -0.91217904744E-01  0.91247807795E-01  0.53127826179E-01  0.89099350979E+00  0.88000000000E+00 0. -1.
        -11    1    4    4    0    0  0.21380770313E-01 -0.30116961390E-01 -0.25421000410E-01  0.44840351085E-01  0.51100000000E-03 0.  1.
         11    1    4    4    0    0  0.60590862881E-01 -0.41752161335E-01 -0.39586362696E-01  0.83557386707E-01  0.51100000000E-03 0. -1.
</event>
<event>
 8    1  0.1041149E+005  0.1043930E+01  0.7957747E-01            NaN
         13   -1    0    0    0    0  0.00000000000E+00  0.00000000000E+00  0.74505805969E-08  0.10566000000E+00  0.10566000000E+00 0. -1.
     999900   -1    0    0    0    0 -0.00000000000E+00 -0.00000000000E+00 -0.74505805969E-08  0.93827000000E+00  0.93827000000E+00 0. -1.
     999902    2    1    2    0    0  0.22669071602E-01  0.80504189934E-03  0.62159339530E-02  0.10204103755E+01  0.10201392855E+01 0.  0.
     999903    2    3    3    0    0 -0.18937982714E-01  0.12644153503E+00 -0.14701117107E-01  0.13026814061E+00  0.20188032193E-01 0.  0.
         14    1    1    2    0    0 -0.22669071602E-01 -0.80504189934E-03 -0.62159339530E-02  0.23519624459E-01  0.00000000000E+00 0. -1.
     999901    1    3    3    0    0  0.41607054316E-01 -0.12563649313E+00  0.20917051060E-01  0.89014223493E+00  0.88000000000E+00 0.  1.
        -11    1    4    4    0    0 -0.12131203066E-01  0.35365146017E-01  0.19004978097E-02  0.37439720265E-01  0.51100000000E-03 0. -1.
         11    1    4    4    0    0 -0.68067796474E-02  0.91076389017E-01 -0.16601614916E-01  0.92828420349E-01  0.51100000000E-03 0.  1.
</event>
<event>
 8    1  0.1041149E+005  0.1043930E+01  0.7957747E-01            NaN
         13   -1    0    0    0    0  0.00000000000E+00  0.00000000000E+00  0.74505805969E-08  0.10566000000E+00  0.10566000000E+00 0.  1.
     999900   -1    0    0    0    0 -0.00000000000E+00 -0.00000000000E+00 -0.74505805969E-08  0.93827000000E+00  0.93827000000E+00 0.  1.
     999902    2    1    2    0    0 -0.15852990087E-01  0.10432585125E-01 -0.12669549560E-01  0.10211117263E+01  0.10208567402E+01 0.  0.
     999903    2    3    3    0    0 -0.98548880489E-01  0.63846640150E-01  0.58170657582E-01  0.13279308614E+00  0.21491929169E-01 0.  0.
         14    1    1    2    0    0  0.15852990087E-01 -0.10432585125E-01  0.12669549560E-01  0.22818273667E-01  0.00000000000E+00 0.  1.
     999901    1    3    3    0    0  0.82695890402E-01 -0.53414055025E-01 -0.70840207142E-01  0.88831864019E+00  0.88000000000E+00 0.  1.
        -11    1    4    4    0    0 -0.80471217454E-01  0.61180822790E-01  0.48828372894E-01  0.11226389017E+00  0.51100000000E-03 0.  1.
         11    1    4    4    0    0 -0.18077663035E-01  0.26658173593E-02  0.93422846884E-02  0.20529195971E-01  0.51100000000E-03 0. -1.
</event>
<event>
 8    1  0.1041149E+005  0.1043930E+01  0.7957747E-01            NaN
         13   -1    0    0    0    0  0.00000000000E+00  0.00000000000E+00  0.74505805969E-08  0.10566000000E+00  0.10566000000E+00 0. -1.
     999900   -1    0    0    0    0 -0.00000000000E+00 -0.00000000000E+00 -0.74505805969E-08  0.93827000000E+00  0.93827000000E+00 0.  1.
     999902    2    1    2    0    0  0.23674462039E-01  0.13514383053E-02  0.13887540729E-01  0.10164496375E+01  0.10160780950E+01 0.  0.
     999903    2    3    3    0    0 -0.17804576624E-01 -0.55409906141E-01 -0.10898086322E+00  0.12513655802E+00  0.19876341642E-01 0.  0.
         14    1    1    2    0    0 -0.23674462039E-01 -0.13514383053E-02 -0.13887540729E-01  0.27480362549E-01  0.00000000000E+00 0.  1.
     999901    1    3    3    0    0  0.41479038663E-01  0.56761344446E-01  0.12286840395E+00  0.89131307943E+00  0.88000000000E+00 0. -1.
        -11    1    4    4    0    0 -0.56935021513E-02 -0.21565747154E-01 -0.23499628234E-01  0.32403565625E-01  0.51100000000E-03 0.  1.
         11    1    4    4    0    0 -0.12111074473E-01 -0.33844158987E-01 -0.85481234990E-01  0.92732992397E-01  0.51100000000E-03 0. -1.
</event>
<event>
 8    1  0.1041149E+005  0.1043930E+01  0.7957747E-01            NaN
         13   -1    0    0    0    0  0.00000000000E+00  0.00000000000E+00  0.74505805969E-08  0.10566000000E+00  0.10566000000E+00 0. -1.
     999900   -1    0    0    0    0 -0.00000000000E+00 -0.00000000000E+00 -0.74505805969E-08  0.93827000000E+00  0.93827000000E+00 0. -1.
     999902    2    1    2    0    0 -0.75140049958E-02 -0.22054012877E-01  0.50230905642E-02  0.10200957559E+01  0.10198172777E+01 0.  0.
     999903    2    3    3    0    0 -0.21619775716E-01 -0.93583987982E-01  0.89934303523E-01  0.13300758426E+00  0.19428355853E-01 0.  0.
         14    1    1    2    0    0  0.75140049958E-02  0.22054012877E-01 -0.50230905642E-02  0.23834244143E-01  0.00000000000E+00 0.  1.
     999901    1    3    3    0    0  0.14105770720E-01  0.71529975105E-01 -0.84911212959E-01  0.88708817160E+00  0.88000000000E+00 0. -1.
        -11    1    4    4    0    0 -0.79168992407E-02 -0.19852361282E-01  0.30848160599E-01  0.37532168541E-01  0.51100000000E-03 0. -1.
         11    1    4    4    0    0 -0.13702876476E-01 -0.73731626700E-01  0.59086142924E-01  0.95475415716E-01  0.51100000000E-03 0.  1.
</event>
<event>
 8    1  0.1041149E+005  0.1043930E+01  0.7957747E-01            NaN
         13   -1    0    0    0    0  0.00000000000E+00  0.00000000000E+00  0.74505805969E-08  0.10566000000E+00  0.10566000000E+00 0. -1.
     999900   -1    0    0    0    0 -0.00000000000E+00 -0.00000000000E+00 -0.74505805969E-08  0.93827000000E+00  0.93827000000E+00 0.  1.
     999902    2    1    2    0    0 -0.13462561218E-01 -0.14567040938E-02 -0.19617145402E-01  0.10200931601E+01  0.10198146206E+01 0.  0.
     999903    2    3    3    0    0  0.80967228124E-01  0.21007012090E-01 -0.98977105084E-01  0.13120643683E+00  0.20534730268E-01 0.  0.
         14    1    1    2    0    0  0.13462561218E-01  0.14567040938E-02  0.19617145402E-01  0.23836839872E-01  0.00000000000E+00 0. -1.
     999901    1    3    3    0    0 -0.94429789342E-01 -0.22463716183E-01  0.79359959682E-01  0.88888672330E+00  0.88000000000E+00 0. -1.
        -11    1    4    4    0    0  0.63253810021E-01  0.17501521098E-01 -0.63134387584E-01  0.91068983411E-01  0.51100000000E-03 0. -1.
         11    1    4    4    0    0  0.17713418103E-01  0.35054909913E-02 -0.35842717500E-01  0.40137453416E-01  0.51100000000E-03 0.  1.
</event>
<event>
 8    1  0.1041149E+005  0.1043930E+01  0.7957747E-01            NaN
         13   -1    0    0    0    0  0.00000000000E+00  0.00000000000E+00  0.74505805969E-08  0.10566000000E+00  0.10566000000E+00 0. -1.
     999900   -1    0    0    0    0 -0.00000000000E+00 -0.00000000000E+00 -0.74505805969E-08  0.93827000000E+00  0.93827000000E+00 0. -1.
     999902    2    1    2    0    0 -0.16934721040E-01 -0.13522308447E-01 -0.93986055994E-02  0.10203085820E+01  0.10200351127E+01 0.  0.
     999903    2    3    3    0    0  0.55453883859E-01 -0.10487593842E+00 -0.53141946406E-01  0.13154591641E+00  0.20153559538E-01 0.  0.
         14    1    1    2    0    0  0.16934721040E-01  0.13522308447E-01  0.93986055994E-02  0.23621418028E-01  0.00000000000E+00 0. -1.
     999901    1    3    3    0    0 -0.72388604899E-01  0.91353629974E-01  0.43743340807E-01  0.88876266556E+00  0.88000000000E+00 0.  1.
        -11    1    4    4    0    0  0.49905724562E-01 -0.85865731943E-01 -0.50927604897E-01  0.11161266652E+00  0.51100000000E-03 0.  1.
         11    1    4    4    0    0  0.55481592972E-02 -0.19010206478E-01 -0.22143415088E-02  0.19933249892E-01  0.51100000000E-03 0. -1.
</event>
<event>
 8    1  0.1041149E+005  0.1043930E+01  0.7957747E-01            NaN
         13   -1    0    0    0    0  0.00000000000E+00  0.00000000000E+00  0.74505805969E-08  0.10566000000E+00  0.10566000000E+00 0.  1.
     999900   -1    0    0    0    0 -0.00000000000E+00 -0.00000000000E+00 -0.74505805969E-08  0.93827000000E+00  0.93827000000E+00 0.  1.
     999902    2    1    2    0    0  0.65795325473E-03 -0.12595418879E-01 -0.18813078144E-01  0.10212802894E+01  0.10210290986E+01 0.  0.
     999903    2    3    3    0    0  0.38405030605E-01 -0.40048476421E-01 -0.12058225987E+00  0.13418645079E+00  0.19674738660E-01 0.  0.
         14    1    1    2    0    0 -0.65795325473E-03  0.12595418879E-01  0.18813078144E-01  0.22649710560E-01  0.00000000000E+00 0. -1.
     999901    1    3    3    0    0 -0.37747077350E-01  0.27453057542E-01  0.10176918173E+00  0.88709383865E+00  0.88000000000E+00 0. -1.
        -11    1    4    4    0    0  0.27526754764E-01 -0.14651736892E-01 -0.66727493050E-01  0.73656059299E-01  0.51100000000E-03 0. -1.
         11    1    4    4    0    0  0.10878275841E-01 -0.25396739530E-01 -0.53854766821E-01  0.60530391493E-01  0.51100000000E-03 0.  1.
</event>
<event>
 8    1  0.1041149E+005  0.1043930E+01  0.7957747E-01            NaN
         13   -1    0    0    0    0  0.00000000000E+00  0.00000000000E+00  0.74505805969E-08  0.10566000000E+00  0.10566000000E+00 0. -1.
     999900   -1    0    0    0    0 -0.00000000000E+00 -0.00000000000E+00 -0.74505805969E-08  0.93827000000E+00  0.93827000000E+00 0.  1.
     999902    2    1    2    0    0 -0.18645013784E-01 -0.16767118819E-01  0.32513072140E-02  0.10186447511E+01  0.10183308820E+01 0.  0.
     999903    2    3    3    0    0  0.81503819977E-01  0.10997185675E-01 -0.94853186985E-01  0.12711508964E+00  0.19932590645E-01 0.  0.
         14    1    1    2    0    0  0.18645013784E-01  0.16767118819E-01 -0.32513072140E-02  0.25285248883E-01  0.00000000000E+00 0.  1.
     999901    1    3    3    0    0 -0.10014883376E+00 -0.27764304494E-01  0.98104494199E-01  0.89152966147E+00  0.88000000000E+00 0. -1.
        -11    1    4    4    0    0  0.26837539064E-01 -0.56753375014E-02 -0.32441282982E-01  0.42487185377E-01  0.51100000000E-03 0.  1.
         11    1    4    4    0    0  0.54666280913E-01  0.16672523177E-01 -0.62411904003E-01  0.84627904264E-01  0.51100000000E-03 0. -1.
</event>
<event>
 8    1  0.1041149E+005  0.1043930E+01  0.7957747E-01            NaN
         13   -1    0    0    0    0  0.00000000000E+00  0.00000000000E+00  0.74505805969E-08  0.10566000000E+00  0.10566000000E+00 0.  1.
     999900   -1    0    0    0    0 -0.00000000000E+00 -0.00000000000E+00 -0.74505805969E-08  0.93827000000E+00  0.93827000000E+00 0. -1.
     999902    2    1    2    0    0  0.82027715912E-02 -0.43559889058E-03  0.23396251224E-01  0.10191336337E+01  0.10188319310E+01 0.  0.
     999903    2    3    3    0    0  0.88155560233E-01 -0.10909121319E-01  0.96405969646E-01  0.13243607422E+00  0.18835897722E-01 0.  0.
         14    1    1    2    0    0 -0.82027715912E-02  0.43559889058E-03 -0.23396251224E-01  0.24796366256E-01  0.00000000000E+00 0. -1.
     999901    1    3    3    0    0 -0.79952788642E-01  0.10473522429E-01 -0.73009718422E-01  0.88669755953E+00  0.88000000000E+00 0. -1.
        -11    1    4    4    0    0  0.14637948688E-01  0.81394916296E-03  0.26617386486E-01  0.30392078563E-01  0.51100000000E-03 0. -1.
         11    1    4    4    0    0  0.73517611545E-01 -0.11723070482E-01  0.69788583160E-01  0.10204399566E+00  0.51100000000E-03 0.  1.
</event>
<event>
 8    1  0.1041149E+005  0.1043930E+01  0.7957747E-01            NaN
         13   -1    0    0    0    0  0.00000000000E+00  0.00000000000E+00  0.74505805969E-08  0.10566000000E+00  0.10566000000E+00 0.  1.
     999900   -1    0    0    0    0 -0.00000000000E+00 -0.00000000000E+00 -0.74505805969E-08  0.93827000000E+00  0.93827000000E+00 0. -1.
     999902    2    1    2    0    0  0.32966245977E-02 -0.24058944976E-01 -0.64289638871E-03  0.10196377403E+01  0.10193483249E+01 0.  0.
     999903    2    3    3    0    0 -0.10062946844E+00 -0.42975095600E-01  0.68134334967E-01  0.13065587256E+00  0.21342930224E-01 0.  0.
         14    1    1    2    0    0 -0.32966245977E-02  0.24058944976E-01  0.64289638871E-03  0.24292259732E-01  0.00000000000E+00 0. -1.
     999901    1    3    3    0    0  0.10392609304E+00  0.18916150624E-01 -0.68777231355E-01  0.88898186771E+00  0.88000000000E+00 0. -1.
        -11    1    4    4    0    0 -0.66068394381E-01 -0.17268657719E-01  0.38836467533E-01  0.78560623769E-01  0.51100000000E-03 0. -1.
         11    1    4    4    0    0 -0.34561074063E-01 -0.25706437881E-01  0.29297867433E-01  0.52095248786E-01  0.51100000000E-03 0.  1.
</event>
<event>
 7    1  0.1041149E+005  0.1043930E+01  0.7957747E-01            NaN
         13   -1    0    0    0    0  0.00000000000E+00  0.00000000000E+00  0.74505805969E-08  0.10566000000E+00  0.10566000000E+00 0. -1.
     999900   -1    0    0    0    0 -0.00000000000E+00 -0.00000000000E+00 -0.74505805969E-08  0.93827000000E+00  0.93827000000E+00 0. -1.
     999903    2    1    2    0    0 -0.20621137525E-01 -0.10640039345E+00 -0.13468499803E-01  0.11106860930E+00  0.20212878249E-01 0.  0.
         14    1    1    2    0    0 -0.33661102118E-01 -0.16106656106E-01 -0.19508218885E-01  0.42107775657E-01  0.00000000000E+00 0. -1.
     999901    1    1    2    0    0  0.54282239643E-01  0.12250704955E+00  0.32976718688E-01  0.89075361504E+00  0.88000000000E+00 0.  1.
        -11    1    3    3    0    0 -0.15778506220E-01 -0.41641771210E-01 -0.11950734443E-01  0.46109430086E-01  0.51100000000E-03 0. -1.
         11    1    3    3    0    0 -0.48426313043E-02 -0.64758622237E-01 -0.15177653599E-02  0.64959179218E-01  0.51100000000E-03 0.  1.
</event>
<event>
 8    1  0.1041149E+005  0.1043930E+01  0.7957747E-01            NaN
         13   -1    0    0    0    0  0.00000000000E+00  0.00000000000E+00  0.74505805969E-08  0.10566000000E+00  0.10566000000E+00 0. -1.
     999900   -1    0    0    0    0 -0.00000000000E+00 -0.00000000000E+00 -0.74505805969E-08  0.93827000000E+00  0.93827000000E+00 0. -1.
     999902    2    1    2    0    0  0.23137515569E-01  0.31966749837E-02  0.54729913602E-02  0.10199400648E+01  0.10196578930E+01 0.  0.
     999903    2    3    3    0    0  0.78234856931E-01  0.10103768777E+00 -0.25392504922E-01  0.13226824498E+00  0.22821089687E-01 0.  0.
         14    1    1    2    0    0 -0.23137515569E-01 -0.31966749837E-02 -0.54729913602E-02  0.23989935224E-01  0.00000000000E+00 0.  1.
     999901    1    3    3    0    0 -0.55097341362E-01 -0.97841012782E-01  0.30865496283E-01  0.88767181980E+00  0.88000000000E+00 0.  1.
        -11    1    4    4    0    0  0.28354716150E-01  0.24544667863E-01 -0.86111171105E-04  0.37505988649E-01  0.51100000000E-03 0. -1.
         11    1    4    4    0    0  0.49880140781E-01  0.76493019903E-01 -0.25306393751E-01  0.94762256326E-01  0.51100000000E-03 0.  1.
</event>
<event>
 8    1  0.1041149E+005  0.1043930E+01  0.7957747E-01            NaN
         13   -1    0    0    0    0  0.00000000000E+00  0.00000000000E+00  0.74505805969E-08  0.10566000000E+00  0.10566000000E+00 0. -1.
     999900   -1    0    0    0    0 -0.00000000000E+00 -0.00000000000E+00 -0.74505805969E-08  0.93827000000E+00  0.93827000000E+00 0. -1.
     999902    2    1    2    0    0  0.61934007445E-02 -0.16742778132E-01  0.14763975629E-01  0.10207642104E+01  0.10205013079E+01 0.  0.
     999903    2    3    3    0    0  0.12460659762E+00  0.14336192577E-01  0.35946016101E-01  0.13203688074E+00  0.20230946902E-01 0.  0.
         14    1    1    2    0    0 -0.61934007445E-02  0.16742778132E-01 -0.14763975629E-01  0.23165789620E-01  0.00000000000E+00 0.  1.
     999901    1    3    3    0    0 -0.11841319688E+00 -0.31078970709E-01 -0.21182040472E-01  0.88872732964E+00  0.88000000000E+00 0. -1.
        -11    1    4    4    0    0  0.10628156416E+00  0.71000918684E-02  0.35646704989E-01  0.11232600270E+00  0.51100000000E-03 0.  1.
         11    1    4    4    0    0  0.18325033467E-01  0.72361007090E-02  0.29931111185E-03  0.19710878041E-01  0.51100000000E-03 0. -1.
</event>
<event>
 8    1  0.1041149E+005  0.1043930E+01  0.7957747E-01            NaN
         13   -1    0    0    0    0  0.00000000000E+00  0.00000000000E+00  0.74505805969E-08  0.10566000000E+00  0.10566000000E+00 0. -1.
     999900   -1    0    0    0    0 -0.00000000000E+00 -0.00000000000E+00 -0.74505805969E-08  0.93827000000E+00  0.93827000000E+00 0. -1.
     999902    2    1    2    0    0  0.13761960081E-01 -0.30910267215E-02 -0.17957840363E-01  0.10210951577E+01  0.10208397970E+01 0.  0.
     999903    2    3    3    0    0 -0.18957234423E-01 -0.12716819166E+00 -0.50136758013E-02  0.13169466304E+00  0.28057469974E-01 0.  0.
         14    1    1    2    0    0 -0.13761960081E-01  0.30910267215E-02  0.17957840363E-01  0.22834842280E-01  0.00000000000E+00 0.  1.
     999901    1    3    3    0    0  0.32719194504E-01  0.12407716493E+00 -0.12944164561E-01  0.88940049468E+00  0.88000000000E+00 0. -1.
        -11    1    4    4    0    0 -0.85627982114E-02 -0.28039505718E-01 -0.12207502128E-01  0.31761920964E-01  0.51100000000E-03 0. -1.
         11    1    4    4    0    0 -0.10394436212E-01 -0.99128685938E-01  0.71938263270E-02  0.99932742072E-01  0.51100000000E-03 0.  1.
</event>
<event>
 8    1  0.1041149E+005  0.1043930E+01  0.7957747E-01            NaN
         13   -1    0    0    0    0  0.00000000000E+00  0.00000000000E+00  0.74505805969E-08  0.10566000000E+00  0.10566000000E+00 0. -1.
     999900   -1    0    0    0    0 -0.00000000000E+00 -0.00000000000E+00 -0.74505805969E-08  0.93827000000E+00  0.93827000000E+00 0.  1.
     999902    2    1    2    0    0 -0.98798857070E-02  0.13125849800E-01  0.13651474872E-01  0.10225696901E+01  0.10223465695E+01 0.  0.
     999903    2    3    3    0    0  0.12132103718E+00 -0.21080842739E-01 -0.38935549932E-01  0.13063405608E+00  0.19649009321E-01 0.  0.
         14    1    1    2    0    0  0.98798857070E-02 -0.13125849800E-01 -0.13651474872E-01  0.21360309940E-01  0.00000000000E+00 0.  1.
     999901    1    3    3    0    0 -0.13120092289E+00  0.34206692539E-01  0.52587024804E-01  0.89193563398E+00  0.88000000000E+00 0.  1.
        -11    1    4    4    0    0  0.48368655860E-01 -0.13796185296E-01 -0.24333959894E-01  0.55877225446E-01  0.51100000000E-03 0. -1.
         11    1    4    4    0    0  0.72952381319E-01 -0.72846574428E-02 -0.14601590038E-01  0.74756830637E-01  0.51100000000E-03 0.  1.
</event>
<event>
 8    1  0.1041149E+005  0.1043930E+01  0.7957747E-01            NaN
         13   -1    0    0    0    0  0.00000000000E+00  0.00000000000E+00  0.74505805969E-08  0.10566000000E+00  0.10566000000E+00 0. -1.
     999900   -1    0    0    0    0 -0.00000000000E+00 -0.00000000000E+00 -0.74505805969E-08  0.93827000000E+00  0.93827000000E+00 0. -1.
     999902    2    1    2    0    0  0.76332845130E-02 -0.10690212721E-01 -0.19937062523E-01  0.10200546122E+01  0.10197751604E+01 0.  0.
     999903    2    3    3    0    0  0.58857528143E-01 -0.58082413745E-01  0.97699434340E-01  0.12948833772E+00  0.19602926544E-01 0.  0.
         14    1    1    2    0    0 -0.76332845130E-02  0.10690212721E-01  0.19937062523E-01  0.23875387798E-01  0.00000000000E+00 0. -1.
     999901    1    3    3    0    0 -0.51224243630E-01  0.47392201025E-01 -0.11763649686E+00  0.89056627448E+00  0.88000000000E+00 0. -1.
        -11    1    4    4    0    0  0.23253550279E-01 -0.24032086843E-01  0.25391803789E-01  0.41991351720E-01  0.51100000000E-03 0. -1.
         11    1    4    4    0    0  0.35603977864E-01 -0.34050326902E-01  0.72307630551E-01  0.87496985998E-01  0.51100000000E-03 0.  1.
</event>
<event>
 8    1  0.1041149E+005  0.1043930E+01  0.7957747E-01            NaN
         13   -1    0    0    0    0  0.00000000000E+00  0.00000000000E+00  0.74505805969E-08  0.10566000000E+00  0.10566000000E+00 0. -1.
     999900   -1    0    0    0    0 -0.00000000000E+00 -0.00000000000E+00 -0.74505805969E-08  0.93827000000E+00  0.93827000000E+00 0.  1.
     999902    2    1    2    0    0  0.27723919548E-01 -0.21003037892E-01 -0.12172709155E-01  0.10070800588E+01  0.10064056472E+01 0.  0.
     999903    2    3    3    0    0 -0.74963115035E-01 -0.84904442440E-01 -0.28463171810E-01  0.11865820197E+00  0.21009135731E-01 0.  0.
         14    1    1    2    0    0 -0.27723919548E-01  0.21003037892E-01  0.12172709155E-01  0.36849941166E-01  0.00000000000E+00 0. -1.
     999901    1    3    3    0    0  0.10268703458E+00  0.63901404548E-01  0.16290462656E-01  0.88842185686E+00  0.88000000000E+00 0. -1.
        -11    1    4    4    0    0 -0.55092175769E-01 -0.55330842295E-01 -0.28215679973E-01  0.83024307630E-01  0.51100000000E-03 0. -1.
         11    1    4    4    0    0 -0.19870939266E-01 -0.29573600145E-01 -0.24749183669E-03  0.35633894343E-01  0.51100000000E-03 0.  1.
</event>
<event>
 8    1  0.1041149E+005  0.1043930E+01  0.7957747E-01            NaN
         13   -1    0    0    0    0  0.00000000000E+00  0.00000000000E+00  0.74505805969E-08  0.10566000000E+00  0.10566000000E+00 0.  1.
     999900   -1    0    0    0    0 -0.00000000000E+00 -0.00000000000E+00 -0.74505805969E-08  0.93827000000E+00  0.93827000000E+00 0.  1.
     999902    2    1    2    0    0  0.19633920273E-01  0.11879630860E-01  0.35930470399E-02  0.10207022915E+01  0.10204379655E+01 0.  0.
     999903    2    3    3    0    0 -0.81051002260E-01 -0.10843579409E-01  0.98336573879E-01  0.12961860645E+00  0.21072569680E-01 0.  0.
         14    1    1    2    0    0 -0.19633920273E-01 -0.11879630860E-01 -0.35930470399E-02  0.23227708490E-01  0.00000000000E+00 0. -1.
     999901    1    3    3    0    0  0.10068492253E+00  0.22723210268E-01 -0.94743526839E-01  0.89108368506E+00  0.88000000000E+00 0.  1.
        -11    1    4    4    0    0 -0.76691066701E-01 -0.73226077443E-02  0.82819543362E-01  0.11311267913E+00  0.51100000000E-03 0.  1.
         11    1    4    4    0    0 -0.43599355588E-02 -0.35209716645E-02  0.15517030516E-01  0.16505927317E-01  0.51100000000E-03 0. -1.
</event>
<event>
 8    1  0.1041149E+005  0.1043930E+01  0.7957747E-01            NaN
         13   -1    0    0    0    0  0.00000000000E+00  0.00000000000E+00  0.74505805969E-08  0.10566000000E+00  0.10566000000E+00 0.  1.
     999900   -1    0    0    0    0 -0.00000000000E+00 -0.00000000000E+00 -0.74505805969E-08  0.93827000000E+00  0.93827000000E+00 0. -1.
     999902    2    1    2    0    0 -0.14227679286E-01 -0.58297202995E-02  0.15315920216E-01  0.10222276981E+01  0.10219972978E+01 0.  0.
     999903    2    3    3    0    0  0.76828529067E-01  0.30440876426E-01  0.10173045076E+00  0.13257930666E+00  0.19972934319E-01 0.  0.
         14    1    1    2    0    0  0.14227679286E-01  0.58297202995E-02 -0.15315920216E-01  0.21702301922E-01  0.00000000000E+00 0. -1.
     999901    1    3    3    0    0 -0.91056208353E-01 -0.36270596725E-01 -0.86414530547E-01  0.88964839142E+00  0.88000000000E+00 0. -1.
        -11    1    4    4    0    0  0.51333277840E-01  0.20681895619E-01  0.81845677359E-01  0.98801934412E-01  0.51100000000E-03 0. -1.
         11    1    4    4    0    0  0.25495251228E-01  0.97589808068E-02  0.19884773404E-01  0.33777372247E-01  0.51100000000E-03 0.  1.
</event>
<event>
 8    1  0.1041149E+005  0.1043930E+01  0.7957747E-01            NaN
         13   -1    0    0    0    0  0.00000000000E+00  0.00000000000E+00  0.74505805969E-08  0.10566000000E+00  0.10566000000E+00 0. -1.
     999900   -1    0    0    0    0 -0.00000000000E+00 -0.00000000000E+00 -0.74505805969E-08  0.93827000000E+00  0.93827000000E+00 0. -1.
     999902    2    1    2    0    0  0.93033734286E-02 -0.15856236623E-01  0.11431562482E-01  0.10222815909E+01  0.10220523457E+01 0.  0.
     999903    2    3    3    0    0 -0.32954175563E-01 -0.75387630856E-01 -0.10134072774E+00  0.13208651293E+00  0.20189879336E-01 0.  0.
         14    1    1    2    0    0 -0.93033734286E-02  0.15856236623E-01 -0.11431562482E-01  0.21648409128E-01  0.00000000000E+00 0.  1.
     999901    1    3    3    0    0  0.42257548992E-01  0.59531394233E-01  0.11277229022E+00  0.89019507794E+00  0.88000000000E+00 0.  1.
        -11    1    4    4    0    0 -0.24115196270E-01 -0.48469577743E-01 -0.80065923597E-01  0.96652242086E-01  0.51100000000E-03 0.  1.
         11    1    4    4    0    0 -0.88389792926E-02 -0.26918053113E-01 -0.21274804139E-01  0.35434270847E-01  0.51100000000E-03 0. -1.
</event>
<event>
 8    1  0.1041149E+005  0.1043930E+01  0.7957747E-01            NaN
         13   -1    0    0    0    0  0.00000000000E+00  0.00000000000E+00  0.74505805969E-08  0.10566000000E+00  0.10566000000E+00 0. -1.
     999900   -1    0    0    0    0 -0.00000000000E+00 -0.00000000000E+00 -0.74505805969E-08  0.93827000000E+00  0.93827000000E+00 0. -1.
     999902    2    1    2    0    0 -0.19942186741E-01 -0.12508677433E-01  0.14079423102E-02  0.10203473766E+01  0.10200748153E+01 0.  0.
     999903    2    3    3    0    0  0.90625863501E-01  0.57999419812E-01  0.66719248810E-01  0.12823625561E+00  0.20398511129E-01 0.  0.
         14    1    1    2    0    0  0.19942186741E-01  0.12508677433E-01 -0.14079423102E-02  0.23582623363E-01  0.00000000000E+00 0.  1.
     999901    1    3    3    0    0 -0.11056805024E+00 -0.70508097245E-01 -0.65311306500E-01  0.89211112103E+00  0.88000000000E+00 0. -1.
        -11    1    4    4    0    0  0.60297424143E-01  0.28934581613E-01  0.47531252531E-01  0.82051632888E-01  0.51100000000E-03 0.  1.
         11    1    4    4    0    0  0.30328439358E-01  0.29064838199E-01  0.19187996279E-01  0.46184622718E-01  0.51100000000E-03 0. -1.
</event>
<event>
 8    1  0.1041149E+005  0.1043930E+01  0.7957747E-01            NaN
         13   -1    0    0    0    0  0.00000000000E+00  0.00000000000E+00  0.74505805969E-08  0.10566000000E+00  0.10566000000E+00 0.  1.
     999900   -1    0    0    0    0 -0.00000000000E+00 -0.00000000000E+00 -0.74505805969E-08  0.93827000000E+00  0.93827000000E+00 0. -1.
     999902    2    1    2    0    0  0.37391499003E-02 -0.95523220684E-02  0.19814690079E-01  0.10216174465E+01  0.10213737597E+01 0.  0.
     999903    2    3    3    0    0  0.27966059823E-01 -0.77487604440E-01 -0.99267212875E-01  0.13067264165E+00  0.20854984531E-01 0.  0.
         14    1    1    2    0    0 -0.37391499003E-02  0.95523220684E-02 -0.19814690079E-01  0.22312553458E-01  0.00000000000E+00 0. -1.
     999901    1    3    3    0    0 -0.24226909922E-01  0.67935282371E-01  0.11908190295E+00  0.89094480489E+00  0.88000000000E+00 0.  1.
        -11    1    4    4    0    0  0.14202077728E-01 -0.18428162514E-01 -0.37330120790E-01  0.43989717260E-01  0.51100000000E-03 0.  1.
         11    1    4    4    0    0  0.13763982095E-01 -0.59059441926E-01 -0.61937092085E-01  0.86682924389E-01  0.51100000000E-03 0. -1.
</event>
<event>
 8    1  0.1041149E+005  0.1043930E+01  0.7957747E-01            NaN
         13   -1    0    0    0    0  0.00000000000E+00  0.00000000000E+00  0.74505805969E-08  0.10566000000E+00  0.10566000000E+00 0. -1.
     999900   -1    0    0    0    0 -0.00000000000E+00 -0.00000000000E+00 -0.74505805969E-08  0.93827000000E+00  0.93827000000E+00 0.  1.
     999902    2    1    2    0    0  0.79882414061E-02 -0.97701462918E-02 -0.18936299814E-01  0.10211736556E+01  0.10209200672E+01 0.  0.
     999903    2    3    3    0    0 -0.74149987834E-01  0.56165953129E-01 -0.90939633389E-01  0.13197247592E+00  0.22223467191E-01 0.  0.
         14    1    1    2    0    0 -0.79882414061E-02  0.97701462918E-02  0.18936299814E-01  0.22756344390E-01  0.00000000000E+00 0. -1.
     999901    1    3    3    0    0  0.82138229240E-01 -0.65936099421E-01  0.72003333574E-01  0.88920117969E+00  0.88000000000E+00 0. -1.
        -11    1    4    4    0    0 -0.31290122476E-01  0.12004221498E-01 -0.25299276091E-01  0.41993899438E-01  0.51100000000E-03 0. -1.
         11    1    4    4    0    0 -0.42859865358E-01  0.44161731632E-01 -0.65640357298E-01  0.89978576486E-01  0.51100000000E-03 0.  1.
</event>
<event>
 8    1  0.1041149E+005  0.1043930E+01  0.7957747E-01            NaN
         13   -1    0    0    0    0  0.00000000000E+00  0.00000000000E+00  0.74505805969E-08  0.10566000000E+00  0.10566000000E+00 0.  1.
     999900   -1    0    0    0    0 -0.00000000000E+00 -0.00000000000E+00 -0.74505805969E-08  0.93827000000E+00  0.93827000000E+00 0. -1.
     999902    2    1    2    0    0  0.82934161981E-02 -0.16312341334E-01  0.15865895257E-01  0.10197101762E+01  0.10194225050E+01 0.  0.
     999903    2    3    3    0    0 -0.68968500927E-01 -0.53690601394E-01  0.96709342465E-01  0.13184633467E+00  0.19784444583E-01 0.  0.
         14    1    1    2    0    0 -0.82934161981E-02  0.16312341334E-01 -0.15865895257E-01  0.24219823788E-01  0.00000000000E+00 0. -1.
     999901    1    3    3    0    0  0.77261917125E-01  0.37378260060E-01 -0.80843447208E-01  0.88786384154E+00  0.88000000000E+00 0. -1.
        -11    1    4    4    0    0 -0.67919056308E-01 -0.47118809730E-01  0.86495353166E-01  0.11964483976E+00  0.51100000000E-03 0.  1.
         11    1    4    4    0    0 -0.10494446183E-02 -0.65717916639E-02  0.10213989298E-01  0.12201494911E-01  0.51100000000E-03 0. -1.
</event>
<event>
 8    1  0.1041149E+005  0.1043930E+01  0.7957747E-01            NaN
         13   -1    0    0    0    0  0.00000000000E+00  0.00000000000E+00  0.74505805969E-08  0.10566000000E+00  0.10566000000E+00 0. -1.
     999900   -1    0    0    0    0 -0.00000000000E+00 -0.00000000000E+00 -0.74505805969E-08  0.93827000000E+00  0.93827000000E+00 0.  1.
     999902    2    1    2    0    0  0.69280918428E-02  0.94798335108E-02  0.20003864618E-01  0.10207347354E+01  0.10204711558E+01 0.  0.
     999903    2    3    3    0    0 -0.53438277529E-01  0.10118989153E+00  0.64485113273E-01  0.13279700404E+00  0.19536396695E-01 0.  0.
         14    1    1    2    0    0 -0.69280918428E-02 -0.94798335108E-02 -0.20003864618E-01  0.23195264595E-01  0.00000000000E+00 0.  1.
     999901    1    3    3    0    0  0.60366369372E-01 -0.91710058020E-01 -0.44481248655E-01  0.88793773136E+00  0.88000000000E+00 0. -1.
        -11    1    4    4    0    0 -0.91739916942E-02  0.11311041544E-01  0.19728727949E-02  0.14705615679E-01  0.51100000000E-03 0.  1.
         11    1    4    4    0    0 -0.44264285835E-01  0.89878849986E-01  0.62512240478E-01  0.11809138836E+00  0.51100000000E-03 0. -1.
</event>
<event>
 8    1  0.1041149E+005  0.1043930E+01  0.7957747E-01            NaN
         13   -1    0    0    0    0  0.00000000000E+00  0.00000000000E+00  0.74505805969E-08  0.10566000000E+00  0.10566000000E+00 0.  1.
     999900   -1    0    0    0    0 -0.00000000000E+00 -0.00000000000E+00 -0.74505805969E-08  0.93827000000E+00  0.93827000000E+00 0.  1.
     999902    2    1    2    0    0  0.15211960756E-02 -0.91480141947E-02 -0.21879211804E-01  0.10201665804E+01  0.10198897743E+01 0.  0.
     999903    2    3    3    0    0 -0.12974233419E-01 -0.12085986880E-01 -0.13062287120E+00  0.13334983913E+00  0.20135622782E-01 0.  0.
         14    1    1    2    0    0 -0.15211960756E-02  0.91480141947E-02  0.21879211804E-01  0.23763419585E-01  0.00000000000E+00 0.  1.
     999901    1    3    3    0    0  0.14495429494E-01  0.29379726848E-02  0.10874365939E+00  0.88681674128E+00  0.88000000000E+00 0. -1.
        -11    1    4    4    0    0 -0.97401044720E-02 -0.17013547653E-02 -0.10556728368E+00  0.10603054630E+00  0.51100000000E-03 0. -1.
         11    1    4    4    0    0 -0.32341289466E-02 -0.10384632114E-01 -0.25055587517E-01  0.27319292835E-01  0.51100000000E-03 0.  1.
</event>
<event>
 8    1  0.1041149E+005  0.1043930E+01  0.7957747E-01            NaN
         13   -1    0    0    0    0  0.00000000000E+00  0.00000000000E+00  0.74505805969E-08  0.10566000000E+00  0.10566000000E+00 0. -1.
     999900   -1    0    0    0    0 -0.00000000000E+00 -0.00000000000E+00 -0.74505805969E-08  0.93827000000E+00  0.93827000000E+00 0. -1.
     999902    2    1    2    0    0  0.22786264507E-01 -0.49633148861E-02  0.29520931191E-02  0.10204233371E+01  0.10201525493E+01 0.  0.
     999903    2    3    3    0    0 -0.10309251432E+00  0.72886557483E-01  0.67638687690E-02  0.12805536415E+00  0.20295556066E-01 0.  0.
         14    1    1    2    0    0 -0.22786264507E-01  0.49633148861E-02 -0.29520931191E-02  0.23506662856E-01  0.00000000000E+00 0.  1.
     999901    1    3    3    0    0  0.12587877883E+00 -0.77849872369E-01 -0.38117756500E-02  0.89236797299E+00  0.88000000000E+00 0. -1.
        -11    1    4    4    0    0 -0.40334091582E-01  0.26098971885E-01  0.12252023747E-01  0.49581937074E-01  0.51100000000E-03 0. -1.
         11    1    4    4    0    0 -0.62758422742E-01  0.46787585598E-01 -0.54881549784E-02  0.78473427078E-01  0.51100000000E-03 0.  1.
</event>
<event>
 8    1  0.1041149E+005  0.1043930E+01  0.7957747E-01            NaN
         13   -1    0    0    0    0  0.00000000000E+00  0.00000000000E+00  0.74505805969E-08  0.10566000000E+00  0.10566000000E+00 0. -1.
     999900   -1    0    0    0    0 -0.00000000000E+00 -0.00000000000E+00 -0.74505805969E-08  0.93827000000E+00  0.93827000000E+00 0. -1.
     999902    2    1    2    0    0 -0.16609139162E-01 -0.60719338262E-02 -0.15760141741E-01  0.10202421560E+01  0.10199671284E+01 0.  0.
     999903    2    3    3    0    0  0.30406196015E-01 -0.11959607073E+00 -0.40131264078E-01  0.13137089257E+00  0.20494783947E-01 0.  0.
         14    1    1    2    0    0  0.16609139162E-01  0.60719338262E-02  0.15760141741E-01  0.23687843966E-01  0.00000000000E+00 0. -1.
     999901    1    3    3    0    0 -0.47015335177E-01  0.11352413690E+00  0.24371122337E-01  0.88887126346E+00  0.88000000000E+00 0.  1.
        -11    1    4    4    0    0  0.25661392252E-01 -0.72266367475E-01 -0.32063184869E-01  0.83121861536E-01  0.51100000000E-03 0. -1.
         11    1    4    4    0    0  0.47448037634E-02 -0.47329703254E-01 -0.80680792093E-02  0.48249031037E-01  0.51100000000E-03 0.  1.
</event>
<event>
 8    1  0.1041149E+005  0.1043930E+01  0.7957747E-01            NaN
         13   -1    0    0    0    0  0.00000000000E+00  0.00000000000E+00  0.74505805969E-08  0.10566000000E+00  0.10566000000E+00 0.  1.
     999900   -1    0    0    0    0 -0.00000000000E+00 -0.00000000000E+00 -0.74505805969E-08  0.93827000000E+00  0.93827000000E+00 0.  1.
     999902    2    1    2    0    0  0.14272038237E-01 -0.10993146401E-01  0.13357290589E-01  0.10215032848E+01  0.10212570701E+01 0.  0.
     999903    2    3    3    0    0 -0.28505317339E-01 -0.77945024573E-01  0.10227405378E+00  0.13346125486E+00  0.21539370937E-01 0.  0.
         14    1    1    2    0    0 -0.14272038237E-01  0.10993146401E-01 -0.13357290589E-01  0.22426715210E-01  0.00000000000E+00 0. -1.
     999901    1    3    3    0    0  0.42777355576E-01  0.66951878172E-01 -0.88916763193E-01  0.88804202993E+00  0.88000000000E+00 0.  1.
        -11    1    4    4    0    0 -0.24705460212E-01 -0.63813012554E-01  0.95084561310E-01  0.11714860330E+00  0.51100000000E-03 0. -1.
         11    1    4    4    0    0 -0.37998571277E-02 -0.14132012019E-01  0.71894924717E-02  0.16312651559E-01  0.51100000000E-03 0.  1.
</event>
<event>
 8    1  0.1041149E+005  0.1043930E+01  0.7957747E-01            NaN
         13   -1    0    0    0    0  0.00000000000E+00  0.00000000000E+00  0.74505805969E-08  0.10566000000E+00  0.10566000000E+00 0. -1.
     999900   -1    0    0    0    0 -0.00000000000E+00 -0.00000000000E+00 -0.74505805969E-08  0.93827000000E+00  0.93827000000E+00 0. -1.
     999902    2    1    2    0    0  0.15612575653E-01  0.19635484948E-01 -0.22953891105E-02  0.10187392557E+01  0.10184277576E+01 0.  0.
     999903    2    3    3    0    0  0.83741666387E-01  0.54049792354E-01  0.83024768819E-01  0.13132421925E+00  0.20466840997E-01 0.  0.
         14    1    1    2    0    0 -0.15612575653E-01 -0.19635484948E-01  0.22953891105E-02  0.25190744309E-01  0.00000000000E+00 0. -1.
     999901    1    3    3    0    0 -0.68129090735E-01 -0.34414307406E-01 -0.85320157930E-01  0.88741503644E+00  0.88000000000E+00 0.  1.
        -11    1    4    4    0    0  0.35413527285E-01  0.20798332005E-01  0.21678279182E-01  0.46442409910E-01  0.51100000000E-03 0. -1.
         11    1    4    4    0    0  0.48328139102E-01  0.33251460350E-01  0.61346489637E-01  0.84881809337E-01  0.51100000000E-03 0.  1.
</event>
<event>
 8    1  0.1041149E+005  0.1043930E+01  0.7957747E-01            NaN
         13   -1    0    0    0    0  0.00000000000E+00  0.00000000000E+00  0.74505805969E-08  0.10566000000E+00  0.10566000000E+00 0. -1.
     999900   -1    0    0    0    0 -0.00000000000E+00 -0.00000000000E+00 -0.74505805969E-08  0.93827000000E+00  0.93827000000E+00 0. -1.
     999902    2    1    2    0    0 -0.22500084597E-01  0.35761648382E-02  0.12588162362E-01  0.10179010816E+01  0.10175682323E+01 0.  0.
     999903    2    3    3    0    0 -0.10058953700E+00 -0.77569246972E-01 -0.20676850474E-01  0.13010093431E+00  0.19065097260E-01 0.  0.
         14    1    1    2    0    0  0.22500084597E-01 -0.35761648382E-02 -0.12588162362E-01  0.26028918408E-01  0.00000000000E+00 0. -1.
     999901    1    3    3    0    0  0.78089452402E-01  0.81145411810E-01  0.33265012836E-01  0.88780014728E+00  0.88000000000E+00 0.  1.
        -11    1    4    4    0    0 -0.87944139924E-01 -0.68037870631E-01 -0.24374124961E-01  0.11383181750E+00  0.51100000000E-03 0.  1.
         11    1    4    4    0    0 -0.12645397076E-01 -0.95313763406E-02  0.36972744867E-02  0.16269116810E-01  0.51100000000E-03 0. -1.
</event>
<event>
 8    1  0.1041149E+005  0.1043930E+01  0.7957747E-01            NaN
         13   -1    0    0    0    0  0.00000000000E+00  0.00000000000E+00  0.74505805969E-08  0.10566000000E+00  0.10566000000E+00 0. -1.
     999900   -1    0    0    0    0 -0.00000000000E+00 -0.00000000000E+00 -0.74505805969E-08  0.93827000000E+00  0.93827000000E+00 0.  1.
     999902    2    1    2    0    0  0.72542234443E-02  0.28692553502E-02 -0.21644181322E-01  0.10209228931E+01  0.10206636207E+01 0.  0.
     999903    2    3    3    0    0  0.83359001047E-01 -0.32747866077E-02 -0.10300482314E+00  0.13387766285E+00  0.18809246040E-01 0.  0.
         14    1    1    2    0    0 -0.72542234443E-02 -0.28692553502E-02  0.21644181322E-01  0.23007106927E-01  0.00000000000E+00 0. -1.
     999901    1    3    3    0    0 -0.76104777603E-01  0.61440419579E-02  0.81360641821E-01  0.88704523022E+00  0.88000000000E+00 0. -1.
        -11    1    4    4    0    0  0.79257704529E-01  0.22893722241E-03 -0.90817051530E-01  0.12053976153E+00  0.51100000000E-03 0. -1.
         11    1    4    4    0    0  0.41012965178E-02 -0.35037238301E-02 -0.12187771612E-01  0.13337901322E-01  0.51100000000E-03 0.  1.
</event>
<event>
 8    1  0.1041149E+005  0.1043930E+01  0.7957747E-01            NaN
         13   -1    0    0    0    0  0.00000000000E+00  0.00000000000E+00  0.74505805969E-08  0.10566000000E+00  0.10566000000E+00 0.  1.
     999900   -1    0    0    0    0 -0.00000000000E+00 -0.00000000000E+00 -0.74505805969E-08  0.93827000000E+00  0.93827000000E+00 0.  1.
     999902    2    1    2    0    0 -0.14208437099E-01  0.18118973329E-01  0.26454971849E-02  0.10207529524E+01  0.10204897914E+01 0.  0.
     999903    2    3    3    0    0  0.10193282419E-01  0.94912414462E-01 -0.89351582063E-01  0.13229578457E+00  0.20154403274E-01 0.  0.
         14    1    1    2    0    0  0.14208437099E-01 -0.18118973329E-01 -0.26454971849E-02  0.23177047582E-01  0.00000000000E+00 0. -1.
     999901    1    3    3    0    0 -0.24401719518E-01 -0.76793441134E-01  0.91997079248E-01  0.88845716785E+00  0.88000000000E+00 0. -1.
        -11    1    4    4    0    0 -0.57265600715E-02  0.16863590053E-01 -0.14205866442E-01  0.22786880481E-01  0.51100000000E-03 0.  1.
         11    1    4    4    0    0  0.15919842490E-01  0.78048824409E-01 -0.75145715621E-01  0.10950890408E+00  0.51100000000E-03 0. -1.
</event>
<event>
 7    1  0.1041149E+005  0.1043930E+01  0.7957747E-01            NaN
         13   -1    0    0    0    0  0.00000000000E+00  0.00000000000E+00  0.74505805969E-08  0.10566000000E+00  0.10566000000E+00 0.  1.
     999900   -1    0    0    0    0 -0.00000000000E+00 -0.00000000000E+00 -0.74505805969E-08  0.93827000000E+00  0.93827000000E+00 0.  1.
     999902    2    1    2    0    0 -0.10203916793E-01 -0.50476152403E-02  0.21594480462E-01  0.10195185288E+01  0.10192262314E+01 0.  0.
         14    1    1    2    0    0  0.10203916793E-01  0.50476152403E-02 -0.21594480462E-01  0.24411471155E-01  0.00000000000E+00 0. -1.
     999901    1    3    3    0    0  0.37487231892E-01  0.47019919508E-01 -0.84029422237E-01  0.88604577150E+00  0.88000000000E+00 0.  1.
        -11    1    3    3    0    0 -0.50906755919E-01 -0.56292682186E-01  0.95100777774E-01  0.12167490670E+00  0.51100000000E-03 0.  1.
         11    1    3    3    0    0  0.32156072341E-02  0.42251474380E-02  0.10523124925E-01  0.11797850649E-01  0.51100000000E-03 0. -1.
</event>
<event>
 8    1  0.1041149E+005  0.1043930E+01  0.7957747E-01            NaN
         13   -1    0    0    0    0  0.00000000000E+00  0.00000000000E+00  0.74505805969E-08  0.10566000000E+00  0.10566000000E+00 0.  1.
     999900   -1    0    0    0    0 -0.00000000000E+00 -0.00000000000E+00 -0.74505805969E-08  0.93827000000E+00  0.93827000000E+00 0.  1.
     999902    2    1    2    0    0  0.11598850148E-01  0.93857367327E-02 -0.45679822517E-02  0.10283257749E+01  0.10282073757E+01 0.  0.
     999903    2    3    3    0    0  0.43256167781E-01  0.43247905766E-01 -0.12344569546E+00  0.13912346781E+00  0.19365489032E-01 0.  0.
         14    1    1    2    0    0 -0.11598850148E-01 -0.93857367327E-02  0.45679822517E-02  0.15604225089E-01  0.00000000000E+00 0.  1.
     999901    1    3    3    0    0 -0.31657317633E-01 -0.33862169033E-01  0.11887771320E+00  0.88920230710E+00  0.88000000000E+00 0. -1.
        -11    1    4    4    0    0  0.14862455067E-01  0.22443377445E-01 -0.71236999755E-01  0.76154901463E-01  0.51100000000E-03 0. -1.
         11    1    4    4    0    0  0.28393712715E-01  0.20804528321E-01 -0.52208695701E-01  0.62968566350E-01  0.51100000000E-03 0.  1.
</event>
<event>
 8    1  0.1041149E+005  0.1043930E+01  0.7957747E-01            NaN
         13   -1    0    0    0    0  0.00000000000E+00  0.00000000000E+00  0.74505805969E-08  0.10566000000E+00  0.10566000000E+00 0. -1.
     999900   -1    0    0    0    0 -0.00000000000E+00 -0.00000000000E+00 -0.74505805969E-08  0.93827000000E+00  0.93827000000E+00 0. -1.
     999902    2    1    2    0    0  0.43579229017E-02  0.93192617659E-02  0.22799261001E-01  0.10189170747E+01  0.10186100130E+01 0.  0.
     999903    2    3    3    0    0  0.93506816304E-02  0.72068917217E-01  0.10896047520E+00  0.13247124906E+00  0.19871653071E-01 0.  0.
         14    1    1    2    0    0 -0.43579229017E-02 -0.93192617659E-02 -0.22799261001E-01  0.25012925340E-01  0.00000000000E+00 0.  1.
     999901    1    3    3    0    0 -0.49927587287E-02 -0.62749655451E-01 -0.86161214195E-01  0.88644582560E+00  0.88000000000E+00 0. -1.
        -11    1    4    4    0    0  0.75851279234E-02  0.43610486513E-01  0.82208480217E-01  0.93369716933E-01  0.51100000000E-03 0.  1.
         11    1    4    4    0    0  0.17655537070E-02  0.28458430704E-01  0.26751994979E-01  0.39101532123E-01  0.51100000000E-03 0. -1.
</event>
<event>
 8    1  0.1041149E+005  0.1043930E+01  0.7957747E-01            NaN
         13   -1    0    0    0    0  0.00000000000E+00  0.00000000000E+00  0.74505805969E-08  0.10566000000E+00  0.10566000000E+00 0.  1.
     999900   -1    0    0    0    0 -0.00000000000E+00 -0.00000000000E+00 -0.74505805969E-08  0.93827000000E+00  0.93827000000E+00 0.  1.
     999902    2    1    2    0    0 -0.18247317401E-01  0.11790103136E-01  0.11819427570E-01  0.10191980370E+01  0.10188979187E+01 0.  0.
     999903    2    3    3    0    0  0.71856292260E-01  0.93926049331E-01 -0.48653715264E-01  0.12873637298E+00  0.14847230034E-01 0.  0.
         14    1    1    2    0    0  0.18247317401E-01 -0.11790103136E-01 -0.11819427570E-01  0.24731962970E-01  0.00000000000E+00 0. -1.
     999901    1    3    3    0    0 -0.90103609661E-01 -0.82135946195E-01  0.60473142834E-01  0.89046166405E+00  0.88000000000E+00 0.  1.
        -11    1    4    4    0    0  0.59366063636E-01  0.67774468853E-01 -0.39085382887E-01  0.98212200954E-01  0.51100000000E-03 0. -1.
         11    1    4    4    0    0  0.12490228625E-01  0.26151580478E-01 -0.95683323766E-02  0.30524172029E-01  0.51100000000E-03 0.  1.
</event>
<event>
 8    1  0.1041149E+005  0.1043930E+01  0.7957747E-01            NaN
         13   -1    0    0    0    0  0.00000000000E+00  0.00000000000E+00  0.74505805969E-08  0.10566000000E+00  0.10566000000E+00 0. -1.
     999900   -1    0    0    0    0 -0.00000000000E+00 -0.00000000000E+00 -0.74505805969E-08  0.93827000000E+00  0.93827000000E+00 0. -1.
     999902    2    1    2    0    0  0.54495173472E-02 -0.16374905964E-01 -0.16283711402E-01  0.10202025045E+01  0.10199265445E+01 0.  0.
     999903    2    3    3    0    0  0.49015472019E-01 -0.52009712163E-02  0.11758176292E+00  0.12894338707E+00  0.19270690124E-01 0.  0.
         14    1    1    2    0    0 -0.54495173472E-02  0.16374905964E-01  0.16283711402E-01  0.23727495478E-01  0.00000000000E+00 0. -1.
     999901    1    3    3    0    0 -0.43565954672E-01 -0.11173934748E-01 -0.13386547433E+00  0.89125911745E+00  0.88000000000E+00 0. -1.
        -11    1    4    4    0    0 -0.62214239832E-03 -0.30414726031E-02  0.89715049834E-02  0.95071888288E-02  0.51100000000E-03 0.  1.
         11    1    4    4    0    0  0.49637614418E-01 -0.21594986132E-02  0.10861025794E+00  0.11943619824E+00  0.51100000000E-03 0. -1.
</event>
<event>
 8    1  0.1041149E+005  0.1043930E+01  0.7957747E-01            NaN
         13   -1    0    0    0    0  0.00000000000E+00  0.00000000000E+00  0.74505805969E-08  0.10566000000E+00  0.10566000000E+00 0. -1.
     999900   -1    0    0    0    0 -0.00000000000E+00 -0.00000000000E+00 -0.74505805969E-08  0.93827000000E+00  0.93827000000E+00 0. -1.
     999902    2    1    2    0    0  0.46083232918E-02 -0.22210902550E-01  0.21207811630E-02  0.10211471435E+01  0.10208929573E+01 0.  0.
     999903    2    3    3    0    0  0.96083897354E-01  0.65291152773E-01 -0.55288351711E-01  0.13023738443E+00  0.20246592505E-01 0.  0.
         14    1    1    2    0    0 -0.46083232918E-02  0.22210902550E-01 -0.21207811630E-02  0.22782856458E-01  0.00000000000E+00 0.  1.
     999901    1    3    3    0    0 -0.91475574063E-01 -0.87502055323E-01  0.57409132874E-01  0.89090975911E+00  0.88000000000E+00 0.  1.
        -11    1    4    4    0    0  0.15451327489E-02  0.60877741926E-02 -0.39985668025E-02  0.74631151207E-02  0.51100000000E-03 0. -1.
         11    1    4    4    0    0  0.94538764605E-01  0.59203378580E-01 -0.51289784909E-01  0.12277426931E+00  0.51100000000E-03 0.  1.
</event>
<event>
 8    1  0.1041149E+005  0.1043930E+01  0.7957747E-01            NaN
         13   -1    0    0    0    0  0.00000000000E+00  0.00000000000E+00  0.74505805969E-08  0.10566000000E+00  0.10566000000E+00 0. -1.
     999900   -1    0    0    0    0 -0.00000000000E+00 -0.00000000000E+00 -0.74505805969E-08  0.93827000000E+00  0.93827000000E+00 0.  1.
     999902    2    1    2    0    0 -0.20494984008E-01  0.27377601942E-02 -0.12185480802E-01  0.10199294658E+01  0.10196470416E+01 0.  0.
     999903    2    3    3    0    0  0.24714160148E-01  0.17645746537E-01 -0.12612296437E+00  0.13130813758E+00  0.20314102729E-01 0.  0.
         14    1    1    2    0    0  0.20494984008E-01 -0.27377601942E-02  0.12185480802E-01  0.24000534217E-01  0.00000000000E+00 0. -1.
     999901    1    3    3    0    0 -0.45209144156E-01 -0.14907986343E-01  0.11393748357E+00  0.88862132820E+00  0.88000000000E+00 0. -1.
        -11    1    4    4    0    0  0.17779135283E-01  0.19744844902E-01 -0.72917791182E-01  0.77609419167E-01  0.51100000000E-03 0. -1.
         11    1    4    4    0    0  0.69350248657E-02 -0.20990983652E-02 -0.53205173192E-01  0.53698718413E-01  0.51100000000E-03 0.  1.
</event>
<event>
 8    1  0.1041149E+005  0.1043930E+01  0.7957747E-01            NaN
         13   -1    0    0    0    0  0.00000000000E+00  0.00000000000E+00  0.74505805969E-08  0.10566000000E+00  0.10566000000E+00 0.  1.
     999900   -1    0    0    0    0 -0.00000000000E+00 -0.00000000000E+00 -0.74505805969E-08  0.93827000000E+00  0.93827000000E+00 0. -1.
     999902    2    1    2    0    0 -0.66355230576E-02  0.30235433148E-02 -0.22174517472E-01  0.10205873094E+01  0.10203203295E+01 0.  0.
     999903    2    3    3    0    0  0.90655710106E-01  0.14612284941E-01  0.87451783016E-01  0.12838900813E+00  0.20098418111E-01 0.  0.
         14    1    1    2    0    0  0.66355230576E-02 -0.30235433148E-02  0.22174517472E-01  0.23342690624E-01  0.00000000000E+00 0.  1.
     999901    1    3    3    0    0 -0.97291233164E-01 -0.11588741626E-01 -0.10962630049E+00  0.89219830124E+00  0.88000000000E+00 0. -1.
        -11    1    4    4    0    0  0.51052225839E-01 -0.37356731141E-03  0.40562673900E-01  0.65207828905E-01  0.51100000000E-03 0.  1.
         11    1    4    4    0    0  0.39603484267E-01  0.14985852252E-01  0.46889109117E-01  0.63181179228E-01  0.51100000000E-03 0. -1.
</event>
<event>
 8    1  0.1041149E+005  0.1043930E+01  0.7957747E-01            NaN
         13   -1    0    0    0    0  0.00000000000E+00  0.00000000000E+00  0.74505805969E-08  0.10566000000E+00  0.10566000000E+00 0.  1.
     999900   -1    0    0    0    0 -0.00000000000E+00 -0.00000000000E+00 -0.74505805969E-08  0.93827000000E+00  0.93827000000E+00 0. -1.
     999902    2    1    2    0    0 -0.57547120610E-02 -0.17684487477E-01 -0.13054921742E-01  0.10212080109E+01  0.10209551962E+01 0.  0.
     999903    2    3    3    0    0  0.50535527113E-01  0.11418842313E+00  0.25397521906E-01  0.12877445816E+00  0.18573946223E-01 0.  0.
         14    1    1    2    0    0  0.57547120610E-02  0.17684487477E-01  0.13054921742E-01  0.22721989128E-01  0.00000000000E+00 0.  1.
     999901    1    3    3    0    0 -0.56290239174E-01 -0.13187291061E+00 -0.38452443648E-01  0.89243355271E+00  0.88000000000E+00 0. -1.
        -11    1    4    4    0    0  0.31539015907E-01  0.70456427566E-01  0.64455075461E-02  0.77463690838E-01  0.51100000000E-03 0.  1.
         11    1    4    4    0    0  0.18996511206E-01  0.43731995565E-01  0.18952014360E-01  0.51310767325E-01  0.51100000000E-03 0. -1.
</event>
<event>
 8    1  0.1041149E+005  0.1043930E+01  0.7957747E-01            NaN
         13   -1    0    0    0    0  0.00000000000E+00  0.00000000000E+00  0.74505805969E-08  0.10566000000E+00  0.10566000000E+00 0. -1.
     999900   -1    0    0    0    0 -0.00000000000E+00 -0.00000000000E+00 -0.74505805969E-08  0.93827000000E+00  0.93827000000E+00 0. -1.
     999902    2    1    2    0    0 -0.12466259627E-01 -0.53999531433E-03  0.19834303011E-01  0.10204971427E+01  0.10202280723E+01 0.  0.
     999903    2    3    3    0    0 -0.42785999110E-01 -0.10900557603E+00 -0.54567262428E-01  0.13020524580E+00  0.16216120974E-01 0.  0.
         14    1    1    2    0    0  0.12466259627E-01  0.53999531433E-03 -0.19834303011E-01  0.23432857272E-01  0.00000000000E+00 0.  1.
     999901    1    3    3    0    0  0.30319739484E-01  0.10846558071E+00  0.74401565439E-01  0.89029189693E+00  0.88000000000E+00 0.  1.
        -11    1    4    4    0    0 -0.23736214854E-01 -0.44429940495E-01 -0.17380122965E-01  0.53289373268E-01  0.51100000000E-03 0.  1.
         11    1    4    4    0    0 -0.19049784257E-01 -0.64575635531E-01 -0.37187139463E-01  0.76915872529E-01  0.51100000000E-03 0. -1.
</event>
<event>
 8    1  0.1041149E+005  0.1043930E+01  0.7957747E-01            NaN
         13   -1    0    0    0    0  0.00000000000E+00  0.00000000000E+00  0.74505805969E-08  0.10566000000E+00  0.10566000000E+00 0.  1.
     999900   -1    0    0    0    0 -0.00000000000E+00 -0.00000000000E+00 -0.74505805969E-08  0.93827000000E+00  0.93827000000E+00 0. -1.
     999902    2    1    2    0    0  0.13719453281E-01  0.16399817725E-01 -0.11215735400E-01  0.10197852254E+01  0.10194993555E+01 0.  0.
     999903    2    3    3    0    0 -0.77981806843E-01  0.55857634327E-01  0.83386633625E-01  0.12910253857E+00  0.22647235747E-01 0.  0.
         14    1    1    2    0    0 -0.13719453281E-01 -0.16399817725E-01  0.11215735400E-01  0.24144774596E-01  0.00000000000E+00 0.  1.
     999901    1    3    3    0    0  0.91701260124E-01 -0.39457816602E-01 -0.94602369025E-01  0.89068268683E+00  0.88000000000E+00 0. -1.
        -11    1    4    4    0    0 -0.49985944419E-01  0.28724287526E-01  0.36996736513E-01  0.68503277052E-01  0.51100000000E-03 0.  1.
         11    1    4    4    0    0 -0.27995862425E-01  0.27133346801E-01  0.46389897112E-01  0.60599261518E-01  0.51100000000E-03 0. -1.
</event>
<event>
 8    1  0.1041149E+005  0.1043930E+01  0.7957747E-01            NaN
         13   -1    0    0    0    0  0.00000000000E+00  0.00000000000E+00  0.74505805969E-08  0.10566000000E+00  0.10566000000E+00 0.  1.
     999900   -1    0    0    0    0 -0.00000000000E+00 -0.00000000000E+00 -0.74505805969E-08  0.93827000000E+00  0.93827000000E+00 0.  1.
     999902    2    1    2    0    0  0.20888141127E-01  0.35448016884E-03  0.97396139914E-02  0.10208800504E+01  0.10206198005E+01 0.  0.
     999903    2    3    3    0    0 -0.13637142805E-03  0.48448042629E-01 -0.11840566029E+00  0.13005109252E+00  0.23369956040E-01 0.  0.
         14    1    1    2    0    0 -0.20888141127E-01 -0.35448016884E-03 -0.97396139914E-02  0.23049949601E-01  0.00000000000E+00 0. -1.
     999901    1    3    3    0    0  0.21024512555E-01 -0.48093562461E-01  0.12814527428E+00  0.89082895788E+00  0.88000000000E+00 0. -1.
        -11    1    4    4    0    0  0.74661397010E-02  0.41172125990E-01 -0.80744754898E-01  0.90944289348E-01  0.51100000000E-03 0.  1.
         11    1    4    4    0    0 -0.76025111290E-02  0.72759166399E-02 -0.37660905390E-01  0.39106803170E-01  0.51100000000E-03 0. -1.
</event>
<event>
 7    1  0.1041149E+005  0.1043930E+01  0.7957747E-01            NaN
         13   -1    0    0    0    0  0.00000000000E+00  0.00000000000E+00  0.74505805969E-08  0.10566000000E+00  0.10566000000E+00 0. -1.
     999900   -1    0    0    0    0 -0.00000000000E+00 -0.00000000000E+00 -0.74505805969E-08  0.93827000000E+00  0.93827000000E+00 0. -1.
     999903    2    1    2    0    0  0.48751415144E-01  0.71028063048E-01 -0.82756130825E-01  0.12092935794E+00  0.18805483361E-01 0.  0.
         14    1    1    2    0    0  0.23778097929E-02 -0.20361719488E-01  0.32762292166E-01  0.38647398203E-01  0.00000000000E+00 0. -1.
     999901    1    1    2    0    0 -0.51129224937E-01 -0.50666343560E-01  0.49993838659E-01  0.88435324385E+00  0.88000000000E+00 0.  1.
        -11    1    3    3    0    0 -0.55510796964E-03  0.81523416149E-02 -0.93105611603E-02  0.12398245391E-01  0.51100000000E-03 0. -1.
         11    1    3    3    0    0  0.49306523113E-01  0.62875721433E-01 -0.73445569665E-01  0.10853111255E+00  0.51100000000E-03 0.  1.
</event>
<event>
 8    1  0.1041149E+005  0.1043930E+01  0.7957747E-01            NaN
         13   -1    0    0    0    0  0.00000000000E+00  0.00000000000E+00  0.74505805969E-08  0.10566000000E+00  0.10566000000E+00 0. -1.
     999900   -1    0    0    0    0 -0.00000000000E+00 -0.00000000000E+00 -0.74505805969E-08  0.93827000000E+00  0.93827000000E+00 0.  1.
     999902    2    1    2    0    0  0.14455743936E-01 -0.19647264517E-03  0.18863552727E-01  0.10201636213E+01  0.10198867454E+01 0.  0.
     999903    2    3    3    0    0 -0.12388772420E+00  0.16450622283E-01 -0.20992547613E-01  0.12830906497E+00  0.20093230630E-01 0.  0.
         14    1    1    2    0    0 -0.14455743936E-01  0.19647264517E-03 -0.18863552727E-01  0.23766378684E-01  0.00000000000E+00 0. -1.
     999901    1    3    3    0    0  0.13834346813E+00 -0.16647094928E-01  0.39856100340E-01  0.89185455635E+00  0.88000000000E+00 0.  1.
        -11    1    4    4    0    0 -0.49084160075E-01  0.40205127409E-03 -0.16035403715E-01  0.51641182295E-01  0.51100000000E-03 0.  1.
         11    1    4    4    0    0 -0.74803564123E-01  0.16048571009E-01 -0.49571438977E-02  0.76667882673E-01  0.51100000000E-03 0. -1.
</event>
<event>
 8    1  0.1041149E+005  0.1043930E+01  0.7957747E-01            NaN
         13   -1    0    0    0    0  0.00000000000E+00  0.00000000000E+00  0.74505805969E-08  0.10566000000E+00  0.10566000000E+00 0. -1.
     999900   -1    0    0    0    0 -0.00000000000E+00 -0.00000000000E+00 -0.74505805969E-08  0.93827000000E+00  0.93827000000E+00 0.  1.
     999902    2    1    2    0    0  0.18519198202E-01  0.94048458534E-02  0.99102207806E-02  0.10209164322E+01  0.10206570125E+01 0.  0.
     999903    2    3    3    0    0 -0.44249803551E-01  0.46124180407E-01 -0.11128186966E+00  0.12963882117E+00  0.18359855872E-01 0.  0.
         14    1    1    2    0    0 -0.18519198202E-01 -0.94048458534E-02 -0.99102207806E-02  0.23013567813E-01  0.00000000000E+00 0.  1.
     999901    1    3    3    0    0  0.62769001753E-01 -0.36719334553E-01  0.12119209044E+00  0.89127761101E+00  0.88000000000E+00 0. -1.
        -11    1    4    4    0    0 -0.17566750102E-01  0.13926454518E-01 -0.55985339566E-01  0.60308840247E-01  0.51100000000E-03 0. -1.
         11    1    4    4    0    0 -0.26683053450E-01  0.32197725889E-01 -0.55296530092E-01  0.69329980925E-01  0.51100000000E-03 0.  1.
</event>
<event>
 8    1  0.1041149E+005  0.1043930E+01  0.7957747E-01            NaN
         13   -1    0    0    0    0  0.00000000000E+00  0.00000000000E+00  0.74505805969E-08  0.10566000000E+00  0.10566000000E+00 0. -1.
     999900   -1    0    0    0    0 -0.00000000000E+00 -0.00000000000E+00 -0.74505805969E-08  0.93827000000E+00  0.93827000000E+00 0.  1.
     999902    2    1    2    0    0  0.71382113157E-02  0.11638481137E-01 -0.19218072428E-01  0.10203558062E+01  0.10200834420E+01 0.  0.
     999903    2    3    3    0    0 -0.35497566207E-01  0.11815806206E+00  0.39099489482E-01  0.13099358044E+00  0.20227288550E-01 0.  0.
         14    1    1    2    0    0 -0.71382113157E-02 -0.11638481137E-01  0.19218072428E-01  0.23574193768E-01  0.00000000000E+00 0. -1.
     999901    1    3    3    0    0  0.42635777522E-01 -0.10651958092E+00 -0.58317561910E-01  0.88936222580E+00  0.88000000000E+00 0.  1.
        -11    1    4    4    0    0 -0.20782463142E-01  0.96689231480E-01  0.32961036950E-01  0.10424686727E+00  0.51100000000E-03 0. -1.
         11    1    4    4    0    0 -0.14715103065E-01  0.21468830578E-01  0.61384525317E-02  0.26746713164E-01  0.51100000000E-03 0.  1.
</event>
<event>
 8    1  0.1041149E+005  0.1043930E+01  0.7957747E-01            NaN
         13   -1    0    0    0    0  0.00000000000E+00  0.00000000000E+00  0.74505805969E-08  0.10566000000E+00  0.10566000000E+00 0. -1.
     999900   -1    0    0    0    0 -0.00000000000E+00 -0.00000000000E+00 -0.74505805969E-08  0.93827000000E+00  0.93827000000E+00 0.  1.
     999902    2    1    2    0    0 -0.53717114570E-02 -0.50365948906E-02  0.23168930307E-01  0.10196190579E+01  0.10193291919E+01 0.  0.
     999903    2    3    3    0    0 -0.12292248771E+00  0.16032105004E-01 -0.32897361663E-01  0.12978452040E+00  0.19870051680E-01 0.  0.
         14    1    1    2    0    0  0.53717114570E-02  0.50365948906E-02 -0.23168930307E-01  0.24310942056E-01  0.00000000000E+00 0.  1.
     999901    1    3    3    0    0  0.11755077626E+00 -0.21068699895E-01  0.56066291970E-01  0.88983453755E+00  0.88000000000E+00 0.  1.
        -11    1    4    4    0    0 -0.49221454332E-01 -0.16973223205E-02 -0.18566368099E-01  0.52636523584E-01  0.51100000000E-03 0. -1.
         11    1    4    4    0    0 -0.73701033383E-01  0.17729427325E-01 -0.14330993565E-01  0.77147996815E-01  0.51100000000E-03 0.  1.
</event>
<event>
 8    1  0.1041149E+005  0.1043930E+01  0.7957747E-01            NaN
         13   -1    0    0    0    0  0.00000000000E+00  0.00000000000E+00  0.74505805969E-08  0.10566000000E+00  0.10566000000E+00 0.  1.
     999900   -1    0    0    0    0 -0.00000000000E+00 -0.00000000000E+00 -0.74505805969E-08  0.93827000000E+00  0.93827000000E+00 0. -1.
     999902    2    1    2    0    0  0.47382733291E-02 -0.71713317731E-02 -0.24930017800E-01  0.10175598460E+01  0.10172180962E+01 0.  0.
     999903    2    3    3    0    0  0.81165154925E-01 -0.98503864750E-01 -0.50966969881E-02  0.12931660207E+00  0.20149776798E-01 0.  0.
         14    1    1    2    0    0 -0.47382733291E-02  0.71713317731E-02  0.24930017800E-01  0.26370153983E-01  0.00000000000E+00 0.  1.
     999901    1    3    3    0    0 -0.76426881596E-01  0.91332532977E-01 -0.19833320812E-01  0.88824324395E+00  0.88000000000E+00 0. -1.
        -11    1    4    4    0    0  0.35764896612E-01 -0.28462417871E-01 -0.32440378973E-02  0.45825996592E-01  0.51100000000E-03 0.  1.
         11    1    4    4    0    0  0.45400258313E-01 -0.70041446879E-01 -0.18526590908E-02  0.83490605475E-01  0.51100000000E-03 0. -1.
</event>
<event>
 8    1  0.1041149E+005  0.1043930E+01  0.7957747E-01            NaN
         13   -1    0    0    0    0  0.00000000000E+00  0.00000000000E+00  0.74505805969E-08  0.10566000000E+00  0.10566000000E+00 0.  1.
     999900   -1    0    0    0    0 -0.00000000000E+00 -0.00000000000E+00 -0.74505805969E-08  0.93827000000E+00  0.93827000000E+00 0.  1.
     999902    2    1    2    0    0  0.16627671746E-01 -0.14707409729E-01 -0.47136282102E-02  0.10212362639E+01  0.10209840846E+01 0.  0.
     999903    2    3    3    0    0 -0.48560877018E-01  0.61039950126E-01 -0.10247017010E+00  0.13020116305E+00  0.19187829775E-01 0.  0.
         14    1    1    2    0    0 -0.16627671746E-01  0.14707409729E-01  0.47136282102E-02  0.22693736130E-01  0.00000000000E+00 0.  1.
     999901    1    3    3    0    0  0.65188548764E-01 -0.75747359855E-01  0.97756541886E-01  0.89103510082E+00  0.88000000000E+00 0. -1.
        -11    1    4    4    0    0 -0.30165968951E-01  0.22655161514E-01 -0.46422247343E-01  0.59820800691E-01  0.51100000000E-03 0.  1.
         11    1    4    4    0    0 -0.18394908067E-01  0.38384788611E-01 -0.56047922753E-01  0.70380362357E-01  0.51100000000E-03 0. -1.
</event>
<event>
 8    1  0.1041149E+005  0.1043930E+01  0.7957747E-01            NaN
         13   -1    0    0    0    0  0.00000000000E+00  0.00000000000E+00  0.74505805969E-08  0.10566000000E+00  0.10566000000E+00 0.  1.
     999900   -1    0    0    0    0 -0.00000000000E+00 -0.00000000000E+00 -0.74505805969E-08  0.93827000000E+00  0.93827000000E+00 0. -1.
     999902    2    1    2    0    0  0.52006557392E-02 -0.17423990780E-01  0.11031267591E-01  0.10226619221E+01  0.10224407443E+01 0.  0.
     999903    2    3    3    0    0  0.86294510618E-01 -0.37160647485E-01  0.94540040681E-01  0.13477709613E+00  0.19984745838E-01 0.  0.
         14    1    1    2    0    0 -0.52006557392E-02  0.17423990780E-01 -0.11031267591E-01  0.21268077945E-01  0.00000000000E+00 0. -1.
     999901    1    3    3    0    0 -0.81093854879E-01  0.19736656705E-01 -0.83508773090E-01  0.88788482592E+00  0.88000000000E+00 0. -1.
        -11    1    4    4    0    0  0.47754246920E-01 -0.17038825546E-01  0.63958504723E-01  0.81619489843E-01  0.51100000000E-03 0.  1.
         11    1    4    4    0    0  0.38540263698E-01 -0.20121821939E-01  0.30581535957E-01  0.53157606291E-01  0.51100000000E-03 0. -1.
</event>
<event>
 8    1  0.1041149E+005  0.1043930E+01  0.7957747E-01            NaN
         13   -1    0    0    0    0  0.00000000000E+00  0.00000000000E+00  0.74505805969E-08  0.10566000000E+00  0.10566000000E+00 0.  1.
     999900   -1    0    0    0    0 -0.00000000000E+00 -0.00000000000E+00 -0.74505805969E-08  0.93827000000E+00  0.93827000000E+00 0. -1.
     999902    2    1    2    0    0 -0.23146620748E-01 -0.39019475072E-02  0.59833807182E-02  0.10197062082E+01  0.10194184415E+01 0.  0.
     999903    2    3    3    0    0 -0.11462775821E+00 -0.64122299789E-01  0.62661421757E-02  0.13291684800E+00  0.19401846858E-01 0.  0.
         14    1    1    2    0    0  0.23146620748E-01  0.39019475072E-02 -0.59833807182E-02  0.24223791842E-01  0.00000000000E+00 0.  1.
     999901    1    3    3    0    0  0.91481137461E-01  0.60220352281E-01 -0.28276145754E-03  0.88678936016E+00  0.88000000000E+00 0.  1.
        -11    1    4    4    0    0 -0.63723643322E-01 -0.27504615335E-01 -0.32827938435E-02  0.69485570008E-01  0.51100000000E-03 0.  1.
         11    1    4    4    0    0 -0.50904114887E-01 -0.36617684454E-01  0.95489360192E-02  0.63431277989E-01  0.51100000000E-03 0. -1.
</event>
<event>
 8    1  0.1041149E+005  0.1043930E+01  0.7957747E-01            NaN
         13   -1    0    0    0    0  0.00000000000E+00  0.00000000000E+00  0.74505805969E-08  0.10566000000E+00  0.10566000000E+00 0.  1.
     999900   -1    0    0    0    0 -0.00000000000E+00 -0.00000000000E+00 -0.74505805969E-08  0.93827000000E+00  0.93827000000E+00 0. -1.
     999902    2    1    2    0    0 -0.12269731531E-01 -0.19778876887E-01  0.37023209047E-02  0.10203618549E+01  0.10200896321E+01 0.  0.
     999903    2    3    3    0    0  0.17188365263E-01  0.10184431658E+00 -0.73596382134E-01  0.12815388020E+00  0.18419685843E-01 0.  0.
         14    1    1    2    0    0  0.12269731531E-01  0.19778876887E-01 -0.37023209047E-02  0.23568145087E-01  0.00000000000E+00 0.  1.
     999901    1    3    3    0    0 -0.29458096794E-01 -0.12162319347E+00  0.77298703039E-01  0.89220797472E+00  0.88000000000E+00 0.  1.
        -11    1    4    4    0    0  0.18645812117E-01  0.97100936004E-01 -0.73433952676E-01  0.12316275658E+00  0.51100000000E-03 0. -1.
         11    1    4    4    0    0 -0.14574468542E-02  0.47433805748E-02 -0.16242945837E-03  0.49911236149E-02  0.51100000000E-03 0.  1.
</event>
<event>
 8    1  0.1041149E+005  0.1043930E+01  0.7957747E-01            NaN
         13   -1    0    0    0    0  0.00000000000E+00  0.00000000000E+00  0.74505805969E-08  0.10566000000E+00  0.10566000000E+00 0. -1.
     999900   -1    0    0    0    0 -0.00000000000E+00 -0.00000000000E+00 -0.74505805969E-08  0.93827000000E+00  0.93827000000E+00 0.  1.
     999902    2    1    2    0    0  0.63367441519E-02 -0.22751999048E-01  0.20836658273E-03  0.10203111261E+01  0.10200377164E+01 0.  0.
     999903    2    3    3    0    0  0.80368314131E-01 -0.94918786617E-01  0.43280309754E-01  0.13321253471E+00  0.20093586586E-01 0.  0.
         14    1    1    2    0    0 -0.63367441519E-02  0.22751999048E-01 -0.20836658273E-03  0.23618873888E-01  0.00000000000E+00 0.  1.
     999901    1    3    3    0    0 -0.74031569979E-01  0.72166787570E-01 -0.43071943172E-01  0.88709859140E+00  0.88000000000E+00 0. -1.
        -11    1    4    4    0    0  0.50343465197E-01 -0.44636029814E-01  0.20062471524E-01  0.70211135373E-01  0.51100000000E-03 0. -1.
         11    1    4    4    0    0  0.30024848933E-01 -0.50282756803E-01  0.23217838230E-01  0.63001399335E-01  0.51100000000E-03 0.  1.
</event>
<event>
 8    1  0.1041149E+005  0.1043930E+01  0.7957747E-01            NaN
         13   -1    0    0    0    0  0.00000000000E+00  0.00000000000E+00  0.74505805969E-08  0.10566000000E+00  0.10566000000E+00 0.  1.
     999900   -1    0    0    0    0 -0.00000000000E+00 -0.00000000000E+00 -0.74505805969E-08  0.93827000000E+00  0.93827000000E+00 0.  1.
     999902    2    1    2    0    0  0.12053728487E-01 -0.15663299851E-02  0.21784456359E-01  0.10189838921E+01  0.10186784891E+01 0.  0.
     999903    2    3    3    0    0 -0.10540961974E+00  0.69951313483E-01  0.18430427564E-02  0.12807981676E+00  0.19916537410E-01 0.  0.
         14    1    1    2    0    0 -0.12053728487E-01  0.15663299851E-02 -0.21784456359E-01  0.24946107891E-01  0.00000000000E+00 0. -1.
     999901    1    3    3    0    0  0.11746334822E+00 -0.71517643468E-01  0.19941413603E-01  0.89090407535E+00  0.88000000000E+00 0. -1.
        -11    1    4    4    0    0 -0.64258977545E-01  0.37986610343E-01 -0.79059863982E-02  0.75066400623E-01  0.51100000000E-03 0. -1.
         11    1    4    4    0    0 -0.41150642193E-01  0.31964703140E-01  0.97490291546E-02  0.53013416133E-01  0.51100000000E-03 0.  1.
</event>
<event>
 8    1  0.1041149E+005  0.1043930E+01  0.7957747E-01            NaN
         13   -1    0    0    0    0  0.00000000000E+00  0.00000000000E+00  0.74505805969E-08  0.10566000000E+00  0.10566000000E+00 0. -1.
     999900   -1    0    0    0    0 -0.00000000000E+00 -0.00000000000E+00 -0.74505805969E-08  0.93827000000E+00  0.93827000000E+00 0. -1.
     999902    2    1    2    0    0 -0.17956029725E-01 -0.37229191080E-02  0.13564587081E-01  0.10211204153E+01  0.10208656256E+01 0.  0.
     999903    2    3    3    0    0  0.24933261069E-02 -0.10995587575E+00 -0.67749700869E-01  0.13077462259E+00  0.20383048277E-01 0.  0.
         14    1    1    2    0    0  0.17956029725E-01  0.37229191080E-02 -0.13564587081E-01  0.22809584670E-01  0.00000000000E+00 0.  1.
     999901    1    3    3    0    0 -0.20449355832E-01  0.10623295664E+00  0.81314287950E-01  0.89034579274E+00  0.88000000000E+00 0.  1.
        -11    1    4    4    0    0  0.72073038859E-02 -0.50376268129E-01 -0.21704686023E-01  0.55326920538E-01  0.51100000000E-03 0. -1.
         11    1    4    4    0    0 -0.47139777789E-02 -0.59579607624E-01 -0.46045014846E-01  0.75447702048E-01  0.51100000000E-03 0.  1.
</event>
<event>
 8    1  0.1041149E+005  0.1043930E+01  0.7957747E-01            NaN
         13   -1    0    0    0    0  0.00000000000E+00  0.00000000000E+00  0.74505805969E-08  0.10566000000E+00  0.10566000000E+00 0.  1.
     999900   -1    0    0    0    0 -0.00000000000E+00 -0.00000000000E+00 -0.74505805969E-08  0.93827000000E+00  0.93827000000E+00 0.  1.
     999902    2    1    2    0    0 -0.15410858391E-01 -0.18289894110E-01 -0.14592903856E-02  0.10199686914E+01  0.10196872006E+01 0.  0.
     999903    2    3    3    0    0  0.52985177972E-01 -0.10449427852E+00  0.54562865298E-01  0.13134745844E+00  0.23421469657E-01 0.  0.
         14    1    1    2    0    0  0.15410858391E-01  0.18289894110E-01  0.14592903856E-02  0.23961308631E-01  0.00000000000E+00 0. -1.
     999901    1    3    3    0    0 -0.68396036363E-01  0.86204384412E-01 -0.56022155684E-01  0.88862123293E+00  0.88000000000E+00 0.  1.
        -11    1    4    4    0    0  0.12046098955E-01 -0.48418118819E-01  0.19586385625E-01  0.53603268117E-01  0.51100000000E-03 0. -1.
         11    1    4    4    0    0  0.40939079017E-01 -0.56076159703E-01  0.34976479674E-01  0.77744190325E-01  0.51100000000E-03 0.  1.
</event>
<event>
 8    1  0.1041149E+005  0.1043930E+01  0.7957747E-01            NaN
         13   -1    0    0    0    0  0.00000000000E+00  0.00000000000E+00  0.74505805969E-08  0.10566000000E+00  0.10566000000E+00 0.  1.
     999900   -1    0    0    0    0 -0.00000000000E+00 -0.00000000000E+00 -0.74505805969E-08  0.93827000000E+00  0.93827000000E+00 0. -1.
     999902    2    1    2    0    0 -0.19975018724E-01  0.35926013204E-02  0.10645820137E-01  0.10210118490E+01  0.10207546004E+01 0.  0.
     999903    2    3    3    0    0  0.10450719908E+00 -0.60245154595E-01  0.42265779338E-01  0.12940044071E+00  0.20170390198E-01 0.  0.
         14    1    1    2    0    0  0.19975018724E-01 -0.35926013204E-02 -0.10645820137E-01  0.22918150966E-01  0.00000000000E+00 0.  1.
     999901    1    3    3    0    0 -0.12448221781E+00  0.63837755915E-01 -0.31619959201E-01  0.89161140832E+00  0.88000000000E+00 0. -1.
        -11    1    4    4    0    0  0.95818381658E-01 -0.49523047686E-01  0.33099885091E-01  0.11282534303E+00  0.51100000000E-03 0.  1.
         11    1    4    4    0    0  0.86888174267E-02 -0.10722106909E-01  0.91658942472E-02  0.16575097683E-01  0.51100000000E-03 0. -1.
</event>
<event>
 8    1  0.1041149E+005  0.1043930E+01  0.7957747E-01            NaN
         13   -1    0    0    0    0  0.00000000000E+00  0.00000000000E+00  0.74505805969E-08  0.10566000000E+00  0.10566000000E+00 0.  1.
     999900   -1    0    0    0    0 -0.00000000000E+00 -0.00000000000E+00 -0.74505805969E-08  0.93827000000E+00  0.93827000000E+00 0. -1.
     999902    2    1    2    0    0  0.52734458373E-02 -0.94942937287E-02  0.22136508602E-01  0.10192728335E+01  0.10189745499E+01 0.  0.
     999903    2    3    3    0    0  0.17917326093E-01 -0.86712202708E-02 -0.12495219262E+00  0.12697488376E+00  0.10646597185E-01 0.  0.
         14    1    1    2    0    0 -0.52734458373E-02  0.94942937287E-02 -0.22136508602E-01  0.24657166453E-01  0.00000000000E+00 0. -1.
     999901    1    3    3    0    0 -0.12643880256E-01 -0.82307345790E-03  0.14708870122E+00  0.89229794978E+00  0.88000000000E+00 0.  1.
        -11    1    4    4    0    0  0.28565852706E-02 -0.46382893514E-02 -0.56664963010E-01  0.56928489893E-01  0.51100000000E-03 0. -1.
         11    1    4    4    0    0  0.15060740823E-01 -0.40329309194E-02 -0.68287229608E-01  0.70046393872E-01  0.51100000000E-03 0.  1.
</event>
<event>
 8    1  0.1041149E+005  0.1043930E+01  0.7957747E-01            NaN
         13   -1    0    0    0    0  0.00000000000E+00  0.00000000000E+00  0.74505805969E-08  0.10566000000E+00  0.10566000000E+00 0.  1.
     999900   -1    0    0    0    0 -0.00000000000E+00 -0.00000000000E+00 -0.74505805969E-08  0.93827000000E+00  0.93827000000E+00 0. -1.
     999902    2    1    2    0    0  0.20599730758E-01 -0.58581612324E-02 -0.83572106999E-02  0.10209406561E+01  0.10206817885E+01 0.  0.
     999903    2    3    3    0    0  0.63222180074E-01  0.73995372879E-01  0.86023624524E-01  0.13127723543E+00  0.19007611770E-01 0.  0.
         14    1    1    2    0    0 -0.20599730758E-01  0.58581612324E-02  0.83572106999E-02  0.22989343857E-01  0.00000000000E+00 0.  1.
     999901    1    3    3    0    0 -0.42622449316E-01 -0.79853534112E-01 -0.94380835224E-01  0.88966342071E+00  0.88000000000E+00 0. -1.
        -11    1    4    4    0    0  0.65124161412E-02  0.15861468250E-01  0.21785653823E-01  0.27728569608E-01  0.51100000000E-03 0.  1.
         11    1    4    4    0    0  0.56709763932E-01  0.58133904629E-01  0.64237970701E-01  0.10354866582E+00  0.51100000000E-03 0. -1.
</event>
<event>
 8    1  0.1041149E+005  0.1043930E+01  0.7957747E-01            NaN
         13   -1    0    0    0    0  0.00000000000E+00  0.00000000000E+00  0.74505805969E-08  0.10566000000E+00  0.10566000000E+00 0.  1.
     999900   -1    0    0    0    0 -0.00000000000E+00 -0.00000000000E+00 -0.74505805969E-08  0.93827000000E+00  0.93827000000E+00 0.  1.
     999902    2    1    2    0    0 -0.21530134509E-01 -0.30531282490E-01  0.25938646357E-02  0.10064809141E+01  0.10057839710E+01 0.  0.
     999903    2    3    3    0    0  0.99668891336E-01 -0.28776157518E-01 -0.49671659511E-01  0.11663600099E+00  0.19357888001E-01 0.  0.
         14    1    1    2    0    0  0.21530134509E-01  0.30531282490E-01 -0.25938646357E-02  0.37449085920E-01  0.00000000000E+00 0. -1.
     999901    1    3    3    0    0 -0.12119902585E+00 -0.17551249725E-02  0.52265524146E-01  0.88984491309E+00  0.88000000000E+00 0. -1.
        -11    1    4    4    0    0  0.43350847563E-01 -0.21041905048E-01 -0.17206909151E-01  0.51170270627E-01  0.51100000000E-03 0.  1.
         11    1    4    4    0    0  0.56318043774E-01 -0.77342524696E-02 -0.32464750359E-01  0.65465730368E-01  0.51100000000E-03 0. -1.
</event>
<event>
 8    1  0.1041149E+005  0.1043930E+01  0.7957747E-01            NaN
         13   -1    0    0    0    0  0.00000000000E+00  0.00000000000E+00  0.74505805969E-08  0.10566000000E+00  0.10566000000E+00 0.  1.
     999900   -1    0    0    0    0 -0.00000000000E+00 -0.00000000000E+00 -0.74505805969E-08  0.93827000000E+00  0.93827000000E+00 0.  1.
     999902    2    1    2    0    0 -0.56834404690E-02  0.16856881684E-01 -0.11687408356E-01  0.10226449943E+01  0.10224234606E+01 0.  0.
     999903    2    3    3    0    0  0.53632015399E-01  0.80087595212E-01 -0.92224012266E-01  0.13472462000E+00  0.18842473655E-01 0.  0.
         14    1    1    2    0    0  0.56834404690E-02 -0.16856881684E-01  0.11687408356E-01  0.21285005749E-01  0.00000000000E+00 0.  1.
     999901    1    3    3    0    0 -0.59315455868E-01 -0.63230713528E-01  0.80536603911E-01  0.88792037425E+00  0.88000000000E+00 0.  1.
        -11    1    4    4    0    0  0.23625830668E-01  0.28645965116E-01 -0.47243215735E-01  0.60091211888E-01  0.51100000000E-03 0. -1.
         11    1    4    4    0    0  0.30006184731E-01  0.51441630096E-01 -0.44980796531E-01  0.74633408113E-01  0.51100000000E-03 0.  1.
</event>
<event>
 8    1  0.1041149E+005  0.1043930E+01  0.7957747E-01            NaN
         13   -1    0    0    0    0  0.00000000000E+00  0.00000000000E+00  0.74505805969E-08  0.10566000000E+00  0.10566000000E+00 0. -1.
     999900   -1    0    0    0    0 -0.00000000000E+00 -0.00000000000E+00 -0.74505805969E-08  0.93827000000E+00  0.93827000000E+00 0.  1.
     999902    2    1    2    0    0 -0.23774621233E-01  0.37163082174E-03  0.55244515112E-02  0.10195191358E+01  0.10192268531E+01 0.  0.
     999903    2    3    3    0    0 -0.22508326247E-01  0.11435278384E+00 -0.54524743707E-01  0.13013777074E+00  0.19486091829E-01 0.  0.
         14    1    1    2    0    0  0.23774621233E-01 -0.37163082174E-03 -0.55244515112E-02  0.24410864154E-01  0.00000000000E+00 0.  1.
     999901    1    3    3    0    0 -0.12662949855E-02 -0.11398115302E+00  0.60049195218E-01  0.88938136510E+00  0.88000000000E+00 0. -1.
        -11    1    4    4    0    0 -0.11491902798E-02  0.20108845355E-01 -0.22607140025E-02  0.20274571478E-01  0.51100000000E-03 0.  1.
         11    1    4    4    0    0 -0.21359135967E-01  0.94243938487E-01 -0.52264029704E-01  0.10986319927E+00  0.51100000000E-03 0. -1.
</event>
<event>
 8    1  0.1041149E+005  0.1043930E+01  0.7957747E-01            NaN
         13   -1    0    0    0    0  0.00000000000E+00  0.00000000000E+00  0.74505805969E-08  0.10566000000E+00  0.10566000000E+00 0. -1.
     999900   -1    0    0    0    0 -0.00000000000E+00 -0.00000000000E+00 -0.74505805969E-08  0.93827000000E+00  0.93827000000E+00 0.  1.
     999902    2    1    2    0    0 -0.56792170224E-02 -0.12355173171E-01 -0.17957883843E-01  0.10214046942E+01  0.10211562857E+01 0.  0.
     999903    2    3    3    0    0 -0.51012919308E-01  0.10567278554E+00 -0.55986579875E-01  0.13155531068E+00  0.20081013433E-01 0.  0.
         14    1    1    2    0    0  0.56792170224E-02  0.12355173171E-01  0.17957883843E-01  0.22525305818E-01  0.00000000000E+00 0. -1.
     999901    1    3    3    0    0  0.45333702286E-01 -0.11802795871E+00  0.38028696032E-01  0.88984938350E+00  0.88000000000E+00 0.  1.
        -11    1    4    4    0    0 -0.39067051794E-01  0.58349310287E-01 -0.34047880953E-01  0.78040988367E-01  0.51100000000E-03 0.  1.
         11    1    4    4    0    0 -0.11945867515E-01  0.47323475257E-01 -0.21938698922E-01  0.53514322311E-01  0.51100000000E-03 0. -1.
</event>
<event>
 8    1  0.1041149E+005  0.1043930E+01  0.7957747E-01            NaN
         13   -1    0    0    0    0  0.00000000000E+00  0.00000000000E+00  0.74505805969E-08  0.10566000000E+00  0.10566000000E+00 0. -1.
     999900   -1    0    0    0    0 -0.00000000000E+00 -0.00000000000E+00 -0.74505805969E-08  0.93827000000E+00  0.93827000000E+00 0.  1.
     999902    2    1    2    0    0  0.12060758703E-01 -0.50780094398E-02  0.19414950111E-01  0.10205165772E+01  0.10202479581E+01 0.  0.
     999903    2    3    3    0    0 -0.89111974158E-01  0.38466170047E-01  0.85657607841E-01  0.13117968536E+00  0.21220129467E-01 0.  0.
         14    1    1    2    0    0 -0.12060758703E-01  0.50780094398E-02 -0.19414950111E-01  0.23413422820E-01  0.00000000000E+00 0.  1.
     999901    1    3    3    0    0  0.10117273286E+00 -0.43544179487E-01 -0.66242657730E-01  0.88933689182E+00  0.88000000000E+00 0. -1.
        -11    1    4    4    0    0 -0.40911872931E-01  0.25867551518E-01  0.32388477414E-01  0.58242477269E-01  0.51100000000E-03 0. -1.
         11    1    4    4    0    0 -0.48200101227E-01  0.12598618529E-01  0.53269130427E-01  0.72937208095E-01  0.51100000000E-03 0.  1.
</event>
<event>
 8    1  0.1041149E+005  0.1043930E+01  0.7957747E-01            NaN
         13   -1    0    0    0    0  0.00000000000E+00  0.00000000000E+00  0.74505805969E-08  0.10566000000E+00  0.10566000000E+00 0. -1.
     999900   -1    0    0    0    0 -0.00000000000E+00 -0.00000000000E+00 -0.74505805969E-08  0.93827000000E+00  0.93827000000E+00 0. -1.
     999902    2    1    2    0    0  0.22467823587E-01  0.33791775160E-02 -0.32679374734E-02  0.10209756681E+01  0.10207175973E+01 0.  0.
     999903    2    3    3    0    0 -0.32073758273E-01  0.44063396004E-01  0.11661485006E+00  0.13024457932E+00  0.19857450726E-01 0.  0.
         14    1    1    2    0    0 -0.22467823587E-01 -0.33791775160E-02  0.32679374734E-02  0.22954331895E-01  0.00000000000E+00 0.  1.
     999901    1    3    3    0    0  0.54541581859E-01 -0.40684218488E-01 -0.11988278754E+00  0.89073108879E+00  0.88000000000E+00 0. -1.
        -11    1    4    4    0    0 -0.65013411642E-02  0.16607291419E-01  0.57692456087E-01  0.60388328140E-01  0.51100000000E-03 0.  1.
         11    1    4    4    0    0 -0.25572417108E-01  0.27456104584E-01  0.58922393976E-01  0.69856251178E-01  0.51100000000E-03 0. -1.
</event>
<event>
 8    1  0.1041149E+005  0.1043930E+01  0.7957747E-01            NaN
         13   -1    0    0    0    0  0.00000000000E+00  0.00000000000E+00  0.74505805969E-08  0.10566000000E+00  0.10566000000E+00 0. -1.
     999900   -1    0    0    0    0 -0.00000000000E+00 -0.00000000000E+00 -0.74505805969E-08  0.93827000000E+00  0.93827000000E+00 0. -1.
     999902    2    1    2    0    0  0.34862466429E-02  0.62122463801E-02 -0.22676468163E-01  0.10201609418E+01  0.10198840027E+01 0.  0.
     999903    2    3    3    0    0 -0.12303636072E+00  0.27743396522E-01 -0.27910914424E-01  0.13083593930E+00  0.20769731789E-01 0.  0.
         14    1    1    2    0    0 -0.34862466429E-02 -0.62122463801E-02  0.22676468163E-01  0.23769058229E-01  0.00000000000E+00 0. -1.
     999901    1    3    3    0    0  0.12652260736E+00 -0.21531150142E-01  0.52344462608E-02  0.88932500247E+00  0.88000000000E+00 0. -1.
        -11    1    4    4    0    0 -0.62772671745E-01  0.24594281741E-01 -0.16650756721E-01  0.69446352192E-01  0.51100000000E-03 0.  1.
         11    1    4    4    0    0 -0.60263688971E-01  0.31491147810E-02 -0.11260157703E-01  0.61389587104E-01  0.51100000000E-03 0. -1.
</event>
<event>
 8    1  0.1041149E+005  0.1043930E+01  0.7957747E-01            NaN
         13   -1    0    0    0    0  0.00000000000E+00  0.00000000000E+00  0.74505805969E-08  0.10566000000E+00  0.10566000000E+00 0.  1.
     999900   -1    0    0    0    0 -0.00000000000E+00 -0.00000000000E+00 -0.74505805969E-08  0.93827000000E+00  0.93827000000E+00 0.  1.
     999902    2    1    2    0    0  0.20602102857E-01  0.17428720486E-01 -0.14713507643E-03  0.10169442892E+01  0.10165861787E+01 0.  0.
     999903    2    3    3    0    0  0.87931713126E-01  0.38988447383E-01 -0.82790891915E-01  0.13024925209E+00  0.29299329075E-01 0.  0.
         14    1    1    2    0    0 -0.20602102857E-01 -0.17428720486E-01  0.14713507643E-03  0.26985710823E-01  0.00000000000E+00 0.  1.
     999901    1    3    3    0    0 -0.67329610269E-01 -0.21559726897E-01  0.82643756839E-01  0.88669503708E+00  0.88000000000E+00 0.  1.
        -11    1    4    4    0    0  0.78355651015E-01  0.29928538339E-01 -0.57408427985E-01  0.10164307245E+00  0.51100000000E-03 0. -1.
         11    1    4    4    0    0  0.95760621112E-02  0.90599090437E-02 -0.25382463930E-01  0.28606179640E-01  0.51100000000E-03 0.  1.
</event>
<event>
 8    1  0.1041149E+005  0.1043930E+01  0.7957747E-01            NaN
         13   -1    0    0    0    0  0.00000000000E+00  0.00000000000E+00  0.74505805969E-08  0.10566000000E+00  0.10566000000E+00 0. -1.
     999900   -1    0    0    0    0 -0.00000000000E+00 -0.00000000000E+00 -0.74505805969E-08  0.93827000000E+00  0.93827000000E+00 0. -1.
     999902    2    1    2    0    0  0.24357463520E-02 -0.20637993507E-01 -0.11361226650E-01  0.10202458891E+01  0.10199709492E+01 0.  0.
     999903    2    3    3    0    0 -0.21103383346E-01  0.11600277310E+00 -0.47237872757E-01  0.12866755637E+00  0.20540868638E-01 0.  0.
         14    1    1    2    0    0 -0.24357463520E-02  0.20637993507E-01  0.11361226650E-01  0.23684110861E-01  0.00000000000E+00 0. -1.
     999901    1    3    3    0    0  0.23539129698E-01 -0.13664076661E+00  0.35876646107E-01  0.89157833277E+00  0.88000000000E+00 0.  1.
        -11    1    4    4    0    0 -0.12366698889E-01  0.70143543325E-01 -0.17605507077E-01  0.73370749703E-01  0.51100000000E-03 0.  1.
         11    1    4    4    0    0 -0.87366844573E-02  0.45859229774E-01 -0.29632365680E-01  0.55296806667E-01  0.51100000000E-03 0. -1.
</event>
<event>
 8    1  0.1041149E+005  0.1043930E+01  0.7957747E-01            NaN
         13   -1    0    0    0    0  0.00000000000E+00  0.00000000000E+00  0.74505805969E-08  0.10566000000E+00  0.10566000000E+00 0.  1.
     999900   -1    0    0    0    0 -0.00000000000E+00 -0.00000000000E+00 -0.74505805969E-08  0.93827000000E+00  0.93827000000E+00 0. -1.
     999902    2    1    2    0    0 -0.18767497312E-01  0.62740096322E-02 -0.12960733264E-01  0.10202749211E+01  0.10200006627E+01 0.  0.
     999903    2    3    3    0    0  0.12576481011E+00  0.17898137472E-01  0.25433962810E-02  0.12827431218E+00  0.17626670505E-01 0.  0.
         14    1    1    2    0    0  0.18767497312E-01 -0.62740096322E-02  0.12960733264E-01  0.23655078925E-01  0.00000000000E+00 0.  1.
     999901    1    3    3    0    0 -0.14453230742E+00 -0.11624127840E-01 -0.15504129545E-01  0.89200060890E+00  0.88000000000E+00 0.  1.
        -11    1    4    4    0    0  0.99500834926E-01  0.91903832850E-02  0.73081001333E-02  0.10019255833E+00  0.51100000000E-03 0.  1.
         11    1    4    4    0    0  0.26263975185E-01  0.87077541871E-02 -0.47647038523E-02  0.28081753850E-01  0.51100000000E-03 0. -1.
</event>
<event>
 8    1  0.1041149E+005  0.1043930E+01  0.7957747E-01            NaN
         13   -1    0    0    0    0  0.00000000000E+00  0.00000000000E+00  0.74505805969E-08  0.10566000000E+00  0.10566000000E+00 0.  1.
     999900   -1    0    0    0    0 -0.00000000000E+00 -0.00000000000E+00 -0.74505805969E-08  0.93827000000E+00  0.93827000000E+00 0.  1.
     999902    2    1    2    0    0  0.20450364746E-01  0.35581176466E-02 -0.12473058632E-01  0.10197131709E+01  0.10194255716E+01 0.  0.
     999903    2    3    3    0    0 -0.50566500699E-01  0.71569455959E-02 -0.11876372577E+00  0.13046964259E+00  0.17587274275E-01 0.  0.
         14    1    1    2    0    0 -0.20450364746E-01 -0.35581176466E-02  0.12473058632E-01  0.24216829087E-01  0.00000000000E+00 0.  1.
     999901    1    3    3    0    0  0.71016865445E-01 -0.35988279493E-02  0.10629066714E+00  0.88924352832E+00  0.88000000000E+00 0. -1.
        -11    1    4    4    0    0 -0.78959753883E-02  0.12632721563E-02 -0.39017272872E-01  0.39831532575E-01  0.51100000000E-03 0.  1.
         11    1    4    4    0    0 -0.42670525311E-01  0.58936734396E-02 -0.79746452896E-01  0.90638110017E-01  0.51100000000E-03 0. -1.
</event>
<event>
 8    1  0.1041149E+005  0.1043930E+01  0.7957747E-01            NaN
         13   -1    0    0    0    0  0.00000000000E+00  0.00000000000E+00  0.74505805969E-08  0.10566000000E+00  0.10566000000E+00 0. -1.
     999900   -1    0    0    0    0 -0.00000000000E+00 -0.00000000000E+00 -0.74505805969E-08  0.93827000000E+00  0.93827000000E+00 0.  1.
     999902    2    1    2    0    0 -0.19806947247E-01  0.16661507373E-01 -0.47559796451E-02  0.10176138390E+01  0.10172735055E+01 0.  0.
     999903    2    3    3    0    0 -0.84986236204E-01 -0.93200259273E-01 -0.14143151767E-01  0.12834106506E+00  0.19038160777E-01 0.  0.
         14    1    1    2    0    0  0.19806947247E-01 -0.16661507373E-01  0.47559796451E-02  0.26316160996E-01  0.00000000000E+00 0. -1.
     999901    1    3    3    0    0  0.65179288957E-01  0.10986176665E+00  0.93871721215E-02  0.88927277395E+00  0.88000000000E+00 0.  1.
        -11    1    4    4    0    0 -0.17894244677E-01 -0.31558264283E-01 -0.10838464252E-02  0.36298262785E-01  0.51100000000E-03 0.  1.
         11    1    4    4    0    0 -0.67091991527E-01 -0.61641994990E-01 -0.13059305341E-01  0.92042802274E-01  0.51100000000E-03 0. -1.
</event>
<event>
 8    1  0.1041149E+005  0.1043930E+01  0.7957747E-01            NaN
         13   -1    0    0    0    0  0.00000000000E+00  0.00000000000E+00  0.74505805969E-08  0.10566000000E+00  0.10566000000E+00 0. -1.
     999900   -1    0    0    0    0 -0.00000000000E+00 -0.00000000000E+00 -0.74505805969E-08  0.93827000000E+00  0.93827000000E+00 0. -1.
     999902    2    1    2    0    0 -0.15825249075E-01 -0.18769133583E-01 -0.82342294251E-02  0.10180355717E+01  0.10177061972E+01 0.  0.
     999903    2    3    3    0    0 -0.25857866841E-01 -0.31332950340E-01 -0.12237979385E+00  0.13051784634E+00  0.20191860143E-01 0.  0.
         14    1    1    2    0    0  0.15825249075E-01  0.18769133583E-01  0.82342294251E-02  0.25894428319E-01  0.00000000000E+00 0. -1.
     999901    1    3    3    0    0  0.10032617766E-01  0.12563816757E-01  0.11414556443E+00  0.88751772534E+00  0.88000000000E+00 0.  1.
        -11    1    4    4    0    0 -0.20863333973E-01 -0.10313304807E-01 -0.72842833358E-01  0.76472102450E-01  0.51100000000E-03 0.  1.
         11    1    4    4    0    0 -0.49945328682E-02 -0.21019645533E-01 -0.49536960494E-01  0.54045743893E-01  0.51100000000E-03 0. -1.
</event>
<event>
 8    1  0.1041149E+005  0.1043930E+01  0.7957747E-01            NaN
         13   -1    0    0    0    0  0.00000000000E+00  0.00000000000E+00  0.74505805969E-08  0.10566000000E+00  0.10566000000E+00 0.  1.
     999900   -1    0    0    0    0 -0.00000000000E+00 -0.00000000000E+00 -0.74505805969E-08  0.93827000000E+00  0.93827000000E+00 0.  1.
     999902    2    1    2    0    0 -0.10130186199E-01 -0.20877133393E-01  0.11425978256E-02  0.10206968147E+01  0.10204323626E+01 0.  0.
     999903    2    3    3    0    0  0.63711287172E-01  0.10174830622E+00 -0.40176966150E-01  0.12817405977E+00  0.20063774783E-01 0.  0.
         14    1    1    2    0    0  0.10130186199E-01  0.20877133393E-01 -0.11425978256E-02  0.23233185337E-01  0.00000000000E+00 0.  1.
     999901    1    3    3    0    0 -0.73841473371E-01 -0.12262543961E+00  0.41319563975E-01  0.89252275489E+00  0.88000000000E+00 0. -1.
        -11    1    4    4    0    0  0.41056260352E-01  0.46944191194E-01 -0.18887625709E-01  0.65164231959E-01  0.51100000000E-03 0.  1.
         11    1    4    4    0    0  0.22655026820E-01  0.54804115023E-01 -0.21289340441E-01  0.63009827813E-01  0.51100000000E-03 0. -1.
</event>
<event>
 8    1  0.1041149E+005  0.1043930E+01  0.7957747E-01            NaN
         13   -1    0    0    0    0  0.00000000000E+00  0.00000000000E+00  0.74505805969E-08  0.10566000000E+00  0.10566000000E+00 0.  1.
     999900   -1    0    0    0    0 -0.00000000000E+00 -0.00000000000E+00 -0.74505805969E-08  0.93827000000E+00  0.93827000000E+00 0. -1.
     999902    2    1    2    0    0  0.87218900339E-02  0.18806705305E-01  0.82927001159E-02  0.10216021608E+01  0.10213581362E+01 0.  0.
     999903    2    3    3    0    0  0.10335414343E+00 -0.51446830222E-01  0.60801377312E-01  0.13219337745E+00  0.21199675816E-01 0.  0.
         14    1    1    2    0    0 -0.87218900339E-02 -0.18806705305E-01 -0.82927001159E-02  0.22327839246E-01  0.00000000000E+00 0. -1.
     999901    1    3    3    0    0 -0.94632253396E-01  0.70253535527E-01 -0.52508677196E-01  0.88940878330E+00  0.88000000000E+00 0. -1.
        -11    1    4    4    0    0  0.92189347740E-01 -0.47870499205E-01  0.46826082846E-01  0.11394473962E+00  0.51100000000E-03 0.  1.
         11    1    4    4    0    0  0.11164795690E-01 -0.35763310170E-02  0.13975294466E-01  0.18248637833E-01  0.51100000000E-03 0. -1.
</event>
<event>
 8    1  0.1041149E+005  0.1043930E+01  0.7957747E-01            NaN
         13   -1    0    0    0    0  0.00000000000E+00  0.00000000000E+00  0.74505805969E-08  0.10566000000E+00  0.10566000000E+00 0. -1.
     999900   -1    0    0    0    0 -0.00000000000E+00 -0.00000000000E+00 -0.74505805969E-08  0.93827000000E+00  0.93827000000E+00 0.  1.
     999902    2    1    2    0    0  0.15610823050E-01  0.13110756631E-01  0.13965779396E-01  0.10192190160E+01  0.10189194128E+01 0.  0.
     999903    2    3    3    0    0 -0.80499982414E-01 -0.95683494161E-01 -0.93907534675E-02  0.12702004517E+00  0.20256539712E-01 0.  0.
         14    1    1    2    0    0 -0.15610823050E-01 -0.13110756631E-01 -0.13965779396E-01  0.24710983993E-01  0.00000000000E+00 0.  1.
     999901    1    3    3    0    0  0.96110805464E-01  0.10879425079E+00  0.23356532864E-01  0.89219897084E+00  0.88000000000E+00 0. -1.
        -11    1    4    4    0    0 -0.39108184348E-01 -0.42673020723E-01 -0.14163523790E-01  0.59592812552E-01  0.51100000000E-03 0. -1.
         11    1    4    4    0    0 -0.41391798066E-01 -0.53010473438E-01  0.47727703221E-02  0.67427232620E-01  0.51100000000E-03 0.  1.
</event>
<event>
 8    1  0.1041149E+005  0.1043930E+01  0.7957747E-01            NaN
         13   -1    0    0    0    0  0.00000000000E+00  0.00000000000E+00  0.74505805969E-08  0.10566000000E+00  0.10566000000E+00 0.  1.
     999900   -1    0    0    0    0 -0.00000000000E+00 -0.00000000000E+00 -0.74505805969E-08  0.93827000000E+00  0.93827000000E+00 0. -1.
     999902    2    1    2    0    0  0.52935152593E-02  0.15724938027E-01 -0.16566193404E-01  0.10204835985E+01  0.10202142133E+01 0.  0.
     999903    2    3    3    0    0 -0.10921250230E+00  0.69958574309E-01 -0.84945630737E-03  0.13127050188E+00  0.20239819935E-01 0.  0.
         14    1    1    2    0    0 -0.52935152593E-02 -0.15724938027E-01  0.16566193404E-01  0.23446401508E-01  0.00000000000E+00 0.  1.
     999901    1    3    3    0    0  0.11450601755E+00 -0.54233636282E-01 -0.15716737097E-01  0.88921309661E+00  0.88000000000E+00 0. -1.
        -11    1    4    4    0    0 -0.75022176688E-01  0.37872321573E-01 -0.50437236129E-02  0.84192279962E-01  0.51100000000E-03 0. -1.
         11    1    4    4    0    0 -0.34190325607E-01  0.32086252736E-01  0.41942673055E-02  0.47078221918E-01  0.51100000000E-03 0.  1.
</event>
<event>
 8    1  0.1041149E+005  0.1043930E+01  0.7957747E-01            NaN
         13   -1    0    0    0    0  0.00000000000E+00  0.00000000000E+00  0.74505805969E-08  0.10566000000E+00  0.10566000000E+00 0.  1.
     999900   -1    0    0    0    0 -0.00000000000E+00 -0.00000000000E+00 -0.74505805969E-08  0.93827000000E+00  0.93827000000E+00 0. -1.
     999902    2    1    2    0    0  0.59530178459E-02  0.20236806864E-01  0.10457195696E-01  0.10203860047E+01  0.10201143460E+01 0.  0.
     999903    2    3    3    0    0 -0.12221577442E+00 -0.13528628028E-01 -0.34470529551E-01  0.12932717139E+00  0.20434787932E-01 0.  0.
         14    1    1    2    0    0 -0.59530178459E-02 -0.20236806864E-01 -0.10457195696E-01  0.23543995314E-01  0.00000000000E+00 0. -1.
     999901    1    3    3    0    0  0.12816879227E+00  0.33765434893E-01  0.44927725247E-01  0.89105883330E+00  0.88000000000E+00 0.  1.
        -11    1    4    4    0    0 -0.76374243064E-01 -0.13338443188E-01 -0.30483589870E-01  0.83309359874E-01  0.51100000000E-03 0.  1.
         11    1    4    4    0    0 -0.45841531357E-01 -0.19018484051E-03 -0.39869396807E-02  0.46017811513E-01  0.51100000000E-03 0. -1.
</event>
<event>
 8    1  0.1041149E+005  0.1043930E+01  0.7957747E-01            NaN
         13   -1    0    0    0    0  0.00000000000E+00  0.00000000000E+00  0.74505805969E-08  0.10566000000E+00  0.10566000000E+00 0. -1.
     999900   -1    0    0    0    0 -0.00000000000E+00 -0.00000000000E+00 -0.74505805969E-08  0.93827000000E+00  0.93827000000E+00 0.  1.
     999902    2    1    2    0    0  0.88807336329E-02  0.11449494465E-01  0.17199224481E-01  0.10214406319E+01  0.10211930243E+01 0.  0.
     999903    2    3    3    0    0 -0.16633124195E-01 -0.72942931933E-01  0.10740944787E+00  0.13244629957E+00  0.20196550165E-01 0.  0.
         14    1    1    2    0    0 -0.88807336329E-02 -0.11449494465E-01 -0.17199224481E-01  0.22489368068E-01  0.00000000000E+00 0.  1.
     999901    1    3    3    0    0  0.25513857828E-01  0.84392426398E-01 -0.90210223385E-01  0.88899433237E+00  0.88000000000E+00 0.  1.
        -11    1    4    4    0    0 -0.41963560344E-03 -0.10948843434E-01  0.60433281679E-02  0.12523426166E-01  0.51100000000E-03 0.  1.
         11    1    4    4    0    0 -0.16213488592E-01 -0.61994088499E-01  0.10136611970E+00  0.11992287340E+00  0.51100000000E-03 0. -1.
</event>
<event>
 8    1  0.1041149E+005  0.1043930E+01  0.7957747E-01            NaN
         13   -1    0    0    0    0  0.00000000000E+00  0.00000000000E+00  0.74505805969E-08  0.10566000000E+00  0.10566000000E+00 0.  1.
     999900   -1    0    0    0    0 -0.00000000000E+00 -0.00000000000E+00 -0.74505805969E-08  0.93827000000E+00  0.93827000000E+00 0. -1.
     999902    2    1    2    0    0 -0.23771869319E-01  0.25929332284E-02  0.13658471611E-02  0.10199781606E+01  0.10196968949E+01 0.  0.
     999903    2    3    3    0    0  0.10810247740E+00  0.24724999566E-01 -0.60141256672E-01  0.12775408809E+00  0.20165937819E-01 0.  0.
         14    1    1    2    0    0  0.23771869319E-01 -0.25929332284E-02 -0.13658471611E-02  0.23951839431E-01  0.00000000000E+00 0. -1.
     999901    1    3    3    0    0 -0.13187434671E+00 -0.22132066338E-01  0.61507103833E-01  0.89222407247E+00  0.88000000000E+00 0.  1.
        -11    1    4    4    0    0  0.87009674092E-01  0.17584895434E-01 -0.56388563309E-01  0.10516578876E+00  0.51100000000E-03 0. -1.
         11    1    4    4    0    0  0.21092803304E-01  0.71401041325E-02 -0.37526933634E-02  0.22588299332E-01  0.51100000000E-03 0.  1.
</event>
<event>
 8    1  0.1041149E+005  0.1043930E+01  0.7957747E-01            NaN
         13   -1    0    0    0    0  0.00000000000E+00  0.00000000000E+00  0.74505805969E-08  0.10566000000E+00  0.10566000000E+00 0.  1.
     999900   -1    0    0    0    0 -0.00000000000E+00 -0.00000000000E+00 -0.74505805969E-08  0.93827000000E+00  0.93827000000E+00 0. -1.
     999902    2    1    2    0    0  0.20522541108E-01 -0.39272467008E-02 -0.10940337905E-01  0.10203442214E+01  0.10200715863E+01 0.  0.
     999903    2    3    3    0    0 -0.84644687332E-01 -0.22661712473E-01 -0.94001159824E-01  0.13000146362E+00  0.19643986052E-01 0.  0.
         14    1    1    2    0    0 -0.20522541108E-01  0.39272467008E-02  0.10940337905E-01  0.23585778632E-01  0.00000000000E+00 0.  1.
     999901    1    3    3    0    0  0.10516722844E+00  0.18734465772E-01  0.83060821920E-01  0.89034275775E+00  0.88000000000E+00 0.  1.
        -11    1    4    4    0    0 -0.58132649975E-01 -0.23507711846E-01 -0.59169330285E-01  0.86216519744E-01  0.51100000000E-03 0. -1.
         11    1    4    4    0    0 -0.26512037357E-01  0.84599937342E-03 -0.34831829539E-01  0.43784943871E-01  0.51100000000E-03 0.  1.
</event>
<event>
 8    1  0.1041149E+005  0.1043930E+01  0.7957747E-01            NaN
         13   -1    0    0    0    0  0.00000000000E+00  0.00000000000E+00  0.74505805969E-08  0.10566000000E+00  0.10566000000E+00 0. -1.
     999900   -1    0    0    0    0 -0.00000000000E+00 -0.00000000000E+00 -0.74505805969E-08  0.93827000000E+00  0.93827000000E+00 0.  1.
     999902    2    1    2    0    0  0.11892141967E-03 -0.21280948969E-01  0.93845057462E-02  0.10206714128E+01  0.10204063754E+01 0.  0.
     999903    2    3    3    0    0  0.11739079186E-01  0.74151617415E-01 -0.10231847305E+00  0.12841586740E+00  0.19628976721E-01 0.  0.
         14    1    1    2    0    0 -0.11892141967E-03  0.21280948969E-01 -0.93845057462E-02  0.23258587219E-01  0.00000000000E+00 0.  1.
     999901    1    3    3    0    0 -0.11620157766E-01 -0.95432566384E-01  0.11170297880E+00  0.89225554538E+00  0.88000000000E+00 0. -1.
        -11    1    4    4    0    0 -0.74482188473E-03  0.10426244634E-01 -0.27060558822E-01  0.29013726090E-01  0.51100000000E-03 0. -1.
         11    1    4    4    0    0  0.12483901071E-01  0.63725372781E-01 -0.75257914228E-01  0.99402141310E-01  0.51100000000E-03 0.  1.
</event>
<event>
 8    1  0.1041149E+005  0.1043930E+01  0.7957747E-01            NaN
         13   -1    0    0    0    0  0.00000000000E+00  0.00000000000E+00  0.74505805969E-08  0.10566000000E+00  0.10566000000E+00 0.  1.
     999900   -1    0    0    0    0 -0.00000000000E+00 -0.00000000000E+00 -0.74505805969E-08  0.93827000000E+00  0.93827000000E+00 0. -1.
     999902    2    1    2    0    0 -0.44756788807E-02  0.92750943945E-02  0.21281501616E-01  0.10202876357E+01  0.10200136755E+01 0.  0.
     999903    2    3    3    0    0 -0.75103341801E-01 -0.97045738366E-01 -0.35524781169E-01  0.12926612083E+00  0.19731513674E-01 0.  0.
         14    1    1    2    0    0  0.44756788807E-02 -0.92750943945E-02 -0.21281501616E-01  0.23642364274E-01  0.00000000000E+00 0. -1.
     999901    1    3    3    0    0  0.70627662921E-01  0.10632083276E+00  0.56806282784E-01  0.89102151490E+00  0.88000000000E+00 0.  1.
        -11    1    4    4    0    0 -0.12888272505E-01 -0.27503278385E-01 -0.14278089897E-01  0.33565798995E-01  0.51100000000E-03 0.  1.
         11    1    4    4    0    0 -0.62215069296E-01 -0.69542459981E-01 -0.21246691272E-01  0.95700321832E-01  0.51100000000E-03 0. -1.
</event>
<event>
 8    1  0.1041149E+005  0.1043930E+01  0.7957747E-01            NaN
         13   -1    0    0    0    0  0.00000000000E+00  0.00000000000E+00  0.74505805969E-08  0.10566000000E+00  0.10566000000E+00 0.  1.
     999900   -1    0    0    0    0 -0.00000000000E+00 -0.00000000000E+00 -0.74505805969E-08  0.93827000000E+00  0.93827000000E+00 0. -1.
     999902    2    1    2    0    0  0.17536658484E-01 -0.10601461286E-01  0.14114814727E-01  0.10190472074E+01  0.10187433718E+01 0.  0.
     999903    2    3    3    0    0 -0.52666095142E-01  0.11119628048E+00  0.89070391890E-02  0.12787369039E+00  0.33675138854E-01 0.  0.
         14    1    1    2    0    0 -0.17536658484E-01  0.10601461286E-01 -0.14114814727E-01  0.24882792587E-01  0.00000000000E+00 0.  1.
     999901    1    3    3    0    0  0.70202753626E-01 -0.12179774177E+00  0.52077755377E-02  0.89117351702E+00  0.88000000000E+00 0. -1.
        -11    1    4    4    0    0 -0.18426338186E-01  0.48436871788E-01  0.19947974475E-01  0.55532362584E-01  0.51100000000E-03 0.  1.
         11    1    4    4    0    0 -0.34239756955E-01  0.62759408692E-01 -0.11040935286E-01  0.72341327806E-01  0.51100000000E-03 0. -1.
</event>
<event>
 8    1  0.1041149E+005  0.1043930E+01  0.7957747E-01            NaN
         13   -1    0    0    0    0  0.00000000000E+00  0.00000000000E+00  0.74505805969E-08  0.10566000000E+00  0.10566000000E+00 0.  1.
     999900   -1    0    0    0    0 -0.00000000000E+00 -0.00000000000E+00 -0.74505805969E-08  0.93827000000E+00  0.93827000000E+00 0.  1.
     999902    2    1    2    0    0 -0.17897290846E-01 -0.14026187988E-01  0.89976107040E-02  0.10194758804E+01  0.10191825483E+01 0.  0.
     999903    2    3    3    0    0  0.11189527400E+00  0.13961189331E-01  0.57478302970E-01  0.12819602492E+00  0.20371508130E-01 0.  0.
         14    1    1    2    0    0  0.17897290846E-01  0.14026187988E-01 -0.89976107040E-02  0.24454119642E-01  0.00000000000E+00 0. -1.
     999901    1    3    3    0    0 -0.12979256484E+00 -0.27987377319E-01 -0.48480692266E-01  0.89127985543E+00  0.88000000000E+00 0.  1.
        -11    1    4    4    0    0  0.36044840086E-01 -0.34974266707E-02  0.24114778338E-01  0.43511448441E-01  0.51100000000E-03 0. -1.
         11    1    4    4    0    0  0.75850433912E-01  0.17458616002E-01  0.33363524633E-01  0.84684576484E-01  0.51100000000E-03 0.  1.
</event>
<event>
 8    1  0.1041149E+005  0.1043930E+01  0.7957747E-01            NaN
         13   -1    0    0    0    0  0.00000000000E+00  0.00000000000E+00  0.74505805969E-08  0.10566000000E+00  0.10566000000E+00 0.  1.
     999900   -1    0    0    0    0 -0.00000000000E+00 -0.00000000000E+00 -0.74505805969E-08  0.93827000000E+00  0.93827000000E+00 0.  1.
     999902    2    1    2    0    0  0.17474577685E-01  0.16780482478E-01 -0.33597713533E-02  0.10194711873E+01  0.10191777412E+01 0.  0.
     999903    2    3    3    0    0  0.47143939180E-01  0.12097912066E+00  0.25107053767E-02  0.13280772815E+00  0.27804502846E-01 0.  0.
         14    1    1    2    0    0 -0.17474577685E-01 -0.16780482478E-01  0.33597713533E-02  0.24458812748E-01  0.00000000000E+00 0. -1.
     999901    1    3    3    0    0 -0.29669361495E-01 -0.10419863818E+00 -0.58704767300E-02  0.88666345910E+00  0.88000000000E+00 0.  1.
        -11    1    4    4    0    0  0.95768988889E-02  0.58401766991E-02 -0.28176352166E-02  0.11576910012E-01  0.51100000000E-03 0. -1.
         11    1    4    4    0    0  0.37567040291E-01  0.11513894396E+00  0.53283405932E-02  0.12123081814E+00  0.51100000000E-03 0.  1.
</event>
<event>
 8    1  0.1041149E+005  0.1043930E+01  0.7957747E-01            NaN
         13   -1    0    0    0    0  0.00000000000E+00  0.00000000000E+00  0.74505805969E-08  0.10566000000E+00  0.10566000000E+00 0. -1.
     999900   -1    0    0    0    0 -0.00000000000E+00 -0.00000000000E+00 -0.74505805969E-08  0.93827000000E+00  0.93827000000E+00 0. -1.
     999902    2    1    2    0    0 -0.13494319889E-01  0.17955802648E-01 -0.22072193047E-03  0.10214676707E+01  0.10212206648E+01 0.  0.
     999903    2    3    3    0    0 -0.11895767281E+00  0.28233260684E-01 -0.50165039927E-01  0.13370498856E+00  0.20308811054E-01 0.  0.
         14    1    1    2    0    0  0.13494319889E-01 -0.17955802648E-01  0.22072193047E-03  0.22462329269E-01  0.00000000000E+00 0.  1.
     999901    1    3    3    0    0  0.10546335292E+00 -0.10277458036E-01  0.49944317997E-01  0.88776268217E+00  0.88000000000E+00 0.  1.
        -11    1    4    4    0    0 -0.72173929867E-01  0.68855407153E-02 -0.30064109990E-01  0.78489481167E-01  0.51100000000E-03 0.  1.
         11    1    4    4    0    0 -0.46783742942E-01  0.21347719969E-01 -0.20100929938E-01  0.55215507395E-01  0.51100000000E-03 0. -1.
</event>
<event>
 8    1  0.1041149E+005  0.1043930E+01  0.7957747E-01            NaN
         13   -1    0    0    0    0  0.00000000000E+00  0.00000000000E+00  0.74505805969E-08  0.10566000000E+00  0.10566000000E+00 0. -1.
     999900   -1    0    0    0    0 -0.00000000000E+00 -0.00000000000E+00 -0.74505805969E-08  0.93827000000E+00  0.93827000000E+00 0.  1.
     999902    2    1    2    0    0  0.17547037833E-01  0.15405885371E-02 -0.18748697572E-01  0.10182048059E+01  0.10178797774E+01 0.  0.
     999903    2    3    3    0    0  0.27711962933E-01 -0.98038744547E-01  0.74249817079E-01  0.12766109952E+00  0.20118963016E-01 0.  0.
         14    1    1    2    0    0 -0.17547037833E-01 -0.15405885371E-02  0.18748697572E-01  0.25725194079E-01  0.00000000000E+00 0. -1.
     999901    1    3    3    0    0 -0.10164925100E-01  0.99579333084E-01 -0.92998514652E-01  0.89054370640E+00  0.88000000000E+00 0. -1.
        -11    1    4    4    0    0  0.93920976726E-02 -0.30403505244E-01  0.35148081544E-01  0.47415539510E-01  0.51100000000E-03 0. -1.
         11    1    4    4    0    0  0.18319865260E-01 -0.67635239303E-01  0.39101735536E-01  0.80245560012E-01  0.51100000000E-03 0.  1.
</event>
<event>
 8    1  0.1041149E+005  0.1043930E+01  0.7957747E-01            NaN
         13   -1    0    0    0    0  0.00000000000E+00  0.00000000000E+00  0.74505805969E-08  0.10566000000E+00  0.10566000000E+00 0. -1.
     999900   -1    0    0    0    0 -0.00000000000E+00 -0.00000000000E+00 -0.74505805969E-08  0.93827000000E+00  0.93827000000E+00 0. -1.
     999902    2    1    2    0    0 -0.97825699849E-02  0.66470111234E-02  0.21341370289E-01  0.10195305017E+01  0.10192384943E+01 0.  0.
     999903    2    3    3    0    0  0.60175220346E-01  0.11218649254E+00 -0.14064834018E-01  0.12976296245E+00  0.20826440316E-01 0.  0.
         14    1    1    2    0    0  0.97825699849E-02 -0.66470111234E-02 -0.21341370289E-01  0.24399498319E-01  0.00000000000E+00 0.  1.
     999901    1    3    3    0    0 -0.69957790331E-01 -0.10553948142E+00  0.35406204307E-01  0.88976753923E+00  0.88000000000E+00 0.  1.
        -11    1    4    4    0    0  0.32985279913E-01  0.74798698837E-01 -0.11405592364E-02  0.81758400394E-01  0.51100000000E-03 0.  1.
         11    1    4    4    0    0  0.27189940433E-01  0.37387793702E-01 -0.12924274781E-01  0.48004562056E-01  0.51100000000E-03 0. -1.
</event>
<event>
 8    1  0.1041149E+005  0.1043930E+01  0.7957747E-01            NaN
         13   -1    0    0    0    0  0.00000000000E+00  0.00000000000E+00  0.74505805969E-08  0.10566000000E+00  0.10566000000E+00 0. -1.
     999900   -1    0    0    0    0 -0.00000000000E+00 -0.00000000000E+00 -0.74505805969E-08  0.93827000000E+00  0.93827000000E+00 0.  1.
     999902    2    1    2    0    0  0.96488441560E-02 -0.79536025646E-02  0.20470223864E-01  0.10199427106E+01  0.10196606018E+01 0.  0.
     999903    2    3    3    0    0 -0.91990140246E-01 -0.88427699627E-01  0.22497078475E-01  0.13044247363E+00  0.15082321527E-01 0.  0.
         14    1    1    2    0    0 -0.96488441560E-02  0.79536025646E-02 -0.20470223864E-01  0.23987289392E-01  0.00000000000E+00 0.  1.
     999901    1    3    3    0    0  0.10163898440E+00  0.80474097062E-01 -0.20268546110E-02  0.88950023698E+00  0.88000000000E+00 0. -1.
        -11    1    4    4    0    0 -0.13992151700E-01 -0.17104567731E-01  0.90991687158E-02  0.23904027668E-01  0.51100000000E-03 0. -1.
         11    1    4    4    0    0 -0.77997988546E-01 -0.71323131896E-01  0.13397909760E-01  0.10653844596E+00  0.51100000000E-03 0.  1.
</event>
<event>
 8    1  0.1041149E+005  0.1043930E+01  0.7957747E-01            NaN
         13   -1    0    0    0    0  0.00000000000E+00  0.00000000000E+00  0.74505805969E-08  0.10566000000E+00  0.10566000000E+00 0. -1.
     999900   -1    0    0    0    0 -0.00000000000E+00 -0.00000000000E+00 -0.74505805969E-08  0.93827000000E+00  0.93827000000E+00 0. -1.
     999902    2    1    2    0    0  0.18528741861E-01  0.12989833378E-01  0.88888928340E-03  0.10212840253E+01  0.10210329183E+01 0.  0.
     999903    2    3    3    0    0  0.66669646405E-02 -0.92617857189E-01 -0.88785427579E-01  0.13036586454E+00  0.22133472343E-01 0.  0.
         14    1    1    2    0    0 -0.18528741861E-01 -0.12989833378E-01 -0.88888928340E-03  0.22645974705E-01  0.00000000000E+00 0.  1.
     999901    1    3    3    0    0  0.11861777221E-01  0.10560769057E+00  0.89674316863E-01  0.89091816076E+00  0.88000000000E+00 0.  1.
        -11    1    4    4    0    0  0.96196832975E-02 -0.45911579038E-01 -0.56849864268E-01  0.73706034929E-01  0.51100000000E-03 0. -1.
         11    1    4    4    0    0 -0.29527186570E-02 -0.46706278151E-01 -0.31935563311E-01  0.56659829608E-01  0.51100000000E-03 0.  1.
</event>
<event>
 8    1  0.1041149E+005  0.1043930E+01  0.7957747E-01            NaN
         13   -1    0    0    0    0  0.00000000000E+00  0.00000000000E+00  0.74505805969E-08  0.10566000000E+00  0.10566000000E+00 0. -1.
     999900   -1    0    0    0    0 -0.00000000000E+00 -0.00000000000E+00 -0.74505805969E-08  0.93827000000E+00  0.93827000000E+00 0.  1.
     999902    2    1    2    0    0  0.48128922699E-02  0.82191647710E-02 -0.21326792966E-01  0.10205729732E+01  0.10203056615E+01 0.  0.
     999903    2    3    3    0    0 -0.50916206801E-01 -0.86352290123E-01 -0.82874097524E-01  0.13161990176E+00  0.20161953659E-01 0.  0.
         14    1    1    2    0    0 -0.48128922699E-02 -0.82191647710E-02  0.21326792966E-01  0.23357026775E-01  0.00000000000E+00 0. -1.
     999901    1    3    3    0    0  0.55729099070E-01  0.94571454894E-01  0.61547304558E-01  0.88895307146E+00  0.88000000000E+00 0. -1.
        -11    1    4    4    0    0 -0.91731741714E-02 -0.32419195774E-01 -0.22343994386E-01  0.40431010192E-01  0.51100000000E-03 0.  1.
         11    1    4    4    0    0 -0.41743032629E-01 -0.53933094349E-01 -0.60530103138E-01  0.91188891572E-01  0.51100000000E-03 0. -1.
</event>
<event>
 8    1  0.1041149E+005  0.1043930E+01  0.7957747E-01            NaN
         13   -1    0    0    0    0  0.00000000000E+00  0.00000000000E+00  0.74505805969E-08  0.10566000000E+00  0.10566000000E+00 0. -1.
     999900   -1    0    0    0    0 -0.00000000000E+00 -0.00000000000E+00 -0.74505805969E-08  0.93827000000E+00  0.93827000000E+00 0. -1.
     999902    2    1    2    0    0  0.13098729276E-01  0.13139780105E-01  0.13789807104E-01  0.10208131380E+01  0.10205513575E+01 0.  0.
     999903    2    3    3    0    0 -0.43854654780E-01  0.55958589666E-02  0.12295100011E+00  0.13220930906E+00  0.20194271268E-01 0.  0.
         14    1    1    2    0    0 -0.13098729276E-01 -0.13139780105E-01 -0.13789807104E-01  0.23116862023E-01  0.00000000000E+00 0.  1.
     999901    1    3    3    0    0  0.56953384055E-01  0.75439211383E-02 -0.10916119300E+00  0.88860382891E+00  0.88000000000E+00 0. -1.
        -11    1    4    4    0    0 -0.93591833777E-02 -0.59491638326E-02  0.42306361325E-01  0.43738726471E-01  0.51100000000E-03 0. -1.
         11    1    4    4    0    0 -0.34495471402E-01  0.11545022799E-01  0.80644638783E-01  0.88470582592E-01  0.51100000000E-03 0.  1.
</event>
<event>
 8    1  0.1041149E+005  0.1043930E+01  0.7957747E-01            NaN
         13   -1    0    0    0    0  0.00000000000E+00  0.00000000000E+00  0.74505805969E-08  0.10566000000E+00  0.10566000000E+00 0.  1.
     999900   -1    0    0    0    0 -0.00000000000E+00 -0.00000000000E+00 -0.74505805969E-08  0.93827000000E+00  0.93827000000E+00 0.  1.
     999902    2    1    2    0    0  0.11413770435E-01  0.48089462442E-02  0.21745933857E-01  0.10189042980E+01  0.10185969187E+01 0.  0.
     999903    2    3    3    0    0  0.33222151584E-01  0.74112293445E-01  0.10070073394E+00  0.13238728191E+00  0.28096462415E-01 0.  0.
         14    1    1    2    0    0 -0.11413770435E-01 -0.48089462442E-02 -0.21745933857E-01  0.25025701965E-01  0.00000000000E+00 0. -1.
     999901    1    3    3    0    0 -0.21808381149E-01 -0.69303347201E-01 -0.78954800083E-01  0.88651701612E+00  0.88000000000E+00 0.  1.
        -11    1    4    4    0    0  0.17620667792E-01  0.30645350741E-01  0.65075847624E-01  0.74059115040E-01  0.51100000000E-03 0. -1.
         11    1    4    4    0    0  0.15601483792E-01  0.43466942704E-01  0.35624886315E-01  0.58328166871E-01  0.51100000000E-03 0.  1.
</event>
<event>
 8    1  0.1041149E+005  0.1043930E+01  0.7957747E-01            NaN
         13   -1    0    0    0    0  0.00000000000E+00  0.00000000000E+00  0.74505805969E-08  0.10566000000E+00  0.10566000000E+00 0.  1.
     999900   -1    0    0    0    0 -0.00000000000E+00 -0.00000000000E+00 -0.74505805969E-08  0.93827000000E+00  0.93827000000E+00 0.  1.
     999902    2    1    2    0    0  0.23833713703E-01 -0.55513624116E-02 -0.33641869513E-02  0.10192281521E+01  0.10189287732E+01 0.  0.
     999903    2    3    3    0    0 -0.10950229380E+00 -0.57364751273E-01  0.22369780718E-01  0.12730587120E+00  0.20613362542E-01 0.  0.
         14    1    1    2    0    0 -0.23833713703E-01  0.55513624116E-02  0.33641869513E-02  0.24701847853E-01  0.00000000000E+00 0. -1.
     999901    1    3    3    0    0  0.13333600751E+00  0.51813388861E-01 -0.25733967669E-01  0.89192228095E+00  0.88000000000E+00 0.  1.
        -11    1    4    4    0    0 -0.55464678773E-01 -0.18611656993E-01  0.59387603389E-02  0.58806924446E-01  0.51100000000E-03 0.  1.
         11    1    4    4    0    0 -0.54037615029E-01 -0.38753094280E-01  0.16431020379E-01  0.68498946751E-01  0.51100000000E-03 0. -1.
</event>
<event>
 8    1  0.1041149E+005  0.1043930E+01  0.7957747E-01            NaN
         13   -1    0    0    0    0  0.00000000000E+00  0.00000000000E+00  0.74505805969E-08  0.10566000000E+00  0.10566000000E+00 0.  1.
     999900   -1    0    0    0    0 -0.00000000000E+00 -0.00000000000E+00 -0.74505805969E-08  0.93827000000E+00  0.93827000000E+00 0.  1.
     999902    2    1    2    0    0 -0.82420790188E-02  0.45744112886E-02 -0.19002140972E-01  0.10227182470E+01  0.10224982514E+01 0.  0.
     999903    2    3    3    0    0  0.10924880158E+00  0.56824036279E-01 -0.45907679329E-01  0.13296657468E+00  0.20207009069E-01 0.  0.
         14    1    1    2    0    0  0.82420790188E-02 -0.45744112886E-02  0.19002140972E-01  0.21211753032E-01  0.00000000000E+00 0.  1.
     999901    1    3    3    0    0 -0.11749088060E+00 -0.52249624990E-01  0.26905538357E-01  0.88975167228E+00  0.88000000000E+00 0. -1.
        -11    1    4    4    0    0  0.20856977142E-01  0.12314481344E-01 -0.17871470795E-01  0.30104991873E-01  0.51100000000E-03 0.  1.
         11    1    4    4    0    0  0.88391824441E-01  0.44509554935E-01 -0.28036208533E-01  0.10286158281E+00  0.51100000000E-03 0. -1.
</event>
<event>
 8    1  0.1041149E+005  0.1043930E+01  0.7957747E-01            NaN
         13   -1    0    0    0    0  0.00000000000E+00  0.00000000000E+00  0.74505805969E-08  0.10566000000E+00  0.10566000000E+00 0.  1.
     999900   -1    0    0    0    0 -0.00000000000E+00 -0.00000000000E+00 -0.74505805969E-08  0.93827000000E+00  0.93827000000E+00 0. -1.
     999902    2    1    2    0    0  0.67058955087E-02 -0.14510077018E-01 -0.18278681263E-01  0.10196478757E+01  0.10193587048E+01 0.  0.
     999903    2    3    3    0    0 -0.10203096724E-01  0.12499977640E+00 -0.25848913417E-01  0.12846539071E+00  0.10302572648E-01 0.  0.
         14    1    1    2    0    0 -0.67058955087E-02  0.14510077018E-01  0.18278681263E-01  0.24282124255E-01  0.00000000000E+00 0.  1.
     999901    1    3    3    0    0  0.16908992233E-01 -0.13950985342E+00  0.75702321544E-02  0.89118248504E+00  0.88000000000E+00 0. -1.
        -11    1    4    4    0    0 -0.42842994988E-02  0.36065519362E-01 -0.12061169724E-01  0.38272834298E-01  0.51100000000E-03 0.  1.
         11    1    4    4    0    0 -0.59187972256E-02  0.88934257035E-01 -0.13787743693E-01  0.90192556412E-01  0.51100000000E-03 0. -1.
</event>
<event>
 8    1  0.1041149E+005  0.1043930E+01  0.7957747E-01            NaN
         13   -1    0    0    0    0  0.00000000000E+00  0.00000000000E+00  0.74505805969E-08  0.10566000000E+00  0.10566000000E+00 0.  1.
     999900   -1    0    0    0    0 -0.00000000000E+00 -0.00000000000E+00 -0.74505805969E-08  0.93827000000E+00  0.93827000000E+00 0.  1.
     999902    2    1    2    0    0  0.23298295651E-01  0.25015522222E-02 -0.33122351260E-02  0.10202648517E+01  0.10199903570E+01 0.  0.
     999903    2    3    3    0    0  0.26699701248E-01  0.11769964219E+00  0.47315792725E-01  0.13130739111E+00  0.20898968892E-01 0.  0.
         14    1    1    2    0    0 -0.23298295651E-01 -0.25015522222E-02  0.33122351260E-02  0.23665148326E-01  0.00000000000E+00 0.  1.
     999901    1    3    3    0    0 -0.34014055967E-02 -0.11519808996E+00 -0.50628027851E-01  0.88895746057E+00  0.88000000000E+00 0.  1.
        -11    1    4    4    0    0 -0.14865850094E-02  0.19419077277E-01  0.23897109816E-02  0.19628610161E-01  0.51100000000E-03 0. -1.
         11    1    4    4    0    0  0.28186286257E-01  0.98280564910E-01  0.44926081744E-01  0.11167878095E+00  0.51100000000E-03 0.  1.
</event>
<event>
 8    1  0.1041149E+005  0.1043930E+01  0.7957747E-01            NaN
         13   -1    0    0    0    0  0.00000000000E+00  0.00000000000E+00  0.74505805969E-08  0.10566000000E+00  0.10566000000E+00 0.  1.
     999900   -1    0    0    0    0 -0.00000000000E+00 -0.00000000000E+00 -0.74505805969E-08  0.93827000000E+00  0.93827000000E+00 0. -1.
     999902    2    1    2    0    0  0.15289971242E-01 -0.17617903454E-01  0.61258960189E-02  0.10198115352E+01  0.10195262954E+01 0.  0.
     999903    2    3    3    0    0 -0.71458347434E-01 -0.95032173950E-01  0.51633385195E-01  0.13099818491E+00  0.18897314064E-01 0.  0.
         14    1    1    2    0    0 -0.15289971242E-01  0.17617903454E-01 -0.61258960189E-02  0.24118464809E-01  0.00000000000E+00 0. -1.
     999901    1    3    3    0    0  0.86748318677E-01  0.77414270497E-01 -0.45507489176E-01  0.88881335028E+00  0.88000000000E+00 0. -1.
        -11    1    4    4    0    0 -0.26184393780E-01 -0.21396156494E-01  0.11779988955E-01  0.35811272682E-01  0.51100000000E-03 0. -1.
         11    1    4    4    0    0 -0.45273953655E-01 -0.73636017456E-01  0.39853396240E-01  0.95186912226E-01  0.51100000000E-03 0.  1.
</event>
<event>
 8    1  0.1041149E+005  0.1043930E+01  0.7957747E-01            NaN
         13   -1    0    0    0    0  0.00000000000E+00  0.00000000000E+00  0.74505805969E-08  0.10566000000E+00  0.10566000000E+00 0. -1.
     999900   -1    0    0    0    0 -0.00000000000E+00 -0.00000000000E+00 -0.74505805969E-08  0.93827000000E+00  0.93827000000E+00 0.  1.
     999902    2    1    2    0    0 -0.17357521909E-01 -0.22026091164E-02  0.16339494687E-01  0.10199901976E+01  0.10197092179E+01 0.  0.
     999903    2    3    3    0    0 -0.22002706771E-01  0.11619695668E+00  0.53725411611E-01  0.13126203795E+00  0.18906372127E-01 0.  0.
         14    1    1    2    0    0  0.17357521909E-01  0.22026091164E-02 -0.16339494687E-01  0.23939802430E-01  0.00000000000E+00 0. -1.
     999901    1    3    3    0    0  0.46451848621E-02 -0.11839956579E+00 -0.37385916924E-01  0.88872815962E+00  0.88000000000E+00 0. -1.
        -11    1    4    4    0    0 -0.14539080027E-03  0.32247492268E-01  0.21298529063E-01  0.38649842914E-01  0.51100000000E-03 0.  1.
         11    1    4    4    0    0 -0.21857315971E-01  0.83949464409E-01  0.32426882548E-01  0.92612195033E-01  0.51100000000E-03 0. -1.
</event>
<event>
 8    1  0.1225883E+005  0.1043930E+01  0.7957747E-01            NaN
         13   -1    0    0    0    0  0.00000000000E+00  0.00000000000E+00  0.74505805969E-08  0.10566000000E+00  0.10566000000E+00 0.  1.
     999900   -1    0    0    0    0 -0.00000000000E+00 -0.00000000000E+00 -0.74505805969E-08  0.93827000000E+00  0.93827000000E+00 0.  1.
     999902    2    1    2    0    0 -0.14361943697E-01  0.16690918745E-01  0.63455339393E-02  0.10210145468E+01  0.10207573594E+01 0.  0.
     999903    2    3    3    0    0 -0.13602610613E-01  0.13047950285E+00 -0.15417073167E-01  0.13342115478E+00  0.18803901687E-01 0.  0.
         14    1    1    2    0    0  0.14361943697E-01 -0.16690918745E-01 -0.63455339393E-02  0.22915453220E-01  0.00000000000E+00 0.  1.
     999901    1    3    3    0    0 -0.75933308467E-03 -0.11378858410E+00  0.21762607107E-01  0.88759339200E+00  0.88000000000E+00 0. -1.
        -11    1    4    4    0    0 -0.16991697836E-01  0.74900722251E-01 -0.73704273208E-02  0.77158410487E-01  0.51100000000E-03 0. -1.
         11    1    4    4    0    0  0.33890872236E-02  0.55578780595E-01 -0.80466458467E-02  0.56262744290E-01  0.51100000000E-03 0.  1.
</event>
<event>
 8    1  0.1041149E+005  0.1043930E+01  0.7957747E-01            NaN
         13   -1    0    0    0    0  0.00000000000E+00  0.00000000000E+00  0.74505805969E-08  0.10566000000E+00  0.10566000000E+00 0. -1.
     999900   -1    0    0    0    0 -0.00000000000E+00 -0.00000000000E+00 -0.74505805969E-08  0.93827000000E+00  0.93827000000E+00 0.  1.
     999902    2    1    2    0    0  0.20397765652E-01  0.10078273023E-01  0.60445097327E-02  0.10203890457E+01  0.10201174580E+01 0.  0.
     999903    2    3    3    0    0 -0.33804829093E-01 -0.70390956686E-01 -0.10040890390E+00  0.12867970547E+00  0.19464464158E-01 0.  0.
         14    1    1    2    0    0 -0.20397765652E-01 -0.10078273023E-01 -0.60445097327E-02  0.23540954284E-01  0.00000000000E+00 0.  1.
     999901    1    3    3    0    0  0.54202594745E-01  0.80469229709E-01  0.10645341363E+00  0.89170934025E+00  0.88000000000E+00 0. -1.
        -11    1    4    4    0    0 -0.92680776138E-02 -0.58155083476E-02 -0.18795218356E-01  0.21754051440E-01  0.51100000000E-03 0.  1.
         11    1    4    4    0    0 -0.24536751479E-01 -0.64575448339E-01 -0.81613685541E-01  0.10692565403E+00  0.51100000000E-03 0. -1.
</event>
<event>
 8    1  0.1041149E+005  0.1043930E+01  0.7957747E-01            NaN
         13   -1    0    0    0    0  0.00000000000E+00  0.00000000000E+00  0.74505805969E-08  0.10566000000E+00  0.10566000000E+00 0.  1.
     999900   -1    0    0    0    0 -0.00000000000E+00 -0.00000000000E+00 -0.74505805969E-08  0.93827000000E+00  0.93827000000E+00 0. -1.
     999902    2    1    2    0    0  0.59709904664E-02 -0.19787840204E-01 -0.11592659971E-01  0.10202318753E+01  0.10199566061E+01 0.  0.
     999903    2    3    3    0    0  0.11507303785E-01  0.71292510139E-01 -0.10685773987E+00  0.13039946616E+00  0.19245886901E-01 0.  0.
         14    1    1    2    0    0 -0.59709904664E-02  0.19787840204E-01  0.11592659971E-01  0.23698124658E-01  0.00000000000E+00 0.  1.
     999901    1    3    3    0    0 -0.55363133183E-02 -0.91080350343E-01  0.95265079898E-01  0.88983240918E+00  0.88000000000E+00 0.  1.
        -11    1    4    4    0    0 -0.46079152398E-02  0.27657485257E-01 -0.35944408619E-01  0.45589812519E-01  0.51100000000E-03 0. -1.
         11    1    4    4    0    0  0.16115219025E-01  0.43635024882E-01 -0.70913331250E-01  0.84809653641E-01  0.51100000000E-03 0.  1.
</event>
<event>
 8    1  0.1041149E+005  0.1043930E+01  0.7957747E-01            NaN
         13   -1    0    0    0    0  0.00000000000E+00  0.00000000000E+00  0.74505805969E-08  0.10566000000E+00  0.10566000000E+00 0. -1.
     999900   -1    0    0    0    0 -0.00000000000E+00 -0.00000000000E+00 -0.74505805969E-08  0.93827000000E+00  0.93827000000E+00 0.  1.
     999902    2    1    2    0    0 -0.25411612110E-01 -0.11711034145E-02 -0.85158863130E-02  0.10171038591E+01  0.10167500275E+01 0.  0.
     999903    2    3    3    0    0 -0.55783692960E-01  0.80742278998E-01  0.80057438618E-01  0.12835333206E+00  0.20838626512E-01 0.  0.
         14    1    1    2    0    0  0.25411612110E-01  0.11711034145E-02  0.85158863130E-02  0.26826140850E-01  0.00000000000E+00 0. -1.
     999901    1    3    3    0    0  0.30372080850E-01 -0.81913382412E-01 -0.88573324931E-01  0.88875052709E+00  0.88000000000E+00 0. -1.
        -11    1    4    4    0    0 -0.13452171807E-01  0.14801543282E-01  0.27464570877E-01  0.33979558330E-01  0.51100000000E-03 0.  1.
         11    1    4    4    0    0 -0.42331521152E-01  0.65940735716E-01  0.52592867741E-01  0.94373773730E-01  0.51100000000E-03 0. -1.
</event>
<event>
 8    1  0.1041149E+005  0.1043930E+01  0.7957747E-01            NaN
         13   -1    0    0    0    0  0.00000000000E+00  0.00000000000E+00  0.74505805969E-08  0.10566000000E+00  0.10566000000E+00 0. -1.
     999900   -1    0    0    0    0 -0.00000000000E+00 -0.00000000000E+00 -0.74505805969E-08  0.93827000000E+00  0.93827000000E+00 0.  1.
     999902    2    1    2    0    0  0.84148533147E-02  0.14044896057E-01  0.16034558990E-01  0.10210132824E+01  0.10207560663E+01 0.  0.
     999903    2    3    3    0    0  0.13106144568E+00  0.77322803363E-02  0.92949985224E-03  0.13235688172E+00  0.16750804947E-01 0.  0.
         14    1    1    2    0    0 -0.84148533147E-02 -0.14044896057E-01 -0.16034558990E-01  0.22916717557E-01  0.00000000000E+00 0. -1.
     999901    1    3    3    0    0 -0.12264659236E+00  0.63126157209E-02  0.15105059138E-01  0.88865640072E+00  0.88000000000E+00 0.  1.
        -11    1    4    4    0    0  0.61905186331E-01 -0.36701380309E-02  0.44602895158E-02  0.62176179614E-01  0.51100000000E-03 0. -1.
         11    1    4    4    0    0  0.69156259347E-01  0.11402418367E-01 -0.35307896636E-02  0.70180702106E-01  0.51100000000E-03 0.  1.
</event>
<event>
 8    1  0.1041149E+005  0.1043930E+01  0.7957747E-01            NaN
         13   -1    0    0    0    0  0.00000000000E+00  0.00000000000E+00  0.74505805969E-08  0.10566000000E+00  0.10566000000E+00 0.  1.
     999900   -1    0    0    0    0 -0.00000000000E+00 -0.00000000000E+00 -0.74505805969E-08  0.93827000000E+00  0.93827000000E+00 0. -1.
     999902    2    1    2    0    0  0.10349734598E-01 -0.17260288043E-01 -0.42631018199E-02  0.10233579659E+01  0.10231511706E+01 0.  0.
     999903    2    3    3    0    0  0.57291140953E-01  0.91499360856E-01 -0.74208865108E-01  0.13267027280E+00  0.20977076878E-01 0.  0.
         14    1    1    2    0    0 -0.10349734598E-01  0.17260288043E-01  0.42631018199E-02  0.20572034092E-01  0.00000000000E+00 0.  1.
     999901    1    3    3    0    0 -0.46941406355E-01 -0.10875964890E+00  0.69945763288E-01  0.89068769311E+00  0.88000000000E+00 0.  1.
        -11    1    4    4    0    0  0.48097224580E-01  0.60548095223E-01 -0.57105095061E-01  0.96128392530E-01  0.51100000000E-03 0. -1.
         11    1    4    4    0    0  0.91939163726E-02  0.30951265633E-01 -0.17103770048E-01  0.36541880266E-01  0.51100000000E-03 0.  1.
</event>
<event>
 8    1  0.1041149E+005  0.1043930E+01  0.7957747E-01            NaN
         13   -1    0    0    0    0  0.00000000000E+00  0.00000000000E+00  0.74505805969E-08  0.10566000000E+00  0.10566000000E+00 0. -1.
     999900   -1    0    0    0    0 -0.00000000000E+00 -0.00000000000E+00 -0.74505805969E-08  0.93827000000E+00  0.93827000000E+00 0.  1.
     999902    2    1    2    0    0  0.15087710280E-01  0.10072663775E-01 -0.15208870276E-01  0.10202570768E+01  0.10199823996E+01 0.  0.
     999903    2    3    3    0    0 -0.10834660490E+00 -0.36783369711E-01 -0.57708658476E-01  0.12939359118E+00  0.17899974711E-01 0.  0.
         14    1    1    2    0    0 -0.15087710280E-01 -0.10072663775E-01  0.15208870276E-01  0.23672923184E-01  0.00000000000E+00 0.  1.
     999901    1    3    3    0    0  0.12343431518E+00  0.46856033486E-01  0.42499788200E-01  0.89086348563E+00  0.88000000000E+00 0. -1.
        -11    1    4    4    0    0 -0.16504189623E-01 -0.11288911584E-02 -0.13718661192E-01  0.21497103439E-01  0.51100000000E-03 0. -1.
         11    1    4    4    0    0 -0.91842415279E-01 -0.35654478552E-01 -0.43989997284E-01  0.10789648774E+00  0.51100000000E-03 0.  1.
</event>
<event>
 8    1  0.1041149E+005  0.1043930E+01  0.7957747E-01            NaN
         13   -1    0    0    0    0  0.00000000000E+00  0.00000000000E+00  0.74505805969E-08  0.10566000000E+00  0.10566000000E+00 0.  1.
     999900   -1    0    0    0    0 -0.00000000000E+00 -0.00000000000E+00 -0.74505805969E-08  0.93827000000E+00  0.93827000000E+00 0.  1.
     999902    2    1    2    0    0 -0.32631507845E-02 -0.21468056829E-01 -0.10656157066E-01  0.10197415875E+01  0.10194546709E+01 0.  0.
     999903    2    3    3    0    0  0.24101287083E-01 -0.38250930983E-01 -0.12228349870E+00  0.13210926454E+00  0.21344740858E-01 0.  0.
         14    1    1    2    0    0  0.32631507845E-02  0.21468056829E-01  0.10656157066E-01  0.24188412524E-01  0.00000000000E+00 0.  1.
     999901    1    3    3    0    0 -0.27364437868E-01  0.16782874155E-01  0.11162734163E+00  0.88763232294E+00  0.88000000000E+00 0. -1.
        -11    1    4    4    0    0  0.22106473785E-01 -0.16083038776E-01 -0.59112714261E-01  0.65130134560E-01  0.51100000000E-03 0.  1.
         11    1    4    4    0    0  0.19948132983E-02 -0.22167892207E-01 -0.63170784438E-01  0.66979129977E-01  0.51100000000E-03 0. -1.
</event>
<event>
 8    1  0.1041149E+005  0.1043930E+01  0.7957747E-01            NaN
         13   -1    0    0    0    0  0.00000000000E+00  0.00000000000E+00  0.74505805969E-08  0.10566000000E+00  0.10566000000E+00 0. -1.
     999900   -1    0    0    0    0 -0.00000000000E+00 -0.00000000000E+00 -0.74505805969E-08  0.93827000000E+00  0.93827000000E+00 0. -1.
     999902    2    1    2    0    0  0.67263959673E-02 -0.21622933326E-01 -0.29747898013E-02  0.10210904505E+01  0.10208349832E+01 0.  0.
     999903    2    3    3    0    0 -0.81390305875E-01 -0.10228832457E+00  0.11381086044E-01  0.13290266083E+00  0.21125929649E-01 0.  0.
         14    1    1    2    0    0 -0.67263959673E-02  0.21622933326E-01  0.29747898013E-02  0.22839549529E-01  0.00000000000E+00 0.  1.
     999901    1    3    3    0    0  0.88116701842E-01  0.80665391243E-01 -0.14355875845E-01  0.88818778964E+00  0.88000000000E+00 0. -1.
        -11    1    4    4    0    0 -0.53094744086E-01 -0.50092347784E-01  0.45896361816E-02  0.73141103611E-01  0.51100000000E-03 0. -1.
         11    1    4    4    0    0 -0.28295561789E-01 -0.52195976785E-01  0.67914498624E-02  0.59761557224E-01  0.51100000000E-03 0.  1.
</event>
<event>
 8    1  0.1041149E+005  0.1043930E+01  0.7957747E-01            NaN
         13   -1    0    0    0    0  0.00000000000E+00  0.00000000000E+00  0.74505805969E-08  0.10566000000E+00  0.10566000000E+00 0. -1.
     999900   -1    0    0    0    0 -0.00000000000E+00 -0.00000000000E+00 -0.74505805969E-08  0.93827000000E+00  0.93827000000E+00 0. -1.
     999902    2    1    2    0    0  0.38636569558E-02  0.20969032709E-01 -0.13747771594E-01  0.10185601478E+01  0.10182441482E+01 0.  0.
     999903    2    3    3    0    0  0.67593847745E-01 -0.10247016051E+00 -0.28326452874E-01  0.12754313920E+00  0.19894782653E-01 0.  0.
         14    1    1    2    0    0 -0.38636569558E-02 -0.20969032709E-01  0.13747771594E-01  0.25369852219E-01  0.00000000000E+00 0. -1.
     999901    1    3    3    0    0 -0.63730190789E-01  0.12343919321E+00  0.14578681280E-01  0.89101700858E+00  0.88000000000E+00 0. -1.
        -11    1    4    4    0    0  0.22824767378E-01 -0.28949613729E-01  0.16839866782E-03  0.36869223209E-01  0.51100000000E-03 0. -1.
         11    1    4    4    0    0  0.44769080367E-01 -0.73520546776E-01 -0.28494851542E-01  0.90673915988E-01  0.51100000000E-03 0.  1.
</event>
<event>
 8    1  0.1041149E+005  0.1043930E+01  0.7957747E-01            NaN
         13   -1    0    0    0    0  0.00000000000E+00  0.00000000000E+00  0.74505805969E-08  0.10566000000E+00  0.10566000000E+00 0.  1.
     999900   -1    0    0    0    0 -0.00000000000E+00 -0.00000000000E+00 -0.74505805969E-08  0.93827000000E+00  0.93827000000E+00 0.  1.
     999902    2    1    2    0    0 -0.63019399451E-02  0.14420092405E-01  0.17826146425E-01  0.10201513329E+01  0.10198741673E+01 0.  0.
     999903    2    3    3    0    0 -0.55502689325E-01 -0.60817221403E-02  0.11854434077E+00  0.13280405433E+00  0.21601394631E-01 0.  0.
         14    1    1    2    0    0  0.63019399451E-02 -0.14420092405E-01 -0.17826146425E-01  0.23778667086E-01  0.00000000000E+00 0. -1.
     999901    1    3    3    0    0  0.49200749379E-01  0.20501814545E-01 -0.10071819435E+00  0.88734727858E+00  0.88000000000E+00 0.  1.
        -11    1    4    4    0    0 -0.24606390387E-01  0.29661606420E-02  0.32099204464E-01  0.40557275612E-01  0.51100000000E-03 0.  1.
         11    1    4    4    0    0 -0.30896298938E-01 -0.90478827823E-02  0.86445136311E-01  0.92246778717E-01  0.51100000000E-03 0. -1.
</event>
<event>
 8    1  0.1041149E+005  0.1043930E+01  0.7957747E-01            NaN
         13   -1    0    0    0    0  0.00000000000E+00  0.00000000000E+00  0.74505805969E-08  0.10566000000E+00  0.10566000000E+00 0.  1.
     999900   -1    0    0    0    0 -0.00000000000E+00 -0.00000000000E+00 -0.74505805969E-08  0.93827000000E+00  0.93827000000E+00 0. -1.
     999902    2    1    2    0    0  0.86095162166E-02  0.20082746506E-01  0.96285341339E-02  0.10200522039E+01  0.10197726950E+01 0.  0.
     999903    2    3    3    0    0 -0.86893192683E-01 -0.80584861394E-01  0.43851983475E-01  0.12852207028E+00  0.23464425684E-01 0.  0.
         14    1    1    2    0    0 -0.86095162166E-02 -0.20082746506E-01 -0.96285341339E-02  0.23877796094E-01  0.00000000000E+00 0. -1.
     999901    1    3    3    0    0  0.95502708899E-01  0.10066760790E+00 -0.34223449341E-01  0.89153013363E+00  0.88000000000E+00 0. -1.
        -11    1    4    4    0    0 -0.78290151620E-02 -0.19103549173E-01  0.73079306873E-02  0.21906757892E-01  0.51100000000E-03 0. -1.
         11    1    4    4    0    0 -0.79064177521E-01 -0.61481312221E-01  0.36544052787E-01  0.10661531238E+00  0.51100000000E-03 0.  1.
</event>
<event>
 8    1  0.1041149E+005  0.1043930E+01  0.7957747E-01            NaN
         13   -1    0    0    0    0  0.00000000000E+00  0.00000000000E+00  0.74505805969E-08  0.10566000000E+00  0.10566000000E+00 0.  1.
     999900   -1    0    0    0    0 -0.00000000000E+00 -0.00000000000E+00 -0.74505805969E-08  0.93827000000E+00  0.93827000000E+00 0. -1.
     999902    2    1    2    0    0  0.15494215993E-01 -0.15282835726E-01 -0.85691664394E-02  0.10205405492E+01  0.10202724862E+01 0.  0.
     999903    2    3    3    0    0 -0.71301969502E-01  0.96359414448E-02 -0.10742659158E+00  0.13041285395E+00  0.17035776319E-01 0.  0.
         14    1    1    2    0    0 -0.15494215993E-01  0.15282835726E-01  0.85691664394E-02  0.23389450839E-01  0.00000000000E+00 0.  1.
     999901    1    3    3    0    0  0.86796185496E-01 -0.24918777171E-01  0.98857425142E-01  0.89012769521E+00  0.88000000000E+00 0.  1.
        -11    1    4    4    0    0 -0.31609244216E-01 -0.42184889037E-02 -0.45915170356E-01  0.55905312434E-01  0.51100000000E-03 0. -1.
         11    1    4    4    0    0 -0.39692725287E-01  0.13854430349E-01 -0.61511421226E-01  0.74507541519E-01  0.51100000000E-03 0.  1.
</event>
<event>
 8    1  0.1041149E+005  0.1043930E+01  0.7957747E-01            NaN
         13   -1    0    0    0    0  0.00000000000E+00  0.00000000000E+00  0.74505805969E-08  0.10566000000E+00  0.10566000000E+00 0.  1.
     999900   -1    0    0    0    0 -0.00000000000E+00 -0.00000000000E+00 -0.74505805969E-08  0.93827000000E+00  0.93827000000E+00 0. -1.
     999902    2    1    2    0    0  0.93182999815E-03  0.21265409364E-01 -0.10168987929E-01  0.10203398695E+01  0.10200671326E+01 0.  0.
     999903    2    3    3    0    0  0.28630355503E-01 -0.12297428511E+00 -0.87336610613E-02  0.12816591898E+00  0.20195392977E-01 0.  0.
         14    1    1    2    0    0 -0.93182999815E-03 -0.21265409364E-01  0.10168987929E-01  0.23590130523E-01  0.00000000000E+00 0. -1.
     999901    1    3    3    0    0 -0.27698525505E-01  0.14423969448E+00 -0.14353268679E-02  0.89217395049E+00  0.88000000000E+00 0.  1.
        -11    1    4    4    0    0  0.21046102607E-01 -0.10335171547E+00 -0.14195914824E-01  0.10642509406E+00  0.51100000000E-03 0. -1.
         11    1    4    4    0    0  0.75842528960E-02 -0.19622569642E-01  0.54622537626E-02  0.21740824927E-01  0.51100000000E-03 0.  1.
</event>
<event>
 8    1  0.1041149E+005  0.1043930E+01  0.7957747E-01            NaN
         13   -1    0    0    0    0  0.00000000000E+00  0.00000000000E+00  0.74505805969E-08  0.10566000000E+00  0.10566000000E+00 0.  1.
     999900   -1    0    0    0    0 -0.00000000000E+00 -0.00000000000E+00 -0.74505805969E-08  0.93827000000E+00  0.93827000000E+00 0.  1.
     999902    2    1    2    0    0 -0.72464783280E-02 -0.26349462722E-02 -0.20072510454E-01  0.10224274405E+01  0.10222013065E+01 0.  0.
     999903    2    3    3    0    0 -0.34387615197E-01  0.12433438408E+00 -0.24852269710E-01  0.13288784144E+00  0.19999898717E-01 0.  0.
         14    1    1    2    0    0  0.72464783280E-02  0.26349462722E-02  0.20072510454E-01  0.21502559521E-01  0.00000000000E+00 0.  1.
     999901    1    3    3    0    0  0.27141136869E-01 -0.12696933035E+00  0.47797592565E-02  0.88953959904E+00  0.88000000000E+00 0. -1.
        -11    1    4    4    0    0 -0.27616512012E-01  0.92650141856E-01 -0.98516400242E-02  0.97180432464E-01  0.51100000000E-03 0. -1.
         11    1    4    4    0    0 -0.67711031843E-02  0.31684242226E-01 -0.15000629686E-01  0.35707408976E-01  0.51100000000E-03 0.  1.
</event>
<event>
 8    1  0.1041149E+005  0.1043930E+01  0.7957747E-01            NaN
         13   -1    0    0    0    0  0.00000000000E+00  0.00000000000E+00  0.74505805969E-08  0.10566000000E+00  0.10566000000E+00 0.  1.
     999900   -1    0    0    0    0 -0.00000000000E+00 -0.00000000000E+00 -0.74505805969E-08  0.93827000000E+00  0.93827000000E+00 0.  1.
     999902    2    1    2    0    0 -0.19594185065E-01 -0.13642472452E-01 -0.27296012368E-02  0.10198987731E+01  0.10196156175E+01 0.  0.
     999903    2    3    3    0    0 -0.96818294864E-01  0.32576312993E-01  0.80107997038E-01  0.13143841555E+00  0.20585614023E-01 0.  0.
         14    1    1    2    0    0  0.19594185065E-01  0.13642472452E-01  0.27296012368E-02  0.24031226891E-01  0.00000000000E+00 0.  1.
     999901    1    3    3    0    0  0.77224109799E-01 -0.46218785445E-01 -0.82837598275E-01  0.88846035756E+00  0.88000000000E+00 0.  1.
        -11    1    4    4    0    0 -0.59776565118E-01  0.17718737799E-01  0.36183613651E-01  0.72088185054E-01  0.51100000000E-03 0.  1.
         11    1    4    4    0    0 -0.37041729746E-01  0.14857575194E-01  0.43924383387E-01  0.59350230498E-01  0.51100000000E-03 0. -1.
</event>
<event>
 8    1  0.1041149E+005  0.1043930E+01  0.7957747E-01            NaN
         13   -1    0    0    0    0  0.00000000000E+00  0.00000000000E+00  0.74505805969E-08  0.10566000000E+00  0.10566000000E+00 0.  1.
     999900   -1    0    0    0    0 -0.00000000000E+00 -0.00000000000E+00 -0.74505805969E-08  0.93827000000E+00  0.93827000000E+00 0.  1.
     999902    2    1    2    0    0 -0.28376822516E-02  0.19228316128E-01 -0.60635029393E-02  0.10235695813E+01  0.10233670608E+01 0.  0.
     999903    2    3    3    0    0 -0.68488288839E-01  0.76559157119E-01 -0.85785099876E-01  0.13567749299E+00  0.22301311522E-01 0.  0.
         14    1    1    2    0    0  0.28376822516E-02 -0.19228316128E-01  0.60635029393E-02  0.20360418699E-01  0.00000000000E+00 0.  1.
     999901    1    3    3    0    0  0.65650606587E-01 -0.57330840991E-01  0.79721596937E-01  0.88789208831E+00  0.88000000000E+00 0. -1.
        -11    1    4    4    0    0 -0.18802091604E-01  0.79981943765E-02 -0.17107164169E-01  0.26653441596E-01  0.51100000000E-03 0. -1.
         11    1    4    4    0    0 -0.49686197234E-01  0.68560962742E-01 -0.68677935707E-01  0.10902405139E+00  0.51100000000E-03 0.  1.
</event>
<event>
 8    1  0.1041149E+005  0.1043930E+01  0.7957747E-01            NaN
         13   -1    0    0    0    0  0.00000000000E+00  0.00000000000E+00  0.74505805969E-08  0.10566000000E+00  0.10566000000E+00 0. -1.
     999900   -1    0    0    0    0 -0.00000000000E+00 -0.00000000000E+00 -0.74505805969E-08  0.93827000000E+00  0.93827000000E+00 0. -1.
     999902    2    1    2    0    0  0.18181233295E-01  0.14890506886E-01  0.41952560532E-02  0.10200577439E+01  0.10197783662E+01 0.  0.
     999903    2    3    3    0    0 -0.57414288768E-01 -0.30890839559E-01 -0.10888041316E+00  0.12843185730E+00  0.19726963134E-01 0.  0.
         14    1    1    2    0    0 -0.18181233295E-01 -0.14890506886E-01 -0.41952560532E-02  0.23872256131E-01  0.00000000000E+00 0. -1.
     999901    1    3    3    0    0  0.75595522063E-01  0.45781346445E-01  0.11307566922E+00  0.89162588657E+00  0.88000000000E+00 0. -1.
        -11    1    4    4    0    0 -0.39947272135E-02  0.28449326883E-02 -0.75788382848E-02  0.90416479836E-02  0.51100000000E-03 0.  1.
         11    1    4    4    0    0 -0.53419561554E-01 -0.33735772247E-01 -0.10130157488E+00  0.11939020931E+00  0.51100000000E-03 0. -1.
</event>
<event>
 8    1  0.1041149E+005  0.1043930E+01  0.7957747E-01            NaN
         13   -1    0    0    0    0  0.00000000000E+00  0.00000000000E+00  0.74505805969E-08  0.10566000000E+00  0.10566000000E+00 0.  1.
     999900   -1    0    0    0    0 -0.00000000000E+00 -0.00000000000E+00 -0.74505805969E-08  0.93827000000E+00  0.93827000000E+00 0.  1.
     999902    2    1    2    0    0 -0.18424749474E-01  0.11447375149E-01  0.71991240238E-02  0.10210752154E+01  0.10208194034E+01 0.  0.
     999903    2    3    3    0    0  0.12005234263E+00  0.13731434062E-01 -0.40897697392E-01  0.12894606212E+00  0.18797553847E-01 0.  0.
         14    1    1    2    0    0  0.18424749474E-01 -0.11447375149E-01 -0.71991240238E-02  0.22854784569E-01  0.00000000000E+00 0. -1.
     999901    1    3    3    0    0 -0.13847709211E+00 -0.22840589129E-02  0.48096821415E-01  0.89212915331E+00  0.88000000000E+00 0. -1.
        -11    1    4    4    0    0  0.73868398934E-01  0.99570915455E-02 -0.15612000400E-01  0.76155628227E-01  0.51100000000E-03 0.  1.
         11    1    4    4    0    0  0.46183943698E-01  0.37743425161E-02 -0.25285696992E-01  0.52790433890E-01  0.51100000000E-03 0. -1.
</event>
<event>
 8    1  0.1041149E+005  0.1043930E+01  0.7957747E-01            NaN
         13   -1    0    0    0    0  0.00000000000E+00  0.00000000000E+00  0.74505805969E-08  0.10566000000E+00  0.10566000000E+00 0. -1.
     999900   -1    0    0    0    0 -0.00000000000E+00 -0.00000000000E+00 -0.74505805969E-08  0.93827000000E+00  0.93827000000E+00 0.  1.
     999902    2    1    2    0    0  0.18304697756E-01  0.13312979388E-01  0.88317772842E-02  0.10196339577E+01  0.10193444511E+01 0.  0.
     999903    2    3    3    0    0 -0.29688328122E-01  0.10011818889E+00 -0.75108215305E-01  0.13009227951E+00  0.19434726853E-01 0.  0.
         14    1    1    2    0    0 -0.18304697756E-01 -0.13312979388E-01 -0.88317772842E-02  0.24296042273E-01  0.00000000000E+00 0.  1.
     999901    1    3    3    0    0  0.47993025879E-01 -0.86805209505E-01  0.83939992589E-01  0.88954167822E+00  0.88000000000E+00 0.  1.
        -11    1    4    4    0    0 -0.25965562010E-01  0.77348511496E-01 -0.67181785554E-01  0.10569132449E+00  0.51100000000E-03 0. -1.
         11    1    4    4    0    0 -0.37227661121E-02  0.22769677397E-01 -0.79264297505E-02  0.24400955020E-01  0.51100000000E-03 0.  1.
</event>
<event>
 8    1  0.1041149E+005  0.1043930E+01  0.7957747E-01            NaN
         13   -1    0    0    0    0  0.00000000000E+00  0.00000000000E+00  0.74505805969E-08  0.10566000000E+00  0.10566000000E+00 0.  1.
     999900   -1    0    0    0    0 -0.00000000000E+00 -0.00000000000E+00 -0.74505805969E-08  0.93827000000E+00  0.93827000000E+00 0.  1.
     999902    2    1    2    0    0  0.18037256164E-01 -0.15019297937E-01  0.28771112279E-02  0.10202825966E+01  0.10200085182E+01 0.  0.
     999903    2    3    3    0    0  0.77806422843E-01 -0.59236689353E-01  0.88037572875E-01  0.13305103985E+00  0.19726635974E-01 0.  0.
         14    1    1    2    0    0 -0.18037256164E-01  0.15019297937E-01 -0.28771112279E-02  0.23647403440E-01  0.00000000000E+00 0.  1.
     999901    1    3    3    0    0 -0.59769166679E-01  0.44217391416E-01 -0.85160461647E-01  0.88723155671E+00  0.88000000000E+00 0.  1.
        -11    1    4    4    0    0  0.48747959002E-01 -0.29791567370E-01  0.61269944438E-01  0.83774508089E-01  0.51100000000E-03 0.  1.
         11    1    4    4    0    0  0.29058463842E-01 -0.29445121983E-01  0.26767628437E-01  0.49276531763E-01  0.51100000000E-03 0. -1.
</event>
<event>
 8    1  0.1041149E+005  0.1043930E+01  0.7957747E-01            NaN
         13   -1    0    0    0    0  0.00000000000E+00  0.00000000000E+00  0.74505805969E-08  0.10566000000E+00  0.10566000000E+00 0.  1.
     999900   -1    0    0    0    0 -0.00000000000E+00 -0.00000000000E+00 -0.74505805969E-08  0.93827000000E+00  0.93827000000E+00 0. -1.
     999902    2    1    2    0    0  0.67010723507E-02 -0.18360651223E-01 -0.11356445323E-01  0.10213249843E+01  0.10210747949E+01 0.  0.
     999903    2    3    3    0    0  0.12121297632E+00 -0.50610069174E-01 -0.11971393844E-01  0.13331970320E+00  0.19412992115E-01 0.  0.
         14    1    1    2    0    0 -0.67010723507E-02  0.18360651223E-01  0.11356445323E-01  0.22605015691E-01  0.00000000000E+00 0.  1.
     999901    1    3    3    0    0 -0.11451190397E+00  0.32249417951E-01  0.61494852032E-03  0.88800528110E+00  0.88000000000E+00 0.  1.
        -11    1    4    4    0    0  0.81269512201E-01 -0.32806160634E-01 -0.17067704895E-01  0.89289111656E-01  0.51100000000E-03 0. -1.
         11    1    4    4    0    0  0.39943464115E-01 -0.17803908540E-01  0.50963110512E-02  0.44030591549E-01  0.51100000000E-03 0.  1.
</event>
<event>
 8    1  0.1041149E+005  0.1043930E+01  0.7957747E-01            NaN
         13   -1    0    0    0    0  0.00000000000E+00  0.00000000000E+00  0.74505805969E-08  0.10566000000E+00  0.10566000000E+00 0. -1.
     999900   -1    0    0    0    0 -0.00000000000E+00 -0.00000000000E+00 -0.74505805969E-08  0.93827000000E+00  0.93827000000E+00 0.  1.
     999902    2    1    2    0    0  0.13731928060E-01  0.75753359924E-03  0.19761789984E-01  0.10198537036E+01  0.10195694722E+01 0.  0.
     999903    2    3    3    0    0 -0.76641000494E-01 -0.58169407279E-01  0.86123183813E-01  0.13078481696E+00  0.20735058677E-01 0.  0.
         14    1    1    2    0    0 -0.13731928060E-01 -0.75753359924E-03 -0.19761789984E-01  0.24076296409E-01  0.00000000000E+00 0.  1.
     999901    1    3    3    0    0  0.90372928554E-01  0.58926940878E-01 -0.66361393829E-01  0.88906888663E+00  0.88000000000E+00 0. -1.
        -11    1    4    4    0    0 -0.65312000399E-01 -0.39668564065E-01  0.62627027880E-01  0.98801103805E-01  0.51100000000E-03 0. -1.
         11    1    4    4    0    0 -0.11329000095E-01 -0.18500843214E-01  0.23496155933E-01  0.31983713159E-01  0.51100000000E-03 0.  1.
</event>
<event>
 7    1  0.1041149E+005  0.1043930E+01  0.7957747E-01            NaN
         13   -1    0    0    0    0  0.00000000000E+00  0.00000000000E+00  0.74505805969E-08  0.10566000000E+00  0.10566000000E+00 0. -1.
     999900   -1    0    0    0    0 -0.00000000000E+00 -0.00000000000E+00 -0.74505805969E-08  0.93827000000E+00  0.93827000000E+00 0.  1.
     999903    2    1    2    0    0  0.90085953941E-01  0.38995883499E-01  0.25794645428E-01  0.10333659100E+00  0.19414666581E-01 0.  0.
         14    1    1    2    0    0  0.35920649790E-01  0.90202069629E-03  0.32995117543E-01  0.48783035005E-01  0.00000000000E+00 0. -1.
     999901    1    1    2    0    0 -0.12600660373E+00 -0.39897904196E-01 -0.58789762971E-01  0.89181037400E+00  0.88000000000E+00 0. -1.
        -11    1    3    3    0    0  0.21324111938E-01  0.17073540196E-01  0.12071547090E-01  0.29869832522E-01  0.51100000000E-03 0. -1.
         11    1    3    3    0    0  0.68761842003E-01  0.21922343303E-01  0.13723098338E-01  0.73466758473E-01  0.51100000000E-03 0.  1.
</event>
<event>
 8    1  0.1041149E+005  0.1043930E+01  0.7957747E-01            NaN
         13   -1    0    0    0    0  0.00000000000E+00  0.00000000000E+00  0.74505805969E-08  0.10566000000E+00  0.10566000000E+00 0. -1.
     999900   -1    0    0    0    0 -0.00000000000E+00 -0.00000000000E+00 -0.74505805969E-08  0.93827000000E+00  0.93827000000E+00 0.  1.
     999902    2    1    2    0    0 -0.11589785034E-01  0.15363894242E-01  0.11034680206E-01  0.10217458496E+01  0.10215049900E+01 0.  0.
     999903    2    3    3    0    0 -0.19606939402E-01 -0.99271039245E-01 -0.78521833584E-01  0.12976725570E+00  0.20849244543E-01 0.  0.
         14    1    1    2    0    0  0.11589785034E-01 -0.15363894242E-01 -0.11034680206E-01  0.22184150438E-01  0.00000000000E+00 0.  1.
     999901    1    3    3    0    0  0.80171543682E-02  0.11463493349E+00  0.89556513790E-01  0.89197859386E+00  0.88000000000E+00 0. -1.
        -11    1    4    4    0    0 -0.11273681857E-01 -0.76441653041E-01 -0.69218922769E-01  0.10373978317E+00  0.51100000000E-03 0.  1.
         11    1    4    4    0    0 -0.83332575449E-02 -0.22829386204E-01 -0.93029108147E-02  0.26027472532E-01  0.51100000000E-03 0. -1.
</event>
<event>
 8    1  0.1041149E+005  0.1043930E+01  0.7957747E-01            NaN
         13   -1    0    0    0    0  0.00000000000E+00  0.00000000000E+00  0.74505805969E-08  0.10566000000E+00  0.10566000000E+00 0.  1.
     999900   -1    0    0    0    0 -0.00000000000E+00 -0.00000000000E+00 -0.74505805969E-08  0.93827000000E+00  0.93827000000E+00 0. -1.
     999902    2    1    2    0    0 -0.55442926696E-02 -0.98136042288E-02 -0.22770045310E-01  0.10185228952E+01  0.10182059552E+01 0.  0.
     999903    2    3    3    0    0  0.20655545202E-02  0.90769227937E-01 -0.91036229745E-01  0.13013385442E+00  0.20097404917E-01 0.  0.
         14    1    1    2    0    0  0.55442926696E-02  0.98136042288E-02  0.22770045310E-01  0.25407104766E-01  0.00000000000E+00 0. -1.
     999901    1    3    3    0    0 -0.76098471898E-02 -0.10058283217E+00  0.68266184435E-01  0.88838904081E+00  0.88000000000E+00 0.  1.
        -11    1    4    4    0    0 -0.43273799187E-02  0.61427309803E-02 -0.38386246895E-02  0.84531367766E-02  0.51100000000E-03 0.  1.
         11    1    4    4    0    0  0.63929344389E-02  0.84626496957E-01 -0.87197605055E-01  0.12168071764E+00  0.51100000000E-03 0. -1.
</event>
<event>
 8    1  0.1041149E+005  0.1043930E+01  0.7957747E-01            NaN
         13   -1    0    0    0    0  0.00000000000E+00  0.00000000000E+00  0.74505805969E-08  0.10566000000E+00  0.10566000000E+00 0. -1.
     999900   -1    0    0    0    0 -0.00000000000E+00 -0.00000000000E+00 -0.74505805969E-08  0.93827000000E+00  0.93827000000E+00 0. -1.
     999902    2    1    2    0    0  0.98034861267E-02 -0.73782300200E-02 -0.20949315039E-01  0.10196520178E+01  0.10193629467E+01 0.  0.
     999903    2    3    3    0    0 -0.16776403964E-01 -0.20208583940E-01 -0.12856159702E+00  0.13260550732E+00  0.19139011158E-01 0.  0.
         14    1    1    2    0    0 -0.98034861267E-02  0.73782300200E-02  0.20949315039E-01  0.24277982187E-01  0.00000000000E+00 0. -1.
     999901    1    3    3    0    0  0.26579890091E-01  0.12830353920E-01  0.10761228199E+00  0.88704651049E+00  0.88000000000E+00 0.  1.
        -11    1    4    4    0    0 -0.18729411725E-01 -0.17339393101E-01 -0.81298761739E-01  0.85212646937E-01  0.51100000000E-03 0.  1.
         11    1    4    4    0    0  0.19530077604E-02 -0.28691908388E-02 -0.47262835285E-01  0.47392860386E-01  0.51100000000E-03 0. -1.
</event>
<event>
 8    1  0.1041149E+005  0.1043930E+01  0.7957747E-01            NaN
         13   -1    0    0    0    0  0.00000000000E+00  0.00000000000E+00  0.74505805969E-08  0.10566000000E+00  0.10566000000E+00 0. -1.
     999900   -1    0    0    0    0 -0.00000000000E+00 -0.00000000000E+00 -0.74505805969E-08  0.93827000000E+00  0.93827000000E+00 0. -1.
     999902    2    1    2    0    0 -0.98379109211E-04  0.10866237142E-01 -0.20819060331E-01  0.10204455783E+01  0.10201753086E+01 0.  0.
     999903    2    3    3    0    0  0.47616689898E-01  0.89253549536E-01  0.79173097937E-01  0.13004132729E+00  0.20219349768E-01 0.  0.
         14    1    1    2    0    0  0.98379109211E-04 -0.10866237142E-01  0.20819060331E-01  0.23484421669E-01  0.00000000000E+00 0. -1.
     999901    1    3    3    0    0 -0.47715069007E-01 -0.78387312393E-01 -0.99992158268E-01  0.89040425104E+00  0.88000000000E+00 0. -1.
        -11    1    4    4    0    0  0.25909138474E-01  0.60756519802E-01  0.41267470498E-01  0.77883909745E-01  0.51100000000E-03 0. -1.
         11    1    4    4    0    0  0.21707551424E-01  0.28497029734E-01  0.37905627439E-01  0.52157417546E-01  0.51100000000E-03 0.  1.
</event>
<event>
 8    1  0.1041149E+005  0.1043930E+01  0.7957747E-01            NaN
         13   -1    0    0    0    0  0.00000000000E+00  0.00000000000E+00  0.74505805969E-08  0.10566000000E+00  0.10566000000E+00 0. -1.
     999900   -1    0    0    0    0 -0.00000000000E+00 -0.00000000000E+00 -0.74505805969E-08  0.93827000000E+00  0.93827000000E+00 0.  1.
     999902    2    1    2    0    0  0.21618940588E-01 -0.10672910382E-01 -0.97003032330E-02  0.10179418202E+01  0.10176100254E+01 0.  0.
     999903    2    3    3    0    0  0.89309217285E-02 -0.18448107384E-01  0.12451763786E+00  0.12764080634E+00  0.19168705645E-01 0.  0.
         14    1    1    2    0    0 -0.21618940588E-01  0.10672910382E-01  0.97003032330E-02  0.25988179832E-01  0.00000000000E+00 0.  1.
     999901    1    3    3    0    0  0.12688018860E-01  0.77751970016E-02 -0.13421794109E+00  0.89030101383E+00  0.88000000000E+00 0.  1.
        -11    1    4    4    0    0 -0.57641585644E-02 -0.23565794471E-02  0.29632595785E-01  0.30284168217E-01  0.51100000000E-03 0. -1.
         11    1    4    4    0    0  0.14695080293E-01 -0.16091527936E-01  0.94885042074E-01  0.97356638123E-01  0.51100000000E-03 0.  1.
</event>
<event>
 8    1  0.1041149E+005  0.1043930E+01  0.7957747E-01            NaN
         13   -1    0    0    0    0  0.00000000000E+00  0.00000000000E+00  0.74505805969E-08  0.10566000000E+00  0.10566000000E+00 0.  1.
     999900   -1    0    0    0    0 -0.00000000000E+00 -0.00000000000E+00 -0.74505805969E-08  0.93827000000E+00  0.93827000000E+00 0.  1.
     999902    2    1    2    0    0  0.17279017654E-01 -0.13717693571E-01 -0.87012093879E-02  0.10202139587E+01  0.10199382682E+01 0.  0.
     999903    2    3    3    0    0  0.11588836816E+00  0.59106525634E-01 -0.39388482828E-02  0.13170405391E+00  0.20167995525E-01 0.  0.
         14    1    1    2    0    0 -0.17279017654E-01  0.13717693571E-01  0.87012093879E-02  0.23716041255E-01  0.00000000000E+00 0.  1.
     999901    1    3    3    0    0 -0.98609350502E-01 -0.72824219205E-01 -0.47623611051E-02  0.88850990484E+00  0.88000000000E+00 0.  1.
        -11    1    4    4    0    0  0.88001720259E-01  0.35324636473E-01 -0.57779503399E-02  0.95004097499E-01  0.51100000000E-03 0. -1.
         11    1    4    4    0    0  0.27886647897E-01  0.23781889162E-01  0.18391020571E-02  0.36699956409E-01  0.51100000000E-03 0.  1.
</event>
<event>
 8    1  0.1041149E+005  0.1043930E+01  0.7957747E-01            NaN
         13   -1    0    0    0    0  0.00000000000E+00  0.00000000000E+00  0.74505805969E-08  0.10566000000E+00  0.10566000000E+00 0. -1.
     999900   -1    0    0    0    0 -0.00000000000E+00 -0.00000000000E+00 -0.74505805969E-08  0.93827000000E+00  0.93827000000E+00 0. -1.
     999902    2    1    2    0    0 -0.14810161801E-03  0.21619923075E-01 -0.96853519145E-02  0.10202393046E+01  0.10199642099E+01 0.  0.
     999903    2    3    3    0    0  0.59683618807E-01  0.10521925730E+00 -0.52180465041E-01  0.13323619405E+00  0.19896130555E-01 0.  0.
         14    1    1    2    0    0  0.14810161801E-03 -0.21619923075E-01  0.96853519145E-02  0.23690695422E-01  0.00000000000E+00 0. -1.
     999901    1    3    3    0    0 -0.59831720425E-01 -0.83599334227E-01  0.42495113127E-01  0.88700311053E+00  0.88000000000E+00 0.  1.
        -11    1    4    4    0    0  0.19837731754E-01  0.23114124117E-01 -0.20100112988E-01  0.36497588934E-01  0.51100000000E-03 0.  1.
         11    1    4    4    0    0  0.39845887053E-01  0.82105133185E-01 -0.32080352053E-01  0.96738605113E-01  0.51100000000E-03 0. -1.
</event>
<event>
 8    1  0.1041149E+005  0.1043930E+01  0.7957747E-01            NaN
         13   -1    0    0    0    0  0.00000000000E+00  0.00000000000E+00  0.74505805969E-08  0.10566000000E+00  0.10566000000E+00 0. -1.
     999900   -1    0    0    0    0 -0.00000000000E+00 -0.00000000000E+00 -0.74505805969E-08  0.93827000000E+00  0.93827000000E+00 0. -1.
     999902    2    1    2    0    0 -0.22433471318E-01  0.79953137767E-02 -0.11920868339E-02  0.10200845235E+01  0.10198057797E+01 0.  0.
     999903    2    3    3    0    0 -0.12921514235E+00 -0.99287301835E-02  0.21587109784E-01  0.13315584069E+00  0.21664300236E-01 0.  0.
         14    1    1    2    0    0  0.22433471318E-01 -0.79953137767E-02  0.11920868339E-02  0.23845476485E-01  0.00000000000E+00 0.  1.
     999901    1    3    3    0    0  0.10678167103E+00  0.17924043960E-01 -0.22779196618E-01  0.88692868283E+00  0.88000000000E+00 0.  1.
        -11    1    4    4    0    0 -0.90472074037E-01  0.15744153421E-02  0.95845001644E-02  0.90993399368E-01  0.51100000000E-03 0.  1.
         11    1    4    4    0    0 -0.38743068316E-01 -0.11503145526E-01  0.12002609620E-01  0.42162441321E-01  0.51100000000E-03 0. -1.
</event>
<event>
 8    1  0.1041149E+005  0.1043930E+01  0.7957747E-01            NaN
         13   -1    0    0    0    0  0.00000000000E+00  0.00000000000E+00  0.74505805969E-08  0.10566000000E+00  0.10566000000E+00 0.  1.
     999900   -1    0    0    0    0 -0.00000000000E+00 -0.00000000000E+00 -0.74505805969E-08  0.93827000000E+00  0.93827000000E+00 0. -1.
     999902    2    1    2    0    0 -0.88080960460E-02  0.22278160875E-01 -0.42247575813E-02  0.10196041375E+01  0.10193139113E+01 0.  0.
     999903    2    3    3    0    0  0.74403895196E-01 -0.10029850855E+00 -0.14330923071E-01  0.12716287339E+00  0.19216934569E-01 0.  0.
         14    1    1    2    0    0  0.88080960460E-02 -0.22278160875E-01  0.42247575813E-02  0.24325862462E-01  0.00000000000E+00 0.  1.
     999901    1    3    3    0    0 -0.83211991242E-01  0.12257666943E+00  0.10106165489E-01  0.89244126415E+00  0.88000000000E+00 0.  1.
        -11    1    4    4    0    0  0.39452014892E-01 -0.41152972773E-01 -0.12862484417E-01  0.58444274942E-01  0.51100000000E-03 0.  1.
         11    1    4    4    0    0  0.34951880304E-01 -0.59145535780E-01 -0.14684386539E-02  0.68718598448E-01  0.51100000000E-03 0. -1.
</event>
<event>
 8    1  0.1041149E+005  0.1043930E+01  0.7957747E-01            NaN
         13   -1    0    0    0    0  0.00000000000E+00  0.00000000000E+00  0.74505805969E-08  0.10566000000E+00  0.10566000000E+00 0.  1.
     999900   -1    0    0    0    0 -0.00000000000E+00 -0.00000000000E+00 -0.74505805969E-08  0.93827000000E+00  0.93827000000E+00 0. -1.
     999902    2    1    2    0    0  0.23183168236E-01  0.17040757166E-02  0.81377636011E-02  0.10193010260E+01  0.10190034324E+01 0.  0.
     999903    2    3    3    0    0 -0.39612010215E-01 -0.39413148754E-01  0.11521319192E+00  0.12963872607E+00  0.20238874865E-01 0.  0.
         14    1    1    2    0    0 -0.23183168236E-01 -0.17040757166E-02 -0.81377636011E-02  0.24628973992E-01  0.00000000000E+00 0. -1.
     999901    1    3    3    0    0  0.62795178450E-01  0.41117224470E-01 -0.10707542832E+00  0.88966229994E+00  0.88000000000E+00 0. -1.
        -11    1    4    4    0    0 -0.37666394268E-01 -0.41793578423E-01  0.11027258489E+00  0.12379727199E+00  0.51100000000E-03 0.  1.
         11    1    4    4    0    0 -0.19456159473E-02  0.23804296694E-02  0.49406070341E-02  0.58414540733E-02  0.51100000000E-03 0. -1.
</event>
<event>
 8    1  0.1041149E+005  0.1043930E+01  0.7957747E-01            NaN
         13   -1    0    0    0    0  0.00000000000E+00  0.00000000000E+00  0.74505805969E-08  0.10566000000E+00  0.10566000000E+00 0. -1.
     999900   -1    0    0    0    0 -0.00000000000E+00 -0.00000000000E+00 -0.74505805969E-08  0.93827000000E+00  0.93827000000E+00 0. -1.
     999902    2    1    2    0    0  0.41157905905E-02  0.11676873338E-01  0.19132295406E-01  0.10211411029E+01  0.10208867803E+01 0.  0.
     999903    2    3    3    0    0 -0.42120063050E-01  0.73509754816E-01 -0.96615975982E-01  0.13020972411E+00  0.21027165144E-01 0.  0.
         14    1    1    2    0    0 -0.41157905905E-02 -0.11676873338E-01 -0.19132295406E-01  0.22788897091E-01  0.00000000000E+00 0.  1.
     999901    1    3    3    0    0  0.46235853641E-01 -0.61832881478E-01  0.11574827139E+00  0.89093137880E+00  0.88000000000E+00 0.  1.
        -11    1    4    4    0    0 -0.13938029903E-01  0.28967675394E-01 -0.22419939467E-01  0.39195786789E-01  0.51100000000E-03 0.  1.
         11    1    4    4    0    0 -0.28182033147E-01  0.44542079423E-01 -0.74196036515E-01  0.91013937324E-01  0.51100000000E-03 0. -1.
</event>
<event>
 8    1  0.1041149E+005  0.1043930E+01  0.7957747E-01            NaN
         13   -1    0    0    0    0  0.00000000000E+00  0.00000000000E+00  0.74505805969E-08  0.10566000000E+00  0.10566000000E+00 0. -1.
     999900   -1    0    0    0    0 -0.00000000000E+00 -0.00000000000E+00 -0.74505805969E-08  0.93827000000E+00  0.93827000000E+00 0.  1.
     999902    2    1    2    0    0 -0.32909080774E-02  0.52461037930E-02  0.23064103363E-01  0.10200489501E+01  0.10197693641E+01 0.  0.
     999903    2    3    3    0    0 -0.50437269800E-01 -0.11440109799E+00  0.31542740654E-01  0.13066145321E+00  0.21117326062E-01 0.  0.
         14    1    1    2    0    0  0.32909080774E-02 -0.52461037930E-02 -0.23064103363E-01  0.23881049912E-01  0.00000000000E+00 0.  1.
     999901    1    3    3    0    0  0.47146361722E-01  0.11964720178E+00 -0.84786372915E-02  0.88938749688E+00  0.88000000000E+00 0.  1.
        -11    1    4    4    0    0 -0.17734288050E-01 -0.65900908690E-01  0.15124228361E-01  0.69903062474E-01  0.51100000000E-03 0. -1.
         11    1    4    4    0    0 -0.32702981750E-01 -0.48500189300E-01  0.16418512293E-01  0.60758390733E-01  0.51100000000E-03 0.  1.
</event>
<event>
 8    1  0.1041149E+005  0.1043930E+01  0.7957747E-01            NaN
         13   -1    0    0    0    0  0.00000000000E+00  0.00000000000E+00  0.74505805969E-08  0.10566000000E+00  0.10566000000E+00 0. -1.
     999900   -1    0    0    0    0 -0.00000000000E+00 -0.00000000000E+00 -0.74505805969E-08  0.93827000000E+00  0.93827000000E+00 0. -1.
     999902    2    1    2    0    0  0.11382112302E-02  0.29034810041E-02 -0.23786933370E-01  0.10199395034E+01  0.10196573183E+01 0.  0.
     999903    2    3    3    0    0  0.85564467563E-01  0.48942360497E-01  0.80209601917E-01  0.12861315997E+00  0.19777055333E-01 0.  0.
         14    1    1    2    0    0 -0.11382112302E-02 -0.29034810041E-02  0.23786933370E-01  0.23990496575E-01  0.00000000000E+00 0. -1.
     999901    1    3    3    0    0 -0.84426256333E-01 -0.46038879493E-01 -0.10399653529E+00  0.89132634345E+00  0.88000000000E+00 0. -1.
        -11    1    4    4    0    0  0.51405889737E-01  0.38953009448E-01  0.45795325728E-01  0.79103574030E-01  0.51100000000E-03 0. -1.
         11    1    4    4    0    0  0.34158577826E-01  0.99893510494E-02  0.34414276189E-01  0.49509585942E-01  0.51100000000E-03 0.  1.
</event>
<event>
 8    1  0.1041149E+005  0.1043930E+01  0.7957747E-01            NaN
         13   -1    0    0    0    0  0.00000000000E+00  0.00000000000E+00  0.74505805969E-08  0.10566000000E+00  0.10566000000E+00 0. -1.
     999900   -1    0    0    0    0 -0.00000000000E+00 -0.00000000000E+00 -0.74505805969E-08  0.93827000000E+00  0.93827000000E+00 0. -1.
     999902    2    1    2    0    0  0.20600723921E-01  0.61999985461E-02  0.93967185785E-02  0.10204538818E+01  0.10201838053E+01 0.  0.
     999903    2    3    3    0    0  0.58496769409E-01 -0.11145893002E+00 -0.29639744833E-01  0.13095763150E+00  0.20649979672E-01 0.  0.
         14    1    1    2    0    0 -0.20600723921E-01 -0.61999985461E-02 -0.93967185785E-02  0.23476118250E-01  0.00000000000E+00 0. -1.
     999901    1    3    3    0    0 -0.37896045488E-01  0.11765892857E+00  0.39036463411E-01  0.88949625025E+00  0.88000000000E+00 0.  1.
        -11    1    4    4    0    0  0.41134179980E-01 -0.81062899001E-01 -0.11803490354E-01  0.91666776220E-01  0.51100000000E-03 0. -1.
         11    1    4    4    0    0  0.17362589429E-01 -0.30396031023E-01 -0.17836254479E-01  0.39290855278E-01  0.51100000000E-03 0.  1.
</event>
<event>
 8    1  0.1041149E+005  0.1043930E+01  0.7957747E-01            NaN
         13   -1    0    0    0    0  0.00000000000E+00  0.00000000000E+00  0.74505805969E-08  0.10566000000E+00  0.10566000000E+00 0. -1.
     999900   -1    0    0    0    0 -0.00000000000E+00 -0.00000000000E+00 -0.74505805969E-08  0.93827000000E+00  0.93827000000E+00 0.  1.
     999902    2    1    2    0    0  0.37222460599E-02 -0.23075468470E-01  0.69418228381E-02  0.10195471932E+01  0.10192555901E+01 0.  0.
     999903    2    3    3    0    0  0.13056591096E-01  0.39624617606E-01 -0.11948497311E+00  0.12825478022E+00  0.20785691212E-01 0.  0.
         14    1    1    2    0    0 -0.37222460599E-02  0.23075468470E-01 -0.69418228381E-02  0.24382806753E-01  0.00000000000E+00 0. -1.
     999901    1    3    3    0    0 -0.93343450362E-02 -0.62700086076E-01  0.12642679594E+00  0.89129241303E+00  0.88000000000E+00 0. -1.
        -11    1    4    4    0    0 -0.46928604319E-02  0.17398358037E-01 -0.41658755762E-01  0.45392057169E-01  0.51100000000E-03 0.  1.
         11    1    4    4    0    0  0.17749451528E-01  0.22226259568E-01 -0.77826217344E-01  0.82862723048E-01  0.51100000000E-03 0. -1.
</event>
<event>
 8    1  0.1041149E+005  0.1043930E+01  0.7957747E-01            NaN
         13   -1    0    0    0    0  0.00000000000E+00  0.00000000000E+00  0.74505805969E-08  0.10566000000E+00  0.10566000000E+00 0. -1.
     999900   -1    0    0    0    0 -0.00000000000E+00 -0.00000000000E+00 -0.74505805969E-08  0.93827000000E+00  0.93827000000E+00 0. -1.
     999902    2    1    2    0    0  0.20468849301E-03  0.47696179240E-02  0.23521551515E-01  0.10199288638E+01  0.10196464253E+01 0.  0.
     999903    2    3    3    0    0 -0.97080483475E-01  0.58887667489E-01  0.64155342511E-01  0.13198501821E+00  0.20291855646E-01 0.  0.
         14    1    1    2    0    0 -0.20468849301E-03 -0.47696179240E-02 -0.23521551515E-01  0.24001136185E-01  0.00000000000E+00 0.  1.
     999901    1    3    3    0    0  0.97285171968E-01 -0.54118049565E-01 -0.40633790996E-01  0.88794384560E+00  0.88000000000E+00 0.  1.
        -11    1    4    4    0    0 -0.58452138769E-01  0.24341162899E-01  0.39117617153E-01  0.74428447724E-01  0.51100000000E-03 0.  1.
         11    1    4    4    0    0 -0.38628344706E-01  0.34546504590E-01  0.25037725358E-01  0.57556570487E-01  0.51100000000E-03 0. -1.
</event>
<event>
 8    1  0.1041149E+005  0.1043930E+01  0.7957747E-01            NaN
         13   -1    0    0    0    0  0.00000000000E+00  0.00000000000E+00  0.74505805969E-08  0.10566000000E+00  0.10566000000E+00 0. -1.
     999900   -1    0    0    0    0 -0.00000000000E+00 -0.00000000000E+00 -0.74505805969E-08  0.93827000000E+00  0.93827000000E+00 0.  1.
     999902    2    1    2    0    0  0.16049404535E-01  0.76464077106E-02 -0.15428237768E-01  0.10203910651E+01  0.10201195245E+01 0.  0.
     999903    2    3    3    0    0  0.11378428612E+00 -0.28728668644E-01  0.55987963254E-01  0.13136039798E+00  0.18673563096E-01 0.  0.
         14    1    1    2    0    0 -0.16049404535E-01 -0.76464077106E-02  0.15428237768E-01  0.23538934926E-01  0.00000000000E+00 0. -1.
     999901    1    3    3    0    0 -0.97734881588E-01  0.36375076354E-01 -0.71416201022E-01  0.88903066709E+00  0.88000000000E+00 0.  1.
        -11    1    4    4    0    0  0.94789529983E-01 -0.27632942073E-01  0.40105011931E-01  0.10657066944E+00  0.51100000000E-03 0. -1.
         11    1    4    4    0    0  0.18994756140E-01 -0.10957265705E-02  0.15882951323E-01  0.24789728544E-01  0.51100000000E-03 0.  1.
</event>
<event>
 8    1  0.1041149E+005  0.1043930E+01  0.7957747E-01            NaN
         13   -1    0    0    0    0  0.00000000000E+00  0.00000000000E+00  0.74505805969E-08  0.10566000000E+00  0.10566000000E+00 0.  1.
     999900   -1    0    0    0    0 -0.00000000000E+00 -0.00000000000E+00 -0.74505805969E-08  0.93827000000E+00  0.93827000000E+00 0.  1.
     999902    2    1    2    0    0  0.14540485288E-01  0.17625145292E-01  0.79632207195E-02  0.10197332163E+01  0.10194460986E+01 0.  0.
     999903    2    3    3    0    0  0.31478002677E-01  0.10788861891E+00 -0.66043638030E-01  0.13186420041E+00  0.19889356019E-01 0.  0.
         14    1    1    2    0    0 -0.14540485288E-01 -0.17625145292E-01 -0.79632207195E-02  0.24196783737E-01  0.00000000000E+00 0. -1.
     999901    1    3    3    0    0 -0.16937517389E-01 -0.90263473621E-01  0.74006858750E-01  0.88786901585E+00  0.88000000000E+00 0. -1.
        -11    1    4    4    0    0  0.18940320179E-01  0.89655127242E-01 -0.57239217524E-01  0.10804335571E+00  0.51100000000E-03 0.  1.
         11    1    4    4    0    0  0.12537682498E-01  0.18233491670E-01 -0.88044205063E-02  0.23820844703E-01  0.51100000000E-03 0. -1.
</event>
<event>
 8    1  0.1041149E+005  0.1043930E+01  0.7957747E-01            NaN
         13   -1    0    0    0    0  0.00000000000E+00  0.00000000000E+00  0.74505805969E-08  0.10566000000E+00  0.10566000000E+00 0.  1.
     999900   -1    0    0    0    0 -0.00000000000E+00 -0.00000000000E+00 -0.74505805969E-08  0.93827000000E+00  0.93827000000E+00 0. -1.
     999902    2    1    2    0    0 -0.27860929047E-02  0.22624970519E-01  0.74494295615E-02  0.10199478065E+01  0.10196658190E+01 0.  0.
     999903    2    3    3    0    0 -0.62535251462E-01 -0.10185950328E+00 -0.41453633753E-01  0.12783914956E+00  0.18396421521E-01 0.  0.
         14    1    1    2    0    0  0.27860929047E-02 -0.22624970519E-01 -0.74494295615E-02  0.23982193508E-01  0.00000000000E+00 0. -1.
     999901    1    3    3    0    0  0.59749158558E-01  0.12448447380E+00  0.48903063315E-01  0.89210865693E+00  0.88000000000E+00 0.  1.
        -11    1    4    4    0    0 -0.54634074701E-01 -0.76243555722E-01 -0.28302310774E-01  0.97975730790E-01  0.51100000000E-03 0. -1.
         11    1    4    4    0    0 -0.79011767617E-02 -0.25615947562E-01 -0.13151322979E-01  0.29863418774E-01  0.51100000000E-03 0.  1.
</event>
<event>
 8    1  0.1041149E+005  0.1043930E+01  0.7957747E-01            NaN
         13   -1    0    0    0    0  0.00000000000E+00  0.00000000000E+00  0.74505805969E-08  0.10566000000E+00  0.10566000000E+00 0. -1.
     999900   -1    0    0    0    0 -0.00000000000E+00 -0.00000000000E+00 -0.74505805969E-08  0.93827000000E+00  0.93827000000E+00 0. -1.
     999902    2    1    2    0    0 -0.16652760540E-01  0.48330077841E-02 -0.16070136805E-01  0.10202884752E+01  0.10200145347E+01 0.  0.
     999903    2    3    3    0    0 -0.12608930483E+00 -0.35752826545E-01  0.20179336029E-02  0.13239729636E+00  0.18659973953E-01 0.  0.
         14    1    1    2    0    0  0.16652760540E-01 -0.48330077841E-02  0.16070136805E-01  0.23641524798E-01  0.00000000000E+00 0. -1.
     999901    1    3    3    0    0  0.10943654429E+00  0.40585834329E-01 -0.18088070407E-01  0.88789117884E+00  0.88000000000E+00 0. -1.
        -11    1    4    4    0    0 -0.63157684713E-01 -0.24429662092E-01  0.79198652764E-02  0.68181279801E-01  0.51100000000E-03 0.  1.
         11    1    4    4    0    0 -0.62931620121E-01 -0.11323164453E-01 -0.59019316736E-02  0.64216016559E-01  0.51100000000E-03 0. -1.
</event>
<event>
 8    1  0.1041149E+005  0.1043930E+01  0.7957747E-01            NaN
         13   -1    0    0    0    0  0.00000000000E+00  0.00000000000E+00  0.74505805969E-08  0.10566000000E+00  0.10566000000E+00 0.  1.
     999900   -1    0    0    0    0 -0.00000000000E+00 -0.00000000000E+00 -0.74505805969E-08  0.93827000000E+00  0.93827000000E+00 0.  1.
     999902    2    1    2    0    0  0.18179928306E-01  0.11787620859E-01 -0.62488869576E-02  0.10213799138E+01  0.10211309524E+01 0.  0.
     999903    2    3    3    0    0  0.56107406064E-01 -0.10175276543E+00  0.57102835571E-01  0.13101855255E+00  0.20086338484E-01 0.  0.
         14    1    1    2    0    0 -0.18179928306E-01 -0.11787620859E-01  0.62488869576E-02  0.22550086185E-01  0.00000000000E+00 0.  1.
     999901    1    3    3    0    0 -0.37927477757E-01  0.11354038629E+00 -0.63351722529E-01  0.89036136127E+00  0.88000000000E+00 0. -1.
        -11    1    4    4    0    0  0.34267374841E-01 -0.80046991920E-01  0.43835096316E-01  0.97486156371E-01  0.51100000000E-03 0.  1.
         11    1    4    4    0    0  0.21840031222E-01 -0.21705773511E-01  0.13267739256E-01  0.33532396178E-01  0.51100000000E-03 0. -1.
</event>
<event>
 8    1  0.1041149E+005  0.1043930E+01  0.7957747E-01            NaN
         13   -1    0    0    0    0  0.00000000000E+00  0.00000000000E+00  0.74505805969E-08  0.10566000000E+00  0.10566000000E+00 0. -1.
     999900   -1    0    0    0    0 -0.00000000000E+00 -0.00000000000E+00 -0.74505805969E-08  0.93827000000E+00  0.93827000000E+00 0. -1.
     999902    2    1    2    0    0  0.21200362046E-01  0.84142066866E-02  0.68554438635E-02  0.10201129612E+01  0.10198348897E+01 0.  0.
     999903    2    3    3    0    0  0.12106316111E+00  0.48026249823E-01  0.20366823784E-01  0.13347647992E+00  0.20936894023E-01 0.  0.
         14    1    1    2    0    0 -0.21200362046E-01 -0.84142066866E-02 -0.68554438635E-02  0.23817038767E-01  0.00000000000E+00 0. -1.
     999901    1    3    3    0    0 -0.99862799067E-01 -0.39612043137E-01 -0.13511379921E-01  0.88663648131E+00  0.88000000000E+00 0.  1.
        -11    1    4    4    0    0  0.80888695369E-01  0.23630798605E-01  0.67575181221E-02  0.84541829016E-01  0.51100000000E-03 0. -1.
         11    1    4    4    0    0  0.40174465744E-01  0.24395451219E-01  0.13609305662E-01  0.48934650909E-01  0.51100000000E-03 0.  1.
</event>
<event>
 8    1  0.1041149E+005  0.1043930E+01  0.7957747E-01            NaN
         13   -1    0    0    0    0  0.00000000000E+00  0.00000000000E+00  0.74505805969E-08  0.10566000000E+00  0.10566000000E+00 0. -1.
     999900   -1    0    0    0    0 -0.00000000000E+00 -0.00000000000E+00 -0.74505805969E-08  0.93827000000E+00  0.93827000000E+00 0. -1.
     999902    2    1    2    0    0  0.18320614164E-02  0.19792512835E-01  0.13385218229E-01  0.10199661923E+01  0.10196846421E+01 0.  0.
     999903    2    3    3    0    0 -0.79924510922E-01  0.58816558578E-02 -0.99058996167E-01  0.12894354924E+00  0.19779606849E-01 0.  0.
         14    1    1    2    0    0 -0.18320614164E-02 -0.19792512835E-01 -0.13385218229E-01  0.23963807719E-01  0.00000000000E+00 0.  1.
     999901    1    3    3    0    0  0.81756572338E-01  0.13910856977E-01  0.11244421440E+00  0.89102264304E+00  0.88000000000E+00 0.  1.
        -11    1    4    4    0    0 -0.40026405845E-01  0.83514473986E-03 -0.34350265504E-01  0.52754265162E-01  0.51100000000E-03 0.  1.
         11    1    4    4    0    0 -0.39898105077E-01  0.50465111179E-02 -0.64708730662E-01  0.76189284077E-01  0.51100000000E-03 0. -1.
</event>
<event>
 8    1  0.1041149E+005  0.1043930E+01  0.7957747E-01            NaN
         13   -1    0    0    0    0  0.00000000000E+00  0.00000000000E+00  0.74505805969E-08  0.10566000000E+00  0.10566000000E+00 0.  1.
     999900   -1    0    0    0    0 -0.00000000000E+00 -0.00000000000E+00 -0.74505805969E-08  0.93827000000E+00  0.93827000000E+00 0. -1.
     999902    2    1    2    0    0 -0.67524960881E-03 -0.17457321929E-02 -0.17148637810E-01  0.10266795124E+01  0.10265345790E+01 0.  0.
     999903    2    3    3    0    0 -0.63582777397E-01  0.11494423090E+00  0.28163700858E-01  0.13559752261E+00  0.18399681825E-01 0.  0.
         14    1    1    2    0    0  0.67524960881E-03  0.17457321929E-02  0.17148637810E-01  0.17250487578E-01  0.00000000000E+00 0.  1.
     999901    1    3    3    0    0  0.62907527788E-01 -0.11668996310E+00 -0.45312338668E-01  0.89108198982E+00  0.88000000000E+00 0. -1.
        -11    1    4    4    0    0 -0.57586047079E-01  0.10411734291E+00  0.19718504422E-01  0.12060536659E+00  0.51100000000E-03 0.  1.
         11    1    4    4    0    0 -0.59967303183E-02  0.10826887994E-01  0.84451964367E-02  0.14992156015E-01  0.51100000000E-03 0. -1.
</event>
<event>
 8    1  0.1041149E+005  0.1043930E+01  0.7957747E-01            NaN
         13   -1    0    0    0    0  0.00000000000E+00  0.00000000000E+00  0.74505805969E-08  0.10566000000E+00  0.10566000000E+00 0.  1.
     999900   -1    0    0    0    0 -0.00000000000E+00 -0.00000000000E+00 -0.74505805969E-08  0.93827000000E+00  0.93827000000E+00 0.  1.
     999902    2    1    2    0    0  0.19881110635E-01 -0.10240462127E-01 -0.20178101324E-02  0.10214756645E+01  0.10212288363E+01 0.  0.
     999903    2    3    3    0    0 -0.14640202953E-01  0.98292159003E-01  0.81756913689E-01  0.13019049393E+00  0.19740509359E-01 0.  0.
         14    1    1    2    0    0 -0.19881110635E-01  0.10240462127E-01  0.20178101324E-02  0.22454335492E-01  0.00000000000E+00 0. -1.
     999901    1    3    3    0    0  0.34521313588E-01 -0.10853262113E+00 -0.83774723822E-01  0.89128517058E+00  0.88000000000E+00 0.  1.
        -11    1    4    4    0    0 -0.29014187539E-02  0.57135219221E-01  0.36306317350E-01  0.67758846704E-01  0.51100000000E-03 0.  1.
         11    1    4    4    0    0 -0.11738784199E-01  0.41156939782E-01  0.45450596339E-01  0.62431647226E-01  0.51100000000E-03 0. -1.
</event>
<event>
 8    1  0.1041149E+005  0.1043930E+01  0.7957747E-01            NaN
         13   -1    0    0    0    0  0.00000000000E+00  0.00000000000E+00  0.74505805969E-08  0.10566000000E+00  0.10566000000E+00 0.  1.
     999900   -1    0    0    0    0 -0.00000000000E+00 -0.00000000000E+00 -0.74505805969E-08  0.93827000000E+00  0.93827000000E+00 0.  1.
     999902    2    1    2    0    0  0.11651865600E-01 -0.43789267926E-02 -0.20988646019E-01  0.10195278642E+01  0.10192357929E+01 0.  0.
     999903    2    3    3    0    0 -0.71532895370E-01  0.55600434335E-01 -0.91990889364E-01  0.13073174199E+00  0.20496370906E-01 0.  0.
         14    1    1    2    0    0 -0.11651865600E-01  0.43789267926E-02  0.20988646019E-01  0.24402135840E-01  0.00000000000E+00 0.  1.
     999901    1    3    3    0    0  0.83184760970E-01 -0.59979361127E-01  0.71002243345E-01  0.88879612217E+00  0.88000000000E+00 0. -1.
        -11    1    4    4    0    0 -0.43567414155E-01  0.28396293471E-01 -0.65201382178E-01  0.83402340602E-01  0.51100000000E-03 0.  1.
         11    1    4    4    0    0 -0.27965481215E-01  0.27204140864E-01 -0.26789507187E-01  0.47329401391E-01  0.51100000000E-03 0. -1.
</event>
<event>
 8    1  0.1041149E+005  0.1043930E+01  0.7957747E-01            NaN
         13   -1    0    0    0    0  0.00000000000E+00  0.00000000000E+00  0.74505805969E-08  0.10566000000E+00  0.10566000000E+00 0.  1.
     999900   -1    0    0    0    0 -0.00000000000E+00 -0.00000000000E+00 -0.74505805969E-08  0.93827000000E+00  0.93827000000E+00 0. -1.
     999902    2    1    2    0    0 -0.10398636288E-01 -0.31867124120E-02 -0.22957153163E-01  0.10185268968E+01  0.10182100578E+01 0.  0.
     999903    2    3    3    0    0  0.50047362293E-01  0.44879395499E-01 -0.11042383520E+00  0.13082509439E+00  0.20071953801E-01 0.  0.
         14    1    1    2    0    0  0.10398636288E-01  0.31867124120E-02  0.22957153163E-01  0.25403103236E-01  0.00000000000E+00 0.  1.
     999901    1    3    3    0    0 -0.60445998581E-01 -0.48066107911E-01  0.87466682034E-01  0.88770180238E+00  0.88000000000E+00 0.  1.
        -11    1    4    4    0    0  0.26492314313E-01  0.24911060270E-01 -0.77913656645E-01  0.85983734824E-01  0.51100000000E-03 0. -1.
         11    1    4    4    0    0  0.23555047980E-01  0.19968335229E-01 -0.32510178552E-01  0.44841359565E-01  0.51100000000E-03 0.  1.
</event>
<event>
 8    1  0.1041149E+005  0.1043930E+01  0.7957747E-01            NaN
         13   -1    0    0    0    0  0.00000000000E+00  0.00000000000E+00  0.74505805969E-08  0.10566000000E+00  0.10566000000E+00 0.  1.
     999900   -1    0    0    0    0 -0.00000000000E+00 -0.00000000000E+00 -0.74505805969E-08  0.93827000000E+00  0.93827000000E+00 0.  1.
     999902    2    1    2    0    0  0.12647040748E-01  0.19901345674E-01 -0.85829628124E-02  0.10188366055E+01  0.10185275402E+01 0.  0.
     999903    2    3    3    0    0  0.12366927142E+00  0.11399031075E-01 -0.38175320854E-01  0.13132664342E+00  0.19112967978E-01 0.  0.
         14    1    1    2    0    0 -0.12647040748E-01 -0.19901345674E-01  0.85829628124E-02  0.25093394548E-01  0.00000000000E+00 0. -1.
     999901    1    3    3    0    0 -0.11102223068E+00  0.85023145988E-02  0.29592358042E-01  0.88750996204E+00  0.88000000000E+00 0. -1.
        -11    1    4    4    0    0  0.93681025838E-01  0.10908021259E-02 -0.24865371433E-01  0.96932307663E-01  0.51100000000E-03 0. -1.
         11    1    4    4    0    0  0.29988245585E-01  0.10308228949E-01 -0.13309949421E-01  0.34394335754E-01  0.51100000000E-03 0.  1.
</event>
<event>
 8    1  0.1041149E+005  0.1043930E+01  0.7957747E-01            NaN
         13   -1    0    0    0    0  0.00000000000E+00  0.00000000000E+00  0.74505805969E-08  0.10566000000E+00  0.10566000000E+00 0. -1.
     999900   -1    0    0    0    0 -0.00000000000E+00 -0.00000000000E+00 -0.74505805969E-08  0.93827000000E+00  0.93827000000E+00 0. -1.
     999902    2    1    2    0    0  0.12640957234E-01 -0.17834966983E-02 -0.21944405935E-01  0.10185423729E+01  0.10182259247E+01 0.  0.
     999903    2    3    3    0    0 -0.71892668321E-01 -0.90212926100E-01 -0.55162848234E-01  0.12945904563E+00  0.20242946350E-01 0.  0.
         14    1    1    2    0    0 -0.12640957234E-01  0.17834966983E-02  0.21944405935E-01  0.25387627146E-01  0.00000000000E+00 0. -1.
     999901    1    3    3    0    0  0.84533625555E-01  0.88429429402E-01  0.33218442299E-01  0.88908332722E+00  0.88000000000E+00 0.  1.
        -11    1    4    4    0    0 -0.25126898997E-01 -0.22826368004E-01 -0.81492083869E-02  0.34915252366E-01  0.51100000000E-03 0. -1.
         11    1    4    4    0    0 -0.46765769324E-01 -0.67386558097E-01 -0.47013639847E-01  0.94543793267E-01  0.51100000000E-03 0.  1.
</event>
<event>
 8    1  0.1041149E+005  0.1043930E+01  0.7957747E-01            NaN
         13   -1    0    0    0    0  0.00000000000E+00  0.00000000000E+00  0.74505805969E-08  0.10566000000E+00  0.10566000000E+00 0. -1.
     999900   -1    0    0    0    0 -0.00000000000E+00 -0.00000000000E+00 -0.74505805969E-08  0.93827000000E+00  0.93827000000E+00 0.  1.
     999902    2    1    2    0    0  0.17954746849E-01  0.77048312299E-03 -0.15963046922E-01  0.10198928320E+01  0.10196095347E+01 0.  0.
     999903    2    3    3    0    0 -0.79710097590E-01  0.89376834438E-01  0.44037995577E-01  0.12804663873E+00  0.10708802210E-01 0.  0.
         14    1    1    2    0    0 -0.17954746849E-01 -0.77048312299E-03  0.15963046922E-01  0.24037168005E-01  0.00000000000E+00 0. -1.
     999901    1    3    3    0    0  0.97664844439E-01 -0.88606351315E-01 -0.60001042499E-01  0.89184619326E+00  0.88000000000E+00 0.  1.
        -11    1    4    4    0    0 -0.69644873824E-01  0.80816103717E-01  0.42053552910E-01  0.11467525236E+00  0.51100000000E-03 0.  1.
         11    1    4    4    0    0 -0.10065223766E-01  0.85607307209E-02  0.19844426674E-02  0.13371386377E-01  0.51100000000E-03 0. -1.
</event>
<event>
 8    1  0.1041149E+005  0.1043930E+01  0.7957747E-01            NaN
         13   -1    0    0    0    0  0.00000000000E+00  0.00000000000E+00  0.74505805969E-08  0.10566000000E+00  0.10566000000E+00 0. -1.
     999900   -1    0    0    0    0 -0.00000000000E+00 -0.00000000000E+00 -0.74505805969E-08  0.93827000000E+00  0.93827000000E+00 0. -1.
     999902    2    1    2    0    0 -0.22551096973E-01  0.70776461519E-02  0.10502007256E-01  0.10180661796E+01  0.10177375933E+01 0.  0.
     999903    2    3    3    0    0  0.17157975413E-01 -0.70356719211E-01 -0.10196046594E+00  0.12665118126E+00  0.20003025797E-01 0.  0.
         14    1    1    2    0    0  0.22551096973E-01 -0.70776461519E-02 -0.10502007256E-01  0.25863820408E-01  0.00000000000E+00 0. -1.
     999901    1    3    3    0    0 -0.39709072386E-01  0.77434365363E-01  0.11246247320E+00  0.89141499833E+00  0.88000000000E+00 0.  1.
        -11    1    4    4    0    0  0.14745185888E-01 -0.31258713119E-01 -0.60007679235E-01  0.69251067435E-01  0.51100000000E-03 0. -1.
         11    1    4    4    0    0  0.24127895248E-02 -0.39098006091E-01 -0.41952786710E-01  0.57400113827E-01  0.51100000000E-03 0.  1.
</event>
<event>
 8    1  0.1041149E+005  0.1043930E+01  0.7957747E-01            NaN
         13   -1    0    0    0    0  0.00000000000E+00  0.00000000000E+00  0.74505805969E-08  0.10566000000E+00  0.10566000000E+00 0.  1.
     999900   -1    0    0    0    0 -0.00000000000E+00 -0.00000000000E+00 -0.74505805969E-08  0.93827000000E+00  0.93827000000E+00 0. -1.
     999902    2    1    2    0    0 -0.14628419287E-01 -0.16331736753E-01  0.16246937310E-02  0.10219446434E+01  0.10217081277E+01 0.  0.
     999903    2    3    3    0    0  0.32761738733E-01 -0.27703191494E-01  0.12346326071E+00  0.13221447447E+00  0.19917132540E-01 0.  0.
         14    1    1    2    0    0  0.14628419287E-01  0.16331736753E-01 -0.16246937310E-02  0.21985356625E-01  0.00000000000E+00 0.  1.
     999901    1    3    3    0    0 -0.47390158020E-01  0.11371454741E-01 -0.12183856698E+00  0.88973016891E+00  0.88000000000E+00 0. -1.
        -11    1    4    4    0    0  0.26030733254E-02 -0.45210602839E-03  0.32142334635E-01  0.32254785496E-01  0.51100000000E-03 0.  1.
         11    1    4    4    0    0  0.30158665408E-01 -0.27251085465E-01  0.91320926079E-01  0.99959688971E-01  0.51100000000E-03 0. -1.
</event>
<event>
 8    1  0.1041149E+005  0.1043930E+01  0.7957747E-01            NaN
         13   -1    0    0    0    0  0.00000000000E+00  0.00000000000E+00  0.74505805969E-08  0.10566000000E+00  0.10566000000E+00 0. -1.
     999900   -1    0    0    0    0 -0.00000000000E+00 -0.00000000000E+00 -0.74505805969E-08  0.93827000000E+00  0.93827000000E+00 0. -1.
     999902    2    1    2    0    0 -0.37741160716E-02  0.23422188413E-01 -0.57823369826E-03  0.10201986449E+01  0.10199225940E+01 0.  0.
     999903    2    3    3    0    0  0.39883930238E-01  0.11075453760E-01  0.12209118726E+00  0.13053227274E+00  0.20470042783E-01 0.  0.
         14    1    1    2    0    0  0.37741160716E-02 -0.23422188413E-01  0.57823369826E-03  0.23731355131E-01  0.00000000000E+00 0. -1.
     999901    1    3    3    0    0 -0.43658046310E-01  0.12346734652E-01 -0.12266942096E+00  0.88966637213E+00  0.88000000000E+00 0. -1.
        -11    1    4    4    0    0  0.23769302730E-01  0.68084349564E-02  0.99036881172E-01  0.10207790893E+00  0.51100000000E-03 0.  1.
         11    1    4    4    0    0  0.16114627508E-01  0.42670188039E-02  0.23054306090E-01  0.28454363804E-01  0.51100000000E-03 0. -1.
</event>
<event>
 8    1  0.1041149E+005  0.1043930E+01  0.7957747E-01            NaN
         13   -1    0    0    0    0  0.00000000000E+00  0.00000000000E+00  0.74505805969E-08  0.10566000000E+00  0.10566000000E+00 0.  1.
     999900   -1    0    0    0    0 -0.00000000000E+00 -0.00000000000E+00 -0.74505805969E-08  0.93827000000E+00  0.93827000000E+00 0. -1.
     999902    2    1    2    0    0 -0.26038622825E-02  0.16259889841E-01 -0.16699412833E-01  0.10204771856E+01  0.10202076513E+01 0.  0.
     999903    2    3    3    0    0  0.10599186489E+00  0.43253263692E-01  0.59323597906E-01  0.13013951234E+00  0.17660214059E-01 0.  0.
         14    1    1    2    0    0  0.26038622825E-02 -0.16259889841E-01  0.16699412833E-01  0.23452814445E-01  0.00000000000E+00 0.  1.
     999901    1    3    3    0    0 -0.10859572717E+00 -0.26993373851E-01 -0.76023010739E-01  0.89033767322E+00  0.88000000000E+00 0.  1.
        -11    1    4    4    0    0  0.28214769954E-01  0.19882534056E-01  0.20156447850E-01  0.39974140578E-01  0.51100000000E-03 0. -1.
         11    1    4    4    0    0  0.77777094932E-01  0.23370729636E-01  0.39167150056E-01  0.90165371758E-01  0.51100000000E-03 0.  1.
</event>
<event>
 8    1  0.1041149E+005  0.1043930E+01  0.7957747E-01            NaN
         13   -1    0    0    0    0  0.00000000000E+00  0.00000000000E+00  0.74505805969E-08  0.10566000000E+00  0.10566000000E+00 0. -1.
     999900   -1    0    0    0    0 -0.00000000000E+00 -0.00000000000E+00 -0.74505805969E-08  0.93827000000E+00  0.93827000000E+00 0. -1.
     999902    2    1    2    0    0 -0.39411955094E-02  0.13624633137E-01  0.18783324018E-01  0.10203932859E+01  0.10201217971E+01 0.  0.
     999903    2    3    3    0    0 -0.98775766054E-01 -0.15214982195E-01 -0.79929485366E-01  0.12934360269E+00  0.18785560507E-01 0.  0.
         14    1    1    2    0    0  0.39411955094E-02 -0.13624633137E-01 -0.18783324018E-01  0.23536714115E-01  0.00000000000E+00 0. -1.
     999901    1    3    3    0    0  0.94834570545E-01  0.28839615332E-01  0.98712809384E-01  0.89104968319E+00  0.88000000000E+00 0.  1.
        -11    1    4    4    0    0 -0.13927545058E-01  0.25106015964E-02 -0.58585058541E-02  0.15325235514E-01  0.51100000000E-03 0.  1.
         11    1    4    4    0    0 -0.84848220996E-01 -0.17725583792E-01 -0.74070979512E-01  0.11401836718E+00  0.51100000000E-03 0. -1.
</event>
<event>
 8    1  0.1041149E+005  0.1043930E+01  0.7957747E-01            NaN
         13   -1    0    0    0    0  0.00000000000E+00  0.00000000000E+00  0.74505805969E-08  0.10566000000E+00  0.10566000000E+00 0. -1.
     999900   -1    0    0    0    0 -0.00000000000E+00 -0.00000000000E+00 -0.74505805969E-08  0.93827000000E+00  0.93827000000E+00 0. -1.
     999902    2    1    2    0    0 -0.11756140988E-01 -0.17777088624E-01  0.25071549881E-01  0.10110238555E+01  0.10104882098E+01 0.  0.
     999903    2    3    3    0    0  0.56423311834E-01 -0.40338210187E-01 -0.95667778240E-01  0.11988109067E+00  0.20208680996E-01 0.  0.
         14    1    1    2    0    0  0.11756140988E-01  0.17777088624E-01 -0.25071549881E-01  0.32906144477E-01  0.00000000000E+00 0.  1.
     999901    1    3    3    0    0 -0.68179452823E-01  0.22561121563E-01  0.12073932812E+00  0.89114276485E+00  0.88000000000E+00 0.  1.
        -11    1    4    4    0    0  0.22879938308E-01 -0.10400223653E-01 -0.49029259706E-01  0.55097964185E-01  0.51100000000E-03 0. -1.
         11    1    4    4    0    0  0.33543373526E-01 -0.29937986534E-01 -0.46638518534E-01  0.64783126486E-01  0.51100000000E-03 0.  1.
</event>
<event>
 8    1  0.1041149E+005  0.1043930E+01  0.7957747E-01            NaN
         13   -1    0    0    0    0  0.00000000000E+00  0.00000000000E+00  0.74505805969E-08  0.10566000000E+00  0.10566000000E+00 0. -1.
     999900   -1    0    0    0    0 -0.00000000000E+00 -0.00000000000E+00 -0.74505805969E-08  0.93827000000E+00  0.93827000000E+00 0. -1.
     999902    2    1    2    0    0 -0.21034963419E-01 -0.37354185143E-02  0.24899300635E-02  0.10224213322E+01  0.10221950684E+01 0.  0.
     999903    2    3    3    0    0 -0.93682307898E-01  0.37069879627E-01  0.86777216625E-01  0.13447591967E+00  0.20073287136E-01 0.  0.
         14    1    1    2    0    0  0.21034963419E-01  0.37354185143E-02 -0.24899300635E-02  0.21508667770E-01  0.00000000000E+00 0.  1.
     999901    1    3    3    0    0  0.72647344479E-01 -0.40805298141E-01 -0.84287286561E-01  0.88794541256E+00  0.88000000000E+00 0. -1.
        -11    1    4    4    0    0 -0.43334461332E-01  0.20040543735E-01  0.53767033882E-01  0.71907259617E-01  0.51100000000E-03 0. -1.
         11    1    4    4    0    0 -0.50347846566E-01  0.17029335892E-01  0.33010182743E-01  0.62568660050E-01  0.51100000000E-03 0.  1.
</event>
<event>
 8    1  0.1041149E+005  0.1043930E+01  0.7957747E-01            NaN
         13   -1    0    0    0    0  0.00000000000E+00  0.00000000000E+00  0.74505805969E-08  0.10566000000E+00  0.10566000000E+00 0.  1.
     999900   -1    0    0    0    0 -0.00000000000E+00 -0.00000000000E+00 -0.74505805969E-08  0.93827000000E+00  0.93827000000E+00 0.  1.
     999902    2    1    2    0    0  0.12768817467E-01 -0.14725756671E-01 -0.32540203219E-02  0.10241694520E+01  0.10239788021E+01 0.  0.
     999903    2    3    3    0    0 -0.11660315067E+00  0.25973586649E-01  0.52501850970E-01  0.13203590826E+00  0.20152289295E-01 0.  0.
         14    1    1    2    0    0 -0.12768817467E-01  0.14725756671E-01  0.32540203219E-02  0.19760548001E-01  0.00000000000E+00 0.  1.
     999901    1    3    3    0    0  0.12937196814E+00 -0.40699343320E-01 -0.55755871291E-01  0.89213354374E+00  0.88000000000E+00 0. -1.
        -11    1    4    4    0    0 -0.46490460923E-01  0.78727743670E-02  0.10454220799E-01  0.48300055761E-01  0.51100000000E-03 0. -1.
         11    1    4    4    0    0 -0.70112689750E-01  0.18100812282E-01  0.42047630170E-01  0.83735852495E-01  0.51100000000E-03 0.  1.
</event>
<event>
 8    1  0.1041149E+005  0.1043930E+01  0.7957747E-01            NaN
         13   -1    0    0    0    0  0.00000000000E+00  0.00000000000E+00  0.74505805969E-08  0.10566000000E+00  0.10566000000E+00 0.  1.
     999900   -1    0    0    0    0 -0.00000000000E+00 -0.00000000000E+00 -0.74505805969E-08  0.93827000000E+00  0.93827000000E+00 0. -1.
     999902    2    1    2    0    0 -0.26151323743E-02  0.74010384843E-02  0.16799406052E-01  0.10253872297E+01  0.10252195552E+01 0.  0.
     999903    2    3    3    0    0  0.12850337863E+00 -0.22259953520E-01  0.29027905642E-01  0.13509437078E+00  0.19981137604E-01 0.  0.
         14    1    1    2    0    0  0.26151323743E-02 -0.74010384843E-02 -0.16799406052E-01  0.18542770335E-01  0.00000000000E+00 0. -1.
     999901    1    3    3    0    0 -0.13111851101E+00  0.29660992004E-01 -0.12228499590E-01  0.89029285888E+00  0.88000000000E+00 0. -1.
        -11    1    4    4    0    0  0.92399152527E-01 -0.12459554739E-01  0.29125272764E-01  0.97680021123E-01  0.51100000000E-03 0.  1.
         11    1    4    4    0    0  0.36104226107E-01 -0.98003987802E-02 -0.97367122170E-04  0.37414349659E-01  0.51100000000E-03 0. -1.
</event>
<event>
 8    1  0.1041149E+005  0.1043930E+01  0.7957747E-01            NaN
         13   -1    0    0    0    0  0.00000000000E+00  0.00000000000E+00  0.74505805969E-08  0.10566000000E+00  0.10566000000E+00 0. -1.
     999900   -1    0    0    0    0 -0.00000000000E+00 -0.00000000000E+00 -0.74505805969E-08  0.93827000000E+00  0.93827000000E+00 0. -1.
     999902    2    1    2    0    0 -0.14626296549E-01 -0.16209467412E-01 -0.80807976919E-02  0.10206496504E+01  0.10203841111E+01 0.  0.
     999903    2    3    3    0    0 -0.24542535016E-01 -0.12869226923E+00  0.13283613790E-01  0.13317731252E+00  0.19892360061E-01 0.  0.
         14    1    1    2    0    0  0.14626296549E-01  0.16209467412E-01  0.80807976919E-02  0.23280349565E-01  0.00000000000E+00 0.  1.
     999901    1    3    3    0    0  0.99162384666E-02  0.11248280182E+00 -0.21364411482E-01  0.88747233792E+00  0.88000000000E+00 0.  1.
        -11    1    4    4    0    0 -0.13863936284E-01 -0.98131627576E-01  0.28047223720E-02  0.99147126275E-01  0.51100000000E-03 0. -1.
         11    1    4    4    0    0 -0.10678598732E-01 -0.30560641656E-01  0.10478891418E-01  0.34030186242E-01  0.51100000000E-03 0.  1.
</event>
<event>
 8    1  0.1041149E+005  0.1043930E+01  0.7957747E-01            NaN
         13   -1    0    0    0    0  0.00000000000E+00  0.00000000000E+00  0.74505805969E-08  0.10566000000E+00  0.10566000000E+00 0.  1.
     999900   -1    0    0    0    0 -0.00000000000E+00 -0.00000000000E+00 -0.74505805969E-08  0.93827000000E+00  0.93827000000E+00 0. -1.
     999902    2    1    2    0    0  0.11900627870E-01 -0.12520713091E-01 -0.16467637845E-01  0.10200642024E+01  0.10197849777E+01 0.  0.
     999903    2    3    3    0    0 -0.78478877517E-01  0.49267521458E-01  0.85057429843E-01  0.12748726995E+00  0.20784964322E-01 0.  0.
         14    1    1    2    0    0 -0.11900627870E-01  0.12520713091E-01  0.16467637845E-01  0.23865797624E-01  0.00000000000E+00 0.  1.
     999901    1    3    3    0    0  0.90379505387E-01 -0.61788234549E-01 -0.10152506769E+00  0.89257693242E+00  0.88000000000E+00 0. -1.
        -11    1    4    4    0    0 -0.30259094218E-01  0.27882768844E-01  0.46830644183E-01  0.62341253893E-01  0.51100000000E-03 0. -1.
         11    1    4    4    0    0 -0.48219783300E-01  0.21384752614E-01  0.38226785660E-01  0.65146016062E-01  0.51100000000E-03 0.  1.
</event>
<event>
 8    1  0.1041149E+005  0.1043930E+01  0.7957747E-01            NaN
         13   -1    0    0    0    0  0.00000000000E+00  0.00000000000E+00  0.74505805969E-08  0.10566000000E+00  0.10566000000E+00 0.  1.
     999900   -1    0    0    0    0 -0.00000000000E+00 -0.00000000000E+00 -0.74505805969E-08  0.93827000000E+00  0.93827000000E+00 0. -1.
     999902    2    1    2    0    0  0.22431592639E-01 -0.28487543538E-02 -0.84899652739E-02  0.10197769203E+01  0.10194908513E+01 0.  0.
     999903    2    3    3    0    0  0.29283977912E-01  0.11335084247E+00 -0.55121969197E-01  0.13088781287E+00  0.19677988163E-01 0.  0.
         14    1    1    2    0    0 -0.22431592639E-01  0.28487543538E-02  0.84899652739E-02  0.24153079722E-01  0.00000000000E+00 0. -1.
     999901    1    3    3    0    0 -0.68523852734E-02 -0.11619959682E+00  0.46632003923E-01  0.88888910741E+00  0.88000000000E+00 0. -1.
        -11    1    4    4    0    0 -0.13100419985E-02  0.15450548704E-01 -0.12034036754E-01  0.19634531492E-01  0.51100000000E-03 0.  1.
         11    1    4    4    0    0  0.30594019911E-01  0.97900293764E-01 -0.43087932443E-01  0.11125328137E+00  0.51100000000E-03 0. -1.
</event>
<event>
 8    1  0.1041149E+005  0.1043930E+01  0.7957747E-01            NaN
         13   -1    0    0    0    0  0.00000000000E+00  0.00000000000E+00  0.74505805969E-08  0.10566000000E+00  0.10566000000E+00 0. -1.
     999900   -1    0    0    0    0 -0.00000000000E+00 -0.00000000000E+00 -0.74505805969E-08  0.93827000000E+00  0.93827000000E+00 0.  1.
     999902    2    1    2    0    0  0.62915803043E-02  0.87578970211E-03  0.22250262744E-01  0.10207907437E+01  0.10205284500E+01 0.  0.
     999903    2    3    3    0    0  0.69576610478E-01 -0.42477514414E-01  0.10414830867E+00  0.13366516411E+00  0.19345850762E-01 0.  0.
         14    1    1    2    0    0 -0.62915803043E-02 -0.87578970211E-03 -0.22250262744E-01  0.23139256308E-01  0.00000000000E+00 0.  1.
     999901    1    3    3    0    0 -0.63285030173E-01  0.43353304116E-01 -0.81898045925E-01  0.88712557958E+00  0.88000000000E+00 0.  1.
        -11    1    4    4    0    0  0.34058253178E-01 -0.10870948006E-01  0.37714007506E-01  0.51968736787E-01  0.51100000000E-03 0. -1.
         11    1    4    4    0    0  0.35518357300E-01 -0.31606566408E-01  0.66434301163E-01  0.81696427323E-01  0.51100000000E-03 0.  1.
</event>
<event>
 8    1  0.1041149E+005  0.1043930E+01  0.7957747E-01            NaN
         13   -1    0    0    0    0  0.00000000000E+00  0.00000000000E+00  0.74505805969E-08  0.10566000000E+00  0.10566000000E+00 0.  1.
     999900   -1    0    0    0    0 -0.00000000000E+00 -0.00000000000E+00 -0.74505805969E-08  0.93827000000E+00  0.93827000000E+00 0. -1.
     999902    2    1    2    0    0 -0.53534841812E-02 -0.21824989516E-01 -0.21729762886E-02  0.10213532025E+01  0.10211036443E+01 0.  0.
     999903    2    3    3    0    0  0.11502658990E+00 -0.53843645312E-01  0.29687616056E-01  0.13200981891E+00  0.20371136903E-01 0.  0.
         14    1    1    2    0    0  0.53534841812E-02  0.21824989516E-01  0.21729762886E-02  0.22576797518E-01  0.00000000000E+00 0. -1.
     999901    1    3    3    0    0 -0.12038007408E+00  0.32018655796E-01 -0.31860592344E-01  0.88934338357E+00  0.88000000000E+00 0. -1.
        -11    1    4    4    0    0  0.23304857320E-01 -0.19446946724E-01  0.31617310694E-02  0.30521431420E-01  0.51100000000E-03 0.  1.
         11    1    4    4    0    0  0.91721732576E-01 -0.34396698588E-01  0.26525884986E-01  0.10148838749E+00  0.51100000000E-03 0. -1.
</event>
<event>
 8    1  0.1041149E+005  0.1043930E+01  0.7957747E-01            NaN
         13   -1    0    0    0    0  0.00000000000E+00  0.00000000000E+00  0.74505805969E-08  0.10566000000E+00  0.10566000000E+00 0. -1.
     999900   -1    0    0    0    0 -0.00000000000E+00 -0.00000000000E+00 -0.74505805969E-08  0.93827000000E+00  0.93827000000E+00 0. -1.
     999902    2    1    2    0    0  0.31303227908E-02 -0.32535153692E-01 -0.10490834686E-01  0.10096022742E+01  0.10090185129E+01 0.  0.
     999903    2    3    3    0    0  0.66677663093E-01 -0.28231093929E-01 -0.96915412791E-01  0.12307760049E+00  0.22640518668E-01 0.  0.
         14    1    1    2    0    0 -0.31303227908E-02  0.32535153692E-01  0.10490834686E-01  0.34327725805E-01  0.00000000000E+00 0.  1.
     999901    1    3    3    0    0 -0.63547340302E-01 -0.43040597635E-02  0.86424578105E-01  0.88652467371E+00  0.88000000000E+00 0.  1.
        -11    1    4    4    0    0  0.55908132743E-01 -0.16962093941E-01 -0.86276468407E-01  0.10419847436E+00  0.51100000000E-03 0.  1.
         11    1    4    4    0    0  0.10769530350E-01 -0.11268999987E-01 -0.10638944385E-01  0.18879126126E-01  0.51100000000E-03 0. -1.
</event>
<event>
 8    1  0.1041149E+005  0.1043930E+01  0.7957747E-01            NaN
         13   -1    0    0    0    0  0.00000000000E+00  0.00000000000E+00  0.74505805969E-08  0.10566000000E+00  0.10566000000E+00 0.  1.
     999900   -1    0    0    0    0 -0.00000000000E+00 -0.00000000000E+00 -0.74505805969E-08  0.93827000000E+00  0.93827000000E+00 0.  1.
     999902    2    1    2    0    0 -0.19266393591E-01  0.13194191973E-02 -0.13438480501E-01  0.10204028338E+01  0.10201315679E+01 0.  0.
     999903    2    3    3    0    0  0.95818835031E-01  0.27739765145E-01 -0.80765347994E-01  0.12996723729E+00  0.20437651908E-01 0.  0.
         14    1    1    2    0    0  0.19266393591E-01 -0.13194191973E-02  0.13438480501E-01  0.23527166153E-01  0.00000000000E+00 0.  1.
     999901    1    3    3    0    0 -0.11508522862E+00 -0.26420345948E-01  0.67326867493E-01  0.89043559656E+00  0.88000000000E+00 0.  1.
        -11    1    4    4    0    0  0.71883535939E-01  0.19827235791E-01 -0.48239101390E-01  0.88812352981E-01  0.51100000000E-03 0. -1.
         11    1    4    4    0    0  0.23935299092E-01  0.79125293545E-02 -0.32526246604E-01  0.41154884310E-01  0.51100000000E-03 0.  1.
</event>
<event>
 8    1  0.1041149E+005  0.1043930E+01  0.7957747E-01            NaN
         13   -1    0    0    0    0  0.00000000000E+00  0.00000000000E+00  0.74505805969E-08  0.10566000000E+00  0.10566000000E+00 0. -1.
     999900   -1    0    0    0    0 -0.00000000000E+00 -0.00000000000E+00 -0.74505805969E-08  0.93827000000E+00  0.93827000000E+00 0.  1.
     999902    2    1    2    0    0  0.94636427099E-02  0.15068495782E-01 -0.14042575470E-01  0.10212625338E+01  0.10210109446E+01 0.  0.
     999903    2    3    3    0    0  0.67263411415E-01  0.11380023302E+00  0.43172887582E-02  0.13366698749E+00  0.19322655376E-01 0.  0.
         14    1    1    2    0    0 -0.94636427099E-02 -0.15068495782E-01  0.14042575470E-01  0.22667466209E-01  0.00000000000E+00 0. -1.
     999901    1    3    3    0    0 -0.57799768705E-01 -0.98731737241E-01 -0.18359864229E-01  0.88759554630E+00  0.88000000000E+00 0.  1.
        -11    1    4    4    0    0  0.25451399175E-01  0.28055322106E-01 -0.29182538006E-02  0.37995422681E-01  0.51100000000E-03 0.  1.
         11    1    4    4    0    0  0.41812012241E-01  0.85744910917E-01  0.72355425588E-02  0.95671564808E-01  0.51100000000E-03 0. -1.
</event>
<event>
 8    1  0.1041149E+005  0.1043930E+01  0.7957747E-01            NaN
         13   -1    0    0    0    0  0.00000000000E+00  0.00000000000E+00  0.74505805969E-08  0.10566000000E+00  0.10566000000E+00 0. -1.
     999900   -1    0    0    0    0 -0.00000000000E+00 -0.00000000000E+00 -0.74505805969E-08  0.93827000000E+00  0.93827000000E+00 0. -1.
     999902    2    1    2    0    0 -0.95352052244E-03 -0.15575674781E-01  0.14620471270E-01  0.10225461503E+01  0.10223225325E+01 0.  0.
     999903    2    3    3    0    0 -0.60951641383E-01  0.62791454899E-02 -0.11401609716E+00  0.13090453264E+00  0.19539600787E-01 0.  0.
         14    1    1    2    0    0  0.95352052244E-03  0.15575674781E-01 -0.14620471270E-01  0.21383849663E-01  0.00000000000E+00 0.  1.
     999901    1    3    3    0    0  0.59998120861E-01 -0.21854820271E-01  0.12863656843E+00  0.89164161770E+00  0.88000000000E+00 0.  1.
        -11    1    4    4    0    0 -0.41446691992E-01 -0.37625241610E-02 -0.64756855244E-01  0.76978544330E-01  0.51100000000E-03 0. -1.
         11    1    4    4    0    0 -0.19504949391E-01  0.10041669651E-01 -0.49259241913E-01  0.53925988308E-01  0.51100000000E-03 0.  1.
</event>
<event>
 8    1  0.1041149E+005  0.1043930E+01  0.7957747E-01            NaN
         13   -1    0    0    0    0  0.00000000000E+00  0.00000000000E+00  0.74505805969E-08  0.10566000000E+00  0.10566000000E+00 0.  1.
     999900   -1    0    0    0    0 -0.00000000000E+00 -0.00000000000E+00 -0.74505805969E-08  0.93827000000E+00  0.93827000000E+00 0.  1.
     999902    2    1    2    0    0 -0.19936909606E-01 -0.11352464910E-01  0.45746917565E-02  0.10205358420E+01  0.10202676699E+01 0.  0.
     999903    2    3    3    0    0 -0.97085100507E-01 -0.89416700140E-01  0.90770973737E-02  0.13370658005E+00  0.19344064917E-01 0.  0.
         14    1    1    2    0    0  0.19936909606E-01  0.11352464910E-01 -0.45746917565E-02  0.23394158007E-01  0.00000000000E+00 0.  1.
     999901    1    3    3    0    0  0.77148190901E-01  0.78064235230E-01 -0.45024056172E-02  0.88682926194E+00  0.88000000000E+00 0. -1.
        -11    1    4    4    0    0 -0.14317940058E-01 -0.18123570714E-01  0.80402224288E-02  0.24461674526E-01  0.51100000000E-03 0. -1.
         11    1    4    4    0    0 -0.82767160450E-01 -0.71293129426E-01  0.10368749449E-02  0.10924490552E+00  0.51100000000E-03 0.  1.
</event>
<event>
 8    1  0.1041149E+005  0.1043930E+01  0.7957747E-01            NaN
         13   -1    0    0    0    0  0.00000000000E+00  0.00000000000E+00  0.74505805969E-08  0.10566000000E+00  0.10566000000E+00 0. -1.
     999900   -1    0    0    0    0 -0.00000000000E+00 -0.00000000000E+00 -0.74505805969E-08  0.93827000000E+00  0.93827000000E+00 0.  1.
     999902    2    1    2    0    0  0.23614694386E-01  0.42641666531E-02 -0.33069532346E-02  0.10197066054E+01  0.10194188482E+01 0.  0.
     999903    2    3    3    0    0 -0.52628624578E-01 -0.10658233167E+00  0.43622822611E-01  0.12824578528E+00  0.20358419371E-01 0.  0.
         14    1    1    2    0    0 -0.23614694386E-01 -0.42641666531E-02  0.33069532346E-02  0.24223394640E-01  0.00000000000E+00 0. -1.
     999901    1    3    3    0    0  0.76243318964E-01  0.11084649833E+00 -0.46929775846E-01  0.89146082008E+00  0.88000000000E+00 0. -1.
        -11    1    4    4    0    0 -0.39231280791E-01 -0.94229365306E-01  0.33704135415E-01  0.10749184408E+00  0.51100000000E-03 0. -1.
         11    1    4    4    0    0 -0.13397343787E-01 -0.12352966368E-01  0.99186871964E-02  0.20753941200E-01  0.51100000000E-03 0.  1.
</event>
<event>
 8    1  0.1041149E+005  0.1043930E+01  0.7957747E-01            NaN
         13   -1    0    0    0    0  0.00000000000E+00  0.00000000000E+00  0.74505805969E-08  0.10566000000E+00  0.10566000000E+00 0.  1.
     999900   -1    0    0    0    0 -0.00000000000E+00 -0.00000000000E+00 -0.74505805969E-08  0.93827000000E+00  0.93827000000E+00 0.  1.
     999902    2    1    2    0    0  0.14856346343E-01  0.13229667854E-01 -0.12432566658E-01  0.10204714440E+01  0.10202017762E+01 0.  0.
     999903    2    3    3    0    0 -0.17478468723E-01  0.87810428109E-01 -0.96055748592E-01  0.13277742762E+00  0.19671560576E-01 0.  0.
         14    1    1    2    0    0 -0.14856346343E-01 -0.13229667854E-01  0.12432566658E-01  0.23458556049E-01  0.00000000000E+00 0.  1.
     999901    1    3    3    0    0  0.32334815066E-01 -0.74580760254E-01  0.83623181934E-01  0.88769401633E+00  0.88000000000E+00 0. -1.
        -11    1    4    4    0    0 -0.87940551436E-02  0.76805554173E-01 -0.85143838404E-01  0.11500505596E+00  0.51100000000E-03 0. -1.
         11    1    4    4    0    0 -0.86844135791E-02  0.11004873936E-01 -0.10911910188E-01  0.17772371662E-01  0.51100000000E-03 0.  1.
</event>
<event>
 8    1  0.1041149E+005  0.1043930E+01  0.7957747E-01            NaN
         13   -1    0    0    0    0  0.00000000000E+00  0.00000000000E+00  0.74505805969E-08  0.10566000000E+00  0.10566000000E+00 0. -1.
     999900   -1    0    0    0    0 -0.00000000000E+00 -0.00000000000E+00 -0.74505805969E-08  0.93827000000E+00  0.93827000000E+00 0.  1.
     999902    2    1    2    0    0 -0.95631347980E-03  0.73849979904E-02 -0.15720767329E-01  0.10265347347E+01  0.10263873373E+01 0.  0.
     999903    2    3    3    0    0 -0.13311191284E+00  0.16105556440E-01 -0.16410925267E-01  0.13662371276E+00  0.20458497837E-01 0.  0.
         14    1    1    2    0    0  0.95631347980E-03 -0.73849979904E-02  0.15720767329E-01  0.17395265338E-01  0.00000000000E+00 0. -1.
     999901    1    3    3    0    0  0.13215559936E+00 -0.87205584494E-02  0.69015793848E-03  0.88991102190E+00  0.88000000000E+00 0. -1.
        -11    1    4    4    0    0 -0.29423822004E-01  0.24842060282E-02  0.47824903128E-02  0.29917652239E-01  0.51100000000E-03 0.  1.
         11    1    4    4    0    0 -0.10368809083E+00  0.13621350412E-01 -0.21193415580E-01  0.10670606052E+00  0.51100000000E-03 0. -1.
</event>
<event>
 8    1  0.1041149E+005  0.1043930E+01  0.7957747E-01            NaN
         13   -1    0    0    0    0  0.00000000000E+00  0.00000000000E+00  0.74505805969E-08  0.10566000000E+00  0.10566000000E+00 0. -1.
     999900   -1    0    0    0    0 -0.00000000000E+00 -0.00000000000E+00 -0.74505805969E-08  0.93827000000E+00  0.93827000000E+00 0.  1.
     999902    2    1    2    0    0  0.22539126344E-01  0.64384809047E-03 -0.73439283778E-02  0.10202158683E+01  0.10199402227E+01 0.  0.
     999903    2    3    3    0    0  0.20587480128E-01 -0.12218699810E+00 -0.38346037271E-01  0.13114199263E+00  0.19346751997E-01 0.  0.
         14    1    1    2    0    0 -0.22539126344E-01 -0.64384809047E-03  0.73439283778E-02  0.23714131667E-01  0.00000000000E+00 0. -1.
     999901    1    3    3    0    0  0.19516462155E-02  0.12283084620E+00  0.31002108893E-01  0.88907387570E+00  0.88000000000E+00 0. -1.
        -11    1    4    4    0    0  0.14670225099E-01 -0.10775094323E+00 -0.27610452245E-01  0.11219661076E+00  0.51100000000E-03 0. -1.
         11    1    4    4    0    0  0.59172550292E-02 -0.14436054872E-01 -0.10735585026E-01  0.18945381870E-01  0.51100000000E-03 0.  1.
</event>
<event>
 8    1  0.1041149E+005  0.1043930E+01  0.7957747E-01            NaN
         13   -1    0    0    0    0  0.00000000000E+00  0.00000000000E+00  0.74505805969E-08  0.10566000000E+00  0.10566000000E+00 0. -1.
     999900   -1    0    0    0    0 -0.00000000000E+00 -0.00000000000E+00 -0.74505805969E-08  0.93827000000E+00  0.93827000000E+00 0. -1.
     999902    2    1    2    0    0 -0.34688612530E-02 -0.43335917962E-02  0.21155155027E-01  0.10220587037E+01  0.10218246622E+01 0.  0.
     999903    2    3    3    0    0 -0.33437462262E-01 -0.91639056238E-01 -0.85388048677E-01  0.13083941791E+00  0.17665047718E-01 0.  0.
         14    1    1    2    0    0  0.34688612530E-02  0.43335917962E-02 -0.21155155027E-01  0.21871296269E-01  0.00000000000E+00 0.  1.
     999901    1    3    3    0    0  0.29968601009E-01  0.87305464442E-01  0.10654320370E+00  0.89121928582E+00  0.88000000000E+00 0.  1.
        -11    1    4    4    0    0 -0.15083100777E-01 -0.41588556135E-01 -0.50438304732E-01  0.67092411163E-01  0.51100000000E-03 0. -1.
         11    1    4    4    0    0 -0.18354361485E-01 -0.50050500103E-01 -0.34949743945E-01  0.63747006745E-01  0.51100000000E-03 0.  1.
</event>
<event>
 8    1  0.1041149E+005  0.1043930E+01  0.7957747E-01            NaN
         13   -1    0    0    0    0  0.00000000000E+00  0.00000000000E+00  0.74505805969E-08  0.10566000000E+00  0.10566000000E+00 0.  1.
     999900   -1    0    0    0    0 -0.00000000000E+00 -0.00000000000E+00 -0.74505805969E-08  0.93827000000E+00  0.93827000000E+00 0.  1.
     999902    2    1    2    0    0 -0.15954058006E-01 -0.86927569070E-02 -0.16440976150E-01  0.10194269046E+01  0.10191323820E+01 0.  0.
     999903    2    3    3    0    0  0.10597700415E+00  0.68137433325E-01  0.22684082935E-02  0.12750756789E+00  0.19473031743E-01 0.  0.
         14    1    1    2    0    0  0.15954058006E-01  0.86927569070E-02  0.16440976150E-01  0.24503095443E-01  0.00000000000E+00 0. -1.
     999901    1    3    3    0    0 -0.12193106216E+00 -0.76830190232E-01 -0.18709384444E-01  0.89191933666E+00  0.88000000000E+00 0.  1.
        -11    1    4    4    0    0  0.70950144302E-01  0.54983488341E-01 -0.24247013609E-02  0.89795585995E-01  0.51100000000E-03 0.  1.
         11    1    4    4    0    0  0.35026859848E-01  0.13153944984E-01  0.46931096544E-02  0.37711981898E-01  0.51100000000E-03 0. -1.
</event>
<event>
 8    1  0.1041149E+005  0.1043930E+01  0.7957747E-01            NaN
         13   -1    0    0    0    0  0.00000000000E+00  0.00000000000E+00  0.74505805969E-08  0.10566000000E+00  0.10566000000E+00 0. -1.
     999900   -1    0    0    0    0 -0.00000000000E+00 -0.00000000000E+00 -0.74505805969E-08  0.93827000000E+00  0.93827000000E+00 0. -1.
     999902    2    1    2    0    0  0.12191398505E-01 -0.19890324103E-01 -0.61844641176E-02  0.10197949055E+01  0.10195092675E+01 0.  0.
     999903    2    3    3    0    0  0.11408975549E+00  0.30738115436E-01  0.51980827738E-01  0.13056506163E+00  0.19593999541E-01 0.  0.
         14    1    1    2    0    0 -0.12191398505E-01  0.19890324103E-01  0.61844641176E-02  0.24135094507E-01  0.00000000000E+00 0.  1.
     999901    1    3    3    0    0 -0.10189835698E+00 -0.50628439540E-01 -0.58165291856E-01  0.88922984387E+00  0.88000000000E+00 0. -1.
        -11    1    4    4    0    0  0.72778228783E-01  0.21088367387E-01  0.43254688530E-01  0.87250323923E-01  0.51100000000E-03 0. -1.
         11    1    4    4    0    0  0.41311526702E-01  0.96497480499E-02  0.87261392086E-02  0.43314737704E-01  0.51100000000E-03 0.  1.
</event>
<event>
 8    1  0.1041149E+005  0.1043930E+01  0.7957747E-01            NaN
         13   -1    0    0    0    0  0.00000000000E+00  0.00000000000E+00  0.74505805969E-08  0.10566000000E+00  0.10566000000E+00 0. -1.
     999900   -1    0    0    0    0 -0.00000000000E+00 -0.00000000000E+00 -0.74505805969E-08  0.93827000000E+00  0.93827000000E+00 0. -1.
     999902    2    1    2    0    0  0.57521652038E-02 -0.58186387651E-02  0.23649963190E-01  0.10189047184E+01  0.10185973495E+01 0.  0.
     999903    2    3    3    0    0  0.34110716578E-01 -0.51400349503E-01 -0.10949970373E+00  0.12727097429E+00  0.20054397633E-01 0.  0.
         14    1    1    2    0    0 -0.57521652038E-02  0.58186387651E-02 -0.23649963190E-01  0.25025281627E-01  0.00000000000E+00 0.  1.
     999901    1    3    3    0    0 -0.28358551375E-01  0.45581710738E-01  0.13314966692E+00  0.89163374409E+00  0.88000000000E+00 0.  1.
        -11    1    4    4    0    0 -0.64575201272E-03 -0.88458822725E-02 -0.85168068361E-02  0.12307060921E-01  0.51100000000E-03 0. -1.
         11    1    4    4    0    0  0.34756468591E-01 -0.42554467231E-01 -0.10098289689E+00  0.11496391337E+00  0.51100000000E-03 0.  1.
</event>
<event>
 8    1  0.1041149E+005  0.1043930E+01  0.7957747E-01            NaN
         13   -1    0    0    0    0  0.00000000000E+00  0.00000000000E+00  0.74505805969E-08  0.10566000000E+00  0.10566000000E+00 0.  1.
     999900   -1    0    0    0    0 -0.00000000000E+00 -0.00000000000E+00 -0.74505805969E-08  0.93827000000E+00  0.93827000000E+00 0. -1.
     999902    2    1    2    0    0 -0.15079801711E-01 -0.13294619585E-01  0.13180979827E-01  0.10198907496E+01  0.10196074027E+01 0.  0.
     999903    2    3    3    0    0 -0.53064584691E-01 -0.10649029595E+00 -0.52806404409E-01  0.13170010978E+00  0.20009230089E-01 0.  0.
         14    1    1    2    0    0  0.15079801711E-01  0.13294619585E-01 -0.13180979827E-01  0.24039250378E-01  0.00000000000E+00 0. -1.
     999901    1    3    3    0    0  0.37984782980E-01  0.93195676364E-01  0.65987384237E-01  0.88819063985E+00  0.88000000000E+00 0.  1.
        -11    1    4    4    0    0 -0.28605464570E-01 -0.66027384610E-01 -0.41554832070E-01  0.83096048709E-01  0.51100000000E-03 0.  1.
         11    1    4    4    0    0 -0.24459120122E-01 -0.40462911339E-01 -0.11251572339E-01  0.48604061067E-01  0.51100000000E-03 0. -1.
</event>
<event>
 8    1  0.1041149E+005  0.1043930E+01  0.7957747E-01            NaN
         13   -1    0    0    0    0  0.00000000000E+00  0.00000000000E+00  0.74505805969E-08  0.10566000000E+00  0.10566000000E+00 0.  1.
     999900   -1    0    0    0    0 -0.00000000000E+00 -0.00000000000E+00 -0.74505805969E-08  0.93827000000E+00  0.93827000000E+00 0.  1.
     999902    2    1    2    0    0 -0.18807837595E-01  0.14872229542E-01 -0.72544160865E-02  0.10188791613E+01  0.10185711565E+01 0.  0.
     999903    2    3    3    0    0  0.40194567153E-01  0.11731398659E+00 -0.35073586904E-01  0.13053829001E+00  0.20782540331E-01 0.  0.
         14    1    1    2    0    0  0.18807837595E-01 -0.14872229542E-01  0.72544160865E-02  0.25050838695E-01  0.00000000000E+00 0.  1.
     999901    1    3    3    0    0 -0.59002404748E-01 -0.10244175704E+00  0.27819170818E-01  0.88834087130E+00  0.88000000000E+00 0.  1.
        -11    1    4    4    0    0  0.19628505251E-01  0.36766699472E-01 -0.19254320410E-01  0.45913596939E-01  0.51100000000E-03 0.  1.
         11    1    4    4    0    0  0.20566061901E-01  0.80547287114E-01 -0.15819266495E-01  0.84624693069E-01  0.51100000000E-03 0. -1.
</event>
<event>
 8    1  0.1041149E+005  0.1043930E+01  0.7957747E-01            NaN
         13   -1    0    0    0    0  0.00000000000E+00  0.00000000000E+00  0.74505805969E-08  0.10566000000E+00  0.10566000000E+00 0. -1.
     999900   -1    0    0    0    0 -0.00000000000E+00 -0.00000000000E+00 -0.74505805969E-08  0.93827000000E+00  0.93827000000E+00 0. -1.
     999902    2    1    2    0    0  0.94516474057E-02 -0.21524007081E-01  0.40976306929E-03  0.10204186320E+01  0.10201477345E+01 0.  0.
     999903    2    3    3    0    0 -0.12487008042E+00 -0.21692384965E-02 -0.24310367690E-01  0.12967286664E+00  0.25036289399E-01 0.  0.
         14    1    1    2    0    0 -0.94516474057E-02  0.21524007081E-01 -0.40976306929E-03  0.23511368001E-01  0.00000000000E+00 0. -1.
     999901    1    3    3    0    0  0.13432172783E+00 -0.19354768585E-01  0.24720130759E-01  0.89074576535E+00  0.88000000000E+00 0.  1.
        -11    1    4    4    0    0 -0.40737514854E-01 -0.27183089774E-02  0.36957390938E-02  0.40998218603E-01  0.51100000000E-03 0.  1.
         11    1    4    4    0    0 -0.84132565565E-01  0.54907048092E-03 -0.28006106784E-01  0.88674648041E-01  0.51100000000E-03 0. -1.
</event>
<event>
 8    1  0.1041149E+005  0.1043930E+01  0.7957747E-01            NaN
         13   -1    0    0    0    0  0.00000000000E+00  0.00000000000E+00  0.74505805969E-08  0.10566000000E+00  0.10566000000E+00 0.  1.
     999900   -1    0    0    0    0 -0.00000000000E+00 -0.00000000000E+00 -0.74505805969E-08  0.93827000000E+00  0.93827000000E+00 0.  1.
     999902    2    1    2    0    0  0.42437596550E-02  0.21345460742E-01 -0.10140005072E-01  0.10199204625E+01  0.10196378239E+01 0.  0.
     999903    2    3    3    0    0  0.90803952090E-02 -0.37494664259E-02 -0.12973378980E+00  0.13146347320E+00  0.18848779617E-01 0.  0.
         14    1    1    2    0    0 -0.42437596550E-02 -0.21345460742E-01  0.10140005072E-01  0.24009537546E-01  0.00000000000E+00 0.  1.
     999901    1    3    3    0    0 -0.48366355540E-02  0.25094927168E-01  0.11959378473E+00  0.88845698926E+00  0.88000000000E+00 0. -1.
        -11    1    4    4    0    0 -0.10375639532E-02 -0.17445195862E-02 -0.99359112531E-01  0.99381156421E-01  0.51100000000E-03 0. -1.
         11    1    4    4    0    0  0.10117959162E-01 -0.20049468397E-02 -0.30374677271E-01  0.32082316777E-01  0.51100000000E-03 0.  1.
</event>
<event>
 8    1  0.1041149E+005  0.1043930E+01  0.7957747E-01            NaN
         13   -1    0    0    0    0  0.00000000000E+00  0.00000000000E+00  0.74505805969E-08  0.10566000000E+00  0.10566000000E+00 0.  1.
     999900   -1    0    0    0    0 -0.00000000000E+00 -0.00000000000E+00 -0.74505805969E-08  0.93827000000E+00  0.93827000000E+00 0. -1.
     999902    2    1    2    0    0  0.23213133883E-01  0.47330576358E-02  0.24276214640E-02  0.10201151986E+01  0.10198371800E+01 0.  0.
     999903    2    3    3    0    0 -0.93797366546E-01 -0.74558110619E-01 -0.39916480930E-01  0.12783073187E+00  0.19761394972E-01 0.  0.
         14    1    1    2    0    0 -0.23213133883E-01 -0.47330576358E-02 -0.24276214640E-02  0.23814801390E-01  0.00000000000E+00 0. -1.
     999901    1    3    3    0    0  0.11701050043E+00  0.79291168255E-01  0.42344102394E-01  0.89228446674E+00  0.88000000000E+00 0.  1.
        -11    1    4    4    0    0 -0.43271963220E-01 -0.34680829780E-01 -0.81570352938E-02  0.56053734050E-01  0.51100000000E-03 0.  1.
         11    1    4    4    0    0 -0.50525403326E-01 -0.39877280839E-01 -0.31759445636E-01  0.71776997823E-01  0.51100000000E-03 0. -1.
</event>
<event>
 8    1  0.1041149E+005  0.1043930E+01  0.7957747E-01            NaN
         13   -1    0    0    0    0  0.00000000000E+00  0.00000000000E+00  0.74505805969E-08  0.10566000000E+00  0.10566000000E+00 0.  1.
     999900   -1    0    0    0    0 -0.00000000000E+00 -0.00000000000E+00 -0.74505805969E-08  0.93827000000E+00  0.93827000000E+00 0. -1.
     999902    2    1    2    0    0  0.16941518052E-01  0.28588460745E-02  0.16055072342E-01  0.10204150392E+01  0.10201440579E+01 0.  0.
     999903    2    3    3    0    0 -0.29591073220E-01  0.10097825913E+00 -0.72210876607E-01  0.12935747705E+00  0.21135414289E-01 0.  0.
         14    1    1    2    0    0 -0.16941518052E-01 -0.28588460745E-02 -0.16055072342E-01  0.23514960827E-01  0.00000000000E+00 0. -1.
     999901    1    3    3    0    0  0.46532591272E-01 -0.98119413058E-01  0.88265948949E-01  0.89105756212E+00  0.88000000000E+00 0.  1.
        -11    1    4    4    0    0 -0.13295310861E-01  0.60613980135E-01 -0.53650706581E-01  0.82033403662E-01  0.51100000000E-03 0. -1.
         11    1    4    4    0    0 -0.16295762359E-01  0.40364278997E-01 -0.18560170026E-01  0.47324073390E-01  0.51100000000E-03 0.  1.
</event>
<event>
 8    1  0.1041149E+005  0.1043930E+01  0.7957747E-01            NaN
         13   -1    0    0    0    0  0.00000000000E+00  0.00000000000E+00  0.74505805969E-08  0.10566000000E+00  0.10566000000E+00 0.  1.
     999900   -1    0    0    0    0 -0.00000000000E+00 -0.00000000000E+00 -0.74505805969E-08  0.93827000000E+00  0.93827000000E+00 0.  1.
     999902    2    1    2    0    0 -0.17173973492E-01  0.15056145040E-01  0.24838001097E-02  0.10209560554E+01  0.10206975384E+01 0.  0.
     999903    2    3    3    0    0  0.39623589580E-01  0.12502769806E+00 -0.22712694920E-02  0.13228158385E+00  0.17067648560E-01 0.  0.
         14    1    1    2    0    0  0.17173973492E-01 -0.15056145040E-01 -0.24838001097E-02  0.22973944632E-01  0.00000000000E+00 0. -1.
     999901    1    3    3    0    0 -0.56797563072E-01 -0.10997155302E+00  0.47550696017E-02  0.88867447152E+00  0.88000000000E+00 0. -1.
        -11    1    4    4    0    0  0.42212965563E-03  0.18352025662E-01 -0.31173909997E-02  0.18626708969E-01  0.51100000000E-03 0. -1.
         11    1    4    4    0    0  0.39201459924E-01  0.10667567240E+00  0.84612150770E-03  0.11365487488E+00  0.51100000000E-03 0.  1.
</event>
<event>
 8    1  0.1041149E+005  0.1043930E+01  0.7957747E-01            NaN
         13   -1    0    0    0    0  0.00000000000E+00  0.00000000000E+00  0.74505805969E-08  0.10566000000E+00  0.10566000000E+00 0.  1.
     999900   -1    0    0    0    0 -0.00000000000E+00 -0.00000000000E+00 -0.74505805969E-08  0.93827000000E+00  0.93827000000E+00 0. -1.
     999902    2    1    2    0    0 -0.79767206273E-02  0.19457079256E-01 -0.12306282164E-01  0.10195650542E+01  0.10192738833E+01 0.  0.
     999903    2    3    3    0    0  0.14576679548E-01  0.11888468314E+00 -0.53423857732E-01  0.13272506899E+00  0.20390877654E-01 0.  0.
         14    1    1    2    0    0  0.79767206273E-02 -0.19457079256E-01  0.12306282164E-01  0.24364945841E-01  0.00000000000E+00 0.  1.
     999901    1    3    3    0    0 -0.22553400176E-01 -0.99427603885E-01  0.41117575569E-01  0.88683998517E+00  0.88000000000E+00 0. -1.
        -11    1    4    4    0    0 -0.22116097367E-02  0.65228317446E-01 -0.28004459894E-01  0.71022077620E-01  0.51100000000E-03 0.  1.
         11    1    4    4    0    0  0.16788289285E-01  0.53656365694E-01 -0.25419397839E-01  0.61702991371E-01  0.51100000000E-03 0. -1.
</event>
<event>
 8    1  0.1041149E+005  0.1043930E+01  0.7957747E-01            NaN
         13   -1    0    0    0    0  0.00000000000E+00  0.00000000000E+00  0.74505805969E-08  0.10566000000E+00  0.10566000000E+00 0. -1.
     999900   -1    0    0    0    0 -0.00000000000E+00 -0.00000000000E+00 -0.74505805969E-08  0.93827000000E+00  0.93827000000E+00 0.  1.
     999902    2    1    2    0    0 -0.20192661691E-02  0.22642781042E-01  0.65169824261E-02  0.10202816591E+01  0.10200075587E+01 0.  0.
     999903    2    3    3    0    0  0.44698989700E-01 -0.11779327373E+00 -0.81067836713E-02  0.12780267587E+00  0.19863257570E-01 0.  0.
         14    1    1    2    0    0  0.20192661691E-02 -0.22642781042E-01 -0.65169824261E-02  0.23648340938E-01  0.00000000000E+00 0.  1.
     999901    1    3    3    0    0 -0.46718255870E-01  0.14043605477E+00  0.14623766097E-01  0.89247898320E+00  0.88000000000E+00 0. -1.
        -11    1    4    4    0    0  0.29459386278E-01 -0.92327341578E-01 -0.12784797170E-01  0.97754312450E-01  0.51100000000E-03 0. -1.
         11    1    4    4    0    0  0.15239603423E-01 -0.25465932149E-01  0.46780134991E-02  0.30048363416E-01  0.51100000000E-03 0.  1.
</event>
<event>
 8    1  0.1041149E+005  0.1043930E+01  0.7957747E-01            NaN
         13   -1    0    0    0    0  0.00000000000E+00  0.00000000000E+00  0.74505805969E-08  0.10566000000E+00  0.10566000000E+00 0.  1.
     999900   -1    0    0    0    0 -0.00000000000E+00 -0.00000000000E+00 -0.74505805969E-08  0.93827000000E+00  0.93827000000E+00 0.  1.
     999902    2    1    2    0    0  0.10038413027E-01  0.10245263901E-01 -0.18717828760E-01  0.10203483910E+01  0.10200758534E+01 0.  0.
     999903    2    3    3    0    0  0.88231614520E-01  0.86395930971E-01 -0.45002827723E-01  0.13321593077E+00  0.21729128371E-01 0.  0.
         14    1    1    2    0    0 -0.10038413027E-01 -0.10245263901E-01  0.18717828760E-01  0.23581608978E-01  0.00000000000E+00 0.  1.
     999901    1    3    3    0    0 -0.78193201493E-01 -0.76150667070E-01  0.26284998964E-01  0.88713246025E+00  0.88000000000E+00 0.  1.
        -11    1    4    4    0    0  0.22471329660E-01  0.27111888827E-01 -0.33760260213E-02  0.35379002885E-01  0.51100000000E-03 0.  1.
         11    1    4    4    0    0  0.65760284860E-01  0.59284042144E-01 -0.41626801702E-01  0.97836927889E-01  0.51100000000E-03 0. -1.
</event>
<event>
 8    1  0.1041149E+005  0.1043930E+01  0.7957747E-01            NaN
         13   -1    0    0    0    0  0.00000000000E+00  0.00000000000E+00  0.74505805969E-08  0.10566000000E+00  0.10566000000E+00 0. -1.
     999900   -1    0    0    0    0 -0.00000000000E+00 -0.00000000000E+00 -0.74505805969E-08  0.93827000000E+00  0.93827000000E+00 0.  1.
     999902    2    1    2    0    0 -0.22092820359E-01 -0.72967165544E-02 -0.40193012180E-02  0.10203187830E+01  0.10200455526E+01 0.  0.
     999903    2    3    3    0    0 -0.90273134961E-01 -0.95222734787E-01 -0.11591068958E-01  0.13328052477E+00  0.20315936756E-01 0.  0.
         14    1    1    2    0    0  0.22092820359E-01  0.72967165544E-02  0.40193012180E-02  0.23611216957E-01  0.00000000000E+00 0.  1.
     999901    1    3    3    0    0  0.68180314602E-01  0.87926018233E-01  0.75717677398E-02  0.88703825828E+00  0.88000000000E+00 0. -1.
        -11    1    4    4    0    0 -0.36834869991E-01 -0.40554160307E-01  0.51170766633E-02  0.55026295169E-01  0.51100000000E-03 0.  1.
         11    1    4    4    0    0 -0.53438264970E-01 -0.54668574480E-01 -0.16708145621E-01  0.78254229597E-01  0.51100000000E-03 0. -1.
</event>
<event>
 8    1  0.1041149E+005  0.1043930E+01  0.7957747E-01            NaN
         13   -1    0    0    0    0  0.00000000000E+00  0.00000000000E+00  0.74505805969E-08  0.10566000000E+00  0.10566000000E+00 0. -1.
     999900   -1    0    0    0    0 -0.00000000000E+00 -0.00000000000E+00 -0.74505805969E-08  0.93827000000E+00  0.93827000000E+00 0.  1.
     999902    2    1    2    0    0  0.95053583106E-02 -0.18360684465E-01 -0.43331985789E-02  0.10228055312E+01  0.10225873613E+01 0.  0.
     999903    2    3    3    0    0  0.64527603126E-01 -0.76348092990E-01 -0.88770006493E-01  0.13515719912E+00  0.19862314912E-01 0.  0.
         14    1    1    2    0    0 -0.95053583106E-02  0.18360684465E-01  0.43331985789E-02  0.21124468764E-01  0.00000000000E+00 0.  1.
     999901    1    3    3    0    0 -0.55022244815E-01  0.57987408525E-01  0.84436807914E-01  0.88764833211E+00  0.88000000000E+00 0. -1.
        -11    1    4    4    0    0  0.15345905562E-01 -0.22975665932E-01 -0.36187972624E-01  0.45532499669E-01  0.51100000000E-03 0.  1.
         11    1    4    4    0    0  0.49181697564E-01 -0.53372427058E-01 -0.52582033869E-01  0.89624699454E-01  0.51100000000E-03 0. -1.
</event>
<event>
 8    1  0.1041149E+005  0.1043930E+01  0.7957747E-01            NaN
         13   -1    0    0    0    0  0.00000000000E+00  0.00000000000E+00  0.74505805969E-08  0.10566000000E+00  0.10566000000E+00 0. -1.
     999900   -1    0    0    0    0 -0.00000000000E+00 -0.00000000000E+00 -0.74505805969E-08  0.93827000000E+00  0.93827000000E+00 0.  1.
     999902    2    1    2    0    0  0.19038935595E-01  0.12445528345E-01 -0.83849442711E-02  0.10196878975E+01  0.10193996904E+01 0.  0.
     999903    2    3    3    0    0  0.74410974874E-01  0.18979583798E-01 -0.10527415792E+00  0.13261615498E+00  0.24640991325E-01 0.  0.
         14    1    1    2    0    0 -0.19038935595E-01 -0.12445528345E-01  0.83849442711E-02  0.24242102524E-01  0.00000000000E+00 0. -1.
     999901    1    3    3    0    0 -0.55372039279E-01 -0.65340554529E-02  0.96889213646E-01  0.88707174250E+00  0.88000000000E+00 0. -1.
        -11    1    4    4    0    0  0.14071063220E-01  0.12231420365E-01 -0.35658557706E-01  0.40241723658E-01  0.51100000000E-03 0. -1.
         11    1    4    4    0    0  0.60339911655E-01  0.67481634327E-02 -0.69615600210E-01  0.92374431321E-01  0.51100000000E-03 0.  1.
</event>
<event>
 8    1  0.1041149E+005  0.1043930E+01  0.7957747E-01            NaN
         13   -1    0    0    0    0  0.00000000000E+00  0.00000000000E+00  0.74505805969E-08  0.10566000000E+00  0.10566000000E+00 0.  1.
     999900   -1    0    0    0    0 -0.00000000000E+00 -0.00000000000E+00 -0.74505805969E-08  0.93827000000E+00  0.93827000000E+00 0. -1.
     999902    2    1    2    0    0  0.63450277374E-02  0.21534802006E-01  0.14809349361E-02  0.10214311057E+01  0.10211832860E+01 0.  0.
     999903    2    3    3    0    0 -0.98712492157E-01 -0.61786889569E-01 -0.52950918851E-01  0.12961138547E+00  0.20821517827E-01 0.  0.
         14    1    1    2    0    0 -0.63450277374E-02 -0.21534802006E-01 -0.14809349361E-02  0.22498894255E-01  0.00000000000E+00 0. -1.
     999901    1    3    3    0    0  0.10505751989E+00  0.83321691574E-01  0.54431853788E-01  0.89181972028E+00  0.88000000000E+00 0.  1.
        -11    1    4    4    0    0 -0.56157982238E-02 -0.86995161185E-02 -0.91779850920E-02  0.13846129486E-01  0.51100000000E-03 0. -1.
         11    1    4    4    0    0 -0.93096693933E-01 -0.53087373450E-01 -0.43772933759E-01  0.11576525598E+00  0.51100000000E-03 0.  1.
</event>
<event>
 8    1  0.1041149E+005  0.1043930E+01  0.7957747E-01            NaN
         13   -1    0    0    0    0  0.00000000000E+00  0.00000000000E+00  0.74505805969E-08  0.10566000000E+00  0.10566000000E+00 0.  1.
     999900   -1    0    0    0    0 -0.00000000000E+00 -0.00000000000E+00 -0.74505805969E-08  0.93827000000E+00  0.93827000000E+00 0. -1.
     999902    2    1    2    0    0  0.63080987793E-02 -0.95025595199E-02  0.21837292568E-01  0.10192934805E+01  0.10189957023E+01 0.  0.
     999903    2    3    3    0    0  0.14714279536E-02 -0.61028231136E-01 -0.11058238805E+00  0.12788265485E+00  0.19972450263E-01 0.  0.
         14    1    1    2    0    0 -0.63080987793E-02  0.95025595199E-02 -0.21837292568E-01  0.24636519526E-01  0.00000000000E+00 0. -1.
     999901    1    3    3    0    0  0.48366708258E-02  0.51525671616E-01  0.13241968062E+00  0.89141082562E+00  0.88000000000E+00 0.  1.
        -11    1    4    4    0    0 -0.55659242663E-02 -0.33564678198E-01 -0.75200137285E-01  0.82540225976E-01  0.51100000000E-03 0.  1.
         11    1    4    4    0    0  0.70373522199E-02 -0.27463552938E-01 -0.35382250765E-01  0.45342428877E-01  0.51100000000E-03 0. -1.
</event>
<event>
 8    1  0.1041149E+005  0.1043930E+01  0.7957747E-01            NaN
         13   -1    0    0    0    0  0.00000000000E+00  0.00000000000E+00  0.74505805969E-08  0.10566000000E+00  0.10566000000E+00 0. -1.
     999900   -1    0    0    0    0 -0.00000000000E+00 -0.00000000000E+00 -0.74505805969E-08  0.93827000000E+00  0.93827000000E+00 0.  1.
     999902    2    1    2    0    0  0.91241474153E-02  0.22740837070E-01  0.46853821447E-02  0.10189830855E+01  0.10186776625E+01 0.  0.
     999903    2    3    3    0    0  0.91000331325E-01 -0.49486795151E-01  0.74810805652E-01  0.12946742215E+00  0.20860334596E-01 0.  0.
         14    1    1    2    0    0 -0.91241474153E-02 -0.22740837070E-01 -0.46853821447E-02  0.24946914489E-01  0.00000000000E+00 0. -1.
     999901    1    3    3    0    0 -0.81876183910E-01  0.72227632221E-01 -0.70125423508E-01  0.88951566336E+00  0.88000000000E+00 0. -1.
        -11    1    4    4    0    0  0.26486888944E-01 -0.22534322415E-01  0.16840623949E-01  0.38642188197E-01  0.51100000000E-03 0. -1.
         11    1    4    4    0    0  0.64513442381E-01 -0.26952472736E-01  0.57970181703E-01  0.90825233950E-01  0.51100000000E-03 0.  1.
</event>
<event>
 8    1  0.1041149E+005  0.1043930E+01  0.7957747E-01            NaN
         13   -1    0    0    0    0  0.00000000000E+00  0.00000000000E+00  0.74505805969E-08  0.10566000000E+00  0.10566000000E+00 0.  1.
     999900   -1    0    0    0    0 -0.00000000000E+00 -0.00000000000E+00 -0.74505805969E-08  0.93827000000E+00  0.93827000000E+00 0.  1.
     999902    2    1    2    0    0 -0.18298559457E-02 -0.20528299817E-01  0.79417827287E-02  0.10218430949E+01  0.10216043653E+01 0.  0.
     999903    2    3    3    0    0 -0.32396572196E-01 -0.78418148715E-01 -0.10020700317E+00  0.13280894554E+00  0.19945640943E-01 0.  0.
         14    1    1    2    0    0  0.18298559457E-02  0.20528299817E-01 -0.79417827287E-02  0.22086905149E-01  0.00000000000E+00 0. -1.
     999901    1    3    3    0    0  0.30566716251E-01  0.57889848898E-01  0.10814878590E+00  0.88903414931E+00  0.88000000000E+00 0. -1.
        -11    1    4    4    0    0 -0.21920669696E-01 -0.51473914855E-01 -0.79631185151E-01  0.97321459299E-01  0.51100000000E-03 0. -1.
         11    1    4    4    0    0 -0.10475902500E-01 -0.26944233860E-01 -0.20575818022E-01  0.35487486242E-01  0.51100000000E-03 0.  1.
</event>
<event>
 7    1  0.1268916E+005  0.1043930E+01  0.7957747E-01            NaN
         13   -1    0    0    0    0  0.00000000000E+00  0.00000000000E+00  0.74505805969E-08  0.10566000000E+00  0.10566000000E+00 0.  1.
     999900   -1    0    0    0    0 -0.00000000000E+00 -0.00000000000E+00 -0.74505805969E-08  0.93827000000E+00  0.93827000000E+00 0. -1.
     999903    2    1    2    0    0 -0.62969220241E-02  0.76403032917E-01  0.61813191882E-01  0.10050083326E+00  0.20061708045E-01 0.  0.
         14    1    1    2    0    0  0.68434840428E-02  0.51621402450E-01 -0.59561496078E-02  0.52412576572E-01  0.00000000000E+00 0.  1.
     999901    1    1    2    0    0 -0.54656201870E-03 -0.12802443537E+00 -0.55857042274E-01  0.89101659017E+00  0.88000000000E+00 0. -1.
        -11    1    3    3    0    0  0.72529958731E-02  0.27218676431E-01  0.20271510632E-01  0.34708177136E-01  0.51100000000E-03 0. -1.
         11    1    3    3    0    0 -0.13549917897E-01  0.49184356486E-01  0.41541681250E-01  0.65792656125E-01  0.51100000000E-03 0.  1.
</event>
<event>
 8    1  0.1041149E+005  0.1043930E+01  0.7957747E-01            NaN
         13   -1    0    0    0    0  0.00000000000E+00  0.00000000000E+00  0.74505805969E-08  0.10566000000E+00  0.10566000000E+00 0. -1.
     999900   -1    0    0    0    0 -0.00000000000E+00 -0.00000000000E+00 -0.74505805969E-08  0.93827000000E+00  0.93827000000E+00 0.  1.
     999902    2    1    2    0    0 -0.22484018144E-01 -0.28864866429E-02 -0.87457441814E-02  0.10196328619E+01  0.10193433289E+01 0.  0.
     999903    2    3    3    0    0  0.70981160448E-01 -0.10041839947E+00 -0.33308500794E-01  0.12898616282E+00  0.20144326288E-01 0.  0.
         14    1    1    2    0    0  0.22484018144E-01  0.28864866429E-02  0.87457441814E-02  0.24297138069E-01  0.00000000000E+00 0. -1.
     999901    1    3    3    0    0 -0.93465178592E-01  0.97531912831E-01  0.24562756613E-01  0.89064669911E+00  0.88000000000E+00 0. -1.
        -11    1    4    4    0    0  0.50835254281E-01 -0.74987752894E-01 -0.33347757039E-01  0.96538697850E-01  0.51100000000E-03 0.  1.
         11    1    4    4    0    0  0.20145906167E-01 -0.25430646580E-01  0.39256245229E-04  0.32447464967E-01  0.51100000000E-03 0. -1.
</event>
<event>
 8    1  0.1041149E+005  0.1043930E+01  0.7957747E-01            NaN
         13   -1    0    0    0    0  0.00000000000E+00  0.00000000000E+00  0.74505805969E-08  0.10566000000E+00  0.10566000000E+00 0.  1.
     999900   -1    0    0    0    0 -0.00000000000E+00 -0.00000000000E+00 -0.74505805969E-08  0.93827000000E+00  0.93827000000E+00 0. -1.
     999902    2    1    2    0    0  0.23965860628E-01  0.10297303065E-02 -0.29551139558E-02  0.10197606906E+01  0.10194742324E+01 0.  0.
     999903    2    3    3    0    0 -0.56542548665E-01  0.11404217371E+00 -0.32391024013E-02  0.12888836695E+00  0.19976039578E-01 0.  0.
         14    1    1    2    0    0 -0.23965860628E-01 -0.10297303065E-02  0.29551139558E-02  0.24169309436E-01  0.00000000000E+00 0. -1.
     999901    1    3    3    0    0  0.80508409293E-01 -0.11301244340E+00  0.28398844558E-03  0.89087232361E+00  0.88000000000E+00 0.  1.
        -11    1    4    4    0    0 -0.81555823706E-02  0.32202340394E-01  0.43695284900E-02  0.33509075650E-01  0.51100000000E-03 0. -1.
         11    1    4    4    0    0 -0.48386966294E-01  0.81839833314E-01 -0.76086308913E-02  0.95379291301E-01  0.51100000000E-03 0.  1.
</event>
<event>
 8    1  0.1041149E+005  0.1043930E+01  0.7957747E-01            NaN
         13   -1    0    0    0    0  0.00000000000E+00  0.00000000000E+00  0.74505805969E-08  0.10566000000E+00  0.10566000000E+00 0. -1.
     999900   -1    0    0    0    0 -0.00000000000E+00 -0.00000000000E+00 -0.74505805969E-08  0.93827000000E+00  0.93827000000E+00 0. -1.
     999902    2    1    2    0    0  0.18370901651E-01 -0.40151652650E-02 -0.14443424430E-01  0.10202187350E+01  0.10199431568E+01 0.  0.
     999903    2    3    3    0    0 -0.24809542265E-01 -0.12334900695E+00 -0.29820185976E-01  0.13098223027E+00  0.20895220844E-01 0.  0.
         14    1    1    2    0    0 -0.18370901651E-01  0.40151652650E-02  0.14443424430E-01  0.23711265020E-01  0.00000000000E+00 0. -1.
     999901    1    3    3    0    0  0.43180443916E-01  0.11933384168E+00  0.15376761546E-01  0.88923650471E+00  0.88000000000E+00 0.  1.
        -11    1    4    4    0    0  0.14131763606E-03 -0.39516382244E-01 -0.14980578179E-01  0.42263971417E-01  0.51100000000E-03 0. -1.
         11    1    4    4    0    0 -0.24950859901E-01 -0.83832624701E-01 -0.14839607797E-01  0.88718258857E-01  0.51100000000E-03 0.  1.
</event>
<event>
 8    1  0.1041149E+005  0.1043930E+01  0.7957747E-01            NaN
         13   -1    0    0    0    0  0.00000000000E+00  0.00000000000E+00  0.74505805969E-08  0.10566000000E+00  0.10566000000E+00 0.  1.
     999900   -1    0    0    0    0 -0.00000000000E+00 -0.00000000000E+00 -0.74505805969E-08  0.93827000000E+00  0.93827000000E+00 0. -1.
     999902    2    1    2    0    0 -0.38946850511E-02  0.24003742217E-01  0.26741835179E-03  0.10196108774E+01  0.10193208139E+01 0.  0.
     999903    2    3    3    0    0 -0.76841345618E-01  0.60706102275E-01  0.85465566871E-01  0.13173306877E+00  0.21433969244E-01 0.  0.
         14    1    1    2    0    0  0.38946850511E-02 -0.24003742217E-01 -0.26741835179E-03  0.24319122612E-01  0.00000000000E+00 0. -1.
     999901    1    3    3    0    0  0.72946660567E-01 -0.36702360058E-01 -0.85198148519E-01  0.88787780862E+00  0.88000000000E+00 0. -1.
        -11    1    4    4    0    0 -0.34845230518E-01  0.19985427712E-01  0.46474232830E-01  0.61430634450E-01  0.51100000000E-03 0.  1.
         11    1    4    4    0    0 -0.41996115100E-01  0.40720674563E-01  0.38991334041E-01  0.70302434322E-01  0.51100000000E-03 0. -1.
</event>
<event>
 8    1  0.1041149E+005  0.1043930E+01  0.7957747E-01            NaN
         13   -1    0    0    0    0  0.00000000000E+00  0.00000000000E+00  0.74505805969E-08  0.10566000000E+00  0.10566000000E+00 0. -1.
     999900   -1    0    0    0    0 -0.00000000000E+00 -0.00000000000E+00 -0.74505805969E-08  0.93827000000E+00  0.93827000000E+00 0.  1.
     999902    2    1    2    0    0  0.14784199029E-01 -0.14138736405E-01 -0.13240792153E-01  0.10195620911E+01  0.10192708485E+01 0.  0.
     999903    2    3    3    0    0 -0.28173433362E-01  0.74785037368E-01  0.96686210685E-01  0.12724110530E+00  0.21343181099E-01 0.  0.
         14    1    1    2    0    0 -0.14784199029E-01  0.14138736405E-01  0.13240792153E-01  0.24367908915E-01  0.00000000000E+00 0. -1.
     999901    1    3    3    0    0  0.42957632391E-01 -0.88923773773E-01 -0.10992700284E+00  0.89232098579E+00  0.88000000000E+00 0. -1.
        -11    1    4    4    0    0 -0.31708598468E-01  0.67117765819E-01  0.87733870503E-01  0.11492485745E+00  0.51100000000E-03 0. -1.
         11    1    4    4    0    0  0.35351651068E-02  0.76672715489E-02  0.89523401818E-02  0.12316247849E-01  0.51100000000E-03 0.  1.
</event>
<event>
 8    1  0.1041149E+005  0.1043930E+01  0.7957747E-01            NaN
         13   -1    0    0    0    0  0.00000000000E+00  0.00000000000E+00  0.74505805969E-08  0.10566000000E+00  0.10566000000E+00 0. -1.
     999900   -1    0    0    0    0 -0.00000000000E+00 -0.00000000000E+00 -0.74505805969E-08  0.93827000000E+00  0.93827000000E+00 0. -1.
     999902    2    1    2    0    0 -0.14639322176E-01 -0.18248831489E-01 -0.49768856870E-02  0.10200114090E+01  0.10197309329E+01 0.  0.
     999903    2    3    3    0    0  0.38345928701E-02  0.11089897318E+00  0.60838793027E-01  0.12796200198E+00  0.18963883030E-01 0.  0.
         14    1    1    2    0    0  0.14639322176E-01  0.18248831489E-01  0.49768856870E-02  0.23918591005E-01  0.00000000000E+00 0. -1.
     999901    1    3    3    0    0 -0.18473915046E-01 -0.12914780467E+00 -0.65815678714E-01  0.89204940701E+00  0.88000000000E+00 0. -1.
        -11    1    4    4    0    0  0.65127042205E-02  0.34092242542E-01  0.27049124881E-01  0.44006960763E-01  0.51100000000E-03 0. -1.
         11    1    4    4    0    0 -0.26781113503E-02  0.76806730638E-01  0.33789668146E-01  0.83955041219E-01  0.51100000000E-03 0.  1.
</event>
<event>
 7    1  0.1041149E+005  0.1043930E+01  0.7957747E-01            NaN
         13   -1    0    0    0    0  0.00000000000E+00  0.00000000000E+00  0.74505805969E-08  0.10566000000E+00  0.10566000000E+00 0.  1.
     999900   -1    0    0    0    0 -0.00000000000E+00 -0.00000000000E+00 -0.74505805969E-08  0.93827000000E+00  0.93827000000E+00 0. -1.
     999903    2    1    2    0    0  0.15096702905E-01 -0.65879740622E-01  0.33248725996E-01  0.78012882041E-01  0.20309636159E-01 0.  0.
         14    1    1    2    0    0  0.60646806627E-01  0.35514404442E-01  0.36869986240E-01  0.79364374642E-01  0.00000000000E+00 0.  1.
     999901    1    1    2    0    0 -0.75743509532E-01  0.30365336180E-01 -0.70118712237E-01  0.88655274332E+00  0.88000000000E+00 0. -1.
        -11    1    3    3    0    0  0.19127802894E-01 -0.41303071484E-01  0.23838947950E-01  0.51384561085E-01  0.51100000000E-03 0. -1.
         11    1    3    3    0    0 -0.40310999887E-02 -0.24576669138E-01  0.94097780467E-02  0.26628320956E-01  0.51100000000E-03 0.  1.
</event>
<event>
 8    1  0.1041149E+005  0.1043930E+01  0.7957747E-01            NaN
         13   -1    0    0    0    0  0.00000000000E+00  0.00000000000E+00  0.74505805969E-08  0.10566000000E+00  0.10566000000E+00 0.  1.
     999900   -1    0    0    0    0 -0.00000000000E+00 -0.00000000000E+00 -0.74505805969E-08  0.93827000000E+00  0.93827000000E+00 0. -1.
     999902    2    1    2    0    0 -0.21150694684E-01 -0.91669276523E-02 -0.64494277274E-02  0.10199930084E+01  0.10197120955E+01 0.  0.
     999903    2    3    3    0    0 -0.45343301116E-01 -0.71169413060E-01 -0.10021004189E+00  0.13251306883E+00  0.19913829447E-01 0.  0.
         14    1    1    2    0    0  0.21150694684E-01  0.91669276523E-02  0.64494277274E-02  0.23936991586E-01  0.00000000000E+00 0.  1.
     999901    1    3    3    0    0  0.24192606433E-01  0.62002485408E-01  0.93760614160E-01  0.88747993959E+00  0.88000000000E+00 0.  1.
        -11    1    4    4    0    0 -0.35763579768E-01 -0.57899923458E-01 -0.67084818786E-01  0.95561858536E-01  0.51100000000E-03 0. -1.
         11    1    4    4    0    0 -0.95797213484E-02 -0.13269489601E-01 -0.33125223101E-01  0.36951210290E-01  0.51100000000E-03 0.  1.
</event>
<event>
 8    1  0.1041149E+005  0.1043930E+01  0.7957747E-01            NaN
         13   -1    0    0    0    0  0.00000000000E+00  0.00000000000E+00  0.74505805969E-08  0.10566000000E+00  0.10566000000E+00 0. -1.
     999900   -1    0    0    0    0 -0.00000000000E+00 -0.00000000000E+00 -0.74505805969E-08  0.93827000000E+00  0.93827000000E+00 0.  1.
     999902    2    1    2    0    0  0.48660697246E-02 -0.17632539331E-01  0.21249717363E-01  0.10158918908E+01  0.10155048982E+01 0.  0.
     999903    2    3    3    0    0  0.30024226518E-01 -0.11115191801E+00 -0.51245685262E-01  0.12761581300E+00  0.20086622766E-01 0.  0.
         14    1    1    2    0    0 -0.48660697246E-02  0.17632539331E-01 -0.21249717363E-01  0.28038109170E-01  0.00000000000E+00 0.  1.
     999901    1    3    3    0    0 -0.25158156794E-01  0.93519378680E-01  0.72495402625E-01  0.88827607783E+00  0.88000000000E+00 0. -1.
        -11    1    4    4    0    0  0.28557713032E-01 -0.80094562624E-01 -0.43747644663E-01  0.95628444880E-01  0.51100000000E-03 0.  1.
         11    1    4    4    0    0  0.14665134861E-02 -0.31057355387E-01 -0.74980405996E-02  0.31987368121E-01  0.51100000000E-03 0. -1.
</event>
<event>
 8    1  0.1041149E+005  0.1043930E+01  0.7957747E-01            NaN
         13   -1    0    0    0    0  0.00000000000E+00  0.00000000000E+00  0.74505805969E-08  0.10566000000E+00  0.10566000000E+00 0.  1.
     999900   -1    0    0    0    0 -0.00000000000E+00 -0.00000000000E+00 -0.74505805969E-08  0.93827000000E+00  0.93827000000E+00 0. -1.
     999902    2    1    2    0    0  0.75515462225E-02 -0.11043465071E-01  0.22080505121E-01  0.10181127058E+01  0.10177853158E+01 0.  0.
     999903    2    3    3    0    0  0.91504660096E-01 -0.87799569727E-01  0.24884307034E-01  0.13078667431E+00  0.20101198408E-01 0.  0.
         14    1    1    2    0    0 -0.75515462225E-02  0.11043465071E-01 -0.22080505121E-01  0.25817294156E-01  0.00000000000E+00 0. -1.
     999901    1    3    3    0    0 -0.83953113873E-01  0.76756104655E-01 -0.28038019128E-02  0.88732603153E+00  0.88000000000E+00 0. -1.
        -11    1    4    4    0    0  0.45592152795E-01 -0.39077420735E-01  0.21396531372E-01  0.63747642180E-01  0.51100000000E-03 0.  1.
         11    1    4    4    0    0  0.45912507301E-01 -0.48722148992E-01  0.34877756615E-02  0.67039032131E-01  0.51100000000E-03 0. -1.
</event>
<event>
 8    1  0.1041149E+005  0.1043930E+01  0.7957747E-01            NaN
         13   -1    0    0    0    0  0.00000000000E+00  0.00000000000E+00  0.74505805969E-08  0.10566000000E+00  0.10566000000E+00 0. -1.
     999900   -1    0    0    0    0 -0.00000000000E+00 -0.00000000000E+00 -0.74505805969E-08  0.93827000000E+00  0.93827000000E+00 0. -1.
     999902    2    1    2    0    0 -0.81144444715E-02 -0.88463703074E-02 -0.20716990146E-01  0.10199863963E+01  0.10197053263E+01 0.  0.
     999903    2    3    3    0    0 -0.12535094655E+00 -0.21851777426E-01 -0.29280355535E-01  0.13207487524E+00  0.19901594676E-01 0.  0.
         14    1    1    2    0    0  0.81144444715E-02  0.88463703074E-02  0.20716990146E-01  0.23943603684E-01  0.00000000000E+00 0. -1.
     999901    1    3    3    0    0  0.11723650208E+00  0.13005407118E-01  0.85633653893E-02  0.88791152108E+00  0.88000000000E+00 0.  1.
        -11    1    4    4    0    0 -0.43660377772E-01 -0.34210908380E-02 -0.14322518558E-02  0.43820599221E-01  0.51100000000E-03 0.  1.
         11    1    4    4    0    0 -0.81690568781E-01 -0.18430686588E-01 -0.27848103679E-01  0.88254276017E-01  0.51100000000E-03 0. -1.
</event>
<event>
 8    1  0.1041149E+005  0.1043930E+01  0.7957747E-01            NaN
         13   -1    0    0    0    0  0.00000000000E+00  0.00000000000E+00  0.74505805969E-08  0.10566000000E+00  0.10566000000E+00 0. -1.
     999900   -1    0    0    0    0 -0.00000000000E+00 -0.00000000000E+00 -0.74505805969E-08  0.93827000000E+00  0.93827000000E+00 0. -1.
     999902    2    1    2    0    0 -0.22793320860E-01 -0.77322130910E-02 -0.27344320664E-02  0.10197060508E+01  0.10194182804E+01 0.  0.
     999903    2    3    3    0    0 -0.97512825144E-01  0.29452169985E-02  0.86541955015E-01  0.13197451194E+00  0.20256763149E-01 0.  0.
         14    1    1    2    0    0  0.22793320860E-01  0.77322130910E-02  0.27344320664E-02  0.24223949179E-01  0.00000000000E+00 0. -1.
     999901    1    3    3    0    0  0.74719504284E-01 -0.10677430090E-01 -0.89276387081E-01  0.88773153888E+00  0.88000000000E+00 0.  1.
        -11    1    4    4    0    0 -0.63111185275E-01  0.72178784848E-02  0.66333626047E-01  0.91845144358E-01  0.51100000000E-03 0.  1.
         11    1    4    4    0    0 -0.34401639869E-01 -0.42726614863E-02  0.20208328968E-01  0.40129367582E-01  0.51100000000E-03 0. -1.
</event>
<event>
 8    1  0.1041149E+005  0.1043930E+01  0.7957747E-01            NaN
         13   -1    0    0    0    0  0.00000000000E+00  0.00000000000E+00  0.74505805969E-08  0.10566000000E+00  0.10566000000E+00 0. -1.
     999900   -1    0    0    0    0 -0.00000000000E+00 -0.00000000000E+00 -0.74505805969E-08  0.93827000000E+00  0.93827000000E+00 0.  1.
     999902    2    1    2    0    0  0.23706916942E-01  0.53251271812E-02 -0.33355037208E-03  0.10196300793E+01  0.10193404792E+01 0.  0.
     999903    2    3    3    0    0 -0.68723450232E-01  0.10680546310E+00  0.13430350765E-01  0.12888259750E+00  0.17321375737E-01 0.  0.
         14    1    1    2    0    0 -0.23706916942E-01 -0.53251271812E-02  0.33355037208E-03  0.24299920704E-01  0.00000000000E+00 0. -1.
     999901    1    3    3    0    0  0.92430367173E-01 -0.10148033592E+00 -0.13763901137E-01  0.89074748180E+00  0.88000000000E+00 0.  1.
        -11    1    4    4    0    0 -0.14614510089E-01  0.11576000658E-01  0.21169533906E-02  0.18770463741E-01  0.51100000000E-03 0.  1.
         11    1    4    4    0    0 -0.54108940143E-01  0.95229462438E-01  0.11313397374E-01  0.11011213376E+00  0.51100000000E-03 0. -1.
</event>
<event>
 8    1  0.1041149E+005  0.1043930E+01  0.7957747E-01            NaN
         13   -1    0    0    0    0  0.00000000000E+00  0.00000000000E+00  0.74505805969E-08  0.10566000000E+00  0.10566000000E+00 0. -1.
     999900   -1    0    0    0    0 -0.00000000000E+00 -0.00000000000E+00 -0.74505805969E-08  0.93827000000E+00  0.93827000000E+00 0. -1.
     999902    2    1    2    0    0  0.70232519708E-02  0.62787457872E-03  0.23576009847E-01  0.10193221042E+01  0.10190250260E+01 0.  0.
     999903    2    3    3    0    0  0.83982531718E-02  0.97657759876E-01 -0.79762190400E-01  0.12797734886E+00  0.20214501798E-01 0.  0.
         14    1    1    2    0    0 -0.70232519708E-02 -0.62787457872E-03 -0.23576009847E-01  0.24607895787E-01  0.00000000000E+00 0. -1.
     999901    1    3    3    0    0 -0.13750012010E-02 -0.97029885297E-01  0.10333820025E+00  0.89134475536E+00  0.88000000000E+00 0.  1.
        -11    1    4    4    0    0  0.22997549217E-02  0.63043540458E-01 -0.62544093681E-01  0.88835812832E-01  0.51100000000E-03 0. -1.
         11    1    4    4    0    0  0.60984982502E-02  0.34614219418E-01 -0.17218096719E-01  0.39141536025E-01  0.51100000000E-03 0.  1.
</event>
<event>
 8    1  0.1041149E+005  0.1043930E+01  0.7957747E-01            NaN
         13   -1    0    0    0    0  0.00000000000E+00  0.00000000000E+00  0.74505805969E-08  0.10566000000E+00  0.10566000000E+00 0.  1.
     999900   -1    0    0    0    0 -0.00000000000E+00 -0.00000000000E+00 -0.74505805969E-08  0.93827000000E+00  0.93827000000E+00 0. -1.
     999902    2    1    2    0    0  0.42518435407E-02 -0.17891871397E-01 -0.15063105827E-01  0.10201582859E+01  0.10198812842E+01 0.  0.
     999903    2    3    3    0    0 -0.20461654748E-01 -0.68390207782E-02 -0.12904156963E+00  0.13239479669E+00  0.20278165055E-01 0.  0.
         14    1    1    2    0    0 -0.42518435407E-02  0.17891871397E-01  0.15063105827E-01  0.23771714131E-01  0.00000000000E+00 0.  1.
     999901    1    3    3    0    0  0.24713498289E-01 -0.11052850618E-01  0.11397846380E+00  0.88776348918E+00  0.88000000000E+00 0.  1.
        -11    1    4    4    0    0 -0.28962448308E-02  0.55103923261E-02 -0.53366102797E-01  0.53730389041E-01  0.51100000000E-03 0. -1.
         11    1    4    4    0    0 -0.17565409917E-01 -0.12349413104E-01 -0.75675466834E-01  0.78664407651E-01  0.51100000000E-03 0.  1.
</event>
<event>
 8    1  0.1041149E+005  0.1043930E+01  0.7957747E-01            NaN
         13   -1    0    0    0    0  0.00000000000E+00  0.00000000000E+00  0.74505805969E-08  0.10566000000E+00  0.10566000000E+00 0.  1.
     999900   -1    0    0    0    0 -0.00000000000E+00 -0.00000000000E+00 -0.74505805969E-08  0.93827000000E+00  0.93827000000E+00 0. -1.
     999902    2    1    2    0    0  0.17458433992E-01 -0.49084334843E-02 -0.74240752525E-02  0.10243339154E+01  0.10241464562E+01 0.  0.
     999903    2    3    3    0    0  0.16020575659E-01  0.70557536601E-01  0.11013560202E+00  0.13331345675E+00  0.20189158052E-01 0.  0.
         14    1    1    2    0    0 -0.17458433992E-01  0.49084334843E-02  0.74240752525E-02  0.19596084560E-01  0.00000000000E+00 0. -1.
     999901    1    3    3    0    0  0.14378583331E-02 -0.75465970086E-01 -0.11755967727E+00  0.89102045869E+00  0.88000000000E+00 0. -1.
        -11    1    4    4    0    0  0.14833704145E-01  0.31073447442E-01  0.39688733778E-01  0.52545738404E-01  0.51100000000E-03 0. -1.
         11    1    4    4    0    0  0.11868715145E-02  0.39484089159E-01  0.70446868245E-01  0.80767718349E-01  0.51100000000E-03 0.  1.
</event>
<event>
 8    1  0.1041149E+005  0.1043930E+01  0.7957747E-01            NaN
         13   -1    0    0    0    0  0.00000000000E+00  0.00000000000E+00  0.74505805969E-08  0.10566000000E+00  0.10566000000E+00 0.  1.
     999900   -1    0    0    0    0 -0.00000000000E+00 -0.00000000000E+00 -0.74505805969E-08  0.93827000000E+00  0.93827000000E+00 0.  1.
     999902    2    1    2    0    0  0.18609294450E-01 -0.12570324319E-01 -0.78813360570E-02  0.10201301187E+01  0.10198524524E+01 0.  0.
     999903    2    3    3    0    0 -0.44166852734E-01 -0.83250490516E-01  0.87191095138E-01  0.12997547046E+00  0.20247982591E-01 0.  0.
         14    1    1    2    0    0 -0.18609294450E-01  0.12570324319E-01  0.78813360570E-02  0.23799881332E-01  0.00000000000E+00 0.  1.
     999901    1    3    3    0    0  0.62776147183E-01  0.70680166197E-01 -0.95072431195E-01  0.89015464821E+00  0.88000000000E+00 0.  1.
        -11    1    4    4    0    0 -0.28634617137E-01 -0.62785989074E-01  0.73652972275E-01  0.10093088313E+00  0.51100000000E-03 0.  1.
         11    1    4    4    0    0 -0.15532235597E-01 -0.20464501442E-01  0.13538122862E-01  0.29044587336E-01  0.51100000000E-03 0. -1.
</event>
<event>
 8    1  0.1041149E+005  0.1043930E+01  0.7957747E-01            NaN
         13   -1    0    0    0    0  0.00000000000E+00  0.00000000000E+00  0.74505805969E-08  0.10566000000E+00  0.10566000000E+00 0.  1.
     999900   -1    0    0    0    0 -0.00000000000E+00 -0.00000000000E+00 -0.74505805969E-08  0.93827000000E+00  0.93827000000E+00 0.  1.
     999902    2    1    2    0    0  0.45629934816E-02 -0.56678035344E-02 -0.22162699948E-01  0.10206034020E+01  0.10203367944E+01 0.  0.
     999903    2    3    3    0    0 -0.55483064681E-02 -0.88311827977E-01  0.92123651672E-01  0.12931576977E+00  0.20150395717E-01 0.  0.
         14    1    1    2    0    0 -0.45629934816E-02  0.56678035344E-02  0.22162699948E-01  0.23326598025E-01  0.00000000000E+00 0.  1.
     999901    1    3    3    0    0  0.10111299950E-01  0.82644024442E-01 -0.11428635162E+00  0.89128763221E+00  0.88000000000E+00 0.  1.
        -11    1    4    4    0    0 -0.82429448828E-02 -0.17233183419E-01  0.25413997198E-01  0.31797187386E-01  0.51100000000E-03 0.  1.
         11    1    4    4    0    0  0.26946384147E-02 -0.71078644557E-01  0.66709654474E-01  0.97518582380E-01  0.51100000000E-03 0. -1.
</event>
<event>
 8    1  0.1041149E+005  0.1043930E+01  0.7957747E-01            NaN
         13   -1    0    0    0    0  0.00000000000E+00  0.00000000000E+00  0.74505805969E-08  0.10566000000E+00  0.10566000000E+00 0.  1.
     999900   -1    0    0    0    0 -0.00000000000E+00 -0.00000000000E+00 -0.74505805969E-08  0.93827000000E+00  0.93827000000E+00 0. -1.
     999902    2    1    2    0    0  0.22969697900E-01 -0.39560758297E-02 -0.14691083333E-02  0.10205758604E+01  0.10203086156E+01 0.  0.
     999903    2    3    3    0    0 -0.85366984894E-01 -0.54826349165E-01 -0.77567095496E-01  0.12921985677E+00  0.19689245956E-01 0.  0.
         14    1    1    2    0    0 -0.22969697900E-01  0.39560758297E-02  0.14691083333E-02  0.23354139609E-01  0.00000000000E+00 0.  1.
     999901    1    3    3    0    0  0.10833668279E+00  0.50870273335E-01  0.76097987163E-01  0.89135600362E+00  0.88000000000E+00 0.  1.
        -11    1    4    4    0    0 -0.33664326674E-01 -0.29252381650E-01 -0.24749970934E-01  0.51007949428E-01  0.51100000000E-03 0. -1.
         11    1    4    4    0    0 -0.51702658220E-01 -0.25573967515E-01 -0.52817124562E-01  0.78211907338E-01  0.51100000000E-03 0.  1.
</event>
<event>
 8    1  0.1041149E+005  0.1043930E+01  0.7957747E-01            NaN
         13   -1    0    0    0    0  0.00000000000E+00  0.00000000000E+00  0.74505805969E-08  0.10566000000E+00  0.10566000000E+00 0.  1.
     999900   -1    0    0    0    0 -0.00000000000E+00 -0.00000000000E+00 -0.74505805969E-08  0.93827000000E+00  0.93827000000E+00 0.  1.
     999902    2    1    2    0    0  0.16984829115E-01  0.10928201927E-01  0.83055730712E-02  0.10220921301E+01  0.10218588111E+01 0.  0.
     999903    2    3    3    0    0 -0.11084759033E+00 -0.21697750716E-01  0.60893775127E-01  0.13070495315E+00  0.24854622509E-01 0.  0.
         14    1    1    2    0    0 -0.16984829115E-01 -0.10928201927E-01 -0.83055730712E-02  0.21837869893E-01  0.00000000000E+00 0. -1.
     999901    1    3    3    0    0  0.12783241945E+00  0.32625952643E-01 -0.52588202055E-01  0.89138717696E+00  0.88000000000E+00 0.  1.
        -11    1    4    4    0    0 -0.11097722910E+00 -0.19817053127E-01  0.56945750843E-01  0.12630020045E+00  0.51100000000E-03 0. -1.
         11    1    4    4    0    0  0.12963876511E-03 -0.18806975890E-02  0.39480242838E-02  0.44047527032E-02  0.51100000000E-03 0.  1.
</event>
<event>
 8    1  0.1041149E+005  0.1043930E+01  0.7957747E-01            NaN
         13   -1    0    0    0    0  0.00000000000E+00  0.00000000000E+00  0.74505805969E-08  0.10566000000E+00  0.10566000000E+00 0.  1.
     999900   -1    0    0    0    0 -0.00000000000E+00 -0.00000000000E+00 -0.74505805969E-08  0.93827000000E+00  0.93827000000E+00 0.  1.
     999902    2    1    2    0    0  0.23457978725E-01  0.52493825823E-02 -0.75685320921E-03  0.10198799353E+01  0.10195963304E+01 0.  0.
     999903    2    3    3    0    0  0.11781229722E+00  0.54779254898E-01  0.21268557396E-01  0.13317758146E+00  0.20085131974E-01 0.  0.
         14    1    1    2    0    0 -0.23457978725E-01 -0.52493825823E-02  0.75685320921E-03  0.24050064660E-01  0.00000000000E+00 0.  1.
     999901    1    3    3    0    0 -0.94354318492E-01 -0.49529872315E-01 -0.22025410605E-01  0.88670235388E+00  0.88000000000E+00 0.  1.
        -11    1    4    4    0    0  0.36137256470E-01  0.27134367444E-01  0.90027210817E-02  0.46081290234E-01  0.51100000000E-03 0. -1.
         11    1    4    4    0    0  0.81675040747E-01  0.27644887454E-01  0.12265836314E-01  0.87096291223E-01  0.51100000000E-03 0.  1.
</event>
<event>
 8    1  0.1041149E+005  0.1043930E+01  0.7957747E-01            NaN
         13   -1    0    0    0    0  0.00000000000E+00  0.00000000000E+00  0.74505805969E-08  0.10566000000E+00  0.10566000000E+00 0. -1.
     999900   -1    0    0    0    0 -0.00000000000E+00 -0.00000000000E+00 -0.74505805969E-08  0.93827000000E+00  0.93827000000E+00 0. -1.
     999902    2    1    2    0    0  0.10992583521E-01  0.21431187589E-01 -0.60043642170E-02  0.10191069244E+01  0.10188045633E+01 0.  0.
     999903    2    3    3    0    0 -0.41429241980E-01  0.11340682099E+00 -0.48932244049E-01  0.13172292193E+00  0.19469836069E-01 0.  0.
         14    1    1    2    0    0 -0.10992583521E-01 -0.21431187589E-01  0.60043642170E-02  0.24823075627E-01  0.00000000000E+00 0.  1.
     999901    1    3    3    0    0  0.52421825500E-01 -0.91975633396E-01  0.42927879832E-01  0.88738400244E+00  0.88000000000E+00 0.  1.
        -11    1    4    4    0    0  0.16460601634E-02  0.93548975130E-02 -0.20125927780E-02  0.97229250861E-02  0.51100000000E-03 0. -1.
         11    1    4    4    0    0 -0.43075302143E-01  0.10405192347E+00 -0.46919651271E-01  0.12199999684E+00  0.51100000000E-03 0.  1.
</event>
<event>
 8    1  0.1041149E+005  0.1043930E+01  0.7957747E-01            NaN
         13   -1    0    0    0    0  0.00000000000E+00  0.00000000000E+00  0.74505805969E-08  0.10566000000E+00  0.10566000000E+00 0. -1.
     999900   -1    0    0    0    0 -0.00000000000E+00 -0.00000000000E+00 -0.74505805969E-08  0.93827000000E+00  0.93827000000E+00 0. -1.
     999902    2    1    2    0    0 -0.19723946896E-01 -0.75064986793E-02  0.11307444492E-01  0.10199875710E+01  0.10197065289E+01 0.  0.
     999903    2    3    3    0    0 -0.66865309803E-01 -0.10752400644E+00  0.33809652987E-01  0.13278288251E+00  0.21349932970E-01 0.  0.
         14    1    1    2    0    0  0.19723946896E-01  0.75064986793E-02 -0.11307444492E-01  0.23942428960E-01  0.00000000000E+00 0. -1.
     999901    1    3    3    0    0  0.47141362907E-01  0.10001750776E+00 -0.22502208494E-01  0.88720468853E+00  0.88000000000E+00 0. -1.
        -11    1    4    4    0    0 -0.24438640063E-01 -0.41416250598E-01  0.23597606015E-01  0.53569217582E-01  0.51100000000E-03 0.  1.
         11    1    4    4    0    0 -0.42426669740E-01 -0.66107755842E-01  0.10212046972E-01  0.79213664932E-01  0.51100000000E-03 0. -1.
</event>
<event>
 8    1  0.1041149E+005  0.1043930E+01  0.7957747E-01            NaN
         13   -1    0    0    0    0  0.00000000000E+00  0.00000000000E+00  0.74505805969E-08  0.10566000000E+00  0.10566000000E+00 0. -1.
     999900   -1    0    0    0    0 -0.00000000000E+00 -0.00000000000E+00 -0.74505805969E-08  0.93827000000E+00  0.93827000000E+00 0.  1.
     999902    2    1    2    0    0  0.19640716118E-01  0.13552243343E-02 -0.12383400542E-01  0.10206718193E+01  0.10204067913E+01 0.  0.
     999903    2    3    3    0    0 -0.10353978985E+00 -0.73570095056E-01 -0.84787911714E-02  0.12893055268E+00  0.20448729717E-01 0.  0.
         14    1    1    2    0    0 -0.19640716118E-01 -0.13552243343E-02  0.12383400542E-01  0.23258180746E-01  0.00000000000E+00 0. -1.
     999901    1    3    3    0    0  0.12318050596E+00  0.74925319391E-01 -0.39046093709E-02  0.89174126657E+00  0.88000000000E+00 0. -1.
        -11    1    4    4    0    0 -0.43724340564E-01 -0.43503729397E-01 -0.52249401106E-02  0.61902774973E-01  0.51100000000E-03 0. -1.
         11    1    4    4    0    0 -0.59815449282E-01 -0.30066365659E-01 -0.32538510609E-02  0.67027777708E-01  0.51100000000E-03 0.  1.
</event>
<event>
 8    1  0.1041149E+005  0.1043930E+01  0.7957747E-01            NaN
         13   -1    0    0    0    0  0.00000000000E+00  0.00000000000E+00  0.74505805969E-08  0.10566000000E+00  0.10566000000E+00 0. -1.
     999900   -1    0    0    0    0 -0.00000000000E+00 -0.00000000000E+00 -0.74505805969E-08  0.93827000000E+00  0.93827000000E+00 0. -1.
     999902    2    1    2    0    0  0.20479913722E-02 -0.21451274662E-01  0.10479900299E-01  0.10199679516E+01  0.10196864432E+01 0.  0.
     999903    2    3    3    0    0  0.11373877026E-01  0.43315182788E-01  0.12100671489E+00  0.13064357720E+00  0.20482897186E-01 0.  0.
         14    1    1    2    0    0 -0.20479913722E-02  0.21451274662E-01 -0.10479900299E-01  0.23962048401E-01  0.00000000000E+00 0.  1.
     999901    1    3    3    0    0 -0.93258856535E-02 -0.64766457450E-01 -0.11052681459E+00  0.88932437440E+00  0.88000000000E+00 0. -1.
        -11    1    4    4    0    0  0.58509452163E-02  0.49849442284E-02  0.41459466209E-01  0.42169084508E-01  0.51100000000E-03 0. -1.
         11    1    4    4    0    0  0.55229318094E-02  0.38330238559E-01  0.79547248680E-01  0.88474492694E-01  0.51100000000E-03 0.  1.
</event>
<event>
 8    1  0.1041149E+005  0.1043930E+01  0.7957747E-01            NaN
         13   -1    0    0    0    0  0.00000000000E+00  0.00000000000E+00  0.74505805969E-08  0.10566000000E+00  0.10566000000E+00 0. -1.
     999900   -1    0    0    0    0 -0.00000000000E+00 -0.00000000000E+00 -0.74505805969E-08  0.93827000000E+00  0.93827000000E+00 0.  1.
     999902    2    1    2    0    0 -0.10266543375E-01 -0.29983744544E-01  0.11670505243E-01  0.10101568221E+01  0.10095920848E+01 0.  0.
     999903    2    3    3    0    0  0.11607472496E+00  0.19329056203E-01 -0.62297734494E-02  0.11958717951E+00  0.20379628048E-01 0.  0.
         14    1    1    2    0    0  0.10266543375E-01  0.29983744544E-01 -0.11670505243E-01  0.33773177854E-01  0.00000000000E+00 0.  1.
     999901    1    3    3    0    0 -0.12634126833E+00 -0.49312800746E-01  0.17900278693E-01  0.89056964263E+00  0.88000000000E+00 0. -1.
        -11    1    4    4    0    0  0.65551168802E-01  0.14158081972E-01 -0.13107533372E-01  0.68333561070E-01  0.51100000000E-03 0. -1.
         11    1    4    4    0    0  0.50523556155E-01  0.51709742304E-02  0.68777599226E-02  0.51253618444E-01  0.51100000000E-03 0.  1.
</event>
<event>
 8    1  0.1041149E+005  0.1043930E+01  0.7957747E-01            NaN
         13   -1    0    0    0    0  0.00000000000E+00  0.00000000000E+00  0.74505805969E-08  0.10566000000E+00  0.10566000000E+00 0. -1.
     999900   -1    0    0    0    0 -0.00000000000E+00 -0.00000000000E+00 -0.74505805969E-08  0.93827000000E+00  0.93827000000E+00 0. -1.
     999902    2    1    2    0    0  0.96678834813E-02  0.13171711480E-01 -0.17596459120E-01  0.10199175589E+01  0.10196348511E+01 0.  0.
     999903    2    3    3    0    0  0.31328328307E-01  0.84435532096E-01 -0.96367059087E-01  0.13326513860E+00  0.19030603074E-01 0.  0.
         14    1    1    2    0    0 -0.96678834813E-02 -0.13171711480E-01  0.17596459120E-01  0.24012441106E-01  0.00000000000E+00 0. -1.
     999901    1    3    3    0    0 -0.21660444826E-01 -0.71263820617E-01  0.78770599967E-01  0.88665242030E+00  0.88000000000E+00 0.  1.
        -11    1    4    4    0    0  0.22023212318E-01  0.32949413927E-01 -0.38615798572E-01  0.55336486871E-01  0.51100000000E-03 0.  1.
         11    1    4    4    0    0  0.93051159896E-02  0.51486118170E-01 -0.57751260514E-01  0.77928651726E-01  0.51100000000E-03 0. -1.
</event>
<event>
 8    1  0.1041149E+005  0.1043930E+01  0.7957747E-01            NaN
         13   -1    0    0    0    0  0.00000000000E+00  0.00000000000E+00  0.74505805969E-08  0.10566000000E+00  0.10566000000E+00 0. -1.
     999900   -1    0    0    0    0 -0.00000000000E+00 -0.00000000000E+00 -0.74505805969E-08  0.93827000000E+00  0.93827000000E+00 0.  1.
     999902    2    1    2    0    0 -0.14656839480E-01  0.12858991691E-01 -0.44627972246E-02  0.10239276709E+01  0.10237322805E+01 0.  0.
     999903    2    3    3    0    0  0.35098407127E-01 -0.12429974023E+00  0.15954938485E-01  0.13168051553E+00  0.20071734000E-01 0.  0.
         14    1    1    2    0    0  0.14656839480E-01 -0.12858991691E-01  0.44627972246E-02  0.20002329112E-01  0.00000000000E+00 0.  1.
     999901    1    3    3    0    0 -0.49755246607E-01  0.13715873192E+00 -0.20417735709E-01  0.89224715535E+00  0.88000000000E+00 0. -1.
        -11    1    4    4    0    0  0.10515323553E-01 -0.63482561471E-01  0.14996053497E-01  0.66073825240E-01  0.51100000000E-03 0.  1.
         11    1    4    4    0    0  0.24583083575E-01 -0.60817178756E-01  0.95888498751E-03  0.65606690294E-01  0.51100000000E-03 0. -1.
</event>
<event>
 8    1  0.1041149E+005  0.1043930E+01  0.7957747E-01            NaN
         13   -1    0    0    0    0  0.00000000000E+00  0.00000000000E+00  0.74505805969E-08  0.10566000000E+00  0.10566000000E+00 0. -1.
     999900   -1    0    0    0    0 -0.00000000000E+00 -0.00000000000E+00 -0.74505805969E-08  0.93827000000E+00  0.93827000000E+00 0. -1.
     999902    2    1    2    0    0 -0.16691408437E-01 -0.19550874804E-02  0.16305036528E-01  0.10205146269E+01  0.10202459625E+01 0.  0.
     999903    2    3    3    0    0 -0.33518472576E-02  0.10239714441E+00 -0.76526615304E-01  0.12940012930E+00  0.19790415629E-01 0.  0.
         14    1    1    2    0    0  0.16691408437E-01  0.19550874804E-02 -0.16305036528E-01  0.23415373130E-01  0.00000000000E+00 0.  1.
     999901    1    3    3    0    0 -0.13339561179E-01 -0.10435223189E+00  0.92831651832E-01  0.89111449757E+00  0.88000000000E+00 0.  1.
        -11    1    4    4    0    0 -0.83071801395E-02  0.91036566141E-01 -0.62857320115E-01  0.11094128821E+00  0.51100000000E-03 0.  1.
         11    1    4    4    0    0  0.49553328819E-02  0.11360578266E-01 -0.13669295189E-01  0.18458841092E-01  0.51100000000E-03 0. -1.
</event>
<event>
 8    1  0.1041149E+005  0.1043930E+01  0.7957747E-01            NaN
         13   -1    0    0    0    0  0.00000000000E+00  0.00000000000E+00  0.74505805969E-08  0.10566000000E+00  0.10566000000E+00 0.  1.
     999900   -1    0    0    0    0 -0.00000000000E+00 -0.00000000000E+00 -0.74505805969E-08  0.93827000000E+00  0.93827000000E+00 0.  1.
     999902    2    1    2    0    0 -0.15168291456E-01 -0.16803339471E-01 -0.61530664443E-02  0.10204717496E+01  0.10202020890E+01 0.  0.
     999903    2    3    3    0    0  0.39515310591E-01  0.43567071877E-01 -0.11411307199E+00  0.13014021269E+00  0.21333828479E-01 0.  0.
         14    1    1    2    0    0  0.15168291456E-01  0.16803339471E-01  0.61530664443E-02  0.23458250355E-01  0.00000000000E+00 0. -1.
     999901    1    3    3    0    0 -0.54683602047E-01 -0.60370411347E-01  0.10796000554E+00  0.89033153695E+00  0.88000000000E+00 0. -1.
        -11    1    4    4    0    0  0.14295183679E-01  0.21121095941E-01 -0.29275395356E-01  0.38829922282E-01  0.51100000000E-03 0.  1.
         11    1    4    4    0    0  0.25220126912E-01  0.22445975935E-01 -0.84837676632E-01  0.91310290408E-01  0.51100000000E-03 0. -1.
</event>
<event>
 7    1  0.1041149E+005  0.1043930E+01  0.7957747E-01            NaN
         13   -1    0    0    0    0  0.00000000000E+00  0.00000000000E+00  0.74505805969E-08  0.10566000000E+00  0.10566000000E+00 0. -1.
     999900   -1    0    0    0    0 -0.00000000000E+00 -0.00000000000E+00 -0.74505805969E-08  0.93827000000E+00  0.93827000000E+00 0. -1.
     999902    2    1    2    0    0  0.33607515601E-02 -0.21490709389E-01 -0.33635090840E-02  0.10219195835E+01  0.10216825225E+01 0.  0.
         14    1    1    2    0    0 -0.33607515601E-02  0.21490709389E-01  0.33635090840E-02  0.22010416499E-01  0.00000000000E+00 0.  1.
     999901    1    3    3    0    0  0.11734539200E+00 -0.29937679055E-02  0.60587871229E-01  0.88985942362E+00  0.88000000000E+00 0.  1.
        -11    1    3    3    0    0 -0.69036225720E-01 -0.11953603684E-01 -0.36851388249E-01  0.79165491469E-01  0.51100000000E-03 0.  1.
         11    1    3    3    0    0 -0.44948414718E-01 -0.65433378000E-02 -0.27099992064E-01  0.52894668409E-01  0.51100000000E-03 0. -1.
</event>
<event>
 8    1  0.1213939E+005  0.1043930E+01  0.7957747E-01            NaN
         13   -1    0    0    0    0  0.00000000000E+00  0.00000000000E+00  0.74505805969E-08  0.10566000000E+00  0.10566000000E+00 0. -1.
     999900   -1    0    0    0    0 -0.00000000000E+00 -0.00000000000E+00 -0.74505805969E-08  0.93827000000E+00  0.93827000000E+00 0.  1.
     999902    2    1    2    0    0  0.13798868372E-01  0.19085595724E-01 -0.20646011458E-02  0.10202882718E+01  0.10200143265E+01 0.  0.
     999903    2    3    3    0    0 -0.10508477413E+00 -0.92139567181E-02 -0.71706965111E-01  0.12911811750E+00  0.20047260926E-01 0.  0.
         14    1    1    2    0    0 -0.13798868372E-01 -0.19085595724E-01  0.20646011458E-02  0.23641728160E-01  0.00000000000E+00 0.  1.
     999901    1    3    3    0    0  0.11888364250E+00  0.28299552442E-01  0.69642363965E-01  0.89117015434E+00  0.88000000000E+00 0. -1.
        -11    1    4    4    0    0 -0.54925435895E-01  0.49678076207E-02 -0.39588086336E-01  0.67889324062E-01  0.51100000000E-03 0. -1.
         11    1    4    4    0    0 -0.50159338231E-01 -0.14181764339E-01 -0.32118878775E-01  0.61228793441E-01  0.51100000000E-03 0.  1.
</event>
<event>
 8    1  0.1041149E+005  0.1043930E+01  0.7957747E-01            NaN
         13   -1    0    0    0    0  0.00000000000E+00  0.00000000000E+00  0.74505805969E-08  0.10566000000E+00  0.10566000000E+00 0.  1.
     999900   -1    0    0    0    0 -0.00000000000E+00 -0.00000000000E+00 -0.74505805969E-08  0.93827000000E+00  0.93827000000E+00 0.  1.
     999902    2    1    2    0    0  0.76878947228E-02 -0.15555487401E-01 -0.17013634874E-01  0.10196289571E+01  0.10193393299E+01 0.  0.
     999903    2    3    3    0    0 -0.10093049000E+00  0.33863083095E-01  0.67411631054E-01  0.12757078965E+00  0.19907439892E-01 0.  0.
         14    1    1    2    0    0 -0.76878947228E-02  0.15555487401E-01  0.17013634874E-01  0.24301042882E-01  0.00000000000E+00 0.  1.
     999901    1    3    3    0    0  0.10861838472E+00 -0.49418570495E-01 -0.84425265928E-01  0.89205816746E+00  0.88000000000E+00 0.  1.
        -11    1    4    4    0    0 -0.31823847311E-01  0.17204568784E-01  0.14611392998E-01  0.39019333298E-01  0.51100000000E-03 0.  1.
         11    1    4    4    0    0 -0.69106642691E-01  0.16658514311E-01  0.52800238056E-01  0.88551456356E-01  0.51100000000E-03 0. -1.
</event>
<event>
 8    1  0.1041149E+005  0.1043930E+01  0.7957747E-01            NaN
         13   -1    0    0    0    0  0.00000000000E+00  0.00000000000E+00  0.74505805969E-08  0.10566000000E+00  0.10566000000E+00 0. -1.
     999900   -1    0    0    0    0 -0.00000000000E+00 -0.00000000000E+00 -0.74505805969E-08  0.93827000000E+00  0.93827000000E+00 0. -1.
     999902    2    1    2    0    0 -0.22241745178E-01 -0.22646029178E-02 -0.72165694990E-02  0.10204373941E+01  0.10201669338E+01 0.  0.
     999903    2    3    3    0    0 -0.12134630532E+00  0.45634508832E-01  0.17600444951E-01  0.13323283883E+00  0.25174977046E-01 0.  0.
         14    1    1    2    0    0  0.22241745178E-01  0.22646029178E-02  0.72165694990E-02  0.23492605864E-01  0.00000000000E+00 0.  1.
     999901    1    3    3    0    0  0.99104560142E-01 -0.47899111750E-01 -0.24817014450E-01  0.88720455530E+00  0.88000000000E+00 0. -1.
        -11    1    4    4    0    0 -0.50716685199E-01  0.68563339917E-02  0.11280570769E-01  0.52409005631E-01  0.51100000000E-03 0.  1.
         11    1    4    4    0    0 -0.70629620122E-01  0.38778174841E-01  0.63198741827E-02  0.80823833200E-01  0.51100000000E-03 0. -1.
</event>
<event>
 8    1  0.1041149E+005  0.1043930E+01  0.7957747E-01            NaN
         13   -1    0    0    0    0  0.00000000000E+00  0.00000000000E+00  0.74505805969E-08  0.10566000000E+00  0.10566000000E+00 0. -1.
     999900   -1    0    0    0    0 -0.00000000000E+00 -0.00000000000E+00 -0.74505805969E-08  0.93827000000E+00  0.93827000000E+00 0.  1.
     999902    2    1    2    0    0  0.21117525610E-01 -0.10056724067E-01 -0.51989197529E-02  0.10199692748E+01  0.10196877979E+01 0.  0.
     999903    2    3    3    0    0 -0.38754158253E-02  0.21809220764E-01 -0.12690843312E+00  0.13066994878E+00  0.21868336918E-01 0.  0.
         14    1    1    2    0    0 -0.21117525610E-01  0.10056724067E-01  0.51989197529E-02  0.23960725228E-01  0.00000000000E+00 0. -1.
     999901    1    3    3    0    0  0.24992941435E-01 -0.31865944831E-01  0.12170951337E+00  0.88929932599E+00  0.88000000000E+00 0. -1.
        -11    1    4    4    0    0 -0.76476736536E-02  0.21820824039E-01 -0.71861198431E-01  0.75491246082E-01  0.51100000000E-03 0.  1.
         11    1    4    4    0    0  0.37722578282E-02 -0.11603274989E-04 -0.55047234690E-01  0.55178702701E-01  0.51100000000E-03 0. -1.
</event>
<event>
 8    1  0.1041149E+005  0.1043930E+01  0.7957747E-01            NaN
         13   -1    0    0    0    0  0.00000000000E+00  0.00000000000E+00  0.74505805969E-08  0.10566000000E+00  0.10566000000E+00 0.  1.
     999900   -1    0    0    0    0 -0.00000000000E+00 -0.00000000000E+00 -0.74505805969E-08  0.93827000000E+00  0.93827000000E+00 0. -1.
     999902    2    1    2    0    0 -0.14373436166E-01  0.15041528541E-01 -0.96165271366E-02  0.10210101212E+01  0.10207528334E+01 0.  0.
     999903    2    3    3    0    0  0.22336906609E-02 -0.76133128003E-01  0.10221715521E+00  0.12910464017E+00  0.20455286363E-01 0.  0.
         14    1    1    2    0    0  0.14373436166E-01 -0.15041528541E-01  0.96165271366E-02  0.22919878757E-01  0.00000000000E+00 0. -1.
     999901    1    3    3    0    0 -0.16607126827E-01  0.91174656544E-01 -0.11183368235E+00  0.89190548107E+00  0.88000000000E+00 0. -1.
        -11    1    4    4    0    0  0.41753732026E-02 -0.16799081192E-01  0.37359499918E-01  0.41178103713E-01  0.51100000000E-03 0.  1.
         11    1    4    4    0    0 -0.19416825417E-02 -0.59334046810E-01  0.64857655296E-01  0.87926536458E-01  0.51100000000E-03 0. -1.
</event>
<event>
 7    1  0.1041149E+005  0.1043930E+01  0.7957747E-01            NaN
         13   -1    0    0    0    0  0.00000000000E+00  0.00000000000E+00  0.74505805969E-08  0.10566000000E+00  0.10566000000E+00 0. -1.
     999900   -1    0    0    0    0 -0.00000000000E+00 -0.00000000000E+00 -0.74505805969E-08  0.93827000000E+00  0.93827000000E+00 0. -1.
     999903    2    1    2    0    0 -0.31652959268E-01 -0.58732407969E-01 -0.48091575759E-01  0.84695881108E-01  0.20228372191E-01 0.  0.
         14    1    1    2    0    0 -0.38122665521E-01 -0.72761183715E-02  0.62869881154E-01  0.73884379143E-01  0.00000000000E+00 0. -1.
     999901    1    1    2    0    0  0.69775624789E-01  0.66008526340E-01 -0.14778305395E-01  0.88534973975E+00  0.88000000000E+00 0.  1.
        -11    1    3    3    0    0 -0.14054639388E-01 -0.84652515885E-02 -0.10101301062E-01  0.19274096008E-01  0.51100000000E-03 0. -1.
         11    1    3    3    0    0 -0.17598319880E-01 -0.50267156380E-01 -0.37990274696E-01  0.65421785100E-01  0.51100000000E-03 0.  1.
</event>
<event>
 8    1  0.1041149E+005  0.1043930E+01  0.7957747E-01            NaN
         13   -1    0    0    0    0  0.00000000000E+00  0.00000000000E+00  0.74505805969E-08  0.10566000000E+00  0.10566000000E+00 0.  1.
     999900   -1    0    0    0    0 -0.00000000000E+00 -0.00000000000E+00 -0.74505805969E-08  0.93827000000E+00  0.93827000000E+00 0.  1.
     999902    2    1    2    0    0 -0.10083149707E-01 -0.19243824516E-01  0.70598634468E-02  0.10210862621E+01  0.10208307001E+01 0.  0.
     999903    2    3    3    0    0  0.25632350219E-02  0.12640052189E+00  0.16462326047E-01  0.12897605982E+00  0.19497531135E-01 0.  0.
         14    1    1    2    0    0  0.10083149707E-01  0.19243824516E-01 -0.70598634468E-02  0.22843737915E-01  0.00000000000E+00 0.  1.
     999901    1    3    3    0    0 -0.12646384729E-01 -0.14564434640E+00 -0.94024626006E-02  0.89211020227E+00  0.88000000000E+00 0.  1.
        -11    1    4    4    0    0  0.10238644753E-01  0.92145163920E-01  0.96696759304E-02  0.93216548069E-01  0.51100000000E-03 0. -1.
         11    1    4    4    0    0 -0.76754097310E-02  0.34255357967E-01  0.67926501170E-02  0.35759511750E-01  0.51100000000E-03 0.  1.
</event>
<event>
 8    1  0.1041149E+005  0.1043930E+01  0.7957747E-01            NaN
         13   -1    0    0    0    0  0.00000000000E+00  0.00000000000E+00  0.74505805969E-08  0.10566000000E+00  0.10566000000E+00 0. -1.
     999900   -1    0    0    0    0 -0.00000000000E+00 -0.00000000000E+00 -0.74505805969E-08  0.93827000000E+00  0.93827000000E+00 0. -1.
     999902    2    1    2    0    0  0.90051789095E-02  0.78582581580E-02 -0.19948756391E-01  0.10206749285E+01  0.10204099722E+01 0.  0.
     999903    2    3    3    0    0 -0.98613540330E-01 -0.67634720899E-01  0.42972477967E-01  0.12868834770E+00  0.20370840991E-01 0.  0.
         14    1    1    2    0    0 -0.90051789095E-02 -0.78582581580E-02  0.19948756391E-01  0.23255071490E-01  0.00000000000E+00 0. -1.
     999901    1    3    3    0    0  0.10761871924E+00  0.75492979057E-01 -0.62921234359E-01  0.89198658081E+00  0.88000000000E+00 0.  1.
        -11    1    4    4    0    0 -0.18139069500E-01 -0.37664814556E-02  0.55744473697E-02  0.19353237697E-01  0.51100000000E-03 0. -1.
         11    1    4    4    0    0 -0.80474470830E-01 -0.63868239444E-01  0.37398030598E-01  0.10933511000E+00  0.51100000000E-03 0.  1.
</event>
<event>
 8    1  0.1041149E+005  0.1043930E+01  0.7957747E-01            NaN
         13   -1    0    0    0    0  0.00000000000E+00  0.00000000000E+00  0.74505805969E-08  0.10566000000E+00  0.10566000000E+00 0. -1.
     999900   -1    0    0    0    0 -0.00000000000E+00 -0.00000000000E+00 -0.74505805969E-08  0.93827000000E+00  0.93827000000E+00 0. -1.
     999902    2    1    2    0    0 -0.17947640111E-01 -0.84659132919E-02  0.14038142832E-01  0.10196224101E+01  0.10193326249E+01 0.  0.
     999903    2    3    3    0    0 -0.55203799093E-01 -0.40778098312E-01 -0.10845323604E+00  0.12977060412E+00  0.19183131898E-01 0.  0.
         14    1    1    2    0    0  0.17947640111E-01  0.84659132919E-02 -0.14038142832E-01  0.24307589917E-01  0.00000000000E+00 0.  1.
     999901    1    3    3    0    0  0.37256158982E-01  0.32312185020E-01  0.12249137887E+00  0.88985180597E+00  0.88000000000E+00 0.  1.
        -11    1    4    4    0    0 -0.42721912280E-01 -0.27740315412E-01 -0.64056689778E-01  0.81842577638E-01  0.51100000000E-03 0. -1.
         11    1    4    4    0    0 -0.12481886813E-01 -0.13037782899E-01 -0.44396546261E-01  0.47928026479E-01  0.51100000000E-03 0.  1.
</event>
<event>
 8    1  0.1041149E+005  0.1043930E+01  0.7957747E-01            NaN
         13   -1    0    0    0    0  0.00000000000E+00  0.00000000000E+00  0.74505805969E-08  0.10566000000E+00  0.10566000000E+00 0.  1.
     999900   -1    0    0    0    0 -0.00000000000E+00 -0.00000000000E+00 -0.74505805969E-08  0.93827000000E+00  0.93827000000E+00 0.  1.
     999902    2    1    2    0    0  0.53261091071E-02  0.58374861835E-02 -0.21897373390E-01  0.10206504243E+01  0.10203849029E+01 0.  0.
     999903    2    3    3    0    0 -0.30750135685E-01  0.10143045010E+00  0.71933505847E-01  0.12978357450E+00  0.20871988235E-01 0.  0.
         14    1    1    2    0    0 -0.53261091071E-02 -0.58374861835E-02  0.21897373390E-01  0.23279575695E-01  0.00000000000E+00 0.  1.
     999901    1    3    3    0    0  0.36076244792E-01 -0.95592963920E-01 -0.93830879236E-01  0.89086684981E+00  0.88000000000E+00 0.  1.
        -11    1    4    4    0    0 -0.12304071507E-01  0.25836678428E-01  0.99539415402E-02  0.30302907468E-01  0.51100000000E-03 0.  1.
         11    1    4    4    0    0 -0.18446064177E-01  0.75593771676E-01  0.61979564307E-01  0.99480667029E-01  0.51100000000E-03 0. -1.
</event>
<event>
 8    1  0.1041149E+005  0.1043930E+01  0.7957747E-01            NaN
         13   -1    0    0    0    0  0.00000000000E+00  0.00000000000E+00  0.74505805969E-08  0.10566000000E+00  0.10566000000E+00 0.  1.
     999900   -1    0    0    0    0 -0.00000000000E+00 -0.00000000000E+00 -0.74505805969E-08  0.93827000000E+00  0.93827000000E+00 0.  1.
     999902    2    1    2    0    0 -0.21193855483E-01  0.91341595980E-02  0.88055279665E-03  0.10208348110E+01  0.10205735268E+01 0.  0.
     999903    2    3    3    0    0 -0.22123525233E-01  0.93041532563E-01  0.87681679981E-01  0.13259174336E+00  0.27318789374E-01 0.  0.
         14    1    1    2    0    0  0.21193855483E-01 -0.91341595980E-02 -0.88055279665E-03  0.23095189002E-01  0.00000000000E+00 0. -1.
     999901    1    3    3    0    0  0.92966974940E-03 -0.83907372965E-01 -0.86801127185E-01  0.88824306764E+00  0.88000000000E+00 0.  1.
        -11    1    4    4    0    0 -0.58082876736E-03  0.30082054988E-01  0.13635055999E-01  0.33036998463E-01  0.51100000000E-03 0. -1.
         11    1    4    4    0    0 -0.21542696465E-01  0.62959477575E-01  0.74046623983E-01  0.99554744898E-01  0.51100000000E-03 0.  1.
</event>
<event>
 8    1  0.1041149E+005  0.1043930E+01  0.7957747E-01            NaN
         13   -1    0    0    0    0  0.00000000000E+00  0.00000000000E+00  0.74505805969E-08  0.10566000000E+00  0.10566000000E+00 0.  1.
     999900   -1    0    0    0    0 -0.00000000000E+00 -0.00000000000E+00 -0.74505805969E-08  0.93827000000E+00  0.93827000000E+00 0.  1.
     999902    2    1    2    0    0 -0.99872508245E-03 -0.19688601492E-01  0.13032162261E-01  0.10202979088E+01  0.10200241894E+01 0.  0.
     999903    2    3    3    0    0 -0.14453013569E-01  0.40513447521E-01 -0.11861851566E+00  0.12836898475E+00  0.23622340229E-01 0.  0.
         14    1    1    2    0    0  0.99872508245E-03  0.19688601492E-01 -0.13032162261E-01  0.23632091184E-01  0.00000000000E+00 0. -1.
     999901    1    3    3    0    0  0.13454288486E-01 -0.60202049013E-01  0.13165067792E+00  0.89192892406E+00  0.88000000000E+00 0. -1.
        -11    1    4    4    0    0 -0.12585979252E-01  0.19609278575E-01 -0.89415607369E-01  0.92403152771E-01  0.51100000000E-03 0. -1.
         11    1    4    4    0    0 -0.18670343167E-02  0.20904168946E-01 -0.29202908291E-01  0.35965831981E-01  0.51100000000E-03 0.  1.
</event>
<event>
 8    1  0.1041149E+005  0.1043930E+01  0.7957747E-01            NaN
         13   -1    0    0    0    0  0.00000000000E+00  0.00000000000E+00  0.74505805969E-08  0.10566000000E+00  0.10566000000E+00 0. -1.
     999900   -1    0    0    0    0 -0.00000000000E+00 -0.00000000000E+00 -0.74505805969E-08  0.93827000000E+00  0.93827000000E+00 0. -1.
     999902    2    1    2    0    0 -0.11071396113E-01 -0.77562692475E-02 -0.19173308198E-01  0.10204704333E+01  0.10202007420E+01 0.  0.
     999903    2    3    3    0    0  0.98645049063E-01 -0.20085816520E-01 -0.82239346914E-01  0.13133206308E+00  0.18722042691E-01 0.  0.
         14    1    1    2    0    0  0.11071396113E-01  0.77562692475E-02  0.19173308198E-01  0.23459566743E-01  0.00000000000E+00 0. -1.
     999901    1    3    3    0    0 -0.10971644518E+00  0.12329547273E-01  0.63066038716E-01  0.88913837017E+00  0.88000000000E+00 0.  1.
        -11    1    4    4    0    0  0.62512102025E-01 -0.76073038743E-02 -0.41256783082E-01  0.75286235416E-01  0.51100000000E-03 0. -1.
         11    1    4    4    0    0  0.36132947038E-01 -0.12478512646E-01 -0.40982563832E-01  0.56045827665E-01  0.51100000000E-03 0.  1.
</event>
<event>
 8    1  0.1041149E+005  0.1043930E+01  0.7957747E-01            NaN
         13   -1    0    0    0    0  0.00000000000E+00  0.00000000000E+00  0.74505805969E-08  0.10566000000E+00  0.10566000000E+00 0. -1.
     999900   -1    0    0    0    0 -0.00000000000E+00 -0.00000000000E+00 -0.74505805969E-08  0.93827000000E+00  0.93827000000E+00 0.  1.
     999902    2    1    2    0    0  0.11762926145E-01  0.14090094737E-01  0.14203972441E-01  0.10207211647E+01  0.10204572730E+01 0.  0.
     999903    2    3    3    0    0  0.17003887706E-01 -0.10319722056E+00 -0.71952232893E-01  0.12875329888E+00  0.21482309599E-01 0.  0.
         14    1    1    2    0    0 -0.11762926145E-01 -0.14090094737E-01 -0.14203972441E-01  0.23208835263E-01  0.00000000000E+00 0. -1.
     999901    1    3    3    0    0 -0.52409615614E-02  0.11728731529E+00  0.86156205334E-01  0.89196786586E+00  0.88000000000E+00 0. -1.
        -11    1    4    4    0    0  0.13379007995E-01 -0.80286802851E-01 -0.44344611739E-01  0.92691284802E-01  0.51100000000E-03 0. -1.
         11    1    4    4    0    0  0.36248797108E-02 -0.22910417707E-01 -0.27607621155E-01  0.36062014076E-01  0.51100000000E-03 0.  1.
</event>
<event>
 8    1  0.1041149E+005  0.1043930E+01  0.7957747E-01            NaN
         13   -1    0    0    0    0  0.00000000000E+00  0.00000000000E+00  0.74505805969E-08  0.10566000000E+00  0.10566000000E+00 0. -1.
     999900   -1    0    0    0    0 -0.00000000000E+00 -0.00000000000E+00 -0.74505805969E-08  0.93827000000E+00  0.93827000000E+00 0.  1.
     999902    2    1    2    0    0  0.13412645567E-01 -0.14266864306E-01  0.12809207329E-01  0.10205308917E+01  0.10202626047E+01 0.  0.
     999903    2    3    3    0    0 -0.10914806433E+00 -0.64910361595E-01 -0.20999991259E-01  0.12995301560E+00  0.17892222962E-01 0.  0.
         14    1    1    2    0    0 -0.13412645567E-01  0.14266864306E-01 -0.12809207329E-01  0.23399108330E-01  0.00000000000E+00 0. -1.
     999901    1    3    3    0    0  0.12256070990E+00  0.50643497289E-01  0.33809198588E-01  0.89057787607E+00  0.88000000000E+00 0. -1.
        -11    1    4    4    0    0 -0.43454165862E-01 -0.36123992783E-01 -0.99903722310E-02  0.57387072095E-01  0.51100000000E-03 0.  1.
         11    1    4    4    0    0 -0.65693898468E-01 -0.28786368812E-01 -0.11009619028E-01  0.72565943510E-01  0.51100000000E-03 0. -1.
</event>
<event>
 8    1  0.1041149E+005  0.1043930E+01  0.7957747E-01            NaN
         13   -1    0    0    0    0  0.00000000000E+00  0.00000000000E+00  0.74505805969E-08  0.10566000000E+00  0.10566000000E+00 0. -1.
     999900   -1    0    0    0    0 -0.00000000000E+00 -0.00000000000E+00 -0.74505805969E-08  0.93827000000E+00  0.93827000000E+00 0.  1.
     999902    2    1    2    0    0 -0.23026686963E-02 -0.24132794557E-01  0.16097137812E-02  0.10196342136E+01  0.10193447132E+01 0.  0.
     999903    2    3    3    0    0  0.11127392828E-01 -0.12501494562E+00 -0.39764675304E-01  0.13280310513E+00  0.17403443047E-01 0.  0.
         14    1    1    2    0    0  0.23026686963E-02  0.24132794557E-01 -0.16097137812E-02  0.24295786357E-01  0.00000000000E+00 0.  1.
     999901    1    3    3    0    0 -0.13430061524E-01  0.10088215107E+00  0.41374389086E-01  0.88683110851E+00  0.88000000000E+00 0. -1.
        -11    1    4    4    0    0  0.68276033436E-02 -0.11880542146E+00 -0.35877223548E-01  0.12429312380E+00  0.51100000000E-03 0. -1.
         11    1    4    4    0    0  0.42997894844E-02 -0.62095241666E-02 -0.38874517563E-02  0.85099813245E-02  0.51100000000E-03 0.  1.
</event>
<event>
 8    1  0.1041149E+005  0.1043930E+01  0.7957747E-01            NaN
         13   -1    0    0    0    0  0.00000000000E+00  0.00000000000E+00  0.74505805969E-08  0.10566000000E+00  0.10566000000E+00 0.  1.
     999900   -1    0    0    0    0 -0.00000000000E+00 -0.00000000000E+00 -0.74505805969E-08  0.93827000000E+00  0.93827000000E+00 0.  1.
     999902    2    1    2    0    0  0.10414217538E-01  0.14781495471E-01 -0.14924816284E-01  0.10204843463E+01  0.10202149785E+01 0.  0.
     999903    2    3    3    0    0  0.12463764126E+00  0.36681381382E-01  0.15817652264E-01  0.13229985259E+00  0.19312884688E-01 0.  0.
         14    1    1    2    0    0 -0.10414217538E-01 -0.14781495471E-01  0.14924816284E-01  0.23445653679E-01  0.00000000000E+00 0.  1.
     999901    1    3    3    0    0 -0.11422342372E+00 -0.21899885911E-01 -0.30742468548E-01  0.88818449373E+00  0.88000000000E+00 0.  1.
        -11    1    4    4    0    0  0.27261999746E-01  0.10581644920E-01  0.11393212911E-01  0.31388760103E-01  0.51100000000E-03 0. -1.
         11    1    4    4    0    0  0.97375641509E-01  0.26099736461E-01  0.44244393522E-02  0.10091109249E+00  0.51100000000E-03 0.  1.
</event>
<event>
 8    1  0.1041149E+005  0.1043930E+01  0.7957747E-01            NaN
         13   -1    0    0    0    0  0.00000000000E+00  0.00000000000E+00  0.74505805969E-08  0.10566000000E+00  0.10566000000E+00 0.  1.
     999900   -1    0    0    0    0 -0.00000000000E+00 -0.00000000000E+00 -0.74505805969E-08  0.93827000000E+00  0.93827000000E+00 0. -1.
     999902    2    1    2    0    0  0.86903885016E-03 -0.65220562666E-03  0.23671474219E-01  0.10202336017E+01  0.10199583730E+01 0.  0.
     999903    2    3    3    0    0  0.98282199160E-01  0.76515260069E-01  0.36828741581E-01  0.13140445319E+00  0.19919799588E-01 0.  0.
         14    1    1    2    0    0 -0.86903885016E-03  0.65220562666E-03 -0.23671474219E-01  0.23696398300E-01  0.00000000000E+00 0. -1.
     999901    1    3    3    0    0 -0.97413160310E-01 -0.77167465695E-01 -0.13157267362E-01  0.88882914851E+00  0.88000000000E+00 0.  1.
        -11    1    4    4    0    0  0.27702722508E-01  0.12219787043E-01  0.13286507360E-01  0.33068964734E-01  0.51100000000E-03 0.  1.
         11    1    4    4    0    0  0.70579476652E-01  0.64295473026E-01  0.23542234221E-01  0.98335488452E-01  0.51100000000E-03 0. -1.
</event>
<event>
 8    1  0.1041149E+005  0.1043930E+01  0.7957747E-01            NaN
         13   -1    0    0    0    0  0.00000000000E+00  0.00000000000E+00  0.74505805969E-08  0.10566000000E+00  0.10566000000E+00 0. -1.
     999900   -1    0    0    0    0 -0.00000000000E+00 -0.00000000000E+00 -0.74505805969E-08  0.93827000000E+00  0.93827000000E+00 0.  1.
     999902    2    1    2    0    0 -0.18270958058E-01  0.11618459071E-01 -0.83912390454E-02  0.10207086867E+01  0.10204445079E+01 0.  0.
     999903    2    3    3    0    0 -0.13010814161E+00  0.22155879294E-01 -0.49400071405E-02  0.13356128977E+00  0.19879712077E-01 0.  0.
         14    1    1    2    0    0  0.18270958058E-01 -0.11618459071E-01  0.83912390454E-02  0.23221313319E-01  0.00000000000E+00 0. -1.
     999901    1    3    3    0    0  0.11183718355E+00 -0.10537420223E-01 -0.34512319049E-02  0.88714739691E+00  0.88000000000E+00 0. -1.
        -11    1    4    4    0    0 -0.10913946301E+00  0.25152214965E-01 -0.97510218842E-03  0.11200566169E+00  0.51100000000E-03 0. -1.
         11    1    4    4    0    0 -0.20968678600E-01 -0.29963356704E-02 -0.39649049521E-02  0.21555628080E-01  0.51100000000E-03 0.  1.
</event>
<event>
 8    1  0.1041149E+005  0.1043930E+01  0.7957747E-01            NaN
         13   -1    0    0    0    0  0.00000000000E+00  0.00000000000E+00  0.74505805969E-08  0.10566000000E+00  0.10566000000E+00 0. -1.
     999900   -1    0    0    0    0 -0.00000000000E+00 -0.00000000000E+00 -0.74505805969E-08  0.93827000000E+00  0.93827000000E+00 0. -1.
     999902    2    1    2    0    0 -0.16028674202E-01 -0.13164047338E-01  0.11560216040E-01  0.10201844923E+01  0.10199081083E+01 0.  0.
     999903    2    3    3    0    0 -0.98355698853E-01  0.29093934021E-01  0.81177817004E-01  0.13259782821E+00  0.21726609944E-01 0.  0.
         14    1    1    2    0    0  0.16028674202E-01  0.13164047338E-01 -0.11560216040E-01  0.23745507657E-01  0.00000000000E+00 0.  1.
     999901    1    3    3    0    0  0.82327024651E-01 -0.42257981359E-01 -0.69617600965E-01  0.88758666413E+00  0.88000000000E+00 0. -1.
        -11    1    4    4    0    0 -0.45296166939E-01  0.19299047967E-01  0.50484474813E-01  0.70520488583E-01  0.51100000000E-03 0. -1.
         11    1    4    4    0    0 -0.53059531914E-01  0.97948860532E-02  0.30693342191E-01  0.62077339630E-01  0.51100000000E-03 0.  1.
</event>
<event>
 8    1  0.1041149E+005  0.1043930E+01  0.7957747E-01            NaN
         13   -1    0    0    0    0  0.00000000000E+00  0.00000000000E+00  0.74505805969E-08  0.10566000000E+00  0.10566000000E+00 0. -1.
     999900   -1    0    0    0    0 -0.00000000000E+00 -0.00000000000E+00 -0.74505805969E-08  0.93827000000E+00  0.93827000000E+00 0.  1.
     999902    2    1    2    0    0  0.20693484593E-01  0.12740064569E-02 -0.11369870652E-01  0.10202843375E+01  0.10200102999E+01 0.  0.
     999903    2    3    3    0    0  0.18552737225E-01  0.11042005314E+00  0.63708768101E-01  0.13036622648E+00  0.19993841026E-01 0.  0.
         14    1    1    2    0    0 -0.20693484593E-01 -0.12740064569E-02  0.11369870652E-01  0.23645662514E-01  0.00000000000E+00 0.  1.
     999901    1    3    3    0    0  0.21407473688E-02 -0.10914604668E+00 -0.75078638754E-01  0.88991811101E+00  0.88000000000E+00 0. -1.
        -11    1    4    4    0    0  0.53737863359E-02  0.37264432985E-01  0.10955743694E-01  0.39214856702E-01  0.51100000000E-03 0. -1.
         11    1    4    4    0    0  0.13178950889E-01  0.73155620154E-01  0.52753024407E-01  0.91151369775E-01  0.51100000000E-03 0.  1.
</event>
<event>
 8    1  0.1041149E+005  0.1043930E+01  0.7957747E-01            NaN
         13   -1    0    0    0    0  0.00000000000E+00  0.00000000000E+00  0.74505805969E-08  0.10566000000E+00  0.10566000000E+00 0. -1.
     999900   -1    0    0    0    0 -0.00000000000E+00 -0.00000000000E+00 -0.74505805969E-08  0.93827000000E+00  0.93827000000E+00 0. -1.
     999902    2    1    2    0    0  0.13129050694E-01 -0.95116506769E-02  0.17110286840E-01  0.10203587169E+01  0.10200864207E+01 0.  0.
     999903    2    3    3    0    0 -0.10071308796E+00 -0.73126653321E-01  0.35549885607E-01  0.13055709863E+00  0.17050751413E-01 0.  0.
         14    1    1    2    0    0 -0.13129050694E-01  0.95116506769E-02 -0.17110286840E-01  0.23571283089E-01  0.00000000000E+00 0.  1.
     999901    1    3    3    0    0  0.11384213865E+00  0.63615002644E-01 -0.18439598767E-01  0.88980161828E+00  0.88000000000E+00 0. -1.
        -11    1    4    4    0    0 -0.97017361960E-02 -0.15541016037E-02  0.26383659677E-02  0.10186314986E-01  0.51100000000E-03 0. -1.
         11    1    4    4    0    0 -0.91011351762E-01 -0.71572551718E-01  0.32911519639E-01  0.12037078364E+00  0.51100000000E-03 0.  1.
</event>
<event>
 8    1  0.1041149E+005  0.1043930E+01  0.7957747E-01            NaN
         13   -1    0    0    0    0  0.00000000000E+00  0.00000000000E+00  0.74505805969E-08  0.10566000000E+00  0.10566000000E+00 0.  1.
     999900   -1    0    0    0    0 -0.00000000000E+00 -0.00000000000E+00 -0.74505805969E-08  0.93827000000E+00  0.93827000000E+00 0.  1.
     999902    2    1    2    0    0 -0.13435057803E-01 -0.18883406384E-01 -0.62933208290E-02  0.10199156355E+01  0.10196328819E+01 0.  0.
     999903    2    3    3    0    0 -0.12989106560E+00  0.64806991071E-02  0.52528427976E-02  0.13180604008E+00  0.20773816695E-01 0.  0.
         14    1    1    2    0    0  0.13435057803E-01  0.18883406384E-01  0.62933208290E-02  0.24014364491E-01  0.00000000000E+00 0.  1.
     999901    1    3    3    0    0  0.11645600780E+00 -0.25364105491E-01 -0.11546163627E-01  0.88810959543E+00  0.88000000000E+00 0.  1.
        -11    1    4    4    0    0 -0.36936052628E-01  0.84244086117E-02 -0.52014256537E-02  0.38243412427E-01  0.51100000000E-03 0. -1.
         11    1    4    4    0    0 -0.92955012973E-01 -0.19437095046E-02  0.10454268451E-01  0.93562627653E-01  0.51100000000E-03 0.  1.
</event>
<event>
 8    1  0.1041149E+005  0.1043930E+01  0.7957747E-01            NaN
         13   -1    0    0    0    0  0.00000000000E+00  0.00000000000E+00  0.74505805969E-08  0.10566000000E+00  0.10566000000E+00 0. -1.
     999900   -1    0    0    0    0 -0.00000000000E+00 -0.00000000000E+00 -0.74505805969E-08  0.93827000000E+00  0.93827000000E+00 0. -1.
     999902    2    1    2    0    0  0.16272387544E-01  0.15593144454E-01  0.55777606864E-02  0.10207125892E+01  0.10204485002E+01 0.  0.
     999903    2    3    3    0    0  0.11275469290E+00 -0.60136810074E-01 -0.23999092222E-01  0.13171391007E+00  0.21036657994E-01 0.  0.
         14    1    1    2    0    0 -0.16272387544E-01 -0.15593144454E-01 -0.55777606864E-02  0.23217410808E-01  0.00000000000E+00 0.  1.
     999901    1    3    3    0    0 -0.96482305360E-01  0.75729954528E-01  0.29576852908E-01  0.88899867913E+00  0.88000000000E+00 0.  1.
        -11    1    4    4    0    0  0.68306370241E-01 -0.28109330532E-01 -0.62798243504E-02  0.74132260139E-01  0.51100000000E-03 0.  1.
         11    1    4    4    0    0  0.44448322664E-01 -0.32027479542E-01 -0.17719267871E-01  0.57581649927E-01  0.51100000000E-03 0. -1.
</event>
<event>
 8    1  0.1041149E+005  0.1043930E+01  0.7957747E-01            NaN
         13   -1    0    0    0    0  0.00000000000E+00  0.00000000000E+00  0.74505805969E-08  0.10566000000E+00  0.10566000000E+00 0. -1.
     999900   -1    0    0    0    0 -0.00000000000E+00 -0.00000000000E+00 -0.74505805969E-08  0.93827000000E+00  0.93827000000E+00 0. -1.
     999902    2    1    2    0    0  0.17470071759E-02 -0.21420471945E-01  0.97066595976E-02  0.10203480600E+01  0.10200755147E+01 0.  0.
     999903    2    3    3    0    0  0.23137658725E-01  0.12561513493E-01  0.12738066182E+00  0.13160765580E+00  0.20039939774E-01 0.  0.
         14    1    1    2    0    0 -0.17470071759E-02  0.21420471945E-01 -0.97066595976E-02  0.23581939975E-01  0.00000000000E+00 0.  1.
     999901    1    3    3    0    0 -0.21390651550E-01 -0.33981985439E-01 -0.11767400222E+00  0.88874040423E+00  0.88000000000E+00 0. -1.
        -11    1    4    4    0    0  0.15950876545E-01  0.18000850938E-01  0.93360323684E-01  0.96409917833E-01  0.51100000000E-03 0.  1.
         11    1    4    4    0    0  0.71867821803E-02 -0.54393374447E-02  0.34020338136E-01  0.35197737964E-01  0.51100000000E-03 0. -1.
</event>
<event>
 8    1  0.1041149E+005  0.1043930E+01  0.7957747E-01            NaN
         13   -1    0    0    0    0  0.00000000000E+00  0.00000000000E+00  0.74505805969E-08  0.10566000000E+00  0.10566000000E+00 0. -1.
     999900   -1    0    0    0    0 -0.00000000000E+00 -0.00000000000E+00 -0.74505805969E-08  0.93827000000E+00  0.93827000000E+00 0.  1.
     999902    2    1    2    0    0  0.16628702986E-01  0.17800725403E-01 -0.15650077425E-01  0.10149765112E+01  0.10145634598E+01 0.  0.
     999903    2    3    3    0    0  0.29834562030E-01 -0.58024209604E-01  0.10317604583E+00  0.12366093130E+00  0.19743847260E-01 0.  0.
         14    1    1    2    0    0 -0.16628702986E-01 -0.17800725403E-01  0.15650077425E-01  0.28953488758E-01  0.00000000000E+00 0. -1.
     999901    1    3    3    0    0 -0.13205859044E-01  0.75824935007E-01 -0.11882612326E+00  0.89131557994E+00  0.88000000000E+00 0.  1.
        -11    1    4    4    0    0  0.17240283631E-01 -0.47525204993E-01  0.66964929634E-01  0.83907302490E-01  0.51100000000E-03 0. -1.
         11    1    4    4    0    0  0.12594278399E-01 -0.10499004611E-01  0.36211116197E-01  0.39753628808E-01  0.51100000000E-03 0.  1.
</event>
<event>
 8    1  0.1041149E+005  0.1043930E+01  0.7957747E-01            NaN
         13   -1    0    0    0    0  0.00000000000E+00  0.00000000000E+00  0.74505805969E-08  0.10566000000E+00  0.10566000000E+00 0.  1.
     999900   -1    0    0    0    0 -0.00000000000E+00 -0.00000000000E+00 -0.74505805969E-08  0.93827000000E+00  0.93827000000E+00 0.  1.
     999902    2    1    2    0    0  0.22305701418E-01  0.13106596348E-02  0.82365782793E-02  0.10201160678E+01  0.10198380697E+01 0.  0.
     999903    2    3    3    0    0 -0.72295329534E-01 -0.90504009909E-01 -0.51466192141E-01  0.12829562098E+00  0.19834488802E-01 0.  0.
         14    1    1    2    0    0 -0.22305701418E-01 -0.13106596348E-02 -0.82365782793E-02  0.23813932187E-01  0.00000000000E+00 0. -1.
     999901    1    3    3    0    0  0.94601030953E-01  0.91814669544E-01  0.59702770420E-01  0.89182044684E+00  0.88000000000E+00 0. -1.
        -11    1    4    4    0    0 -0.21462584614E-01 -0.39599089189E-01 -0.25820054333E-01  0.51919810571E-01  0.51100000000E-03 0. -1.
         11    1    4    4    0    0 -0.50832744920E-01 -0.50904920720E-01 -0.25646137807E-01  0.76375810405E-01  0.51100000000E-03 0.  1.
</event>
<event>
 8    1  0.1041149E+005  0.1043930E+01  0.7957747E-01            NaN
         13   -1    0    0    0    0  0.00000000000E+00  0.00000000000E+00  0.74505805969E-08  0.10566000000E+00  0.10566000000E+00 0. -1.
     999900   -1    0    0    0    0 -0.00000000000E+00 -0.00000000000E+00 -0.74505805969E-08  0.93827000000E+00  0.93827000000E+00 0.  1.
     999902    2    1    2    0    0 -0.11341484520E-02  0.15144852144E-01 -0.17044164290E-01  0.10211011504E+01  0.10208459252E+01 0.  0.
     999903    2    3    3    0    0 -0.15368979992E-01  0.13076281619E+00 -0.24888966494E-02  0.13330500268E+00  0.20710130099E-01 0.  0.
         14    1    1    2    0    0  0.11341484520E-02 -0.15144852144E-01  0.17044164290E-01  0.22828849632E-01  0.00000000000E+00 0. -1.
     999901    1    3    3    0    0  0.14234831540E-01 -0.11561796404E+00 -0.14555267640E-01  0.88779614769E+00  0.88000000000E+00 0.  1.
        -11    1    4    4    0    0 -0.20281675016E-01  0.98282163897E-01  0.32636102060E-04  0.10035433358E+00  0.51100000000E-03 0.  1.
         11    1    4    4    0    0  0.49126950244E-02  0.32480652292E-01 -0.25215327514E-02  0.32950669100E-01  0.51100000000E-03 0. -1.
</event>
<event>
 8    1  0.1041149E+005  0.1043930E+01  0.7957747E-01            NaN
         13   -1    0    0    0    0  0.00000000000E+00  0.00000000000E+00  0.74505805969E-08  0.10566000000E+00  0.10566000000E+00 0.  1.
     999900   -1    0    0    0    0 -0.00000000000E+00 -0.00000000000E+00 -0.74505805969E-08  0.93827000000E+00  0.93827000000E+00 0.  1.
     999902    2    1    2    0    0 -0.20460205618E-01 -0.95165216569E-02 -0.43118099056E-02  0.10209566262E+01  0.10206981222E+01 0.  0.
     999903    2    3    3    0    0  0.72344877061E-01 -0.10542625492E+00 -0.18828495542E-01  0.13077563649E+00  0.19981951636E-01 0.  0.
         14    1    1    2    0    0  0.20460205618E-01  0.95165216569E-02  0.43118099056E-02  0.22973373784E-01  0.00000000000E+00 0. -1.
     999901    1    3    3    0    0 -0.92805082679E-01  0.95909733265E-01  0.14516685637E-01  0.89018098973E+00  0.88000000000E+00 0. -1.
        -11    1    4    4    0    0  0.16157647500E-01 -0.36067686464E-01 -0.11740796866E-01  0.41231723365E-01  0.51100000000E-03 0. -1.
         11    1    4    4    0    0  0.56187229561E-01 -0.69358568458E-01 -0.70876986765E-02  0.89543913125E-01  0.51100000000E-03 0.  1.
</event>
<event>
 8    1  0.1041149E+005  0.1043930E+01  0.7957747E-01            NaN
         13   -1    0    0    0    0  0.00000000000E+00  0.00000000000E+00  0.74505805969E-08  0.10566000000E+00  0.10566000000E+00 0. -1.
     999900   -1    0    0    0    0 -0.00000000000E+00 -0.00000000000E+00 -0.74505805969E-08  0.93827000000E+00  0.93827000000E+00 0. -1.
     999902    2    1    2    0    0 -0.28540541833E-01  0.55035326228E-02 -0.19942799641E-03  0.10148629883E+01  0.10144466441E+01 0.  0.
     999903    2    3    3    0    0  0.30110556439E-01  0.72640307492E-01 -0.95236097933E-01  0.12526798688E+00  0.20949804416E-01 0.  0.
         14    1    1    2    0    0  0.28540541833E-01 -0.55035326228E-02  0.19942799641E-03  0.29067011731E-01  0.00000000000E+00 0.  1.
     999901    1    3    3    0    0 -0.58651098272E-01 -0.67136774869E-01  0.95036669937E-01  0.88959500139E+00  0.88000000000E+00 0.  1.
        -11    1    4    4    0    0  0.22809904028E-01  0.69952268069E-01 -0.85923683100E-01  0.11312272967E+00  0.51100000000E-03 0. -1.
         11    1    4    4    0    0  0.73006524112E-02  0.26880394223E-02 -0.93124148333E-02  0.12145257206E-01  0.51100000000E-03 0.  1.
</event>
<event>
 8    1  0.1041149E+005  0.1043930E+01  0.7957747E-01            NaN
         13   -1    0    0    0    0  0.00000000000E+00  0.00000000000E+00  0.74505805969E-08  0.10566000000E+00  0.10566000000E+00 0. -1.
     999900   -1    0    0    0    0 -0.00000000000E+00 -0.00000000000E+00 -0.74505805969E-08  0.93827000000E+00  0.93827000000E+00 0. -1.
     999902    2    1    2    0    0  0.11268492488E-02  0.24011431286E-01  0.26413495018E-02  0.10197474578E+01  0.10194606821E+01 0.  0.
     999903    2    3    3    0    0 -0.22336781258E-02  0.22443251696E-01  0.12746061353E+00  0.13093161576E+00  0.19702566814E-01 0.  0.
         14    1    1    2    0    0 -0.11268492488E-02 -0.24011431286E-01 -0.26413495018E-02  0.24182542232E-01  0.00000000000E+00 0. -1.
     999901    1    3    3    0    0  0.33605273745E-02  0.15681795895E-02 -0.12481926403E+00  0.88881584201E+00  0.88000000000E+00 0. -1.
        -11    1    4    4    0    0 -0.22555052972E-02  0.14202930590E-01  0.31670740911E-01  0.34786599321E-01  0.51100000000E-03 0. -1.
         11    1    4    4    0    0  0.21827171486E-04  0.82403211064E-02  0.95789872621E-01  0.96145016439E-01  0.51100000000E-03 0.  1.
</event>
<event>
 8    1  0.1041149E+005  0.1043930E+01  0.7957747E-01            NaN
         13   -1    0    0    0    0  0.00000000000E+00  0.00000000000E+00  0.74505805969E-08  0.10566000000E+00  0.10566000000E+00 0. -1.
     999900   -1    0    0    0    0 -0.00000000000E+00 -0.00000000000E+00 -0.74505805969E-08  0.93827000000E+00  0.93827000000E+00 0.  1.
     999902    2    1    2    0    0 -0.16663240087E-02  0.14267087642E-01 -0.16458548862E-01  0.10220848574E+01  0.10218513813E+01 0.  0.
     999903    2    3    3    0    0  0.83464932031E-01  0.24587187794E-01  0.95649906376E-01  0.13083733791E+00  0.19964461405E-01 0.  0.
         14    1    1    2    0    0  0.16663240087E-02 -0.14267087642E-01  0.16458548862E-01  0.21845142621E-01  0.00000000000E+00 0. -1.
     999901    1    3    3    0    0 -0.85131256040E-01 -0.10320100152E-01 -0.11210845524E+00  0.89124751947E+00  0.88000000000E+00 0.  1.
        -11    1    4    4    0    0  0.15777782141E-01 -0.26346970332E-02  0.21613291968E-01  0.26893782709E-01  0.51100000000E-03 0.  1.
         11    1    4    4    0    0  0.67687149890E-01  0.27221884827E-01  0.74036614409E-01  0.10394355520E+00  0.51100000000E-03 0. -1.
</event>
<event>
 8    1  0.1041149E+005  0.1043930E+01  0.7957747E-01            NaN
         13   -1    0    0    0    0  0.00000000000E+00  0.00000000000E+00  0.74505805969E-08  0.10566000000E+00  0.10566000000E+00 0. -1.
     999900   -1    0    0    0    0 -0.00000000000E+00 -0.00000000000E+00 -0.74505805969E-08  0.93827000000E+00  0.93827000000E+00 0.  1.
     999902    2    1    2    0    0  0.11305972961E-01  0.79696993102E-02  0.19161549421E-01  0.10202972662E+01  0.10200235317E+01 0.  0.
     999903    2    3    3    0    0 -0.52795259720E-01  0.85257874797E-01 -0.78949890256E-01  0.12916973058E+00  0.19886916893E-01 0.  0.
         14    1    1    2    0    0 -0.11305972961E-01 -0.79696993102E-02 -0.19161549421E-01  0.23632733822E-01  0.00000000000E+00 0. -1.
     999901    1    3    3    0    0  0.64101232680E-01 -0.77288175486E-01  0.98111439678E-01  0.89112753560E+00  0.88000000000E+00 0. -1.
        -11    1    4    4    0    0 -0.82380863063E-02  0.30602708652E-01 -0.25653167295E-01  0.40776683976E-01  0.51100000000E-03 0.  1.
         11    1    4    4    0    0 -0.44557173413E-01  0.54655166145E-01 -0.53296722961E-01  0.88393046606E-01  0.51100000000E-03 0. -1.
</event>
<event>
 8    1  0.1041149E+005  0.1043930E+01  0.7957747E-01            NaN
         13   -1    0    0    0    0  0.00000000000E+00  0.00000000000E+00  0.74505805969E-08  0.10566000000E+00  0.10566000000E+00 0.  1.
     999900   -1    0    0    0    0 -0.00000000000E+00 -0.00000000000E+00 -0.74505805969E-08  0.93827000000E+00  0.93827000000E+00 0.  1.
     999902    2    1    2    0    0  0.10578842261E-02 -0.28050786346E-02  0.95065072326E-02  0.10339619879E+01  0.10339139380E+01 0.  0.
     999903    2    3    3    0    0 -0.12937738980E+00  0.32421062495E-01 -0.44324844341E-01  0.14202473892E+00  0.20413239694E-01 0.  0.
         14    1    1    2    0    0 -0.10578842261E-02  0.28050786346E-02 -0.95065072326E-02  0.99680120860E-02  0.00000000000E+00 0. -1.
     999901    1    3    3    0    0  0.13043527403E+00 -0.35226141130E-01  0.53831351574E-01  0.89193724899E+00  0.88000000000E+00 0. -1.
        -11    1    4    4    0    0 -0.59929198876E-01  0.19319296812E-01 -0.11138213332E-01  0.63945797551E-01  0.51100000000E-03 0.  1.
         11    1    4    4    0    0 -0.69448190924E-01  0.13101765683E-01 -0.33186631009E-01  0.78078941370E-01  0.51100000000E-03 0. -1.
</event>
<event>
 8    1  0.1041149E+005  0.1043930E+01  0.7957747E-01            NaN
         13   -1    0    0    0    0  0.00000000000E+00  0.00000000000E+00  0.74505805969E-08  0.10566000000E+00  0.10566000000E+00 0. -1.
     999900   -1    0    0    0    0 -0.00000000000E+00 -0.00000000000E+00 -0.74505805969E-08  0.93827000000E+00  0.93827000000E+00 0. -1.
     999902    2    1    2    0    0 -0.14469831454E-01  0.73064278768E-03 -0.17758897589E-01  0.10210108311E+01  0.10207535593E+01 0.  0.
     999903    2    3    3    0    0  0.12325278641E+00  0.30008569119E-01 -0.19353190493E-01  0.12981654349E+00  0.19647529170E-01 0.  0.
         14    1    1    2    0    0  0.14469831454E-01 -0.73064278768E-03  0.17758897589E-01  0.22919168937E-01  0.00000000000E+00 0. -1.
     999901    1    3    3    0    0 -0.13772261786E+00 -0.29277926332E-01  0.15942929043E-02  0.89119428758E+00  0.88000000000E+00 0. -1.
        -11    1    4    4    0    0  0.91222259788E-01  0.30049152375E-01 -0.10738600067E-01  0.96643835249E-01  0.51100000000E-03 0.  1.
         11    1    4    4    0    0  0.32030526620E-01 -0.40583255370E-04 -0.86145904264E-02  0.33172708236E-01  0.51100000000E-03 0. -1.
</event>
<event>
 8    1  0.1041149E+005  0.1043930E+01  0.7957747E-01            NaN
         13   -1    0    0    0    0  0.00000000000E+00  0.00000000000E+00  0.74505805969E-08  0.10566000000E+00  0.10566000000E+00 0. -1.
     999900   -1    0    0    0    0 -0.00000000000E+00 -0.00000000000E+00 -0.74505805969E-08  0.93827000000E+00  0.93827000000E+00 0. -1.
     999902    2    1    2    0    0 -0.12573304481E-01  0.15593382613E-01  0.14902095737E-01  0.10189637423E+01  0.10186578395E+01 0.  0.
     999903    2    3    3    0    0 -0.10857269464E+00 -0.50377338542E-01  0.50139238025E-01  0.13058900426E+00  0.14616380735E-01 0.  0.
         14    1    1    2    0    0  0.12573304481E-01 -0.15593382613E-01 -0.14902095737E-01  0.24966257714E-01  0.00000000000E+00 0.  1.
     999901    1    3    3    0    0  0.95999390154E-01  0.65970721155E-01 -0.35237142288E-01  0.88837473802E+00  0.88000000000E+00 0. -1.
        -11    1    4    4    0    0 -0.13071857856E-01 -0.11668143432E-01  0.70422589717E-02  0.18891097675E-01  0.51100000000E-03 0.  1.
         11    1    4    4    0    0 -0.95500836780E-01 -0.38709195111E-01  0.43096979053E-01  0.11169790659E+00  0.51100000000E-03 0. -1.
</event>
<event>
 8    1  0.1041149E+005  0.1043930E+01  0.7957747E-01            NaN
         13   -1    0    0    0    0  0.00000000000E+00  0.00000000000E+00  0.74505805969E-08  0.10566000000E+00  0.10566000000E+00 0. -1.
     999900   -1    0    0    0    0 -0.00000000000E+00 -0.00000000000E+00 -0.74505805969E-08  0.93827000000E+00  0.93827000000E+00 0. -1.
     999902    2    1    2    0    0  0.94724432775E-02 -0.12385588831E-01  0.17651057489E-01  0.10203781461E+01  0.10201063039E+01 0.  0.
     999903    2    3    3    0    0 -0.67531767649E-01 -0.71408864832E-01  0.86577483829E-01  0.13236674534E+00  0.19118811332E-01 0.  0.
         14    1    1    2    0    0 -0.94724432775E-02  0.12385588831E-01 -0.17651057489E-01  0.23551853914E-01  0.00000000000E+00 0.  1.
     999901    1    3    3    0    0  0.77004210927E-01  0.59023276002E-01 -0.68926426340E-01  0.88801140075E+00  0.88000000000E+00 0. -1.
        -11    1    4    4    0    0 -0.23502598032E-01 -0.12695680205E-01  0.21965302689E-01  0.34587397319E-01  0.51100000000E-03 0.  1.
         11    1    4    4    0    0 -0.44029169618E-01 -0.58713184627E-01  0.64612181139E-01  0.97779348018E-01  0.51100000000E-03 0. -1.
</event>
<event>
 8    1  0.1041149E+005  0.1043930E+01  0.7957747E-01            NaN
         13   -1    0    0    0    0  0.00000000000E+00  0.00000000000E+00  0.74505805969E-08  0.10566000000E+00  0.10566000000E+00 0. -1.
     999900   -1    0    0    0    0 -0.00000000000E+00 -0.00000000000E+00 -0.74505805969E-08  0.93827000000E+00  0.93827000000E+00 0. -1.
     999902    2    1    2    0    0  0.14486501538E-01  0.11120128128E-01  0.15490274972E-01  0.10199828792E+01  0.10197017256E+01 0.  0.
     999903    2    3    3    0    0 -0.82180862743E-01 -0.40252806305E-01 -0.86594891977E-01  0.12734345645E+00  0.18539092987E-01 0.  0.
         14    1    1    2    0    0 -0.14486501538E-01 -0.11120128128E-01 -0.15490274972E-01  0.23947120810E-01  0.00000000000E+00 0. -1.
     999901    1    3    3    0    0  0.96667364281E-01  0.51372934433E-01  0.10208516695E+00  0.89263942273E+00  0.88000000000E+00 0.  1.
        -11    1    4    4    0    0 -0.72475154419E-01 -0.36000657994E-01 -0.83527084083E-01  0.11630017317E+00  0.51100000000E-03 0.  1.
         11    1    4    4    0    0 -0.97057083244E-02 -0.42521483108E-02 -0.30678078939E-02  0.11043283280E-01  0.51100000000E-03 0. -1.
</event>
<event>
 7    1  0.1041149E+005  0.1043930E+01  0.7957747E-01            NaN
         13   -1    0    0    0    0  0.00000000000E+00  0.00000000000E+00  0.74505805969E-08  0.10566000000E+00  0.10566000000E+00 0. -1.
     999900   -1    0    0    0    0 -0.00000000000E+00 -0.00000000000E+00 -0.74505805969E-08  0.93827000000E+00  0.93827000000E+00 0.  1.
     999902    2    1    2    0    0  0.30971467250E-02 -0.13363668881E-01 -0.19263275942E-01  0.10202814532E+01  0.10200073480E+01 0.  0.
         14    1    1    2    0    0 -0.30971467250E-02  0.13363668881E-01  0.19263275942E-01  0.23648546759E-01  0.00000000000E+00 0. -1.
     999901    1    3    3    0    0  0.22715204627E-01 -0.10461144358E+00  0.72400398916E-01  0.88943878508E+00  0.88000000000E+00 0.  1.
        -11    1    3    3    0    0 -0.68846798730E-02  0.37322556719E-01 -0.37654795749E-01  0.53465099092E-01  0.51100000000E-03 0. -1.
         11    1    3    3    0    0 -0.12733378029E-01  0.53925217984E-01 -0.54008879109E-01  0.77377569064E-01  0.51100000000E-03 0.  1.
</event>
<event>
 8    1  0.1041149E+005  0.1043930E+01  0.7957747E-01            NaN
         13   -1    0    0    0    0  0.00000000000E+00  0.00000000000E+00  0.74505805969E-08  0.10566000000E+00  0.10566000000E+00 0.  1.
     999900   -1    0    0    0    0 -0.00000000000E+00 -0.00000000000E+00 -0.74505805969E-08  0.93827000000E+00  0.93827000000E+00 0. -1.
     999902    2    1    2    0    0  0.59394662153E-02 -0.24160374558E-01  0.10127843762E-01  0.10170678672E+01  0.10167130728E+01 0.  0.
     999903    2    3    3    0    0  0.67631390666E-01 -0.52252089044E-01 -0.93610522889E-01  0.12838531047E+00  0.20385586508E-01 0.  0.
         14    1    1    2    0    0 -0.59394662153E-02  0.24160374558E-01 -0.10127843762E-01  0.26862132770E-01  0.00000000000E+00 0. -1.
     999901    1    3    3    0    0 -0.61691924451E-01  0.28091714486E-01  0.10373836665E+00  0.88868255675E+00  0.88000000000E+00 0.  1.
        -11    1    4    4    0    0  0.62177791316E-02 -0.14403352601E-01 -0.15580529664E-01  0.22116314546E-01  0.51100000000E-03 0. -1.
         11    1    4    4    0    0  0.61413611535E-01 -0.37848736442E-01 -0.78029993225E-01  0.10626899593E+00  0.51100000000E-03 0.  1.
</event>
<event>
 8    1  0.1041149E+005  0.1043930E+01  0.7957747E-01            NaN
         13   -1    0    0    0    0  0.00000000000E+00  0.00000000000E+00  0.74505805969E-08  0.10566000000E+00  0.10566000000E+00 0.  1.
     999900   -1    0    0    0    0 -0.00000000000E+00 -0.00000000000E+00 -0.74505805969E-08  0.93827000000E+00  0.93827000000E+00 0.  1.
     999902    2    1    2    0    0 -0.19155935331E-01 -0.13790962095E-01  0.55326732764E-04  0.10203261114E+01  0.10200530526E+01 0.  0.
     999903    2    3    3    0    0  0.73572167272E-01 -0.75497324759E-03 -0.10435433912E+00  0.12922016020E+00  0.19864237406E-01 0.  0.
         14    1    1    2    0    0  0.19155935331E-01  0.13790962095E-01 -0.55326732764E-04  0.23603888556E-01  0.00000000000E+00 0. -1.
     999901    1    3    3    0    0 -0.92728102602E-01 -0.13035988848E-01  0.10440966585E+00  0.89110595124E+00  0.88000000000E+00 0. -1.
        -11    1    4    4    0    0  0.59466920516E-01 -0.38823392329E-02 -0.69906218841E-01  0.91861459531E-01  0.51100000000E-03 0.  1.
         11    1    4    4    0    0  0.14105246756E-01  0.31273659853E-02 -0.34448120278E-01  0.37358700670E-01  0.51100000000E-03 0. -1.
</event>
<event>
 8    1  0.1041149E+005  0.1043930E+01  0.7957747E-01            NaN
         13   -1    0    0    0    0  0.00000000000E+00  0.00000000000E+00  0.74505805969E-08  0.10566000000E+00  0.10566000000E+00 0.  1.
     999900   -1    0    0    0    0 -0.00000000000E+00 -0.00000000000E+00 -0.74505805969E-08  0.93827000000E+00  0.93827000000E+00 0. -1.
     999902    2    1    2    0    0 -0.98453112338E-02  0.64711978150E-02 -0.19362968286E-01  0.10212643631E+01  0.10210128149E+01 0.  0.
     999903    2    3    3    0    0 -0.10645538799E+00  0.43342032067E-01  0.59538599128E-01  0.13170355986E+00  0.24283770684E-01 0.  0.
         14    1    1    2    0    0  0.98453112338E-02 -0.64711978150E-02  0.19362968286E-01  0.22665636882E-01  0.00000000000E+00 0.  1.
     999901    1    3    3    0    0  0.96610076755E-01 -0.36870834252E-01 -0.78901567414E-01  0.88956080326E+00  0.88000000000E+00 0. -1.
        -11    1    4    4    0    0 -0.83390354570E-01  0.31940075204E-01  0.34305012827E-01  0.95661981296E-01  0.51100000000E-03 0. -1.
         11    1    4    4    0    0 -0.23065033418E-01  0.11401956862E-01  0.25233586302E-01  0.36041578566E-01  0.51100000000E-03 0.  1.
</event>
<event>
 8    1  0.1041149E+005  0.1043930E+01  0.7957747E-01            NaN
         13   -1    0    0    0    0  0.00000000000E+00  0.00000000000E+00  0.74505805969E-08  0.10566000000E+00  0.10566000000E+00 0. -1.
     999900   -1    0    0    0    0 -0.00000000000E+00 -0.00000000000E+00 -0.74505805969E-08  0.93827000000E+00  0.93827000000E+00 0. -1.
     999902    2    1    2    0    0 -0.16269844229E-01 -0.52067197503E-02  0.20640004317E-01  0.10171376963E+01  0.10167847686E+01 0.  0.
     999903    2    3    3    0    0  0.98132091630E-01  0.62862928558E-01  0.45718172665E-01  0.12677249339E+00  0.19986459752E-01 0.  0.
         14    1    1    2    0    0  0.16269844229E-01  0.52067197503E-02 -0.20640004317E-01  0.26792303745E-01  0.00000000000E+00 0. -1.
     999901    1    3    3    0    0 -0.11440193586E+00 -0.68069648309E-01 -0.25078168348E-01  0.89036520287E+00  0.88000000000E+00 0. -1.
        -11    1    4    4    0    0  0.56942156866E-01  0.47415399715E-01  0.25617376795E-01  0.78403701912E-01  0.51100000000E-03 0. -1.
         11    1    4    4    0    0  0.41189934764E-01  0.15447528843E-01  0.20100795870E-01  0.48368791475E-01  0.51100000000E-03 0.  1.
</event>
<event>
 8    1  0.1041149E+005  0.1043930E+01  0.7957747E-01            NaN
         13   -1    0    0    0    0  0.00000000000E+00  0.00000000000E+00  0.74505805969E-08  0.10566000000E+00  0.10566000000E+00 0. -1.
     999900   -1    0    0    0    0 -0.00000000000E+00 -0.00000000000E+00 -0.74505805969E-08  0.93827000000E+00  0.93827000000E+00 0.  1.
     999902    2    1    2    0    0  0.11857815664E-01 -0.12720589698E-01  0.15963030413E-01  0.10203240784E+01  0.10200509720E+01 0.  0.
     999903    2    3    3    0    0  0.12051618672E+00 -0.22317618060E-01 -0.43810192601E-01  0.13157687996E+00  0.19259154361E-01 0.  0.
         14    1    1    2    0    0 -0.11857815664E-01  0.12720589698E-01 -0.15963030413E-01  0.23605921600E-01  0.00000000000E+00 0.  1.
     999901    1    3    3    0    0 -0.10865837105E+00  0.95970283614E-02  0.59773223015E-01  0.88874719844E+00  0.88000000000E+00 0. -1.
        -11    1    4    4    0    0  0.38256944848E-01 -0.89217708184E-02 -0.48805875258E-02  0.39588799922E-01  0.51100000000E-03 0. -1.
         11    1    4    4    0    0  0.82259241868E-01 -0.13395847241E-01 -0.38929605076E-01  0.91988080034E-01  0.51100000000E-03 0.  1.
</event>
<event>
 8    1  0.1041149E+005  0.1043930E+01  0.7957747E-01            NaN
         13   -1    0    0    0    0  0.00000000000E+00  0.00000000000E+00  0.74505805969E-08  0.10566000000E+00  0.10566000000E+00 0.  1.
     999900   -1    0    0    0    0 -0.00000000000E+00 -0.00000000000E+00 -0.74505805969E-08  0.93827000000E+00  0.93827000000E+00 0.  1.
     999902    2    1    2    0    0  0.21678668784E-01  0.67110727517E-02 -0.84287154385E-02  0.10197216043E+01  0.10194342077E+01 0.  0.
     999903    2    3    3    0    0  0.82824391362E-01  0.96704801835E-01 -0.23209578621E-01  0.13289797778E+00  0.30190883651E-01 0.  0.
         14    1    1    2    0    0 -0.21678668784E-01 -0.67110727517E-02  0.84287154385E-02  0.24208395686E-01  0.00000000000E+00 0.  1.
     999901    1    3    3    0    0 -0.61145722578E-01 -0.89993729084E-01  0.14780863183E-01  0.88682362653E+00  0.88000000000E+00 0. -1.
        -11    1    4    4    0    0  0.18027178061E-01  0.42252825777E-01 -0.12291608839E-01  0.47556547434E-01  0.51100000000E-03 0. -1.
         11    1    4    4    0    0  0.64797213301E-01  0.54451976058E-01 -0.10917969782E-01  0.85341430345E-01  0.51100000000E-03 0.  1.
</event>
<event>
 8    1  0.1041149E+005  0.1043930E+01  0.7957747E-01            NaN
         13   -1    0    0    0    0  0.00000000000E+00  0.00000000000E+00  0.74505805969E-08  0.10566000000E+00  0.10566000000E+00 0. -1.
     999900   -1    0    0    0    0 -0.00000000000E+00 -0.00000000000E+00 -0.74505805969E-08  0.93827000000E+00  0.93827000000E+00 0. -1.
     999902    2    1    2    0    0 -0.12215608174E-03 -0.20140804474E-01 -0.13133407221E-01  0.10198851812E+01  0.10196017014E+01 0.  0.
     999903    2    3    3    0    0  0.42639779608E-01 -0.80748995327E-01  0.91371964146E-01  0.13060271279E+00  0.19227108569E-01 0.  0.
         14    1    1    2    0    0  0.12215608174E-03  0.20140804474E-01  0.13133407221E-01  0.24044818823E-01  0.00000000000E+00 0.  1.
     999901    1    3    3    0    0 -0.42761935690E-01  0.60608190853E-01 -0.10450537137E+00  0.88928246839E+00  0.88000000000E+00 0.  1.
        -11    1    4    4    0    0  0.18360141220E-01 -0.46882751483E-01  0.60658322413E-01  0.78833878322E-01  0.51100000000E-03 0. -1.
         11    1    4    4    0    0  0.24279638388E-01 -0.33866243844E-01  0.30713641733E-01  0.51768834465E-01  0.51100000000E-03 0.  1.
</event>
<event>
 8    1  0.1041149E+005  0.1043930E+01  0.7957747E-01            NaN
         13   -1    0    0    0    0  0.00000000000E+00  0.00000000000E+00  0.74505805969E-08  0.10566000000E+00  0.10566000000E+00 0. -1.
     999900   -1    0    0    0    0 -0.00000000000E+00 -0.00000000000E+00 -0.74505805969E-08  0.93827000000E+00  0.93827000000E+00 0. -1.
     999902    2    1    2    0    0 -0.21894184227E-01  0.93223556468E-02 -0.19892415073E-02  0.10200507475E+01  0.10197712041E+01 0.  0.
     999903    2    3    3    0    0  0.54221544847E-02 -0.12513664046E+00  0.23303436634E-01  0.12905965689E+00  0.20609860063E-01 0.  0.
         14    1    1    2    0    0  0.21894184227E-01 -0.93223556468E-02  0.19892415073E-02  0.23879252491E-01  0.00000000000E+00 0. -1.
     999901    1    3    3    0    0 -0.27316338711E-01  0.13445899611E+00 -0.25292678141E-01  0.89099109062E+00  0.88000000000E+00 0.  1.
        -11    1    4    4    0    0  0.11757564257E-01 -0.10786803739E+00  0.20893019376E-01  0.11050128138E+00  0.51100000000E-03 0. -1.
         11    1    4    4    0    0 -0.63354097726E-02 -0.17268603073E-01  0.24104172576E-02  0.18558375507E-01  0.51100000000E-03 0.  1.
</event>
<event>
 8    1  0.1041149E+005  0.1043930E+01  0.7957747E-01            NaN
         13   -1    0    0    0    0  0.00000000000E+00  0.00000000000E+00  0.74505805969E-08  0.10566000000E+00  0.10566000000E+00 0. -1.
     999900   -1    0    0    0    0 -0.00000000000E+00 -0.00000000000E+00 -0.74505805969E-08  0.93827000000E+00  0.93827000000E+00 0. -1.
     999902    2    1    2    0    0 -0.26877600016E-01 -0.65978697935E-03 -0.11859021537E-01  0.10145450193E+01  0.10141193810E+01 0.  0.
     999903    2    3    3    0    0 -0.11231313827E+00  0.29937779140E-01 -0.52348923880E-01  0.12895206849E+00  0.19434878199E-01 0.  0.
         14    1    1    2    0    0  0.26877600016E-01  0.65978697935E-03  0.11859021537E-01  0.29384980743E-01  0.00000000000E+00 0.  1.
     999901    1    3    3    0    0  0.85435538250E-01 -0.30597566120E-01  0.40489902343E-01  0.88559295076E+00  0.88000000000E+00 0.  1.
        -11    1    4    4    0    0 -0.11835677694E-01  0.71998683276E-02 -0.11922303685E-01  0.18284523964E-01  0.51100000000E-03 0. -1.
         11    1    4    4    0    0 -0.10047746057E+00  0.22737910813E-01 -0.40426620194E-01  0.11066754453E+00  0.51100000000E-03 0.  1.
</event>
<event>
 8    1  0.1041149E+005  0.1043930E+01  0.7957747E-01            NaN
         13   -1    0    0    0    0  0.00000000000E+00  0.00000000000E+00  0.74505805969E-08  0.10566000000E+00  0.10566000000E+00 0. -1.
     999900   -1    0    0    0    0 -0.00000000000E+00 -0.00000000000E+00 -0.74505805969E-08  0.93827000000E+00  0.93827000000E+00 0.  1.
     999902    2    1    2    0    0 -0.19983022080E-01 -0.17087671949E-01 -0.15155892752E-01  0.10135818404E+01  0.10131274039E+01 0.  0.
     999903    2    3    3    0    0 -0.79029205148E-01 -0.88336068603E-01 -0.44685297070E-01  0.12823740380E+00  0.19979481373E-01 0.  0.
         14    1    1    2    0    0  0.19983022080E-01  0.17087671949E-01  0.15155892752E-01  0.30348159568E-01  0.00000000000E+00 0.  1.
     999901    1    3    3    0    0  0.59046183068E-01  0.71248396655E-01  0.29529404318E-01  0.88534443663E+00  0.88000000000E+00 0.  1.
        -11    1    4    4    0    0 -0.20811665589E-01 -0.36544471968E-01 -0.11991866212E-01  0.43734309555E-01  0.51100000000E-03 0. -1.
         11    1    4    4    0    0 -0.58217539559E-01 -0.51791596636E-01 -0.32693430858E-01  0.84503094243E-01  0.51100000000E-03 0.  1.
</event>
<event>
 8    1  0.1041149E+005  0.1043930E+01  0.7957747E-01            NaN
         13   -1    0    0    0    0  0.00000000000E+00  0.00000000000E+00  0.74505805969E-08  0.10566000000E+00  0.10566000000E+00 0. -1.
     999900   -1    0    0    0    0 -0.00000000000E+00 -0.00000000000E+00 -0.74505805969E-08  0.93827000000E+00  0.93827000000E+00 0. -1.
     999902    2    1    2    0    0 -0.43766738976E-02  0.20091848603E-01 -0.12566760223E-01  0.10198310142E+01  0.10195462404E+01 0.  0.
     999903    2    3    3    0    0  0.89472986091E-01  0.56479041351E-01 -0.75990593011E-01  0.13182517578E+00  0.20199242360E-01 0.  0.
         14    1    1    2    0    0  0.43766738976E-02 -0.20091848603E-01  0.12566760223E-01  0.24098985813E-01  0.00000000000E+00 0.  1.
     999901    1    3    3    0    0 -0.93849659988E-01 -0.36387192748E-01  0.63423832788E-01  0.88800583841E+00  0.88000000000E+00 0.  1.
        -11    1    4    4    0    0  0.82509882379E-01  0.55328916462E-01 -0.64885411890E-01  0.11865726899E+00  0.51100000000E-03 0.  1.
         11    1    4    4    0    0  0.69631037117E-02  0.11501248897E-02 -0.11105181121E-01  0.13167906792E-01  0.51100000000E-03 0. -1.
</event>
<event>
 8    1  0.1041149E+005  0.1043930E+01  0.7957747E-01            NaN
         13   -1    0    0    0    0  0.00000000000E+00  0.00000000000E+00  0.74505805969E-08  0.10566000000E+00  0.10566000000E+00 0. -1.
     999900   -1    0    0    0    0 -0.00000000000E+00 -0.00000000000E+00 -0.74505805969E-08  0.93827000000E+00  0.93827000000E+00 0. -1.
     999902    2    1    2    0    0  0.18731471112E-01  0.13098622320E-01  0.74854573178E-02  0.10198785138E+01  0.10195948749E+01 0.  0.
     999903    2    3    3    0    0 -0.12252793805E+00 -0.19978294686E-01 -0.21115884413E-01  0.12754094323E+00  0.20213455055E-01 0.  0.
         14    1    1    2    0    0 -0.18731471112E-01 -0.13098622320E-01 -0.74854573178E-02  0.24051486190E-01  0.00000000000E+00 0.  1.
     999901    1    3    3    0    0  0.14125940916E+00  0.33076917006E-01  0.28601341731E-01  0.89233757058E+00  0.88000000000E+00 0. -1.
        -11    1    4    4    0    0 -0.71797706382E-01 -0.15105995453E-01 -0.29386274402E-02  0.73430228057E-01  0.51100000000E-03 0. -1.
         11    1    4    4    0    0 -0.50730231666E-01 -0.48722992334E-02 -0.18177256973E-01  0.54110715175E-01  0.51100000000E-03 0.  1.
</event>
<event>
 8    1  0.1041149E+005  0.1043930E+01  0.7957747E-01            NaN
         13   -1    0    0    0    0  0.00000000000E+00  0.00000000000E+00  0.74505805969E-08  0.10566000000E+00  0.10566000000E+00 0.  1.
     999900   -1    0    0    0    0 -0.00000000000E+00 -0.00000000000E+00 -0.74505805969E-08  0.93827000000E+00  0.93827000000E+00 0.  1.
     999902    2    1    2    0    0  0.14800815084E-01  0.18313488435E-01 -0.33877558457E-02  0.10201408244E+01  0.10198634108E+01 0.  0.
     999903    2    3    3    0    0  0.76728964072E-03 -0.73080080341E-01  0.10422771831E+00  0.12877624438E+00  0.19458082510E-01 0.  0.
         14    1    1    2    0    0 -0.14800815084E-01 -0.18313488435E-01  0.33877558457E-02  0.23789175595E-01  0.00000000000E+00 0. -1.
     999901    1    3    3    0    0  0.14033525444E-01  0.91393568775E-01 -0.10761547416E+00  0.89136458003E+00  0.88000000000E+00 0.  1.
        -11    1    4    4    0    0  0.48754954507E-02 -0.70664696269E-01  0.97876526594E-01  0.12081947415E+00  0.51100000000E-03 0. -1.
         11    1    4    4    0    0 -0.41082058100E-02 -0.24153840717E-02  0.63511917197E-02  0.79567702274E-02  0.51100000000E-03 0.  1.
</event>
<event>
 8    1  0.1041149E+005  0.1043930E+01  0.7957747E-01            NaN
         13   -1    0    0    0    0  0.00000000000E+00  0.00000000000E+00  0.74505805969E-08  0.10566000000E+00  0.10566000000E+00 0.  1.
     999900   -1    0    0    0    0 -0.00000000000E+00 -0.00000000000E+00 -0.74505805969E-08  0.93827000000E+00  0.93827000000E+00 0. -1.
     999902    2    1    2    0    0 -0.15086843624E-04  0.20060109751E-01 -0.12387479215E-01  0.10203533617E+01  0.10200809404E+01 0.  0.
     999903    2    3    3    0    0  0.10441749839E+00 -0.26907855796E-01  0.68299312480E-01  0.12927395281E+00  0.20491757298E-01 0.  0.
         14    1    1    2    0    0  0.15086843624E-04 -0.20060109751E-01  0.12387479215E-01  0.23576638270E-01  0.00000000000E+00 0.  1.
     999901    1    3    3    0    0 -0.10443258523E+00  0.46967965546E-01 -0.80686791695E-01  0.89107940892E+00  0.88000000000E+00 0. -1.
        -11    1    4    4    0    0  0.43631123158E-01 -0.10635695982E-01  0.40510316694E-01  0.60482557955E-01  0.51100000000E-03 0.  1.
         11    1    4    4    0    0  0.60786375229E-01 -0.16272159814E-01  0.27788995785E-01  0.68791394856E-01  0.51100000000E-03 0. -1.
</event>
<event>
 8    1  0.1041149E+005  0.1043930E+01  0.7957747E-01            NaN
         13   -1    0    0    0    0  0.00000000000E+00  0.00000000000E+00  0.74505805969E-08  0.10566000000E+00  0.10566000000E+00 0. -1.
     999900   -1    0    0    0    0 -0.00000000000E+00 -0.00000000000E+00 -0.74505805969E-08  0.93827000000E+00  0.93827000000E+00 0. -1.
     999902    2    1    2    0    0 -0.23993361686E-01 -0.27022621962E-02  0.47947284285E-02  0.10193134802E+01  0.10190161912E+01 0.  0.
     999903    2    3    3    0    0  0.21625284098E-01 -0.77849417123E-02 -0.12491880807E+00  0.12862133585E+00  0.20260335524E-01 0.  0.
         14    1    1    2    0    0  0.23993361686E-01  0.27022621962E-02 -0.47947284285E-02  0.24616519792E-01  0.00000000000E+00 0. -1.
     999901    1    3    3    0    0 -0.45618645784E-01  0.50826795161E-02  0.12971353650E+00  0.89069214436E+00  0.88000000000E+00 0.  1.
        -11    1    4    4    0    0  0.19789024473E-01 -0.10914243943E-02 -0.57051332674E-01  0.60397950112E-01  0.51100000000E-03 0. -1.
         11    1    4    4    0    0  0.18362596243E-02 -0.66935173179E-02 -0.67867475397E-01  0.68223385735E-01  0.51100000000E-03 0.  1.
</event>
<event>
 8    1  0.1041149E+005  0.1043930E+01  0.7957747E-01            NaN
         13   -1    0    0    0    0  0.00000000000E+00  0.00000000000E+00  0.74505805969E-08  0.10566000000E+00  0.10566000000E+00 0.  1.
     999900   -1    0    0    0    0 -0.00000000000E+00 -0.00000000000E+00 -0.74505805969E-08  0.93827000000E+00  0.93827000000E+00 0. -1.
     999902    2    1    2    0    0  0.15628153476E-01  0.12743094971E-01  0.11696944779E-01  0.10206181110E+01  0.10203518434E+01 0.  0.
     999903    2    3    3    0    0  0.13378004147E-01 -0.77179301327E-01 -0.10049538864E+00  0.12894652338E+00  0.19805736706E-01 0.  0.
         14    1    1    2    0    0 -0.15628153476E-01 -0.12743094971E-01 -0.11696944779E-01  0.23311888977E-01  0.00000000000E+00 0. -1.
     999901    1    3    3    0    0  0.22501493294E-02  0.89922396298E-01  0.11219233342E+00  0.89167158764E+00  0.88000000000E+00 0. -1.
        -11    1    4    4    0    0  0.17017596502E-01 -0.46187915812E-01 -0.67336820642E-01  0.83411214432E-01  0.51100000000E-03 0. -1.
         11    1    4    4    0    0 -0.36395923554E-02 -0.30991385515E-01 -0.33158567997E-01  0.45535308951E-01  0.51100000000E-03 0.  1.
</event>
<event>
 8    1  0.1041149E+005  0.1043930E+01  0.7957747E-01            NaN
         13   -1    0    0    0    0  0.00000000000E+00  0.00000000000E+00  0.74505805969E-08  0.10566000000E+00  0.10566000000E+00 0. -1.
     999900   -1    0    0    0    0 -0.00000000000E+00 -0.00000000000E+00 -0.74505805969E-08  0.93827000000E+00  0.93827000000E+00 0.  1.
     999902    2    1    2    0    0  0.16293885521E-01  0.19570743354E-01 -0.99558121707E-02  0.10165873063E+01  0.10162195277E+01 0.  0.
     999903    2    3    3    0    0  0.11219339972E+00 -0.57051916248E-01 -0.11903193772E-01  0.12806519570E+00  0.20413922681E-01 0.  0.
         14    1    1    2    0    0 -0.16293885521E-01 -0.19570743354E-01  0.99558121707E-02  0.27342693664E-01  0.00000000000E+00 0. -1.
     999901    1    3    3    0    0 -0.95899514203E-01  0.76622659602E-01  0.19473816009E-02  0.88852211063E+00  0.88000000000E+00 0.  1.
        -11    1    4    4    0    0  0.78461910828E-01 -0.49415412030E-01 -0.55162560849E-02  0.92891574425E-01  0.51100000000E-03 0.  1.
         11    1    4    4    0    0  0.33731488896E-01 -0.76365042178E-02 -0.63869376867E-02  0.35173621278E-01  0.51100000000E-03 0. -1.
</event>
<event>
 8    1  0.1041149E+005  0.1043930E+01  0.7957747E-01            NaN
         13   -1    0    0    0    0  0.00000000000E+00  0.00000000000E+00  0.74505805969E-08  0.10566000000E+00  0.10566000000E+00 0.  1.
     999900   -1    0    0    0    0 -0.00000000000E+00 -0.00000000000E+00 -0.74505805969E-08  0.93827000000E+00  0.93827000000E+00 0.  1.
     999902    2    1    2    0    0  0.74627173304E-02 -0.19289717120E-01  0.11265455900E-01  0.10203780185E+01  0.10201061733E+01 0.  0.
     999903    2    3    3    0    0 -0.97557449559E-01 -0.84638850523E-01 -0.14174693342E-01  0.13136342587E+00  0.19345199486E-01 0.  0.
         14    1    1    2    0    0 -0.74627173304E-02  0.19289717120E-01 -0.11265455900E-01  0.23551981513E-01  0.00000000000E+00 0. -1.
     999901    1    3    3    0    0  0.10502016689E+00  0.65349133403E-01  0.25440149242E-01  0.88901459262E+00  0.88000000000E+00 0. -1.
        -11    1    4    4    0    0 -0.73487074347E-01 -0.64247003537E-01 -0.22645866983E-02  0.97639218726E-01  0.51100000000E-03 0.  1.
         11    1    4    4    0    0 -0.24070375212E-01 -0.20391846987E-01 -0.11910106644E-01  0.33724207146E-01  0.51100000000E-03 0. -1.
</event>
<event>
 8    1  0.1041149E+005  0.1043930E+01  0.7957747E-01            NaN
         13   -1    0    0    0    0  0.00000000000E+00  0.00000000000E+00  0.74505805969E-08  0.10566000000E+00  0.10566000000E+00 0. -1.
     999900   -1    0    0    0    0 -0.00000000000E+00 -0.00000000000E+00 -0.74505805969E-08  0.93827000000E+00  0.93827000000E+00 0.  1.
     999902    2    1    2    0    0  0.21057475377E-01 -0.73415600816E-02 -0.16864986334E-03  0.10216287844E+01  0.10213853479E+01 0.  0.
     999903    2    3    3    0    0  0.13213610398E+00 -0.59765348995E-02 -0.15618137137E-01  0.13451040918E+00  0.18800399648E-01 0.  0.
         14    1    1    2    0    0 -0.21057475377E-01  0.73415600816E-02  0.16864986334E-03  0.22301215582E-01  0.00000000000E+00 0. -1.
     999901    1    3    3    0    0 -0.11107862860E+00 -0.13650251821E-02  0.15449487274E-01  0.88711837524E+00  0.88000000000E+00 0. -1.
        -11    1    4    4    0    0  0.86137427302E-01  0.30559993686E-03 -0.18080912052E-01  0.88016647716E-01  0.51100000000E-03 0. -1.
         11    1    4    4    0    0  0.45998676675E-01 -0.62821348364E-02  0.24627749142E-02  0.46493761465E-01  0.51100000000E-03 0.  1.
</event>
<event>
 8    1  0.1041149E+005  0.1043930E+01  0.7957747E-01            NaN
         13   -1    0    0    0    0  0.00000000000E+00  0.00000000000E+00  0.74505805969E-08  0.10566000000E+00  0.10566000000E+00 0. -1.
     999900   -1    0    0    0    0 -0.00000000000E+00 -0.00000000000E+00 -0.74505805969E-08  0.93827000000E+00  0.93827000000E+00 0.  1.
     999902    2    1    2    0    0  0.14672278484E-01 -0.44001867194E-02 -0.18144134619E-01  0.10201845369E+01  0.10199081538E+01 0.  0.
     999903    2    3    3    0    0  0.91633378624E-01  0.62404978667E-01  0.65544816267E-01  0.13035883394E+00  0.20155525469E-01 0.  0.
         14    1    1    2    0    0 -0.14672278484E-01  0.44001867194E-02  0.18144134619E-01  0.23745463149E-01  0.00000000000E+00 0. -1.
     999901    1    3    3    0    0 -0.76961100139E-01 -0.66805165386E-01 -0.83688950886E-01  0.88982570291E+00  0.88000000000E+00 0.  1.
        -11    1    4    4    0    0  0.68878969024E-01  0.37047481320E-01  0.40536859183E-01  0.88092714338E-01  0.51100000000E-03 0. -1.
         11    1    4    4    0    0  0.22754409600E-01  0.25357497347E-01  0.25007957084E-01  0.42266119605E-01  0.51100000000E-03 0.  1.
</event>
<event>
 8    1  0.1041149E+005  0.1043930E+01  0.7957747E-01            NaN
         13   -1    0    0    0    0  0.00000000000E+00  0.00000000000E+00  0.74505805969E-08  0.10566000000E+00  0.10566000000E+00 0.  1.
     999900   -1    0    0    0    0 -0.00000000000E+00 -0.00000000000E+00 -0.74505805969E-08  0.93827000000E+00  0.93827000000E+00 0.  1.
     999902    2    1    2    0    0  0.17135493840E-01  0.12961696866E-01  0.29757438717E-02  0.10222393157E+01  0.10220091647E+01 0.  0.
     999903    2    3    3    0    0 -0.36669473602E-01 -0.51408644250E-01  0.11343275123E+00  0.13137497931E+00  0.20122056016E-01 0.  0.
         14    1    1    2    0    0 -0.17135493840E-01 -0.12961696866E-01 -0.29757438717E-02  0.21690684322E-01  0.00000000000E+00 0.  1.
     999901    1    3    3    0    0  0.53804967442E-01  0.64370341115E-01 -0.11045700736E+00  0.89086433637E+00  0.88000000000E+00 0.  1.
        -11    1    4    4    0    0 -0.76598823409E-02 -0.88021196010E-02  0.39898556175E-01  0.41572912007E-01  0.51100000000E-03 0.  1.
         11    1    4    4    0    0 -0.29009591261E-01 -0.42606524648E-01  0.73534195059E-01  0.89802067302E-01  0.51100000000E-03 0. -1.
</event>
<event>
 8    1  0.1041149E+005  0.1043930E+01  0.7957747E-01            NaN
         13   -1    0    0    0    0  0.00000000000E+00  0.00000000000E+00  0.74505805969E-08  0.10566000000E+00  0.10566000000E+00 0.  1.
     999900   -1    0    0    0    0 -0.00000000000E+00 -0.00000000000E+00 -0.74505805969E-08  0.93827000000E+00  0.93827000000E+00 0.  1.
     999902    2    1    2    0    0 -0.19915301177E-01 -0.47558668909E-02  0.79089433887E-02  0.10219803103E+01  0.10217445698E+01 0.  0.
     999903    2    3    3    0    0 -0.94476974864E-01 -0.61209085659E-02  0.93718174462E-01  0.13466721415E+00  0.19717962408E-01 0.  0.
         14    1    1    2    0    0  0.19915301177E-01  0.47558668909E-02 -0.79089433887E-02  0.21949689665E-01  0.00000000000E+00 0.  1.
     999901    1    3    3    0    0  0.74561673687E-01  0.13650416750E-02 -0.85809231074E-01  0.88731309618E+00  0.88000000000E+00 0.  1.
        -11    1    4    4    0    0 -0.15616757573E-01 -0.84453683282E-02  0.15590322605E-01  0.23633168286E-01  0.51100000000E-03 0.  1.
         11    1    4    4    0    0 -0.78860217292E-01  0.23244597623E-02  0.78127851857E-01  0.11103404587E+00  0.51100000000E-03 0. -1.
</event>
<event>
 8    1  0.1041149E+005  0.1043930E+01  0.7957747E-01            NaN
         13   -1    0    0    0    0  0.00000000000E+00  0.00000000000E+00  0.74505805969E-08  0.10566000000E+00  0.10566000000E+00 0. -1.
     999900   -1    0    0    0    0 -0.00000000000E+00 -0.00000000000E+00 -0.74505805969E-08  0.93827000000E+00  0.93827000000E+00 0.  1.
     999902    2    1    2    0    0 -0.16345859925E-01  0.27733417732E-01 -0.43281854015E-02  0.10114482700E+01  0.10109265750E+01 0.  0.
     999903    2    3    3    0    0  0.23449531795E-01  0.54810350893E-01  0.10578118857E+00  0.12328110793E+00  0.21319395191E-01 0.  0.
         14    1    1    2    0    0  0.16345859925E-01 -0.27733417732E-01  0.43281854015E-02  0.32481730013E-01  0.00000000000E+00 0. -1.
     999901    1    3    3    0    0 -0.39795391720E-01 -0.27076933161E-01 -0.11010937397E+00  0.88816716205E+00  0.88000000000E+00 0.  1.
        -11    1    4    4    0    0 -0.21376183583E-02  0.16048842219E-01  0.20049704207E-01  0.25775696084E-01  0.51100000000E-03 0.  1.
         11    1    4    4    0    0  0.25587150153E-01  0.38761508674E-01  0.85731484365E-01  0.97505411851E-01  0.51100000000E-03 0. -1.
</event>
<event>
 8    1  0.1041149E+005  0.1043930E+01  0.7957747E-01            NaN
         13   -1    0    0    0    0  0.00000000000E+00  0.00000000000E+00  0.74505805969E-08  0.10566000000E+00  0.10566000000E+00 0. -1.
     999900   -1    0    0    0    0 -0.00000000000E+00 -0.00000000000E+00 -0.74505805969E-08  0.93827000000E+00  0.93827000000E+00 0. -1.
     999902    2    1    2    0    0 -0.11029458770E-01  0.20287902077E-01 -0.59472447491E-02  0.10200842949E+01  0.10198055457E+01 0.  0.
     999903    2    3    3    0    0 -0.10729714483E+00 -0.50410252954E-01  0.50056427853E-01  0.13025166578E+00  0.20148934888E-01 0.  0.
         14    1    1    2    0    0  0.11029458770E-01 -0.20287902077E-01  0.59472447491E-02  0.23845705097E-01  0.00000000000E+00 0. -1.
     999901    1    3    3    0    0  0.96267686064E-01  0.70698155032E-01 -0.56003672602E-01  0.88983262912E+00  0.88000000000E+00 0. -1.
        -11    1    4    4    0    0 -0.89234380346E-01 -0.42598237038E-01  0.33116115216E-01  0.10428002034E+00  0.51100000000E-03 0. -1.
         11    1    4    4    0    0 -0.18062764488E-01 -0.78120159162E-02  0.16940312637E-01  0.25971645440E-01  0.51100000000E-03 0.  1.
</event>
<event>
 8    1  0.1041149E+005  0.1043930E+01  0.7957747E-01            NaN
         13   -1    0    0    0    0  0.00000000000E+00  0.00000000000E+00  0.74505805969E-08  0.10566000000E+00  0.10566000000E+00 0.  1.
     999900   -1    0    0    0    0 -0.00000000000E+00 -0.00000000000E+00 -0.74505805969E-08  0.93827000000E+00  0.93827000000E+00 0. -1.
     999902    2    1    2    0    0 -0.22789547081E-01 -0.53632130714E-02  0.36766096885E-02  0.10202309500E+01  0.10199556591E+01 0.  0.
     999903    2    3    3    0    0  0.28896625042E-01  0.10972997202E+00 -0.58184164077E-01  0.12908300666E+00  0.20033570860E-01 0.  0.
         14    1    1    2    0    0  0.22789547081E-01  0.53632130714E-02 -0.36766096885E-02  0.23699049968E-01  0.00000000000E+00 0.  1.
     999901    1    3    3    0    0 -0.51686172123E-01 -0.11509318509E+00  0.61860773765E-01  0.89114794337E+00  0.88000000000E+00 0.  1.
        -11    1    4    4    0    0  0.28540034044E-01  0.71462165664E-01 -0.39102183536E-01  0.86316953971E-01  0.51100000000E-03 0.  1.
         11    1    4    4    0    0  0.35659099829E-03  0.38267806355E-01 -0.19081980541E-01  0.42766052690E-01  0.51100000000E-03 0. -1.
</event>
<event>
 8    1  0.1041149E+005  0.1043930E+01  0.7957747E-01            NaN
         13   -1    0    0    0    0  0.00000000000E+00  0.00000000000E+00  0.74505805969E-08  0.10566000000E+00  0.10566000000E+00 0. -1.
     999900   -1    0    0    0    0 -0.00000000000E+00 -0.00000000000E+00 -0.74505805969E-08  0.93827000000E+00  0.93827000000E+00 0. -1.
     999902    2    1    2    0    0 -0.12328720345E-01  0.20807377176E-02  0.20149154679E-01  0.10202168128E+01  0.10199411894E+01 0.  0.
     999903    2    3    3    0    0 -0.82401465127E-01  0.10193671457E+00  0.54771468714E-02  0.13168055943E+00  0.11343516202E-01 0.  0.
         14    1    1    2    0    0  0.12328720345E-01 -0.20807377176E-02 -0.20149154679E-01  0.23713187240E-01  0.00000000000E+00 0.  1.
     999901    1    3    3    0    0  0.70072744782E-01 -0.99855976856E-01  0.14672007808E-01  0.88853625333E+00  0.88000000000E+00 0. -1.
        -11    1    4    4    0    0 -0.22494041908E-01  0.24665351586E-01 -0.31006701513E-02  0.33529640121E-01  0.51100000000E-03 0.  1.
         11    1    4    4    0    0 -0.59907423219E-01  0.77271362988E-01  0.85778170227E-02  0.98150919306E-01  0.51100000000E-03 0. -1.
</event>
<event>
 8    1  0.1041149E+005  0.1043930E+01  0.7957747E-01            NaN
         13   -1    0    0    0    0  0.00000000000E+00  0.00000000000E+00  0.74505805969E-08  0.10566000000E+00  0.10566000000E+00 0.  1.
     999900   -1    0    0    0    0 -0.00000000000E+00 -0.00000000000E+00 -0.74505805969E-08  0.93827000000E+00  0.93827000000E+00 0.  1.
     999902    2    1    2    0    0 -0.14140344843E-01 -0.32497051799E-02  0.18918684319E-01  0.10200883022E+01  0.10198096478E+01 0.  0.
     999903    2    3    3    0    0  0.84696506051E-01  0.89887974003E-01  0.33329429441E-01  0.12955418163E+00  0.20496075336E-01 0.  0.
         14    1    1    2    0    0  0.14140344843E-01  0.32497051799E-02 -0.18918684319E-01  0.23841697767E-01  0.00000000000E+00 0.  1.
     999901    1    3    3    0    0 -0.98836850894E-01 -0.93137679183E-01 -0.14410745122E-01  0.89053412060E+00  0.88000000000E+00 0. -1.
        -11    1    4    4    0    0  0.15151241272E-01  0.93719217196E-02  0.10674994365E-01  0.20775217315E-01  0.51100000000E-03 0.  1.
         11    1    4    4    0    0  0.69545264778E-01  0.80516052283E-01  0.22654435076E-01  0.10877896432E+00  0.51100000000E-03 0. -1.
</event>
<event>
 8    1  0.1041149E+005  0.1043930E+01  0.7957747E-01            NaN
         13   -1    0    0    0    0  0.00000000000E+00  0.00000000000E+00  0.74505805969E-08  0.10566000000E+00  0.10566000000E+00 0.  1.
     999900   -1    0    0    0    0 -0.00000000000E+00 -0.00000000000E+00 -0.74505805969E-08  0.93827000000E+00  0.93827000000E+00 0. -1.
     999902    2    1    2    0    0  0.32412088175E-02  0.19927398114E-01 -0.12845269499E-01  0.10200007798E+01  0.10197200514E+01 0.  0.
     999903    2    3    3    0    0  0.98562993961E-01 -0.59271091037E-01  0.54269883458E-01  0.12878639081E+00  0.20322111029E-01 0.  0.
         14    1    1    2    0    0 -0.32412088175E-02 -0.19927398114E-01  0.12845269499E-01  0.23929220186E-01  0.00000000000E+00 0.  1.
     999901    1    3    3    0    0 -0.95321785144E-01  0.79198489151E-01 -0.67115152957E-01  0.89121438900E+00  0.88000000000E+00 0. -1.
        -11    1    4    4    0    0  0.87098951842E-01 -0.48781538828E-01  0.39559561035E-01  0.10738289404E+00  0.51100000000E-03 0.  1.
         11    1    4    4    0    0  0.11464042120E-01 -0.10489552209E-01  0.14710322423E-01  0.21403496772E-01  0.51100000000E-03 0. -1.
</event>
<event>
 8    1  0.1041149E+005  0.1043930E+01  0.7957747E-01            NaN
         13   -1    0    0    0    0  0.00000000000E+00  0.00000000000E+00  0.74505805969E-08  0.10566000000E+00  0.10566000000E+00 0. -1.
     999900   -1    0    0    0    0 -0.00000000000E+00 -0.00000000000E+00 -0.74505805969E-08  0.93827000000E+00  0.93827000000E+00 0.  1.
     999902    2    1    2    0    0 -0.26192796397E-01  0.15691606916E-01  0.83217671608E-02  0.10122828687E+01  0.10117880536E+01 0.  0.
     999903    2    3    3    0    0 -0.17629974234E-02 -0.10171412807E+00 -0.63235177286E-01  0.12127146699E+00  0.18952811110E-01 0.  0.
         14    1    1    2    0    0  0.26192796397E-01 -0.15691606916E-01 -0.83217671608E-02  0.31647131298E-01  0.00000000000E+00 0.  1.
     999901    1    3    3    0    0 -0.24429798974E-01  0.11740573499E+00  0.71556944447E-01  0.89101140171E+00  0.88000000000E+00 0. -1.
        -11    1    4    4    0    0  0.63646348908E-02 -0.80523926439E-01 -0.49051174806E-01  0.94503387120E-01  0.51100000000E-03 0.  1.
         11    1    4    4    0    0 -0.81276323142E-02 -0.21190201636E-01 -0.14184002481E-01  0.26768079867E-01  0.51100000000E-03 0. -1.
</event>
<event>
 8    1  0.1041149E+005  0.1043930E+01  0.7957747E-01            NaN
         13   -1    0    0    0    0  0.00000000000E+00  0.00000000000E+00  0.74505805969E-08  0.10566000000E+00  0.10566000000E+00 0. -1.
     999900   -1    0    0    0    0 -0.00000000000E+00 -0.00000000000E+00 -0.74505805969E-08  0.93827000000E+00  0.93827000000E+00 0.  1.
     999902    2    1    2    0    0  0.11359419231E-01  0.19119148150E-01 -0.31663826520E-02  0.10214666029E+01  0.10212195731E+01 0.  0.
     999903    2    3    3    0    0 -0.78675251499E-01  0.84262253113E-01 -0.62067473307E-01  0.13252385751E+00  0.20500708976E-01 0.  0.
         14    1    1    2    0    0 -0.11359419231E-01 -0.19119148150E-01  0.31663826520E-02  0.22463397124E-01  0.00000000000E+00 0.  1.
     999901    1    3    3    0    0  0.90034670731E-01 -0.65143104963E-01  0.58901090655E-01  0.88894274537E+00  0.88000000000E+00 0. -1.
        -11    1    4    4    0    0 -0.66225592602E-01  0.69337392963E-01 -0.42308812001E-01  0.10480362528E+00  0.51100000000E-03 0. -1.
         11    1    4    4    0    0 -0.12449658897E-01  0.14924860151E-01 -0.19758661306E-01  0.27720232228E-01  0.51100000000E-03 0.  1.
</event>
<event>
 8    1  0.1041149E+005  0.1043930E+01  0.7957747E-01            NaN
         13   -1    0    0    0    0  0.00000000000E+00  0.00000000000E+00  0.74505805969E-08  0.10566000000E+00  0.10566000000E+00 0. -1.
     999900   -1    0    0    0    0 -0.00000000000E+00 -0.00000000000E+00 -0.74505805969E-08  0.93827000000E+00  0.93827000000E+00 0.  1.
     999902    2    1    2    0    0  0.11087136512E-01 -0.11803311932E-02  0.20777696173E-01  0.10203497024E+01  0.10200771955E+01 0.  0.
     999903    2    3    3    0    0  0.85314302252E-01 -0.79411467768E-01 -0.53560461383E-01  0.13065540402E+00  0.24847538985E-01 0.  0.
         14    1    1    2    0    0 -0.11087136512E-01  0.11803311932E-02 -0.20777696173E-01  0.23580297623E-01  0.00000000000E+00 0.  1.
     999901    1    3    3    0    0 -0.74227165741E-01  0.78231136575E-01  0.74338157556E-01  0.88969429836E+00  0.88000000000E+00 0. -1.
        -11    1    4    4    0    0  0.60171958654E-01 -0.63350965482E-01 -0.29164437810E-01  0.92113164040E-01  0.51100000000E-03 0. -1.
         11    1    4    4    0    0  0.25142343598E-01 -0.16060502286E-01 -0.24396023573E-01  0.38542239977E-01  0.51100000000E-03 0.  1.
</event>
<event>
 8    1  0.1041149E+005  0.1043930E+01  0.7957747E-01            NaN
         13   -1    0    0    0    0  0.00000000000E+00  0.00000000000E+00  0.74505805969E-08  0.10566000000E+00  0.10566000000E+00 0. -1.
     999900   -1    0    0    0    0 -0.00000000000E+00 -0.00000000000E+00 -0.74505805969E-08  0.93827000000E+00  0.93827000000E+00 0.  1.
     999902    2    1    2    0    0  0.15352506636E-01  0.16541858830E-01 -0.47598950448E-03  0.10213565838E+01  0.10211071012E+01 0.  0.
     999903    2    3    3    0    0 -0.58076299193E-01  0.64480952458E-02  0.11518508347E+00  0.13069887322E+00  0.20003938303E-01 0.  0.
         14    1    1    2    0    0 -0.15352506636E-01 -0.16541858830E-01  0.47598950448E-03  0.22573416214E-01  0.00000000000E+00 0.  1.
     999901    1    3    3    0    0  0.73428805829E-01  0.10093763584E-01 -0.11566107297E+00  0.89065771057E+00  0.88000000000E+00 0.  1.
        -11    1    4    4    0    0 -0.42268117955E-01 -0.16987738728E-02  0.65998537920E-01  0.78393544101E-01  0.51100000000E-03 0. -1.
         11    1    4    4    0    0 -0.15808181238E-01  0.81468691186E-02  0.49186545547E-01  0.52305329120E-01  0.51100000000E-03 0.  1.
</event>
<event>
 8    1  0.1041149E+005  0.1043930E+01  0.7957747E-01            NaN
         13   -1    0    0    0    0  0.00000000000E+00  0.00000000000E+00  0.74505805969E-08  0.10566000000E+00  0.10566000000E+00 0.  1.
     999900   -1    0    0    0    0 -0.00000000000E+00 -0.00000000000E+00 -0.74505805969E-08  0.93827000000E+00  0.93827000000E+00 0. -1.
     999902    2    1    2    0    0 -0.28766207560E-02 -0.79643424778E-02 -0.21466271846E-01  0.10208538971E+01  0.10205930495E+01 0.  0.
     999903    2    3    3    0    0 -0.30782983696E-01  0.75195396978E-01 -0.10461679608E+00  0.13259249580E+00  0.58443227603E-02 0.  0.
         14    1    1    2    0    0  0.28766207560E-02  0.79643424778E-02  0.21466271846E-01  0.23076102900E-01  0.00000000000E+00 0.  1.
     999901    1    3    3    0    0  0.27906362940E-01 -0.83159739455E-01  0.83150524235E-01  0.88826140130E+00  0.88000000000E+00 0.  1.
        -11    1    4    4    0    0 -0.85583518395E-02  0.27678528195E-01 -0.38846383941E-01  0.48462861818E-01  0.51100000000E-03 0.  1.
         11    1    4    4    0    0 -0.22224631857E-01  0.47516868783E-01 -0.65770412139E-01  0.84129633983E-01  0.51100000000E-03 0. -1.
</event>
<event>
 8    1  0.1041149E+005  0.1043930E+01  0.7957747E-01            NaN
         13   -1    0    0    0    0  0.00000000000E+00  0.00000000000E+00  0.74505805969E-08  0.10566000000E+00  0.10566000000E+00 0. -1.
     999900   -1    0    0    0    0 -0.00000000000E+00 -0.00000000000E+00 -0.74505805969E-08  0.93827000000E+00  0.93827000000E+00 0.  1.
     999902    2    1    2    0    0  0.18480521901E-01 -0.14164798804E-01 -0.68843240782E-02  0.10196490376E+01  0.10193598947E+01 0.  0.
     999903    2    3    3    0    0 -0.98810435696E-01  0.70687035068E-01 -0.32888727497E-01  0.12744209335E+00  0.19991489005E-01 0.  0.
         14    1    1    2    0    0 -0.18480521901E-01  0.14164798804E-01  0.68843240782E-02  0.24280962355E-01  0.00000000000E+00 0. -1.
     999901    1    3    3    0    0  0.11729095760E+00 -0.84851833872E-01  0.26004403418E-01  0.89220694429E+00  0.88000000000E+00 0. -1.
        -11    1    4    4    0    0 -0.50896512437E-01  0.31342697381E-01 -0.67414974631E-02  0.60154206557E-01  0.51100000000E-03 0. -1.
         11    1    4    4    0    0 -0.47913923259E-01  0.39344337687E-01 -0.26147230034E-01  0.67287886796E-01  0.51100000000E-03 0.  1.
</event>
<event>
 8    1  0.1041149E+005  0.1043930E+01  0.7957747E-01            NaN
         13   -1    0    0    0    0  0.00000000000E+00  0.00000000000E+00  0.74505805969E-08  0.10566000000E+00  0.10566000000E+00 0.  1.
     999900   -1    0    0    0    0 -0.00000000000E+00 -0.00000000000E+00 -0.74505805969E-08  0.93827000000E+00  0.93827000000E+00 0.  1.
     999902    2    1    2    0    0 -0.86257111527E-02  0.12550452106E-03 -0.22778975940E-01  0.10195722417E+01  0.10192812446E+01 0.  0.
     999903    2    3    3    0    0 -0.16770640718E-01 -0.61815708873E-01  0.10859129403E+00  0.12762986597E+00  0.19871519743E-01 0.  0.
         14    1    1    2    0    0  0.86257111527E-02 -0.12550452106E-03  0.22778975940E-01  0.24357758294E-01  0.00000000000E+00 0.  1.
     999901    1    3    3    0    0  0.81449295652E-02  0.61941213394E-01 -0.13137026997E+00  0.89194237573E+00  0.88000000000E+00 0.  1.
        -11    1    4    4    0    0 -0.23159713459E-02 -0.43866715313E-01  0.74139149996E-01  0.86177300484E-01  0.51100000000E-03 0. -1.
         11    1    4    4    0    0 -0.14454669372E-01 -0.17948993560E-01  0.34452144029E-01  0.41452565490E-01  0.51100000000E-03 0.  1.
</event>
<event>
 8    1  0.1041149E+005  0.1043930E+01  0.7957747E-01            NaN
         13   -1    0    0    0    0  0.00000000000E+00  0.00000000000E+00  0.74505805969E-08  0.10566000000E+00  0.10566000000E+00 0.  1.
     999900   -1    0    0    0    0 -0.00000000000E+00 -0.00000000000E+00 -0.74505805969E-08  0.93827000000E+00  0.93827000000E+00 0. -1.
     999902    2    1    2    0    0 -0.97339689579E-03  0.16989520993E-01 -0.20643507158E-01  0.10171765757E+01  0.10168246852E+01 0.  0.
     999903    2    3    3    0    0  0.11081507836E+00  0.62167841686E-01  0.16136067223E-02  0.12867608441E+00  0.20251144227E-01 0.  0.
         14    1    1    2    0    0  0.97339689579E-03 -0.16989520993E-01  0.20643507158E-01  0.26753424321E-01  0.00000000000E+00 0.  1.
     999901    1    3    3    0    0 -0.11178847525E+00 -0.45178320692E-01 -0.22257113880E-01  0.88850049126E+00  0.88000000000E+00 0.  1.
        -11    1    4    4    0    0  0.42249812637E-01  0.16482734982E-01 -0.67750480718E-02  0.45857274425E-01  0.51100000000E-03 0.  1.
         11    1    4    4    0    0  0.68565265720E-01  0.45685106703E-01  0.83886547940E-02  0.82818809989E-01  0.51100000000E-03 0. -1.
</event>
<event>
 8    1  0.1041149E+005  0.1043930E+01  0.7957747E-01            NaN
         13   -1    0    0    0    0  0.00000000000E+00  0.00000000000E+00  0.74505805969E-08  0.10566000000E+00  0.10566000000E+00 0. -1.
     999900   -1    0    0    0    0 -0.00000000000E+00 -0.00000000000E+00 -0.74505805969E-08  0.93827000000E+00  0.93827000000E+00 0. -1.
     999902    2    1    2    0    0 -0.15835458155E-01 -0.17329932980E-01  0.41681744619E-02  0.10200875591E+01  0.10198088871E+01 0.  0.
     999903    2    3    3    0    0 -0.46846731079E-01  0.85368926662E-01 -0.82704182806E-01  0.12932633331E+00  0.20071093205E-01 0.  0.
         14    1    1    2    0    0  0.15835458155E-01  0.17329932980E-01 -0.41681744619E-02  0.23842440949E-01  0.00000000000E+00 0.  1.
     999901    1    3    3    0    0  0.31011272924E-01 -0.10269885964E+00  0.86872357268E-01  0.89076122574E+00  0.88000000000E+00 0.  1.
        -11    1    4    4    0    0  0.33674987567E-03  0.12671760450E-01 -0.89834104600E-02  0.15545085972E-01  0.51100000000E-03 0. -1.
         11    1    4    4    0    0 -0.47183480955E-01  0.72697166211E-01 -0.73720772346E-01  0.11378124734E+00  0.51100000000E-03 0.  1.
</event>
<event>
 8    1  0.1041149E+005  0.1043930E+01  0.7957747E-01            NaN
         13   -1    0    0    0    0  0.00000000000E+00  0.00000000000E+00  0.74505805969E-08  0.10566000000E+00  0.10566000000E+00 0. -1.
     999900   -1    0    0    0    0 -0.00000000000E+00 -0.00000000000E+00 -0.74505805969E-08  0.93827000000E+00  0.93827000000E+00 0. -1.
     999902    2    1    2    0    0  0.12565286620E-01 -0.14755386332E-01  0.14109653192E-01  0.10199573037E+01  0.10196755421E+01 0.  0.
     999903    2    3    3    0    0 -0.18539139013E-01 -0.11572888797E+00  0.58445818643E-01  0.13252909316E+00  0.20277367499E-01 0.  0.
         14    1    1    2    0    0 -0.12565286620E-01  0.14755386332E-01 -0.14109653192E-01  0.23972696278E-01  0.00000000000E+00 0. -1.
     999901    1    3    3    0    0  0.31104425632E-01  0.10097350163E+00 -0.44336165451E-01  0.88742821056E+00  0.88000000000E+00 0. -1.
        -11    1    4    4    0    0 -0.17520926378E-01 -0.83502974863E-01  0.33115872222E-01  0.91524050315E-01  0.51100000000E-03 0.  1.
         11    1    4    4    0    0 -0.10182126351E-02 -0.32225913104E-01  0.25329946421E-01  0.41005042849E-01  0.51100000000E-03 0. -1.
</event>
<event>
 8    1  0.1041149E+005  0.1043930E+01  0.7957747E-01            NaN
         13   -1    0    0    0    0  0.00000000000E+00  0.00000000000E+00  0.74505805969E-08  0.10566000000E+00  0.10566000000E+00 0.  1.
     999900   -1    0    0    0    0 -0.00000000000E+00 -0.00000000000E+00 -0.74505805969E-08  0.93827000000E+00  0.93827000000E+00 0.  1.
     999902    2    1    2    0    0 -0.22084018164E-03  0.20282585967E-01 -0.11873147452E-01  0.10204267301E+01  0.10201560213E+01 0.  0.
     999903    2    3    3    0    0  0.65146131359E-01 -0.10873368709E+00 -0.84660381768E-02  0.12861416683E+00  0.20072293488E-01 0.  0.
         14    1    1    2    0    0  0.22084018164E-03 -0.20282585967E-01  0.11873147452E-01  0.23503269865E-01  0.00000000000E+00 0.  1.
     999901    1    3    3    0    0 -0.65366971540E-01  0.12901627306E+00 -0.34071092757E-02  0.89181256331E+00  0.88000000000E+00 0.  1.
        -11    1    4    4    0    0  0.35856134180E-01 -0.74216255833E-01  0.67256363125E-03  0.82428323112E-01  0.51100000000E-03 0. -1.
         11    1    4    4    0    0  0.29289997178E-01 -0.34517431261E-01 -0.91386018080E-02  0.46185843714E-01  0.51100000000E-03 0.  1.
</event>
<event>
 8    1  0.1041149E+005  0.1043930E+01  0.7957747E-01            NaN
         13   -1    0    0    0    0  0.00000000000E+00  0.00000000000E+00  0.74505805969E-08  0.10566000000E+00  0.10566000000E+00 0. -1.
     999900   -1    0    0    0    0 -0.00000000000E+00 -0.00000000000E+00 -0.74505805969E-08  0.93827000000E+00  0.93827000000E+00 0.  1.
     999902    2    1    2    0    0  0.63214426032E-02  0.20876723965E-01 -0.84186219617E-02  0.10205489941E+01  0.10202811269E+01 0.  0.
     999903    2    3    3    0    0 -0.10601916223E+00 -0.43399434339E-01 -0.57579868841E-01  0.12972428397E+00  0.19732584598E-01 0.  0.
         14    1    1    2    0    0 -0.63214426032E-02 -0.20876723965E-01  0.84186219617E-02  0.23381005877E-01  0.00000000000E+00 0. -1.
     999901    1    3    3    0    0  0.11234060483E+00  0.64276158304E-01  0.49161246880E-01  0.89082471015E+00  0.88000000000E+00 0. -1.
        -11    1    4    4    0    0 -0.20610073008E-01 -0.13372194408E-01 -0.20063896357E-01  0.31723993297E-01  0.51100000000E-03 0.  1.
         11    1    4    4    0    0 -0.85409089223E-01 -0.30027239931E-01 -0.37515972484E-01  0.98000290675E-01  0.51100000000E-03 0. -1.
</event>
<event>
 8    1  0.1041149E+005  0.1043930E+01  0.7957747E-01            NaN
         13   -1    0    0    0    0  0.00000000000E+00  0.00000000000E+00  0.74505805969E-08  0.10566000000E+00  0.10566000000E+00 0.  1.
     999900   -1    0    0    0    0 -0.00000000000E+00 -0.00000000000E+00 -0.74505805969E-08  0.93827000000E+00  0.93827000000E+00 0.  1.
     999902    2    1    2    0    0  0.11947853959E-02  0.20648912707E-02 -0.22687578999E-01  0.10211173384E+01  0.10208624791E+01 0.  0.
     999903    2    3    3    0    0 -0.45345664230E-01  0.76007711397E-01 -0.98045667973E-01  0.13358570761E+00  0.19969647269E-01 0.  0.
         14    1    1    2    0    0 -0.11947853959E-02 -0.20648912707E-02  0.22687578999E-01  0.22812661592E-01  0.00000000000E+00 0.  1.
     999901    1    3    3    0    0  0.46540449626E-01 -0.73942820126E-01  0.75358088975E-01  0.88753163080E+00  0.88000000000E+00 0. -1.
        -11    1    4    4    0    0 -0.15668517649E-01  0.45388485370E-01 -0.54498467138E-01  0.72635811352E-01  0.51100000000E-03 0.  1.
         11    1    4    4    0    0 -0.29677146582E-01  0.30619226027E-01 -0.43547200835E-01  0.60949896254E-01  0.51100000000E-03 0. -1.
</event>
<event>
 8    1  0.1041149E+005  0.1043930E+01  0.7957747E-01            NaN
         13   -1    0    0    0    0  0.00000000000E+00  0.00000000000E+00  0.74505805969E-08  0.10566000000E+00  0.10566000000E+00 0. -1.
     999900   -1    0    0    0    0 -0.00000000000E+00 -0.00000000000E+00 -0.74505805969E-08  0.93827000000E+00  0.93827000000E+00 0. -1.
     999902    2    1    2    0    0 -0.15687192486E-01  0.11342524813E-01 -0.12446805030E-01  0.10209155734E+01  0.10206561341E+01 0.  0.
     999903    2    3    3    0    0  0.42098142434E-01 -0.41060346382E-01  0.11269395684E+00  0.12864576210E+00  0.19788849266E-01 0.  0.
         14    1    1    2    0    0  0.15687192486E-01 -0.11342524813E-01  0.12446805030E-01  0.23014426620E-01  0.00000000000E+00 0. -1.
     999901    1    3    3    0    0 -0.57785334920E-01  0.52402871195E-01 -0.12514076187E+00  0.89226981128E+00  0.88000000000E+00 0. -1.
        -11    1    4    4    0    0  0.64912133089E-02 -0.19093765945E-01  0.34726640570E-01  0.40161031292E-01  0.51100000000E-03 0.  1.
         11    1    4    4    0    0  0.35606929125E-01 -0.21966580437E-01  0.77967316274E-01  0.88484730806E-01  0.51100000000E-03 0. -1.
</event>
<event>
 8    1  0.1041149E+005  0.1043930E+01  0.7957747E-01            NaN
         13   -1    0    0    0    0  0.00000000000E+00  0.00000000000E+00  0.74505805969E-08  0.10566000000E+00  0.10566000000E+00 0. -1.
     999900   -1    0    0    0    0 -0.00000000000E+00 -0.00000000000E+00 -0.74505805969E-08  0.93827000000E+00  0.93827000000E+00 0. -1.
     999902    2    1    2    0    0 -0.15783618414E-01  0.17808752371E-01  0.11305530271E-02  0.10201066413E+01  0.10198284204E+01 0.  0.
     999903    2    3    3    0    0 -0.40705591826E-01 -0.11677594698E+00 -0.30179824391E-01  0.12897562632E+00  0.20744237410E-01 0.  0.
         14    1    1    2    0    0  0.15783618414E-01 -0.17808752371E-01 -0.11305530271E-02  0.23823358735E-01  0.00000000000E+00 0. -1.
     999901    1    3    3    0    0  0.24921973412E-01  0.13458469935E+00  0.31310377419E-01  0.89113101494E+00  0.88000000000E+00 0.  1.
        -11    1    4    4    0    0 -0.30284730226E-01 -0.57374713068E-01 -0.19325869528E-01  0.67696181122E-01  0.51100000000E-03 0.  1.
         11    1    4    4    0    0 -0.10420861600E-01 -0.59401233913E-01 -0.10853954863E-01  0.61279445200E-01  0.51100000000E-03 0. -1.
</event>
<event>
 8    1  0.1041149E+005  0.1043930E+01  0.7957747E-01            NaN
         13   -1    0    0    0    0  0.00000000000E+00  0.00000000000E+00  0.74505805969E-08  0.10566000000E+00  0.10566000000E+00 0. -1.
     999900   -1    0    0    0    0 -0.00000000000E+00 -0.00000000000E+00 -0.74505805969E-08  0.93827000000E+00  0.93827000000E+00 0.  1.
     999902    2    1    2    0    0  0.13619716334E-01 -0.17175620632E-01  0.74375328966E-02  0.10207823109E+01  0.10205198237E+01 0.  0.
     999903    2    3    3    0    0  0.77774234741E-01 -0.10119431106E+00 -0.33855992913E-01  0.13349425287E+00  0.19630769551E-01 0.  0.
         14    1    1    2    0    0 -0.13619716334E-01  0.17175620632E-01 -0.74375328966E-02  0.23147689144E-01  0.00000000000E+00 0.  1.
     999901    1    3    3    0    0 -0.64154518407E-01  0.84018690425E-01  0.41293525809E-01  0.88728805799E+00  0.88000000000E+00 0.  1.
        -11    1    4    4    0    0  0.53500141526E-01 -0.53819894008E-01 -0.19202096193E-01  0.78280442983E-01  0.51100000000E-03 0. -1.
         11    1    4    4    0    0  0.24274093215E-01 -0.47374417049E-01 -0.14653896719E-01  0.55213809886E-01  0.51100000000E-03 0.  1.
</event>
<event>
 8    1  0.1041149E+005  0.1043930E+01  0.7957747E-01            NaN
         13   -1    0    0    0    0  0.00000000000E+00  0.00000000000E+00  0.74505805969E-08  0.10566000000E+00  0.10566000000E+00 0.  1.
     999900   -1    0    0    0    0 -0.00000000000E+00 -0.00000000000E+00 -0.74505805969E-08  0.93827000000E+00  0.93827000000E+00 0.  1.
     999902    2    1    2    0    0  0.17177481583E-01  0.14487480537E-01 -0.38908311790E-02  0.10211244846E+01  0.10208697867E+01 0.  0.
     999903    2    3    3    0    0 -0.81817934244E-01  0.93129264193E-01 -0.38815027626E-01  0.13140299896E+00  0.19821895807E-01 0.  0.
         14    1    1    2    0    0 -0.17177481583E-01 -0.14487480537E-01  0.38908311790E-02  0.22805515410E-01  0.00000000000E+00 0. -1.
     999901    1    3    3    0    0  0.98995415827E-01 -0.78641783657E-01  0.34924196447E-01  0.88972148563E+00  0.88000000000E+00 0.  1.
        -11    1    4    4    0    0 -0.17318726896E-01  0.23723789136E-01 -0.10248654007E-02  0.29395032614E-01  0.51100000000E-03 0. -1.
         11    1    4    4    0    0 -0.64499207348E-01  0.69405475057E-01 -0.37790162226E-01  0.10200796635E+00  0.51100000000E-03 0.  1.
</event>
<event>
 8    1  0.1041149E+005  0.1043930E+01  0.7957747E-01            NaN
         13   -1    0    0    0    0  0.00000000000E+00  0.00000000000E+00  0.74505805969E-08  0.10566000000E+00  0.10566000000E+00 0. -1.
     999900   -1    0    0    0    0 -0.00000000000E+00 -0.00000000000E+00 -0.74505805969E-08  0.93827000000E+00  0.93827000000E+00 0.  1.
     999902    2    1    2    0    0  0.66219695577E-02  0.62935770565E-02 -0.21856966265E-01  0.10202406233E+01  0.10199655597E+01 0.  0.
     999903    2    3    3    0    0 -0.64425679021E-01 -0.10612257137E+00  0.27856547118E-01  0.12886158374E+00  0.20412062008E-01 0.  0.
         14    1    1    2    0    0 -0.66219695577E-02 -0.62935770565E-02  0.21856966265E-01  0.23689376676E-01  0.00000000000E+00 0. -1.
     999901    1    3    3    0    0  0.71047648578E-01  0.11241614843E+00 -0.49713513383E-01  0.89137903958E+00  0.88000000000E+00 0.  1.
        -11    1    4    4    0    0 -0.19049751676E-01 -0.47201229588E-01  0.17206725112E-01  0.53732500627E-01  0.51100000000E-03 0.  1.
         11    1    4    4    0    0 -0.45375927345E-01 -0.58921341781E-01  0.10649822006E-01  0.75129083114E-01  0.51100000000E-03 0. -1.
</event>
<event>
 8    1  0.1041149E+005  0.1043930E+01  0.7957747E-01            NaN
         13   -1    0    0    0    0  0.00000000000E+00  0.00000000000E+00  0.74505805969E-08  0.10566000000E+00  0.10566000000E+00 0. -1.
     999900   -1    0    0    0    0 -0.00000000000E+00 -0.00000000000E+00 -0.74505805969E-08  0.93827000000E+00  0.93827000000E+00 0.  1.
     999902    2    1    2    0    0  0.81359675904E-02 -0.26550882979E-01 -0.26438865168E-02  0.10160349558E+01  0.10156519571E+01 0.  0.
     999903    2    3    3    0    0 -0.29647802884E-01 -0.78114279935E-01  0.95247850009E-01  0.12830234442E+00  0.20211524080E-01 0.  0.
         14    1    1    2    0    0 -0.81359675904E-02  0.26550882979E-01  0.26438865168E-02  0.27895044210E-01  0.00000000000E+00 0. -1.
     999901    1    3    3    0    0  0.37783770475E-01  0.51563396956E-01 -0.97891736526E-01  0.88773261137E+00  0.88000000000E+00 0. -1.
        -11    1    4    4    0    0 -0.51423135099E-02 -0.27393831432E-02  0.26677059037E-02  0.64284822492E-02  0.51100000000E-03 0.  1.
         11    1    4    4    0    0 -0.24505489374E-01 -0.75374896792E-01  0.92580144105E-01  0.12187386217E+00  0.51100000000E-03 0. -1.
</event>
<event>
 8    1  0.1041149E+005  0.1043930E+01  0.7957747E-01            NaN
         13   -1    0    0    0    0  0.00000000000E+00  0.00000000000E+00  0.74505805969E-08  0.10566000000E+00  0.10566000000E+00 0. -1.
     999900   -1    0    0    0    0 -0.00000000000E+00 -0.00000000000E+00 -0.74505805969E-08  0.93827000000E+00  0.93827000000E+00 0.  1.
     999902    2    1    2    0    0  0.18479228920E-01  0.12023536145E-01 -0.11404302748E-01  0.10191085286E+01  0.10188062071E+01 0.  0.
     999903    2    3    3    0    0  0.10372558936E-01 -0.10479707249E+00  0.68907712591E-01  0.12772601107E+00  0.21809279380E-01 0.  0.
         14    1    1    2    0    0 -0.18479228920E-01 -0.12023536145E-01  0.11404302748E-01  0.24821471433E-01  0.00000000000E+00 0. -1.
     999901    1    3    3    0    0  0.81066699840E-02  0.11682060863E+00 -0.80312015339E-01  0.89138251750E+00  0.88000000000E+00 0.  1.
        -11    1    4    4    0    0  0.10981902235E-01 -0.43673533323E-01  0.39444054729E-01  0.59867138432E-01  0.51100000000E-03 0. -1.
         11    1    4    4    0    0 -0.60934329900E-03 -0.61123539167E-01  0.29463657862E-01  0.67858872634E-01  0.51100000000E-03 0.  1.
</event>
<event>
 8    1  0.1041149E+005  0.1043930E+01  0.7957747E-01            NaN
         13   -1    0    0    0    0  0.00000000000E+00  0.00000000000E+00  0.74505805969E-08  0.10566000000E+00  0.10566000000E+00 0.  1.
     999900   -1    0    0    0    0 -0.00000000000E+00 -0.00000000000E+00 -0.74505805969E-08  0.93827000000E+00  0.93827000000E+00 0. -1.
     999902    2    1    2    0    0  0.12268209191E-01 -0.77424498073E-02  0.15714508625E-01  0.10225430819E+01  0.10223193992E+01 0.  0.
     999903    2    3    3    0    0  0.36833049829E-01  0.12354387874E+00  0.23327063477E-01  0.13243214359E+00  0.19348313409E-01 0.  0.
         14    1    1    2    0    0 -0.12268209191E-01  0.77424498073E-02 -0.15714508625E-01  0.21386918130E-01  0.00000000000E+00 0. -1.
     999901    1    3    3    0    0 -0.24564840638E-01 -0.13128632854E+00 -0.76125548520E-02  0.89011093828E+00  0.88000000000E+00 0.  1.
        -11    1    4    4    0    0  0.37662597619E-01  0.12172653529E+00  0.20698193916E-01  0.12909104154E+00  0.51100000000E-03 0.  1.
         11    1    4    4    0    0 -0.82954779063E-03  0.18173434493E-02  0.26288695610E-02  0.33411020515E-02  0.51100000000E-03 0. -1.
</event>
<event>
 8    1  0.1041149E+005  0.1043930E+01  0.7957747E-01            NaN
         13   -1    0    0    0    0  0.00000000000E+00  0.00000000000E+00  0.74505805969E-08  0.10566000000E+00  0.10566000000E+00 0. -1.
     999900   -1    0    0    0    0 -0.00000000000E+00 -0.00000000000E+00 -0.74505805969E-08  0.93827000000E+00  0.93827000000E+00 0. -1.
     999902    2    1    2    0    0  0.99436617114E-03  0.98132692795E-02  0.17674929841E-01  0.10236891462E+01  0.10234890209E+01 0.  0.
     999903    2    3    3    0    0 -0.10572708315E+00 -0.44784497778E-01 -0.61664936810E-01  0.13202486051E+00  0.21074439692E-01 0.  0.
         14    1    1    2    0    0 -0.99436617114E-03 -0.98132692795E-02 -0.17674929841E-01  0.20240853809E-01  0.00000000000E+00 0.  1.
     999901    1    3    3    0    0  0.10672144932E+00  0.54597767057E-01  0.79339866651E-01  0.89166428568E+00  0.88000000000E+00 0. -1.
        -11    1    4    4    0    0 -0.61582004429E-01 -0.18104147039E-01 -0.42555774262E-01  0.77015313111E-01  0.51100000000E-03 0.  1.
         11    1    4    4    0    0 -0.44145078724E-01 -0.26680350739E-01 -0.19109162549E-01  0.55009547402E-01  0.51100000000E-03 0. -1.
</event>
<event>
 8    1  0.1041149E+005  0.1043930E+01  0.7957747E-01            NaN
         13   -1    0    0    0    0  0.00000000000E+00  0.00000000000E+00  0.74505805969E-08  0.10566000000E+00  0.10566000000E+00 0. -1.
     999900   -1    0    0    0    0 -0.00000000000E+00 -0.00000000000E+00 -0.74505805969E-08  0.93827000000E+00  0.93827000000E+00 0. -1.
     999902    2    1    2    0    0  0.81931803027E-02  0.70380766630E-02 -0.22558840144E-01  0.10189187226E+01  0.10186117019E+01 0.  0.
     999903    2    3    3    0    0 -0.13047548082E-01 -0.37113349117E-01 -0.12412647131E+00  0.13172285890E+00  0.19897021962E-01 0.  0.
         14    1    1    2    0    0 -0.81931803027E-02 -0.70380766630E-02  0.22558840144E-01  0.25011277361E-01  0.00000000000E+00 0. -1.
     999901    1    3    3    0    0  0.21240728385E-01  0.44151425780E-01  0.10156763116E+00  0.88719586374E+00  0.88000000000E+00 0.  1.
        -11    1    4    4    0    0 -0.62956811175E-02 -0.70217469347E-02 -0.11154070817E-01  0.14615572091E-01  0.51100000000E-03 0. -1.
         11    1    4    4    0    0 -0.67518669648E-02 -0.30091602182E-01 -0.11297240049E+00  0.11710728681E+00  0.51100000000E-03 0.  1.
</event>
<event>
 8    1  0.1041149E+005  0.1043930E+01  0.7957747E-01            NaN
         13   -1    0    0    0    0  0.00000000000E+00  0.00000000000E+00  0.74505805969E-08  0.10566000000E+00  0.10566000000E+00 0.  1.
     999900   -1    0    0    0    0 -0.00000000000E+00 -0.00000000000E+00 -0.74505805969E-08  0.93827000000E+00  0.93827000000E+00 0.  1.
     999902    2    1    2    0    0 -0.85888714454E-02  0.51501528524E-02 -0.24809234431E-01  0.10171757312E+01  0.10168238182E+01 0.  0.
     999903    2    3    3    0    0 -0.12487869259E+00 -0.10025883800E-02 -0.26990550143E-01  0.12950127685E+00  0.21128129685E-01 0.  0.
         14    1    1    2    0    0  0.85888714454E-02 -0.51501528524E-02  0.24809234431E-01  0.26754268821E-01  0.00000000000E+00 0.  1.
     999901    1    3    3    0    0  0.11628982114E+00  0.61527412324E-02  0.21813157121E-02  0.88767445433E+00  0.88000000000E+00 0.  1.
        -11    1    4    4    0    0 -0.23107038351E-01  0.75037032692E-02 -0.82905076845E-02  0.25675560807E-01  0.51100000000E-03 0.  1.
         11    1    4    4    0    0 -0.10177165424E+00 -0.85062916492E-02 -0.18700042458E-01  0.10382571605E+00  0.51100000000E-03 0. -1.
</event>
<event>
 8    1  0.1041149E+005  0.1043930E+01  0.7957747E-01            NaN
         13   -1    0    0    0    0  0.00000000000E+00  0.00000000000E+00  0.74505805969E-08  0.10566000000E+00  0.10566000000E+00 0.  1.
     999900   -1    0    0    0    0 -0.00000000000E+00 -0.00000000000E+00 -0.74505805969E-08  0.93827000000E+00  0.93827000000E+00 0. -1.
     999902    2    1    2    0    0  0.12837246500E-01 -0.39965780857E-02 -0.19750179108E-01  0.10200378023E+01  0.10197579522E+01 0.  0.
     999903    2    3    3    0    0 -0.49283637043E-01 -0.10425687413E+00 -0.59200483690E-01  0.13129292463E+00  0.20850949696E-01 0.  0.
         14    1    1    2    0    0 -0.12837246500E-01  0.39965780857E-02  0.19750179108E-01  0.23892197658E-01  0.00000000000E+00 0.  1.
     999901    1    3    3    0    0  0.62120883543E-01  0.10026029605E+00  0.39450304582E-01  0.88874487772E+00  0.88000000000E+00 0.  1.
        -11    1    4    4    0    0 -0.55881193468E-02 -0.26234640890E-01 -0.20908632661E-01  0.34013460589E-01  0.51100000000E-03 0.  1.
         11    1    4    4    0    0 -0.43695517696E-01 -0.78022233244E-01 -0.38291851030E-01  0.97279464037E-01  0.51100000000E-03 0. -1.
</event>
<event>
 8    1  0.1041149E+005  0.1043930E+01  0.7957747E-01            NaN
         13   -1    0    0    0    0  0.00000000000E+00  0.00000000000E+00  0.74505805969E-08  0.10566000000E+00  0.10566000000E+00 0. -1.
     999900   -1    0    0    0    0 -0.00000000000E+00 -0.00000000000E+00 -0.74505805969E-08  0.93827000000E+00  0.93827000000E+00 0. -1.
     999902    2    1    2    0    0 -0.12626370772E-01 -0.44400596342E-02  0.21016446770E-01  0.10190135315E+01  0.10187088627E+01 0.  0.
     999903    2    3    3    0    0  0.10916429223E+00 -0.37283940656E-01 -0.50396513155E-01  0.12715508029E+00  0.17935188232E-01 0.  0.
         14    1    1    2    0    0  0.12626370772E-01  0.44400596342E-02 -0.21016446770E-01  0.24916468515E-01  0.00000000000E+00 0.  1.
     999901    1    3    3    0    0 -0.12179066300E+00  0.32843881022E-01  0.71412959925E-01  0.89185845119E+00  0.88000000000E+00 0.  1.
        -11    1    4    4    0    0  0.75081272520E-01 -0.33313107496E-01 -0.39530364598E-01  0.91158496370E-01  0.51100000000E-03 0. -1.
         11    1    4    4    0    0  0.34083019712E-01 -0.39708331603E-02 -0.10866148557E-01  0.35996583924E-01  0.51100000000E-03 0.  1.
</event>
<event>
 8    1  0.1041149E+005  0.1043930E+01  0.7957747E-01            NaN
         13   -1    0    0    0    0  0.00000000000E+00  0.00000000000E+00  0.74505805969E-08  0.10566000000E+00  0.10566000000E+00 0.  1.
     999900   -1    0    0    0    0 -0.00000000000E+00 -0.00000000000E+00 -0.74505805969E-08  0.93827000000E+00  0.93827000000E+00 0. -1.
     999902    2    1    2    0    0 -0.21239977496E-01 -0.19153288856E-02 -0.88898508339E-02  0.10208251395E+01  0.10205636340E+01 0.  0.
     999903    2    3    3    0    0  0.46443095452E-01 -0.70619105702E-01 -0.98195094197E-01  0.13106301751E+00  0.19779252506E-01 0.  0.
         14    1    1    2    0    0  0.21239977496E-01  0.19153288856E-02  0.88898508339E-02  0.23104860454E-01  0.00000000000E+00 0.  1.
     999901    1    3    3    0    0 -0.67683072948E-01  0.68703776817E-01  0.89305243363E-01  0.88976212203E+00  0.88000000000E+00 0.  1.
        -11    1    4    4    0    0  0.12433642930E-01 -0.12631300170E-01 -0.10651804789E-01  0.20684953148E-01  0.51100000000E-03 0.  1.
         11    1    4    4    0    0  0.34009452522E-01 -0.57987805532E-01 -0.87543289408E-01  0.11037806436E+00  0.51100000000E-03 0. -1.
</event>
<event>
 8    1  0.1041149E+005  0.1043930E+01  0.7957747E-01            NaN
         13   -1    0    0    0    0  0.00000000000E+00  0.00000000000E+00  0.74505805969E-08  0.10566000000E+00  0.10566000000E+00 0.  1.
     999900   -1    0    0    0    0 -0.00000000000E+00 -0.00000000000E+00 -0.74505805969E-08  0.93827000000E+00  0.93827000000E+00 0.  1.
     999902    2    1    2    0    0 -0.19924624031E-01 -0.66645465893E-02  0.10268335003E-01  0.10205452715E+01  0.10202773180E+01 0.  0.
     999903    2    3    3    0    0  0.94340750839E-01 -0.78585378711E-01  0.37046803476E-01  0.12984539590E+00  0.20286009301E-01 0.  0.
         14    1    1    2    0    0  0.19924624031E-01  0.66645465893E-02 -0.10268335003E-01  0.23384728515E-01  0.00000000000E+00 0. -1.
     999901    1    3    3    0    0 -0.11426537487E+00  0.71920832122E-01 -0.26778468473E-01  0.89069987558E+00  0.88000000000E+00 0. -1.
        -11    1    4    4    0    0  0.57697595828E-01 -0.43397998363E-01  0.11954176125E-01  0.73181707237E-01  0.51100000000E-03 0.  1.
         11    1    4    4    0    0  0.36643155012E-01 -0.35187380348E-01  0.25092627350E-01  0.56663688666E-01  0.51100000000E-03 0. -1.
</event>
<event>
 8    1  0.1041149E+005  0.1043930E+01  0.7957747E-01            NaN
         13   -1    0    0    0    0  0.00000000000E+00  0.00000000000E+00  0.74505805969E-08  0.10566000000E+00  0.10566000000E+00 0. -1.
     999900   -1    0    0    0    0 -0.00000000000E+00 -0.00000000000E+00 -0.74505805969E-08  0.93827000000E+00  0.93827000000E+00 0. -1.
     999902    2    1    2    0    0  0.15263126305E-01  0.12940117518E-01 -0.12635375569E-01  0.10202643628E+01  0.10199898567E+01 0.  0.
     999903    2    3    3    0    0  0.29098723376E-01  0.92593289535E-02 -0.12742073237E+00  0.13269428106E+00  0.20958490277E-01 0.  0.
         14    1    1    2    0    0 -0.15263126305E-01 -0.12940117518E-01  0.12635375569E-01  0.23665637151E-01  0.00000000000E+00 0.  1.
     999901    1    3    3    0    0 -0.13835597071E-01  0.36807885646E-02  0.11478535680E+00  0.88757008179E+00  0.88000000000E+00 0.  1.
        -11    1    4    4    0    0  0.12461185319E-01 -0.16519801548E-02 -0.21420169289E-01  0.24841395922E-01  0.51100000000E-03 0. -1.
         11    1    4    4    0    0  0.16637538057E-01  0.10911309108E-01 -0.10600056308E+00  0.10785288514E+00  0.51100000000E-03 0.  1.
</event>
<event>
 8    1  0.1041149E+005  0.1043930E+01  0.7957747E-01            NaN
         13   -1    0    0    0    0  0.00000000000E+00  0.00000000000E+00  0.74505805969E-08  0.10566000000E+00  0.10566000000E+00 0. -1.
     999900   -1    0    0    0    0 -0.00000000000E+00 -0.00000000000E+00 -0.74505805969E-08  0.93827000000E+00  0.93827000000E+00 0. -1.
     999902    2    1    2    0    0  0.14112417227E-01 -0.35407032329E-02  0.18989162780E-01  0.10200075168E+01  0.10197269483E+01 0.  0.
     999903    2    3    3    0    0 -0.57392259967E-01 -0.12176485722E-01  0.11621628345E+00  0.13172793886E+00  0.20096940734E-01 0.  0.
         14    1    1    2    0    0 -0.14112417227E-01  0.35407032329E-02 -0.18989162780E-01  0.23922483200E-01  0.00000000000E+00 0.  1.
     999901    1    3    3    0    0  0.71504677194E-01  0.86357824892E-02 -0.97227120672E-01  0.88827957794E+00  0.88000000000E+00 0. -1.
        -11    1    4    4    0    0 -0.13556614864E-01 -0.98225042325E-02  0.20868080267E-01  0.26758200444E-01  0.51100000000E-03 0.  1.
         11    1    4    4    0    0 -0.43835645103E-01 -0.23539814896E-02  0.95348203185E-01  0.10496973841E+00  0.51100000000E-03 0. -1.
</event>
<event>
 8    1  0.1041149E+005  0.1043930E+01  0.7957747E-01            NaN
         13   -1    0    0    0    0  0.00000000000E+00  0.00000000000E+00  0.74505805969E-08  0.10566000000E+00  0.10566000000E+00 0.  1.
     999900   -1    0    0    0    0 -0.00000000000E+00 -0.00000000000E+00 -0.74505805969E-08  0.93827000000E+00  0.93827000000E+00 0. -1.
     999902    2    1    2    0    0  0.13301805066E-01  0.12821576747E-01 -0.19492725386E-02  0.10253523115E+01  0.10251839991E+01 0.  0.
     999903    2    3    3    0    0 -0.63399496094E-01 -0.98357213758E-01 -0.60175414957E-01  0.13314488225E+00  0.20318501473E-01 0.  0.
         14    1    1    2    0    0 -0.13301805066E-01 -0.12821576747E-01  0.19492725386E-02  0.18577688546E-01  0.00000000000E+00 0.  1.
     999901    1    3    3    0    0  0.76701301160E-01  0.11117879050E+00  0.58226142418E-01  0.89220742920E+00  0.88000000000E+00 0.  1.
        -11    1    4    4    0    0 -0.45469253202E-01 -0.80975429080E-01 -0.40353680058E-01  0.10125785756E+00  0.51100000000E-03 0.  1.
         11    1    4    4    0    0 -0.17930242892E-01 -0.17381784677E-01 -0.19821734899E-01  0.31887024699E-01  0.51100000000E-03 0. -1.
</event>
<event>
 7    1  0.1041149E+005  0.1043930E+01  0.7957747E-01            NaN
         13   -1    0    0    0    0  0.00000000000E+00  0.00000000000E+00  0.74505805969E-08  0.10566000000E+00  0.10566000000E+00 0.  1.
     999900   -1    0    0    0    0 -0.00000000000E+00 -0.00000000000E+00 -0.74505805969E-08  0.93827000000E+00  0.93827000000E+00 0.  1.
     999902    2    1    2    0    0  0.10085974361E-01 -0.22141146493E-01  0.25089128828E-02  0.10194708117E+01  0.10191773565E+01 0.  0.
         14    1    1    2    0    0 -0.10085974361E-01  0.22141146493E-01 -0.25089128828E-02  0.24459188267E-01  0.00000000000E+00 0.  1.
     999901    1    3    3    0    0 -0.68716548030E-01 -0.55959197278E-01 -0.82077586954E-01  0.88825116156E+00  0.88000000000E+00 0. -1.
        -11    1    3    3    0    0  0.37797219045E-01  0.43656464525E-01  0.54604330149E-01  0.79475849504E-01  0.51100000000E-03 0.  1.
         11    1    3    3    0    0  0.41005303346E-01 -0.98384137404E-02  0.29982169687E-01  0.51743800668E-01  0.51100000000E-03 0. -1.
</event>
<event>
 8    1  0.1041149E+005  0.1043930E+01  0.7957747E-01            NaN
         13   -1    0    0    0    0  0.00000000000E+00  0.00000000000E+00  0.74505805969E-08  0.10566000000E+00  0.10566000000E+00 0. -1.
     999900   -1    0    0    0    0 -0.00000000000E+00 -0.00000000000E+00 -0.74505805969E-08  0.93827000000E+00  0.93827000000E+00 0. -1.
     999902    2    1    2    0    0 -0.12912469459E-02  0.97584738765E-02  0.21556899166E-01  0.10202320036E+01  0.10199567374E+01 0.  0.
     999903    2    3    3    0    0 -0.25969045256E-01 -0.23668614453E-02  0.12922840830E+00  0.13324318104E+00  0.19333143536E-01 0.  0.
         14    1    1    2    0    0  0.12912469459E-02 -0.97584738765E-02 -0.21556899166E-01  0.23697996386E-01  0.00000000000E+00 0.  1.
     999901    1    3    3    0    0  0.24677798310E-01  0.12125335322E-01 -0.10767150913E+00  0.88698882257E+00  0.88000000000E+00 0. -1.
        -11    1    4    4    0    0 -0.48957701352E-02 -0.82494107188E-02  0.25937768397E-01  0.27659542528E-01  0.51100000000E-03 0. -1.
         11    1    4    4    0    0 -0.21073275121E-01  0.58825492734E-02  0.10329063990E+00  0.10558363852E+00  0.51100000000E-03 0.  1.
</event>
<event>
 8    1  0.1041149E+005  0.1043930E+01  0.7957747E-01            NaN
         13   -1    0    0    0    0  0.00000000000E+00  0.00000000000E+00  0.74505805969E-08  0.10566000000E+00  0.10566000000E+00 0. -1.
     999900   -1    0    0    0    0 -0.00000000000E+00 -0.00000000000E+00 -0.74505805969E-08  0.93827000000E+00  0.93827000000E+00 0.  1.
     999902    2    1    2    0    0  0.22832028204E-01  0.10147720460E-02  0.68594308931E-02  0.10200682510E+01  0.10197891221E+01 0.  0.
     999903    2    3    3    0    0  0.33179097272E-02 -0.34810974295E-01  0.12512099909E+00  0.13122063556E+00  0.18460182230E-01 0.  0.
         14    1    1    2    0    0 -0.22832028204E-01 -0.10147720460E-02 -0.68594308931E-02  0.23861749022E-01  0.00000000000E+00 0.  1.
     999901    1    3    3    0    0  0.19514118477E-01  0.35825746341E-01 -0.11826156819E+00  0.88884761542E+00  0.88000000000E+00 0.  1.
        -11    1    4    4    0    0  0.97521759445E-02 -0.24616478620E-01  0.71187637709E-01  0.75954044256E-01  0.51100000000E-03 0. -1.
         11    1    4    4    0    0 -0.64342662174E-02 -0.10194495675E-01  0.53933361378E-01  0.55266591304E-01  0.51100000000E-03 0.  1.
</event>
<event>
 8    1  0.1081172E+005  0.1043930E+01  0.7957747E-01            NaN
         13   -1    0    0    0    0  0.00000000000E+00  0.00000000000E+00  0.74505805969E-08  0.10566000000E+00  0.10566000000E+00 0. -1.
     999900   -1    0    0    0    0 -0.00000000000E+00 -0.00000000000E+00 -0.74505805969E-08  0.93827000000E+00  0.93827000000E+00 0.  1.
     999902    2    1    2    0    0  0.79303747684E-02 -0.17111735966E-01 -0.11347949734E-01  0.10219191319E+01  0.10216820610E+01 0.  0.
     999903    2    3    3    0    0 -0.55472762548E-01 -0.98672906362E-01 -0.68644202689E-01  0.13402553301E+00  0.20910454331E-01 0.  0.
         14    1    1    2    0    0 -0.79303747684E-02  0.17111735966E-01  0.11347949734E-01  0.22010868109E-01  0.00000000000E+00 0. -1.
     999901    1    3    3    0    0  0.63403137316E-01  0.81561170396E-01  0.57296252954E-01  0.88789359888E+00  0.88000000000E+00 0. -1.
        -11    1    4    4    0    0 -0.41908639471E-01 -0.55195340882E-01 -0.36981143090E-01  0.78553967326E-01  0.51100000000E-03 0. -1.
         11    1    4    4    0    0 -0.13564123076E-01 -0.43477565480E-01 -0.31663059599E-01  0.55471565681E-01  0.51100000000E-03 0.  1.
</event>
<event>
 8    1  0.1041149E+005  0.1043930E+01  0.7957747E-01            NaN
         13   -1    0    0    0    0  0.00000000000E+00  0.00000000000E+00  0.74505805969E-08  0.10566000000E+00  0.10566000000E+00 0. -1.
     999900   -1    0    0    0    0 -0.00000000000E+00 -0.00000000000E+00 -0.74505805969E-08  0.93827000000E+00  0.93827000000E+00 0. -1.
     999902    2    1    2    0    0  0.94970400762E-02  0.51212608651E-02  0.18277258266E-01  0.10227055035E+01  0.10224852408E+01 0.  0.
     999903    2    3    3    0    0 -0.41378914989E-01 -0.63996978505E-01 -0.10363920237E+00  0.13016457041E+00  0.19846996246E-01 0.  0.
         14    1    1    2    0    0 -0.94970400762E-02 -0.51212608651E-02 -0.18277258266E-01  0.21224496526E-01  0.00000000000E+00 0.  1.
     999901    1    3    3    0    0  0.50875955065E-01  0.69118239370E-01  0.12191646063E+00  0.89254093306E+00  0.88000000000E+00 0.  1.
        -11    1    4    4    0    0 -0.26262876852E-01 -0.25028086466E-01 -0.56655140909E-01  0.67277112936E-01  0.51100000000E-03 0. -1.
         11    1    4    4    0    0 -0.15116038137E-01 -0.38968892038E-01 -0.46984061458E-01  0.62887457476E-01  0.51100000000E-03 0.  1.
</event>
<event>
 8    1  0.1041149E+005  0.1043930E+01  0.7957747E-01            NaN
         13   -1    0    0    0    0  0.00000000000E+00  0.00000000000E+00  0.74505805969E-08  0.10566000000E+00  0.10566000000E+00 0.  1.
     999900   -1    0    0    0    0 -0.00000000000E+00 -0.00000000000E+00 -0.74505805969E-08  0.93827000000E+00  0.93827000000E+00 0.  1.
     999902    2    1    2    0    0 -0.12749399715E-01  0.14867255412E-01  0.13013094757E-01  0.10204156828E+01  0.10201447165E+01 0.  0.
     999903    2    3    3    0    0 -0.86794820248E-01 -0.57622292436E-01 -0.75117340354E-01  0.12996386918E+00  0.19857569411E-01 0.  0.
         14    1    1    2    0    0  0.12749399715E-01 -0.14867255412E-01 -0.13013094757E-01  0.23514317165E-01  0.00000000000E+00 0.  1.
     999901    1    3    3    0    0  0.74045420533E-01  0.72489547848E-01  0.88130435111E-01  0.89045181366E+00  0.88000000000E+00 0. -1.
        -11    1    4    4    0    0 -0.43550505833E-01 -0.19192398112E-01 -0.40855550698E-01  0.62725049601E-01  0.51100000000E-03 0.  1.
         11    1    4    4    0    0 -0.43244314415E-01 -0.38429894323E-01 -0.34261789656E-01  0.67238819579E-01  0.51100000000E-03 0. -1.
</event>
<event>
 8    1  0.1041149E+005  0.1043930E+01  0.7957747E-01            NaN
         13   -1    0    0    0    0  0.00000000000E+00  0.00000000000E+00  0.74505805969E-08  0.10566000000E+00  0.10566000000E+00 0. -1.
     999900   -1    0    0    0    0 -0.00000000000E+00 -0.00000000000E+00 -0.74505805969E-08  0.93827000000E+00  0.93827000000E+00 0.  1.
     999902    2    1    2    0    0 -0.33610251655E-02 -0.33882088147E-01 -0.22371299084E-02  0.10098082014E+01  0.10092315426E+01 0.  0.
     999903    2    3    3    0    0  0.71727284602E-01  0.34739138692E-01 -0.87282123370E-01  0.11987574447E+00  0.20010345806E-01 0.  0.
         14    1    1    2    0    0  0.33610251655E-02  0.33882088147E-01  0.22371299084E-02  0.34121798569E-01  0.00000000000E+00 0.  1.
     999901    1    3    3    0    0 -0.75088309768E-01 -0.68621226839E-01  0.85044993461E-01  0.88993245696E+00  0.88000000000E+00 0. -1.
        -11    1    4    4    0    0  0.71198477114E-01  0.36668757859E-01 -0.84679497618E-01  0.11655341859E+00  0.51100000000E-03 0. -1.
         11    1    4    4    0    0  0.52880748827E-03 -0.19296191668E-02 -0.26026257516E-02  0.33223258858E-02  0.51100000000E-03 0.  1.
</event>
<event>
 8    1  0.1041149E+005  0.1043930E+01  0.7957747E-01            NaN
         13   -1    0    0    0    0  0.00000000000E+00  0.00000000000E+00  0.74505805969E-08  0.10566000000E+00  0.10566000000E+00 0. -1.
     999900   -1    0    0    0    0 -0.00000000000E+00 -0.00000000000E+00 -0.74505805969E-08  0.93827000000E+00  0.93827000000E+00 0.  1.
     999902    2    1    2    0    0  0.43301285026E-02  0.14738295302E-01 -0.16379583301E-01  0.10214743078E+01  0.10212274494E+01 0.  0.
     999903    2    3    3    0    0 -0.11032584301E+00 -0.49507048677E-01  0.41170150549E-01  0.12985475450E+00  0.23335305161E-01 0.  0.
         14    1    1    2    0    0 -0.43301285026E-02 -0.14738295302E-01  0.16379583301E-01  0.22455692160E-01  0.00000000000E+00 0. -1.
     999901    1    3    3    0    0  0.11465597151E+00  0.64245343978E-01 -0.57549733851E-01  0.89161955334E+00  0.88000000000E+00 0. -1.
        -11    1    4    4    0    0 -0.57061367753E-01 -0.18262895541E-01  0.10224952991E-01  0.60781114074E-01  0.51100000000E-03 0.  1.
         11    1    4    4    0    0 -0.53264475254E-01 -0.31244153135E-01  0.30945197559E-01  0.69073640429E-01  0.51100000000E-03 0. -1.
</event>
<event>
 8    1  0.1041149E+005  0.1043930E+01  0.7957747E-01            NaN
         13   -1    0    0    0    0  0.00000000000E+00  0.00000000000E+00  0.74505805969E-08  0.10566000000E+00  0.10566000000E+00 0.  1.
     999900   -1    0    0    0    0 -0.00000000000E+00 -0.00000000000E+00 -0.74505805969E-08  0.93827000000E+00  0.93827000000E+00 0.  1.
     999902    2    1    2    0    0 -0.13182462519E-01 -0.14646373355E-01 -0.15149554346E-01  0.10190743655E+01  0.10187712009E+01 0.  0.
     999903    2    3    3    0    0 -0.32896812726E-01 -0.68760882325E-01  0.10261193998E+00  0.12936384782E+00  0.19888078611E-01 0.  0.
         14    1    1    2    0    0  0.13182462519E-01  0.14646373355E-01  0.15149554346E-01  0.24855634521E-01  0.00000000000E+00 0.  1.
     999901    1    3    3    0    0  0.19714350206E-01  0.54114508969E-01 -0.11776149433E+00  0.88971051766E+00  0.88000000000E+00 0.  1.
        -11    1    4    4    0    0 -0.14800956023E-02 -0.14139380265E-01  0.10168385690E-01  0.17486278787E-01  0.51100000000E-03 0.  1.
         11    1    4    4    0    0 -0.31416717123E-01 -0.54621502060E-01  0.92443554291E-01  0.11187756903E+00  0.51100000000E-03 0. -1.
</event>
<event>
 8    1  0.1041149E+005  0.1043930E+01  0.7957747E-01            NaN
         13   -1    0    0    0    0  0.00000000000E+00  0.00000000000E+00  0.74505805969E-08  0.10566000000E+00  0.10566000000E+00 0. -1.
     999900   -1    0    0    0    0 -0.00000000000E+00 -0.00000000000E+00 -0.74505805969E-08  0.93827000000E+00  0.93827000000E+00 0. -1.
     999902    2    1    2    0    0  0.59387815565E-02  0.21116637197E-03  0.23845621791E-01  0.10193550657E+01  0.10190587925E+01 0.  0.
     999903    2    3    3    0    0 -0.85987954660E-01  0.92626952657E-01  0.22104928294E-01  0.12975165270E+00  0.19317940353E-01 0.  0.
         14    1    1    2    0    0 -0.59387815565E-02 -0.21116637197E-03 -0.23845621791E-01  0.24574934307E-01  0.00000000000E+00 0.  1.
     999901    1    3    3    0    0  0.91926736216E-01 -0.92415786286E-01  0.17406934971E-02  0.88960341299E+00  0.88000000000E+00 0. -1.
        -11    1    4    4    0    0 -0.22980858691E-01  0.35951708155E-01  0.23801677512E-02  0.42738407843E-01  0.51100000000E-03 0.  1.
         11    1    4    4    0    0 -0.63007095969E-01  0.56675244502E-01  0.19724760543E-01  0.87013244861E-01  0.51100000000E-03 0. -1.
</event>
<event>
 8    1  0.1041149E+005  0.1043930E+01  0.7957747E-01            NaN
         13   -1    0    0    0    0  0.00000000000E+00  0.00000000000E+00  0.74505805969E-08  0.10566000000E+00  0.10566000000E+00 0. -1.
     999900   -1    0    0    0    0 -0.00000000000E+00 -0.00000000000E+00 -0.74505805969E-08  0.93827000000E+00  0.93827000000E+00 0. -1.
     999902    2    1    2    0    0  0.78399603135E-02  0.89914132842E-02 -0.13573264301E-01  0.10258594717E+01  0.10257003030E+01 0.  0.
     999903    2    3    3    0    0  0.72493712135E-01 -0.11226590385E+00  0.22591974294E-02  0.13505415543E+00  0.19379098510E-01 0.  0.
         14    1    1    2    0    0 -0.78399603135E-02 -0.89914132842E-02  0.13573264301E-01  0.18070528336E-01  0.00000000000E+00 0.  1.
     999901    1    3    3    0    0 -0.64653751822E-01  0.12125731714E+00 -0.15832461730E-01  0.89080531623E+00  0.88000000000E+00 0. -1.
        -11    1    4    4    0    0  0.39568567781E-01 -0.75734062005E-01 -0.35934827121E-02  0.85524814780E-01  0.51100000000E-03 0. -1.
         11    1    4    4    0    0  0.32925144354E-01 -0.36531841848E-01  0.58526801415E-02  0.49529340651E-01  0.51100000000E-03 0.  1.
</event>
<event>
 8    1  0.1041149E+005  0.1043930E+01  0.7957747E-01            NaN
         13   -1    0    0    0    0  0.00000000000E+00  0.00000000000E+00  0.74505805969E-08  0.10566000000E+00  0.10566000000E+00 0.  1.
     999900   -1    0    0    0    0 -0.00000000000E+00 -0.00000000000E+00 -0.74505805969E-08  0.93827000000E+00  0.93827000000E+00 0.  1.
     999902    2    1    2    0    0 -0.81692532787E-02 -0.19019190540E-01 -0.14253032946E-01  0.10187980431E+01  0.10184880154E+01 0.  0.
     999903    2    3    3    0    0  0.13848359912E-01 -0.57510738263E-01 -0.11598127467E+00  0.13182847787E+00  0.20684037666E-01 0.  0.
         14    1    1    2    0    0  0.81692532787E-02  0.19019190540E-01  0.14253032946E-01  0.25131956869E-01  0.00000000000E+00 0.  1.
     999901    1    3    3    0    0 -0.22017613191E-01  0.38491547723E-01  0.10172824173E+00  0.88696956526E+00  0.88000000000E+00 0. -1.
        -11    1    4    4    0    0  0.14763000297E-02 -0.81667880606E-02 -0.36686216589E-01  0.37616691742E-01  0.51100000000E-03 0. -1.
         11    1    4    4    0    0  0.12372059882E-01 -0.49343950203E-01 -0.79295058085E-01  0.94211786126E-01  0.51100000000E-03 0.  1.
</event>
<event>
 8    1  0.1041149E+005  0.1043930E+01  0.7957747E-01            NaN
         13   -1    0    0    0    0  0.00000000000E+00  0.00000000000E+00  0.74505805969E-08  0.10566000000E+00  0.10566000000E+00 0.  1.
     999900   -1    0    0    0    0 -0.00000000000E+00 -0.00000000000E+00 -0.74505805969E-08  0.93827000000E+00  0.93827000000E+00 0. -1.
     999902    2    1    2    0    0  0.11052572848E-01 -0.19834048162E-01  0.73877840787E-02  0.10200526428E+01  0.10197731443E+01 0.  0.
     999903    2    3    3    0    0  0.20866831428E-01 -0.12927383766E+00 -0.12225831416E-01  0.13300242939E+00  0.19824871090E-01 0.  0.
         14    1    1    2    0    0 -0.11052572848E-01  0.19834048162E-01 -0.73877840787E-02  0.23877357196E-01  0.00000000000E+00 0. -1.
     999901    1    3    3    0    0 -0.98142585799E-02  0.10943978950E+00  0.19613615495E-01  0.88705021341E+00  0.88000000000E+00 0.  1.
        -11    1    4    4    0    0 -0.88730063457E-03 -0.88292115354E-02 -0.54378216150E-02  0.10419851423E-01  0.51100000000E-03 0. -1.
         11    1    4    4    0    0  0.21754132062E-01 -0.12044462613E+00 -0.67880098012E-02  0.12258257797E+00  0.51100000000E-03 0.  1.
</event>
<event>
 8    1  0.1041149E+005  0.1043930E+01  0.7957747E-01            NaN
         13   -1    0    0    0    0  0.00000000000E+00  0.00000000000E+00  0.74505805969E-08  0.10566000000E+00  0.10566000000E+00 0.  1.
     999900   -1    0    0    0    0 -0.00000000000E+00 -0.00000000000E+00 -0.74505805969E-08  0.93827000000E+00  0.93827000000E+00 0. -1.
     999902    2    1    2    0    0  0.21993862428E-01 -0.67777754791E-02 -0.47712939335E-02  0.10204260967E+01  0.10201553731E+01 0.  0.
     999903    2    3    3    0    0 -0.90667911060E-01  0.43093311103E-01 -0.78791907425E-01  0.12876536990E+00  0.17165437707E-01 0.  0.
         14    1    1    2    0    0 -0.21993862428E-01  0.67777754791E-02  0.47712939335E-02  0.23503903308E-01  0.00000000000E+00 0.  1.
     999901    1    3    3    0    0  0.11266177349E+00 -0.49871086583E-01  0.74020613492E-01  0.89166072679E+00  0.88000000000E+00 0.  1.
        -11    1    4    4    0    0 -0.26965071021E-01  0.44961275850E-02 -0.20108813660E-01  0.33940473277E-01  0.51100000000E-03 0.  1.
         11    1    4    4    0    0 -0.63702840039E-01  0.38597183518E-01 -0.58683093765E-01  0.94824896623E-01  0.51100000000E-03 0. -1.
</event>
<event>
 8    1  0.1041149E+005  0.1043930E+01  0.7957747E-01            NaN
         13   -1    0    0    0    0  0.00000000000E+00  0.00000000000E+00  0.74505805969E-08  0.10566000000E+00  0.10566000000E+00 0. -1.
     999900   -1    0    0    0    0 -0.00000000000E+00 -0.00000000000E+00 -0.74505805969E-08  0.93827000000E+00  0.93827000000E+00 0. -1.
     999902    2    1    2    0    0 -0.64232786338E-02 -0.91850747823E-02  0.18743585065E-01  0.10220909046E+01  0.10218575591E+01 0.  0.
     999903    2    3    3    0    0  0.39977093857E-01  0.12227183258E+00 -0.10192292784E-01  0.13064758161E+00  0.20404378798E-01 0.  0.
         14    1    1    2    0    0  0.64232786338E-02  0.91850747823E-02 -0.18743585065E-01  0.21839095408E-01  0.00000000000E+00 0.  1.
     999901    1    3    3    0    0 -0.46400372491E-01 -0.13145690736E+00  0.28935877849E-01  0.89144332298E+00  0.88000000000E+00 0. -1.
        -11    1    4    4    0    0  0.10465528683E-01  0.64779008741E-01 -0.48013990308E-02  0.65796366296E-01  0.51100000000E-03 0. -1.
         11    1    4    4    0    0  0.29511565174E-01  0.57492823835E-01 -0.53908937530E-02  0.64851215316E-01  0.51100000000E-03 0.  1.
</event>
<event>
 8    1  0.1041149E+005  0.1043930E+01  0.7957747E-01            NaN
         13   -1    0    0    0    0  0.00000000000E+00  0.00000000000E+00  0.74505805969E-08  0.10566000000E+00  0.10566000000E+00 0.  1.
     999900   -1    0    0    0    0 -0.00000000000E+00 -0.00000000000E+00 -0.74505805969E-08  0.93827000000E+00  0.93827000000E+00 0. -1.
     999902    2    1    2    0    0 -0.65454590792E-02  0.18070718923E-01 -0.14769500229E-01  0.10196909395E+01  0.10194028056E+01 0.  0.
     999903    2    3    3    0    0 -0.10647993402E+00  0.30636655766E-02  0.71289751846E-01  0.12973683630E+00  0.20051323637E-01 0.  0.
         14    1    1    2    0    0  0.65454590792E-02 -0.18070718923E-01  0.14769500229E-01  0.24239060500E-01  0.00000000000E+00 0.  1.
     999901    1    3    3    0    0  0.99934474940E-01  0.15007053346E-01 -0.86059252075E-01  0.88995410320E+00  0.88000000000E+00 0. -1.
        -11    1    4    4    0    0 -0.41992492935E-01 -0.69630850796E-02  0.21772370894E-01  0.47813714268E-01  0.51100000000E-03 0. -1.
         11    1    4    4    0    0 -0.64487441084E-01  0.10026750656E-01  0.49517380952E-01  0.81923122033E-01  0.51100000000E-03 0.  1.
</event>
<event>
 8    1  0.1041149E+005  0.1043930E+01  0.7957747E-01            NaN
         13   -1    0    0    0    0  0.00000000000E+00  0.00000000000E+00  0.74505805969E-08  0.10566000000E+00  0.10566000000E+00 0. -1.
     999900   -1    0    0    0    0 -0.00000000000E+00 -0.00000000000E+00 -0.74505805969E-08  0.93827000000E+00  0.93827000000E+00 0. -1.
     999902    2    1    2    0    0 -0.19992017115E-01 -0.11540609129E-01 -0.52035032509E-02  0.10202668883E+01  0.10199924414E+01 0.  0.
     999903    2    3    3    0    0 -0.10619396170E+00 -0.21087788565E-03 -0.77740909462E-01  0.13301223867E+00  0.19271861895E-01 0.  0.
         14    1    1    2    0    0  0.19992017115E-01  0.11540609129E-01  0.52035032509E-02  0.23663111661E-01  0.00000000000E+00 0.  1.
     999901    1    3    3    0    0  0.86201944585E-01 -0.11329731244E-01  0.72537406211E-01  0.88725464967E+00  0.88000000000E+00 0.  1.
        -11    1    4    4    0    0 -0.90949100679E-01 -0.34931828614E-02 -0.58315806861E-01  0.10809688104E+00  0.51100000000E-03 0. -1.
         11    1    4    4    0    0 -0.15244861021E-01  0.32823049757E-02 -0.19425102601E-01  0.24915357624E-01  0.51100000000E-03 0.  1.
</event>
<event>
 8    1  0.1041149E+005  0.1043930E+01  0.7957747E-01            NaN
         13   -1    0    0    0    0  0.00000000000E+00  0.00000000000E+00  0.74505805969E-08  0.10566000000E+00  0.10566000000E+00 0. -1.
     999900   -1    0    0    0    0 -0.00000000000E+00 -0.00000000000E+00 -0.74505805969E-08  0.93827000000E+00  0.93827000000E+00 0. -1.
     999902    2    1    2    0    0 -0.50563358358E-02  0.15417567070E-01  0.17446955056E-01  0.10201042965E+01  0.10198260203E+01 0.  0.
     999903    2    3    3    0    0  0.38235892964E-01  0.37651316083E-01  0.11972162795E+00  0.13284522194E+00  0.20856166522E-01 0.  0.
         14    1    1    2    0    0  0.50563358358E-02 -0.15417567070E-01 -0.17446955056E-01  0.23825703498E-01  0.00000000000E+00 0.  1.
     999901    1    3    3    0    0 -0.43292228800E-01 -0.22233749013E-01 -0.10227467289E+00  0.88725907456E+00  0.88000000000E+00 0. -1.
        -11    1    4    4    0    0  0.20588867590E-01  0.66058041086E-02  0.39527902920E-01  0.45058343809E-01  0.51100000000E-03 0. -1.
         11    1    4    4    0    0  0.17647025375E-01  0.31045511974E-01  0.80193725026E-01  0.87786878136E-01  0.51100000000E-03 0.  1.
</event>
<event>
 8    1  0.1041149E+005  0.1043930E+01  0.7957747E-01            NaN
         13   -1    0    0    0    0  0.00000000000E+00  0.00000000000E+00  0.74505805969E-08  0.10566000000E+00  0.10566000000E+00 0.  1.
     999900   -1    0    0    0    0 -0.00000000000E+00 -0.00000000000E+00 -0.74505805969E-08  0.93827000000E+00  0.93827000000E+00 0.  1.
     999902    2    1    2    0    0 -0.79126956291E-02  0.18624539297E-01 -0.67376301319E-02  0.10226020869E+01  0.10223796498E+01 0.  0.
     999903    2    3    3    0    0 -0.32795635622E-02  0.10775356074E+00 -0.78902137263E-01  0.13514889692E+00  0.20447290403E-01 0.  0.
         14    1    1    2    0    0  0.79126956291E-02 -0.18624539297E-01  0.67376301319E-02  0.21327913070E-01  0.00000000000E+00 0. -1.
     999901    1    3    3    0    0 -0.46331320669E-02 -0.89129021438E-01  0.72164507131E-01  0.88745319001E+00  0.88000000000E+00 0.  1.
        -11    1    4    4    0    0  0.74290496480E-02  0.39843562059E-01 -0.35195079713E-01  0.53681048548E-01  0.51100000000E-03 0. -1.
         11    1    4    4    0    0 -0.10708613210E-01  0.67909998677E-01 -0.43707057550E-01  0.81467848368E-01  0.51100000000E-03 0.  1.
</event>
<event>
 8    1  0.1041149E+005  0.1043930E+01  0.7957747E-01            NaN
         13   -1    0    0    0    0  0.00000000000E+00  0.00000000000E+00  0.74505805969E-08  0.10566000000E+00  0.10566000000E+00 0.  1.
     999900   -1    0    0    0    0 -0.00000000000E+00 -0.00000000000E+00 -0.74505805969E-08  0.93827000000E+00  0.93827000000E+00 0.  1.
     999902    2    1    2    0    0 -0.80282821554E-03 -0.22426353099E-01 -0.12021103721E-01  0.10184723335E+01  0.10181541148E+01 0.  0.
     999903    2    3    3    0    0  0.27892006638E-01 -0.30566649650E-01 -0.12279891981E+00  0.13102578163E+00  0.19388054060E-01 0.  0.
         14    1    1    2    0    0  0.80282821554E-03  0.22426353099E-01  0.12021103721E-01  0.25457666451E-01  0.00000000000E+00 0.  1.
     999901    1    3    3    0    0 -0.28694834853E-01  0.81402965506E-02  0.11077781609E+00  0.88744655192E+00  0.88000000000E+00 0. -1.
        -11    1    4    4    0    0 -0.20191111113E-02 -0.29654647498E-02 -0.22374823156E-01  0.22666376488E-01  0.51100000000E-03 0. -1.
         11    1    4    4    0    0  0.29911117749E-01 -0.27601184900E-01 -0.10042409665E+00  0.10835940514E+00  0.51100000000E-03 0.  1.
</event>
<event>
 8    1  0.1041149E+005  0.1043930E+01  0.7957747E-01            NaN
         13   -1    0    0    0    0  0.00000000000E+00  0.00000000000E+00  0.74505805969E-08  0.10566000000E+00  0.10566000000E+00 0.  1.
     999900   -1    0    0    0    0 -0.00000000000E+00 -0.00000000000E+00 -0.74505805969E-08  0.93827000000E+00  0.93827000000E+00 0.  1.
     999902    2    1    2    0    0  0.19953468389E-01  0.11574990757E-01  0.45310362200E-02  0.10204214569E+01  0.10201506252E+01 0.  0.
     999903    2    3    3    0    0  0.98975335126E-01  0.25887063824E-01 -0.81849718197E-01  0.13255270214E+00  0.20114309306E-01 0.  0.
         14    1    1    2    0    0 -0.19953468389E-01 -0.11574990757E-01 -0.45310362200E-02  0.23508543149E-01  0.00000000000E+00 0.  1.
     999901    1    3    3    0    0 -0.79021866737E-01 -0.14312073067E-01  0.86380754417E-01  0.88786875471E+00  0.88000000000E+00 0. -1.
        -11    1    4    4    0    0  0.42447071914E-01  0.84753645420E-02 -0.47006640891E-01  0.63902043215E-01  0.51100000000E-03 0. -1.
         11    1    4    4    0    0  0.56528263212E-01  0.17411699282E-01 -0.34843077306E-01  0.68650658925E-01  0.51100000000E-03 0.  1.
</event>
<event>
 8    1  0.1041149E+005  0.1043930E+01  0.7957747E-01            NaN
         13   -1    0    0    0    0  0.00000000000E+00  0.00000000000E+00  0.74505805969E-08  0.10566000000E+00  0.10566000000E+00 0.  1.
     999900   -1    0    0    0    0 -0.00000000000E+00 -0.00000000000E+00 -0.74505805969E-08  0.93827000000E+00  0.93827000000E+00 0.  1.
     999902    2    1    2    0    0 -0.14961270835E-01  0.14868825874E-01 -0.10046408475E-01  0.10205665257E+01  0.10202990647E+01 0.  0.
     999903    2    3    3    0    0  0.67970186590E-01  0.10524139192E+00 -0.35510298934E-01  0.13169463559E+00  0.19667202976E-01 0.  0.
         14    1    1    2    0    0  0.14961270835E-01 -0.14868825874E-01  0.10046408475E-01  0.23363474295E-01  0.00000000000E+00 0.  1.
     999901    1    3    3    0    0 -0.82931457425E-01 -0.90372566049E-01  0.25463890459E-01  0.88887189012E+00  0.88000000000E+00 0.  1.
        -11    1    4    4    0    0  0.23921940992E-01  0.51492214771E-01 -0.99302986955E-02  0.57641819853E-01  0.51100000000E-03 0. -1.
         11    1    4    4    0    0  0.44048245598E-01  0.53749177153E-01 -0.25580000239E-01  0.74052815734E-01  0.51100000000E-03 0.  1.
</event>
<event>
 8    1  0.1041149E+005  0.1043930E+01  0.7957747E-01            NaN
         13   -1    0    0    0    0  0.00000000000E+00  0.00000000000E+00  0.74505805969E-08  0.10566000000E+00  0.10566000000E+00 0. -1.
     999900   -1    0    0    0    0 -0.00000000000E+00 -0.00000000000E+00 -0.74505805969E-08  0.93827000000E+00  0.93827000000E+00 0. -1.
     999902    2    1    2    0    0  0.12071079429E-02 -0.10310513726E-01 -0.22073519732E-01  0.10195372946E+01  0.10192454518E+01 0.  0.
     999903    2    3    3    0    0 -0.56809739680E-01  0.53292829706E-01 -0.10392540381E+00  0.13155583600E+00  0.20951759091E-01 0.  0.
         14    1    1    2    0    0 -0.12071079429E-02  0.10310513726E-01  0.22073519732E-01  0.24392705390E-01  0.00000000000E+00 0. -1.
     999901    1    3    3    0    0  0.58016847623E-01 -0.63603343432E-01  0.81851884077E-01  0.88798145861E+00  0.88000000000E+00 0.  1.
        -11    1    4    4    0    0 -0.19792309976E-01  0.27016981300E-01 -0.30910326739E-01  0.45578089395E-01  0.51100000000E-03 0.  1.
         11    1    4    4    0    0 -0.37017429704E-01  0.26275848406E-01 -0.73015077069E-01  0.85977746608E-01  0.51100000000E-03 0. -1.
</event>
<event>
 8    1  0.1041149E+005  0.1043930E+01  0.7957747E-01            NaN
         13   -1    0    0    0    0  0.00000000000E+00  0.00000000000E+00  0.74505805969E-08  0.10566000000E+00  0.10566000000E+00 0.  1.
     999900   -1    0    0    0    0 -0.00000000000E+00 -0.00000000000E+00 -0.74505805969E-08  0.93827000000E+00  0.93827000000E+00 0. -1.
     999902    2    1    2    0    0  0.11391561287E-01 -0.13673149256E-01  0.17290431279E-01  0.10191170660E+01  0.10188149550E+01 0.  0.
     999903    2    3    3    0    0 -0.58038903232E-01 -0.34220401017E-01  0.11091259715E+00  0.13119370845E+00  0.19251877734E-01 0.  0.
         14    1    1    2    0    0 -0.11391561287E-01  0.13673149256E-01 -0.17290431279E-01  0.24812933985E-01  0.00000000000E+00 0. -1.
     999901    1    3    3    0    0  0.69430464519E-01  0.20547251761E-01 -0.93622165876E-01  0.88792335756E+00  0.88000000000E+00 0. -1.
        -11    1    4    4    0    0 -0.29728942383E-01 -0.14985645846E-01  0.37222605927E-01  0.49941596987E-01  0.51100000000E-03 0.  1.
         11    1    4    4    0    0 -0.28309960849E-01 -0.19234755172E-01  0.73689991228E-01  0.81252111468E-01  0.51100000000E-03 0. -1.
</event>
<event>
 8    1  0.1041149E+005  0.1043930E+01  0.7957747E-01            NaN
         13   -1    0    0    0    0  0.00000000000E+00  0.00000000000E+00  0.74505805969E-08  0.10566000000E+00  0.10566000000E+00 0. -1.
     999900   -1    0    0    0    0 -0.00000000000E+00 -0.00000000000E+00 -0.74505805969E-08  0.93827000000E+00  0.93827000000E+00 0. -1.
     999902    2    1    2    0    0 -0.85810185890E-02 -0.54695698710E-02 -0.20792140370E-01  0.10207812813E+01  0.10205187706E+01 0.  0.
     999903    2    3    3    0    0  0.28190059045E-01  0.92238895119E-01 -0.87998299935E-01  0.13206550891E+00  0.19872207977E-01 0.  0.
         14    1    1    2    0    0  0.85810185890E-02  0.54695698710E-02  0.20792140370E-01  0.23148718663E-01  0.00000000000E+00 0. -1.
     999901    1    3    3    0    0 -0.36771077634E-01 -0.97708464990E-01  0.67206159565E-01  0.88871577243E+00  0.88000000000E+00 0.  1.
        -11    1    4    4    0    0  0.33222400212E-02  0.22566928630E-01 -0.11147284640E-01  0.25393436600E-01  0.51100000000E-03 0. -1.
         11    1    4    4    0    0  0.24867819024E-01  0.69671966489E-01 -0.76851015294E-01  0.10667207231E+00  0.51100000000E-03 0.  1.
</event>
<event>
 8    1  0.1041149E+005  0.1043930E+01  0.7957747E-01            NaN
         13   -1    0    0    0    0  0.00000000000E+00  0.00000000000E+00  0.74505805969E-08  0.10566000000E+00  0.10566000000E+00 0. -1.
     999900   -1    0    0    0    0 -0.00000000000E+00 -0.00000000000E+00 -0.74505805969E-08  0.93827000000E+00  0.93827000000E+00 0. -1.
     999902    2    1    2    0    0 -0.65597235084E-02  0.32263238655E-02  0.21787927284E-01  0.10209484223E+01  0.10206897315E+01 0.  0.
     999903    2    3    3    0    0 -0.66271190151E-01 -0.82108439389E-01  0.79066424903E-01  0.13295725829E+00  0.17101652628E-01 0.  0.
         14    1    1    2    0    0  0.65597235084E-02 -0.32263238655E-02 -0.21787927284E-01  0.22981577699E-01  0.00000000000E+00 0.  1.
     999901    1    3    3    0    0  0.59711466643E-01  0.85334763255E-01 -0.57278497619E-01  0.88799116401E+00  0.88000000000E+00 0.  1.
        -11    1    4    4    0    0 -0.44213237062E-01 -0.54442154918E-01  0.62254403779E-01  0.93779691162E-01  0.51100000000E-03 0.  1.
         11    1    4    4    0    0 -0.22057953089E-01 -0.27666284472E-01  0.16812021124E-01  0.39177567130E-01  0.51100000000E-03 0. -1.
</event>
<event>
 8    1  0.1041149E+005  0.1043930E+01  0.7957747E-01            NaN
         13   -1    0    0    0    0  0.00000000000E+00  0.00000000000E+00  0.74505805969E-08  0.10566000000E+00  0.10566000000E+00 0. -1.
     999900   -1    0    0    0    0 -0.00000000000E+00 -0.00000000000E+00 -0.74505805969E-08  0.93827000000E+00  0.93827000000E+00 0. -1.
     999902    2    1    2    0    0 -0.21294178662E-01 -0.14288465677E-01 -0.58974385869E-02  0.10176168459E+01  0.10172765912E+01 0.  0.
     999903    2    3    3    0    0 -0.60079135373E-01 -0.15307382893E-01 -0.11354448894E+00  0.13020871066E+00  0.14769525546E-01 0.  0.
         14    1    1    2    0    0  0.21294178662E-01  0.14288465677E-01  0.58974385869E-02  0.26313154091E-01  0.00000000000E+00 0. -1.
     999901    1    3    3    0    0  0.38784956710E-01  0.10189172158E-02  0.10764705035E+00  0.88740813525E+00  0.88000000000E+00 0.  1.
        -11    1    4    4    0    0 -0.51371130705E-01 -0.10083350912E-01 -0.84164389304E-01  0.99118981953E-01  0.51100000000E-03 0.  1.
         11    1    4    4    0    0 -0.87080046680E-02 -0.52240319810E-02 -0.29380099635E-01  0.31089728706E-01  0.51100000000E-03 0. -1.
</event>
<event>
 8    1  0.1041149E+005  0.1043930E+01  0.7957747E-01            NaN
         13   -1    0    0    0    0  0.00000000000E+00  0.00000000000E+00  0.74505805969E-08  0.10566000000E+00  0.10566000000E+00 0.  1.
     999900   -1    0    0    0    0 -0.00000000000E+00 -0.00000000000E+00 -0.74505805969E-08  0.93827000000E+00  0.93827000000E+00 0.  1.
     999902    2    1    2    0    0 -0.18698028181E-01  0.84058531485E-02 -0.10775206502E-01  0.10207701274E+01  0.10205073607E+01 0.  0.
     999903    2    3    3    0    0 -0.83366288994E-01  0.87448785664E-01 -0.54107342966E-01  0.13380482749E+00  0.19465329255E-01 0.  0.
         14    1    1    2    0    0  0.18698028181E-01 -0.84058531485E-02  0.10775206502E-01  0.23159872629E-01  0.00000000000E+00 0. -1.
     999901    1    3    3    0    0  0.64668260812E-01 -0.79042932516E-01  0.43332136464E-01  0.88696529988E+00  0.88000000000E+00 0. -1.
        -11    1    4    4    0    0 -0.41491718056E-01  0.32712350159E-01 -0.16852295645E-01  0.55460990883E-01  0.51100000000E-03 0.  1.
         11    1    4    4    0    0 -0.41874570937E-01  0.54736435505E-01 -0.37255047321E-01  0.78343836611E-01  0.51100000000E-03 0. -1.
</event>
<event>
 8    1  0.1041149E+005  0.1043930E+01  0.7957747E-01            NaN
         13   -1    0    0    0    0  0.00000000000E+00  0.00000000000E+00  0.74505805969E-08  0.10566000000E+00  0.10566000000E+00 0. -1.
     999900   -1    0    0    0    0 -0.00000000000E+00 -0.00000000000E+00 -0.74505805969E-08  0.93827000000E+00  0.93827000000E+00 0.  1.
     999902    2    1    2    0    0 -0.32979625079E-02 -0.16154461944E-01 -0.16489532208E-01  0.10206115980E+01  0.10203451799E+01 0.  0.
     999903    2    3    3    0    0 -0.12221745298E+00  0.26210088547E-01 -0.35515991011E-01  0.13139924630E+00  0.19501327087E-01 0.  0.
         14    1    1    2    0    0  0.32979625079E-02  0.16154461944E-01  0.16489532208E-01  0.23318401957E-01  0.00000000000E+00 0. -1.
     999901    1    3    3    0    0  0.11891949047E+00 -0.42364550491E-01  0.19026458804E-01  0.88921235174E+00  0.88000000000E+00 0.  1.
        -11    1    4    4    0    0 -0.55258141690E-01  0.20076565531E-01 -0.10917360925E-01  0.59799503319E-01  0.51100000000E-03 0. -1.
         11    1    4    4    0    0 -0.66959311285E-01  0.61335230158E-02 -0.24598630087E-01  0.71599742985E-01  0.51100000000E-03 0.  1.
</event>
<event>
 8    1  0.1041149E+005  0.1043930E+01  0.7957747E-01            NaN
         13   -1    0    0    0    0  0.00000000000E+00  0.00000000000E+00  0.74505805969E-08  0.10566000000E+00  0.10566000000E+00 0. -1.
     999900   -1    0    0    0    0 -0.00000000000E+00 -0.00000000000E+00 -0.74505805969E-08  0.93827000000E+00  0.93827000000E+00 0. -1.
     999902    2    1    2    0    0  0.18690890556E-01  0.11361754017E-01  0.91562191861E-02  0.10202176574E+01  0.10199420538E+01 0.  0.
     999903    2    3    3    0    0  0.10188274599E+00  0.79573084044E-01  0.26899803661E-01  0.13348855264E+00  0.19586337426E-01 0.  0.
         14    1    1    2    0    0 -0.18690890556E-01 -0.11361754017E-01 -0.91562191861E-02  0.23712342649E-01  0.00000000000E+00 0.  1.
     999901    1    3    3    0    0 -0.83191855435E-01 -0.68211330027E-01 -0.17743584475E-01  0.88672910471E+00  0.88000000000E+00 0. -1.
        -11    1    4    4    0    0  0.69620604622E-01  0.42496483295E-01  0.15350468507E-01  0.82999263158E-01  0.51100000000E-03 0. -1.
         11    1    4    4    0    0  0.32262141369E-01  0.37076600749E-01  0.11549335154E-01  0.50489289481E-01  0.51100000000E-03 0.  1.
</event>
<event>
 8    1  0.1041149E+005  0.1043930E+01  0.7957747E-01            NaN
         13   -1    0    0    0    0  0.00000000000E+00  0.00000000000E+00  0.74505805969E-08  0.10566000000E+00  0.10566000000E+00 0.  1.
     999900   -1    0    0    0    0 -0.00000000000E+00 -0.00000000000E+00 -0.74505805969E-08  0.93827000000E+00  0.93827000000E+00 0.  1.
     999902    2    1    2    0    0  0.20125276937E-01  0.60452856910E-02  0.65556815138E-02  0.10219175215E+01  0.10216804155E+01 0.  0.
     999903    2    3    3    0    0 -0.61807163716E-01  0.65455527613E-01 -0.92497517461E-01  0.13059600939E+00  0.19873986755E-01 0.  0.
         14    1    1    2    0    0 -0.20125276937E-01 -0.60452856910E-02 -0.65556815138E-02  0.22012478529E-01  0.00000000000E+00 0. -1.
     999901    1    3    3    0    0  0.81932440653E-01 -0.59410241922E-01  0.99053198975E-01  0.89132151208E+00  0.88000000000E+00 0. -1.
        -11    1    4    4    0    0 -0.38570546747E-01  0.35964424339E-01 -0.66736549877E-01  0.85059714935E-01  0.51100000000E-03 0. -1.
         11    1    4    4    0    0 -0.23236616969E-01  0.29491103274E-01 -0.25760967584E-01  0.45536294452E-01  0.51100000000E-03 0.  1.
</event>
<event>
 8    1  0.1041149E+005  0.1043930E+01  0.7957747E-01            NaN
         13   -1    0    0    0    0  0.00000000000E+00  0.00000000000E+00  0.74505805969E-08  0.10566000000E+00  0.10566000000E+00 0. -1.
     999900   -1    0    0    0    0 -0.00000000000E+00 -0.00000000000E+00 -0.74505805969E-08  0.93827000000E+00  0.93827000000E+00 0. -1.
     999902    2    1    2    0    0  0.22144060326E-01  0.37372552568E-02 -0.77471641649E-02  0.10201740526E+01  0.10198974226E+01 0.  0.
     999903    2    3    3    0    0  0.40799452377E-01 -0.64468333271E-01  0.10363996181E+00  0.13033860837E+00  0.20643396978E-01 0.  0.
         14    1    1    2    0    0 -0.22144060326E-01 -0.37372552568E-02  0.77471641649E-02  0.23755947407E-01  0.00000000000E+00 0.  1.
     999901    1    3    3    0    0 -0.18655392051E-01  0.68205588527E-01 -0.11138712598E+00  0.88983544422E+00  0.88000000000E+00 0. -1.
        -11    1    4    4    0    0  0.18641235064E-01 -0.25682052384E-01  0.27185299102E-01  0.41789532991E-01  0.51100000000E-03 0.  1.
         11    1    4    4    0    0  0.22158217313E-01 -0.38786280887E-01  0.76454662711E-01  0.88549075381E-01  0.51100000000E-03 0. -1.
</event>
<event>
 8    1  0.1041149E+005  0.1043930E+01  0.7957747E-01            NaN
         13   -1    0    0    0    0  0.00000000000E+00  0.00000000000E+00  0.74505805969E-08  0.10566000000E+00  0.10566000000E+00 0.  1.
     999900   -1    0    0    0    0 -0.00000000000E+00 -0.00000000000E+00 -0.74505805969E-08  0.93827000000E+00  0.93827000000E+00 0. -1.
     999902    2    1    2    0    0  0.11312551861E-02  0.22167783390E-01 -0.12177938167E-01  0.10186121696E+01  0.10182974808E+01 0.  0.
     999903    2    3    3    0    0  0.69788330162E-02  0.55152595849E-01 -0.11761046229E+00  0.13168589917E+00  0.20455861249E-01 0.  0.
         14    1    1    2    0    0 -0.11312551861E-02 -0.22167783390E-01  0.12177938167E-01  0.25317830411E-01  0.00000000000E+00 0.  1.
     999901    1    3    3    0    0 -0.58475778301E-02 -0.32984812459E-01  0.10543252413E+00  0.88692627042E+00  0.88000000000E+00 0.  1.
        -11    1    4    4    0    0 -0.38549001716E-02  0.16462666709E-01 -0.20416754010E-01  0.26513857053E-01  0.51100000000E-03 0.  1.
         11    1    4    4    0    0  0.10833733188E-01  0.38689929140E-01 -0.97193708284E-01  0.10517204211E+00  0.51100000000E-03 0. -1.
</event>
<event>
 8    1  0.1041149E+005  0.1043930E+01  0.7957747E-01            NaN
         13   -1    0    0    0    0  0.00000000000E+00  0.00000000000E+00  0.74505805969E-08  0.10566000000E+00  0.10566000000E+00 0.  1.
     999900   -1    0    0    0    0 -0.00000000000E+00 -0.00000000000E+00 -0.74505805969E-08  0.93827000000E+00  0.93827000000E+00 0. -1.
     999902    2    1    2    0    0  0.22694733001E-01 -0.91845450140E-02  0.33976419264E-02  0.10192125822E+01  0.10189128211E+01 0.  0.
     999903    2    3    3    0    0 -0.67902447716E-01 -0.16222671794E-01 -0.10531801556E+00  0.12787848176E+00  0.19674964062E-01 0.  0.
         14    1    1    2    0    0 -0.22694733001E-01  0.91845450140E-02 -0.33976419264E-02  0.24717417821E-01  0.00000000000E+00 0. -1.
     999901    1    3    3    0    0  0.90597180717E-01  0.70381267799E-02  0.10871565748E+00  0.89133410042E+00  0.88000000000E+00 0.  1.
        -11    1    4    4    0    0 -0.14957907021E-01  0.45701681994E-02 -0.22510250829E-01  0.27415286488E-01  0.51100000000E-03 0. -1.
         11    1    4    4    0    0 -0.52944540695E-01 -0.20792839993E-01 -0.82807764728E-01  0.10046319527E+00  0.51100000000E-03 0.  1.
</event>
<event>
 8    1  0.1041149E+005  0.1043930E+01  0.7957747E-01            NaN
         13   -1    0    0    0    0  0.00000000000E+00  0.00000000000E+00  0.74505805969E-08  0.10566000000E+00  0.10566000000E+00 0.  1.
     999900   -1    0    0    0    0 -0.00000000000E+00 -0.00000000000E+00 -0.74505805969E-08  0.93827000000E+00  0.93827000000E+00 0.  1.
     999902    2    1    2    0    0  0.26227435845E-03  0.11044397640E-01 -0.20871476970E-01  0.10203150459E+01  0.10200417280E+01 0.  0.
     999903    2    3    3    0    0 -0.62659048180E-01  0.25112959443E-01 -0.11254212997E+00  0.13320708972E+00  0.22838140974E-01 0.  0.
         14    1    1    2    0    0 -0.26227435845E-03 -0.11044397640E-01  0.20871476970E-01  0.23614954118E-01  0.00000000000E+00 0.  1.
     999901    1    3    3    0    0  0.62921322538E-01 -0.14068561802E-01  0.91670653001E-01  0.88710795616E+00  0.88000000000E+00 0. -1.
        -11    1    4    4    0    0 -0.18534266452E-01  0.16672671422E-01 -0.53404666458E-01  0.58939091661E-01  0.51100000000E-03 0. -1.
         11    1    4    4    0    0 -0.44124781728E-01  0.84402880207E-02 -0.59137463513E-01  0.74267998062E-01  0.51100000000E-03 0.  1.
</event>
<event>
 8    1  0.1041149E+005  0.1043930E+01  0.7957747E-01            NaN
         13   -1    0    0    0    0  0.00000000000E+00  0.00000000000E+00  0.74505805969E-08  0.10566000000E+00  0.10566000000E+00 0. -1.
     999900   -1    0    0    0    0 -0.00000000000E+00 -0.00000000000E+00 -0.74505805969E-08  0.93827000000E+00  0.93827000000E+00 0. -1.
     999902    2    1    2    0    0 -0.88610838542E-02  0.21454022082E-01 -0.61349032537E-02  0.10199210244E+01  0.10196383992E+01 0.  0.
     999903    2    3    3    0    0 -0.68427119665E-01  0.69376697990E-01 -0.87968266446E-01  0.13282385115E+00  0.20207983646E-01 0.  0.
         14    1    1    2    0    0  0.88610838542E-02 -0.21454022082E-01  0.61349032537E-02  0.24008975582E-01  0.00000000000E+00 0. -1.
     999901    1    3    3    0    0  0.59566035811E-01 -0.47922675907E-01  0.81833363193E-01  0.88709717327E+00  0.88000000000E+00 0. -1.
        -11    1    4    4    0    0 -0.34120015093E-01  0.47486336564E-01 -0.46394170543E-01  0.74644542812E-01  0.51100000000E-03 0. -1.
         11    1    4    4    0    0 -0.34307104572E-01  0.21890361426E-01 -0.41574095904E-01  0.58179308338E-01  0.51100000000E-03 0.  1.
</event>
<event>
 8    1  0.1041149E+005  0.1043930E+01  0.7957747E-01            NaN
         13   -1    0    0    0    0  0.00000000000E+00  0.00000000000E+00  0.74505805969E-08  0.10566000000E+00  0.10566000000E+00 0. -1.
     999900   -1    0    0    0    0 -0.00000000000E+00 -0.00000000000E+00 -0.74505805969E-08  0.93827000000E+00  0.93827000000E+00 0.  1.
     999902    2    1    2    0    0  0.41523440368E-03 -0.18838771062E-01  0.83230252355E-02  0.10233303771E+01  0.10231230211E+01 0.  0.
     999903    2    3    3    0    0  0.10257056452E+00 -0.82527028605E-01 -0.22787738865E-01  0.13458981582E+00  0.16239036998E-01 0.  0.
         14    1    1    2    0    0 -0.41523440368E-03  0.18838771062E-01 -0.83230252355E-02  0.20599622905E-01  0.00000000000E+00 0.  1.
     999901    1    3    3    0    0 -0.10215533012E+00  0.63688257543E-01  0.31110764100E-01  0.88874056128E+00  0.88000000000E+00 0.  1.
        -11    1    4    4    0    0  0.49536735053E-01 -0.45346277102E-01 -0.46159912058E-02  0.67318210482E-01  0.51100000000E-03 0. -1.
         11    1    4    4    0    0  0.53033829467E-01 -0.37180751503E-01 -0.18171747659E-01  0.67271605334E-01  0.51100000000E-03 0.  1.
</event>
<event>
 8    1  0.1041149E+005  0.1043930E+01  0.7957747E-01            NaN
         13   -1    0    0    0    0  0.00000000000E+00  0.00000000000E+00  0.74505805969E-08  0.10566000000E+00  0.10566000000E+00 0. -1.
     999900   -1    0    0    0    0 -0.00000000000E+00 -0.00000000000E+00 -0.74505805969E-08  0.93827000000E+00  0.93827000000E+00 0. -1.
     999902    2    1    2    0    0  0.18390278554E-02 -0.36949038504E-02  0.24835626973E-01  0.10187537671E+01  0.10184426323E+01 0.  0.
     999903    2    3    3    0    0 -0.69812075168E-01  0.80859532696E-01 -0.66025720494E-01  0.12716018377E+00  0.19958123710E-01 0.  0.
         14    1    1    2    0    0 -0.18390278554E-02  0.36949038504E-02 -0.24835626973E-01  0.25176232940E-01  0.00000000000E+00 0.  1.
     999901    1    3    3    0    0  0.71651103024E-01 -0.84554436547E-01  0.90861347467E-01  0.89159358329E+00  0.88000000000E+00 0.  1.
        -11    1    4    4    0    0 -0.23711308389E-01  0.36517913557E-01 -0.35995089060E-01  0.56495059195E-01  0.51100000000E-03 0.  1.
         11    1    4    4    0    0 -0.46100766780E-01  0.44341619139E-01 -0.30030631434E-01  0.70665124573E-01  0.51100000000E-03 0. -1.
</event>
<event>
 8    1  0.1041149E+005  0.1043930E+01  0.7957747E-01            NaN
         13   -1    0    0    0    0  0.00000000000E+00  0.00000000000E+00  0.74505805969E-08  0.10566000000E+00  0.10566000000E+00 0.  1.
     999900   -1    0    0    0    0 -0.00000000000E+00 -0.00000000000E+00 -0.74505805969E-08  0.93827000000E+00  0.93827000000E+00 0. -1.
     999902    2    1    2    0    0  0.18043564604E-01  0.97523184662E-02 -0.12119811627E-01  0.10201063191E+01  0.10198280906E+01 0.  0.
     999903    2    3    3    0    0  0.10757532048E+00  0.40995693082E-01 -0.64567198367E-01  0.13345937009E+00  0.19732813599E-01 0.  0.
         14    1    1    2    0    0 -0.18043564604E-01 -0.97523184662E-02  0.12119811627E-01  0.23823680928E-01  0.00000000000E+00 0. -1.
     999901    1    3    3    0    0 -0.89531755872E-01 -0.31243374616E-01  0.52447386740E-01  0.88664694898E+00  0.88000000000E+00 0.  1.
        -11    1    4    4    0    0  0.69712896748E-01  0.22426302641E-01 -0.30857392389E-01  0.79468652998E-01  0.51100000000E-03 0. -1.
         11    1    4    4    0    0  0.37862423728E-01  0.18569390441E-01 -0.33709805977E-01  0.53990717090E-01  0.51100000000E-03 0.  1.
</event>
<event>
 8    1  0.1041149E+005  0.1043930E+01  0.7957747E-01            NaN
         13   -1    0    0    0    0  0.00000000000E+00  0.00000000000E+00  0.74505805969E-08  0.10566000000E+00  0.10566000000E+00 0. -1.
     999900   -1    0    0    0    0 -0.00000000000E+00 -0.00000000000E+00 -0.74505805969E-08  0.93827000000E+00  0.93827000000E+00 0.  1.
     999902    2    1    2    0    0  0.10904939341E-01  0.20047383430E-01  0.30357030144E-02  0.10209076027E+01  0.10206479817E+01 0.  0.
     999903    2    3    3    0    0  0.11500431255E+00  0.63210643392E-01  0.15358884075E-01  0.13363559971E+00  0.20025005510E-01 0.  0.
         14    1    1    2    0    0 -0.10904939341E-01 -0.20047383430E-01 -0.30357030144E-02  0.23022397295E-01  0.00000000000E+00 0.  1.
     999901    1    3    3    0    0 -0.10409937321E+00 -0.43163259963E-01 -0.12323181060E-01  0.88727200300E+00  0.88000000000E+00 0.  1.
        -11    1    4    4    0    0  0.48832880415E-01  0.21686528203E-01 -0.25179433016E-02  0.53493521801E-01  0.51100000000E-03 0. -1.
         11    1    4    4    0    0  0.66171432135E-01  0.41524115189E-01  0.17876827376E-01  0.80142077906E-01  0.51100000000E-03 0.  1.
</event>
<event>
 8    1  0.1041149E+005  0.1043930E+01  0.7957747E-01            NaN
         13   -1    0    0    0    0  0.00000000000E+00  0.00000000000E+00  0.74505805969E-08  0.10566000000E+00  0.10566000000E+00 0. -1.
     999900   -1    0    0    0    0 -0.00000000000E+00 -0.00000000000E+00 -0.74505805969E-08  0.93827000000E+00  0.93827000000E+00 0.  1.
     999902    2    1    2    0    0 -0.20419323271E-01 -0.10450513994E-01  0.70458368236E-02  0.10199340457E+01  0.10196517306E+01 0.  0.
     999903    2    3    3    0    0 -0.64932779999E-01  0.98489987933E-01 -0.50731794663E-01  0.13022188131E+00  0.21621279808E-01 0.  0.
         14    1    1    2    0    0  0.20419323271E-01  0.10450513994E-01 -0.70458368236E-02  0.23995954287E-01  0.00000000000E+00 0. -1.
     999901    1    3    3    0    0  0.44513456728E-01 -0.10894050193E+00  0.57777631486E-01  0.88971216440E+00  0.88000000000E+00 0. -1.
        -11    1    4    4    0    0 -0.31005910962E-01  0.31798488050E-01 -0.25720882400E-01  0.51325775876E-01  0.51100000000E-03 0.  1.
         11    1    4    4    0    0 -0.33926869036E-01  0.66691499882E-01 -0.25010912263E-01  0.78896105432E-01  0.51100000000E-03 0. -1.
</event>
<event>
 7    1  0.1041149E+005  0.1043930E+01  0.7957747E-01            NaN
         13   -1    0    0    0    0  0.00000000000E+00  0.00000000000E+00  0.74505805969E-08  0.10566000000E+00  0.10566000000E+00 0.  1.
     999900   -1    0    0    0    0 -0.00000000000E+00 -0.00000000000E+00 -0.74505805969E-08  0.93827000000E+00  0.93827000000E+00 0.  1.
     999902    2    1    2    0    0 -0.17746819891E-01 -0.14020937836E-01 -0.56557627897E-02  0.10206163995E+01  0.10203500924E+01 0.  0.
         14    1    1    2    0    0  0.17746819891E-01  0.14020937836E-01  0.56557627897E-02  0.23313600468E-01  0.00000000000E+00 0. -1.
     999901    1    3    3    0    0 -0.20475973312E-01  0.53181445334E-01  0.10213829495E+00  0.88773856676E+00  0.88000000000E+00 0. -1.
        -11    1    3    3    0    0 -0.16434180454E-01 -0.42941562220E-01 -0.73540882547E-01  0.86732822967E-01  0.51100000000E-03 0.  1.
         11    1    3    3    0    0  0.19163333875E-01 -0.24260820949E-01 -0.34253175195E-01  0.46145009809E-01  0.51100000000E-03 0. -1.
</event>
<event>
 8    1  0.1041149E+005  0.1043930E+01  0.7957747E-01            NaN
         13   -1    0    0    0    0  0.00000000000E+00  0.00000000000E+00  0.74505805969E-08  0.10566000000E+00  0.10566000000E+00 0.  1.
     999900   -1    0    0    0    0 -0.00000000000E+00 -0.00000000000E+00 -0.74505805969E-08  0.93827000000E+00  0.93827000000E+00 0.  1.
     999902    2    1    2    0    0 -0.20422535233E-01 -0.99168385877E-02  0.43873314429E-02  0.10208070177E+01  0.10205450970E+01 0.  0.
     999903    2    3    3    0    0  0.10002992682E+00  0.77737403259E-01  0.44094954611E-03  0.12827823069E+00  0.20149935664E-01 0.  0.
         14    1    1    2    0    0  0.20422535233E-01  0.99168385877E-02 -0.43873314429E-02  0.23122982292E-01  0.00000000000E+00 0.  1.
     999901    1    3    3    0    0 -0.12045246205E+00 -0.87654241846E-01  0.39463818968E-02  0.89252878702E+00  0.88000000000E+00 0.  1.
        -11    1    4    4    0    0  0.12670828409E-01  0.27311408803E-02 -0.19093848099E-02  0.13111670162E-01  0.51100000000E-03 0.  1.
         11    1    4    4    0    0  0.87359098410E-01  0.75006262379E-01  0.23503343560E-02  0.11516656053E+00  0.51100000000E-03 0. -1.
</event>
<event>
 8    1  0.1041149E+005  0.1043930E+01  0.7957747E-01            NaN
         13   -1    0    0    0    0  0.00000000000E+00  0.00000000000E+00  0.74505805969E-08  0.10566000000E+00  0.10566000000E+00 0.  1.
     999900   -1    0    0    0    0 -0.00000000000E+00 -0.00000000000E+00 -0.74505805969E-08  0.93827000000E+00  0.93827000000E+00 0.  1.
     999902    2    1    2    0    0  0.17576535747E-01 -0.14513267149E-01  0.63754512037E-02  0.10202611194E+01  0.10199865371E+01 0.  0.
     999903    2    3    3    0    0 -0.97184675729E-01  0.63420131595E-01 -0.49139066978E-01  0.12766624372E+00  0.20421743197E-01 0.  0.
         14    1    1    2    0    0 -0.17576535747E-01  0.14513267149E-01 -0.63754512037E-02  0.23668880630E-01  0.00000000000E+00 0.  1.
     999901    1    3    3    0    0  0.11476121148E+00 -0.77933398744E-01  0.55514518182E-01  0.89259487565E+00  0.88000000000E+00 0. -1.
        -11    1    4    4    0    0 -0.54245032317E-01  0.23896200995E-01 -0.28385906994E-01  0.65723456923E-01  0.51100000000E-03 0.  1.
         11    1    4    4    0    0 -0.42939643413E-01  0.39523930600E-01 -0.20753159984E-01  0.61942786802E-01  0.51100000000E-03 0. -1.
</event>
<event>
 8    1  0.1041149E+005  0.1043930E+01  0.7957747E-01            NaN
         13   -1    0    0    0    0  0.00000000000E+00  0.00000000000E+00  0.74505805969E-08  0.10566000000E+00  0.10566000000E+00 0.  1.
     999900   -1    0    0    0    0 -0.00000000000E+00 -0.00000000000E+00 -0.74505805969E-08  0.93827000000E+00  0.93827000000E+00 0.  1.
     999902    2    1    2    0    0 -0.99515869246E-02  0.50185412007E-02 -0.13699067916E-01  0.10262697537E+01  0.10261177920E+01 0.  0.
     999903    2    3    3    0    0  0.12290756405E+00 -0.46392422955E-01  0.19526936150E-01  0.13419430364E+00  0.19190718699E-01 0.  0.
         14    1    1    2    0    0  0.99515869246E-02 -0.50185412007E-02  0.13699067916E-01  0.17660246314E-01  0.00000000000E+00 0.  1.
     999901    1    3    3    0    0 -0.13285915098E+00  0.51410964156E-01 -0.33226004066E-01  0.89207545005E+00  0.88000000000E+00 0. -1.
        -11    1    4    4    0    0  0.85833168312E-01 -0.30185571390E-01  0.47369686448E-02  0.91110929616E-01  0.51100000000E-03 0.  1.
         11    1    4    4    0    0  0.37074395741E-01 -0.16206851566E-01  0.14789967505E-01  0.43083374021E-01  0.51100000000E-03 0. -1.
</event>
<event>
 8    1  0.1041149E+005  0.1043930E+01  0.7957747E-01            NaN
         13   -1    0    0    0    0  0.00000000000E+00  0.00000000000E+00  0.74505805969E-08  0.10566000000E+00  0.10566000000E+00 0.  1.
     999900   -1    0    0    0    0 -0.00000000000E+00 -0.00000000000E+00 -0.74505805969E-08  0.93827000000E+00  0.93827000000E+00 0.  1.
     999902    2    1    2    0    0 -0.13637833304E-01  0.54923086436E-02  0.18686334248E-01  0.10201532248E+01  0.10198761038E+01 0.  0.
     999903    2    3    3    0    0  0.12479096596E+00  0.24645789640E-01 -0.38740634110E-02  0.12884050760E+00  0.20116359000E-01 0.  0.
         14    1    1    2    0    0  0.13637833304E-01 -0.54923086436E-02 -0.18686334248E-01  0.23776775204E-01  0.00000000000E+00 0. -1.
     999901    1    3    3    0    0 -0.13842879926E+00 -0.19153480996E-01  0.22560397659E-01  0.89131271720E+00  0.88000000000E+00 0.  1.
        -11    1    4    4    0    0  0.87895081105E-01  0.25705598579E-01  0.11502336833E-02  0.91585518721E-01  0.51100000000E-03 0. -1.
         11    1    4    4    0    0  0.36895884850E-01 -0.10598089392E-02 -0.50242970944E-02  0.37254988876E-01  0.51100000000E-03 0.  1.
</event>
<event>
 8    1  0.1041149E+005  0.1043930E+01  0.7957747E-01            NaN
         13   -1    0    0    0    0  0.00000000000E+00  0.00000000000E+00  0.74505805969E-08  0.10566000000E+00  0.10566000000E+00 0.  1.
     999900   -1    0    0    0    0 -0.00000000000E+00 -0.00000000000E+00 -0.74505805969E-08  0.93827000000E+00  0.93827000000E+00 0. -1.
     999902    2    1    2    0    0 -0.24381361997E-02 -0.84715697128E-02  0.22291338995E-01  0.10199588549E+01  0.10196771303E+01 0.  0.
     999903    2    3    3    0    0  0.35458907297E-01  0.70453774299E-01 -0.95428436438E-01  0.12781349606E+00  0.31759012495E-01 0.  0.
         14    1    1    2    0    0  0.24381361997E-02  0.84715697128E-02 -0.22291338995E-01  0.23971145065E-01  0.00000000000E+00 0. -1.
     999901    1    3    3    0    0 -0.37897043497E-01 -0.78925344012E-01  0.11771977543E+00  0.89214535887E+00  0.88000000000E+00 0.  1.
        -11    1    4    4    0    0 -0.56672251097E-02  0.14531710613E-01 -0.17955551069E-01  0.23789724441E-01  0.51100000000E-03 0.  1.
         11    1    4    4    0    0  0.41126132407E-01  0.55922063686E-01 -0.77472885369E-01  0.10402377162E+00  0.51100000000E-03 0. -1.
</event>
<event>
 8    1  0.1041149E+005  0.1043930E+01  0.7957747E-01            NaN
         13   -1    0    0    0    0  0.00000000000E+00  0.00000000000E+00  0.74505805969E-08  0.10566000000E+00  0.10566000000E+00 0.  1.
     999900   -1    0    0    0    0 -0.00000000000E+00 -0.00000000000E+00 -0.74505805969E-08  0.93827000000E+00  0.93827000000E+00 0. -1.
     999902    2    1    2    0    0 -0.17392054740E-01  0.11508595361E-01  0.10689085312E-01  0.10204952421E+01  0.10202261275E+01 0.  0.
     999903    2    3    3    0    0 -0.73139352468E-01  0.10551113182E+00 -0.27948116760E-01  0.13289337666E+00  0.19939621642E-01 0.  0.
         14    1    1    2    0    0  0.17392054740E-01 -0.11508595361E-01 -0.10689085312E-01  0.23434757948E-01  0.00000000000E+00 0. -1.
     999901    1    3    3    0    0  0.55747297728E-01 -0.94002536463E-01  0.38637202072E-01  0.88760186539E+00  0.88000000000E+00 0. -1.
        -11    1    4    4    0    0 -0.71767238656E-01  0.10241181031E+00 -0.23445862630E-01  0.12723476346E+00  0.51100000000E-03 0. -1.
         11    1    4    4    0    0 -0.13721138126E-02  0.30993215090E-02 -0.45022541302E-02  0.56586132032E-02  0.51100000000E-03 0.  1.
</event>
<event>
 8    1  0.1041149E+005  0.1043930E+01  0.7957747E-01            NaN
         13   -1    0    0    0    0  0.00000000000E+00  0.00000000000E+00  0.74505805969E-08  0.10566000000E+00  0.10566000000E+00 0. -1.
     999900   -1    0    0    0    0 -0.00000000000E+00 -0.00000000000E+00 -0.74505805969E-08  0.93827000000E+00  0.93827000000E+00 0.  1.
     999902    2    1    2    0    0  0.19671361005E-02 -0.23162612791E-01  0.51288267732E-02  0.10201249350E+01  0.10198471463E+01 0.  0.
     999903    2    3    3    0    0 -0.14502593150E-01  0.11480038631E+00  0.50637485786E-01  0.12806211257E+00  0.21125714323E-01 0.  0.
         14    1    1    2    0    0 -0.19671361005E-02  0.23162612791E-01 -0.51288267732E-02  0.23805065004E-01  0.00000000000E+00 0.  1.
     999901    1    3    3    0    0  0.16469729250E-01 -0.13796299910E+00 -0.45508659013E-01  0.89206282242E+00  0.88000000000E+00 0.  1.
        -11    1    4    4    0    0 -0.13043771930E-01  0.99195764525E-01  0.35213765694E-01  0.10606700760E+00  0.51100000000E-03 0. -1.
         11    1    4    4    0    0 -0.14588212192E-02  0.15604621783E-01  0.15423720092E-01  0.21995104974E-01  0.51100000000E-03 0.  1.
</event>
<event>
 8    1  0.1041149E+005  0.1043930E+01  0.7957747E-01            NaN
         13   -1    0    0    0    0  0.00000000000E+00  0.00000000000E+00  0.74505805969E-08  0.10566000000E+00  0.10566000000E+00 0. -1.
     999900   -1    0    0    0    0 -0.00000000000E+00 -0.00000000000E+00 -0.74505805969E-08  0.93827000000E+00  0.93827000000E+00 0.  1.
     999902    2    1    2    0    0  0.36075427912E-02  0.18184374619E-01  0.14529729727E-01  0.10203758307E+01  0.10201039344E+01 0.  0.
     999903    2    3    3    0    0 -0.26891931241E-02  0.11984255145E+00 -0.51953882807E-01  0.13200985627E+00  0.18918967105E-01 0.  0.
         14    1    1    2    0    0 -0.36075427912E-02 -0.18184374619E-01 -0.14529729727E-01  0.23554169296E-01  0.00000000000E+00 0.  1.
     999901    1    3    3    0    0  0.62967359152E-02 -0.10165817683E+00  0.66483612533E-01  0.88836597444E+00  0.88000000000E+00 0. -1.
        -11    1    4    4    0    0 -0.14192280414E-02  0.11210209709E+00 -0.53125622246E-01  0.12406243284E+00  0.51100000000E-03 0.  1.
         11    1    4    4    0    0 -0.12699650827E-02  0.77404543540E-02  0.11717394393E-02  0.79474234335E-02  0.51100000000E-03 0. -1.
</event>
<event>
 8    1  0.1041149E+005  0.1043930E+01  0.7957747E-01            NaN
         13   -1    0    0    0    0  0.00000000000E+00  0.00000000000E+00  0.74505805969E-08  0.10566000000E+00  0.10566000000E+00 0.  1.
     999900   -1    0    0    0    0 -0.00000000000E+00 -0.00000000000E+00 -0.74505805969E-08  0.93827000000E+00  0.93827000000E+00 0.  1.
     999902    2    1    2    0    0  0.19541440261E-01 -0.67104881161E-02 -0.11397186910E-01  0.10203335086E+01  0.10200606229E+01 0.  0.
     999903    2    3    3    0    0 -0.10401981135E+00 -0.37925165176E-01 -0.64323402759E-01  0.12957937679E+00  0.19871473010E-01 0.  0.
         14    1    1    2    0    0 -0.19541440261E-01  0.67104881161E-02  0.11397186910E-01  0.23596491428E-01  0.00000000000E+00 0. -1.
     999901    1    3    3    0    0  0.12356125161E+00  0.31214677060E-01  0.52926215849E-01  0.89075413178E+00  0.88000000000E+00 0. -1.
        -11    1    4    4    0    0 -0.14223219881E-01 -0.96609036487E-02 -0.36631044574E-02  0.17587282290E-01  0.51100000000E-03 0.  1.
         11    1    4    4    0    0 -0.89796591470E-01 -0.28264261528E-01 -0.60660298302E-01  0.11199209450E+00  0.51100000000E-03 0. -1.
</event>
<event>
 8    1  0.1041149E+005  0.1043930E+01  0.7957747E-01            NaN
         13   -1    0    0    0    0  0.00000000000E+00  0.00000000000E+00  0.74505805969E-08  0.10566000000E+00  0.10566000000E+00 0. -1.
     999900   -1    0    0    0    0 -0.00000000000E+00 -0.00000000000E+00 -0.74505805969E-08  0.93827000000E+00  0.93827000000E+00 0.  1.
     999902    2    1    2    0    0 -0.22523579488E-01  0.58104756614E-02  0.58750147874E-02  0.10199385628E+01  0.10196563553E+01 0.  0.
     999903    2    3    3    0    0  0.29174641602E-01  0.72812672878E-01 -0.10098234797E+00  0.12944403925E+00  0.20136525312E-01 0.  0.
         14    1    1    2    0    0  0.22523579488E-01 -0.58104756614E-02 -0.58750147874E-02  0.23991437204E-01  0.00000000000E+00 0.  1.
     999901    1    3    3    0    0 -0.51698221091E-01 -0.67002197217E-01  0.10685736275E+00  0.89049452355E+00  0.88000000000E+00 0. -1.
        -11    1    4    4    0    0  0.11866004643E-01  0.17103638707E-01 -0.39727118601E-01  0.44853557234E-01  0.51100000000E-03 0. -1.
         11    1    4    4    0    0  0.17308636960E-01  0.55709034171E-01 -0.61255229364E-01  0.84590482013E-01  0.51100000000E-03 0.  1.
</event>
<event>
 8    1  0.1041149E+005  0.1043930E+01  0.7957747E-01            NaN
         13   -1    0    0    0    0  0.00000000000E+00  0.00000000000E+00  0.74505805969E-08  0.10566000000E+00  0.10566000000E+00 0.  1.
     999900   -1    0    0    0    0 -0.00000000000E+00 -0.00000000000E+00 -0.74505805969E-08  0.93827000000E+00  0.93827000000E+00 0. -1.
     999902    2    1    2    0    0  0.12155990005E-01 -0.54580857853E-02 -0.30338604596E-01  0.10107940720E+01  0.10102507938E+01 0.  0.
     999903    2    3    3    0    0 -0.25096202174E-01  0.10982785105E+00 -0.37493463807E-01  0.12246431059E+00  0.29996188273E-01 0.  0.
         14    1    1    2    0    0 -0.12155990005E-01  0.54580857853E-02  0.30338604596E-01  0.33135927968E-01  0.00000000000E+00 0.  1.
     999901    1    3    3    0    0  0.37252192179E-01 -0.11528593683E+00  0.71548592112E-02  0.88832976144E+00  0.88000000000E+00 0.  1.
        -11    1    4    4    0    0 -0.81698525079E-02  0.48912216944E-01 -0.31956176674E-01  0.58996693170E-01  0.51100000000E-03 0.  1.
         11    1    4    4    0    0 -0.16926349666E-01  0.60915634103E-01 -0.55372871330E-02  0.63467617420E-01  0.51100000000E-03 0. -1.
</event>
<event>
 8    1  0.1041149E+005  0.1043930E+01  0.7957747E-01            NaN
         13   -1    0    0    0    0  0.00000000000E+00  0.00000000000E+00  0.74505805969E-08  0.10566000000E+00  0.10566000000E+00 0.  1.
     999900   -1    0    0    0    0 -0.00000000000E+00 -0.00000000000E+00 -0.74505805969E-08  0.93827000000E+00  0.93827000000E+00 0. -1.
     999902    2    1    2    0    0  0.15793591821E-01  0.16193341114E-01  0.77197406748E-02  0.10200290328E+01  0.10197489747E+01 0.  0.
     999903    2    3    3    0    0  0.36431725539E-01 -0.57043962266E-01 -0.10819001598E+00  0.12917286768E+00  0.19981639837E-01 0.  0.
         14    1    1    2    0    0 -0.15793591821E-01 -0.16193341114E-01 -0.77197406748E-02  0.23900967242E-01  0.00000000000E+00 0.  1.
     999901    1    3    3    0    0 -0.20638133718E-01  0.73237303379E-01  0.11590975665E+00  0.89085616508E+00  0.88000000000E+00 0.  1.
        -11    1    4    4    0    0  0.10491970856E-01 -0.27290462313E-01 -0.61008219472E-01  0.67654377167E-01  0.51100000000E-03 0. -1.
         11    1    4    4    0    0  0.25939754683E-01 -0.29753499953E-01 -0.47181796506E-01  0.61518490513E-01  0.51100000000E-03 0.  1.
</event>
<event>
 8    1  0.1041149E+005  0.1043930E+01  0.7957747E-01            NaN
         13   -1    0    0    0    0  0.00000000000E+00  0.00000000000E+00  0.74505805969E-08  0.10566000000E+00  0.10566000000E+00 0.  1.
     999900   -1    0    0    0    0 -0.00000000000E+00 -0.00000000000E+00 -0.74505805969E-08  0.93827000000E+00  0.93827000000E+00 0.  1.
     999902    2    1    2    0    0  0.18464976702E-01  0.47385437596E-02 -0.16444578106E-01  0.10187539536E+01  0.10184428235E+01 0.  0.
     999903    2    3    3    0    0  0.53711151868E-01 -0.16536147368E-01 -0.11746181232E+00  0.13201871301E+00  0.21756176771E-01 0.  0.
         14    1    1    2    0    0 -0.18464976702E-01 -0.47385437596E-02  0.16444578106E-01  0.25176046367E-01  0.00000000000E+00 0. -1.
     999901    1    3    3    0    0 -0.35246175166E-01  0.21274691127E-01  0.10101723421E+00  0.88673524062E+00  0.88000000000E+00 0. -1.
        -11    1    4    4    0    0  0.41314865622E-01 -0.17879526331E-01 -0.72359548698E-01  0.85221834010E-01  0.51100000000E-03 0. -1.
         11    1    4    4    0    0  0.12396286245E-01  0.13433789635E-02 -0.45102263622E-01  0.46796879005E-01  0.51100000000E-03 0.  1.
</event>
<event>
 8    1  0.1041149E+005  0.1043930E+01  0.7957747E-01            NaN
         13   -1    0    0    0    0  0.00000000000E+00  0.00000000000E+00  0.74505805969E-08  0.10566000000E+00  0.10566000000E+00 0.  1.
     999900   -1    0    0    0    0 -0.00000000000E+00 -0.00000000000E+00 -0.74505805969E-08  0.93827000000E+00  0.93827000000E+00 0.  1.
     999902    2    1    2    0    0  0.13963196011E-01 -0.18633229921E-01  0.10309514693E-01  0.10184652362E+01  0.10181468378E+01 0.  0.
     999903    2    3    3    0    0 -0.35265567680E-01 -0.81771614261E-01 -0.91204648936E-01  0.12901874984E+00  0.19932201597E-01 0.  0.
         14    1    1    2    0    0 -0.13963196011E-01  0.18633229921E-01 -0.10309514693E-01  0.25464763759E-01  0.00000000000E+00 0.  1.
     999901    1    3    3    0    0  0.49228763690E-01  0.63138384340E-01  0.10151416363E+00  0.88944648640E+00  0.88000000000E+00 0. -1.
        -11    1    4    4    0    0 -0.13762958485E-01 -0.55796953066E-01 -0.59717746005E-01  0.82880572552E-01  0.51100000000E-03 0.  1.
         11    1    4    4    0    0 -0.21502609194E-01 -0.25974661195E-01 -0.31486902931E-01  0.46138177289E-01  0.51100000000E-03 0. -1.
</event>
<event>
 7    1  0.1041149E+005  0.1043930E+01  0.7957747E-01            NaN
         13   -1    0    0    0    0  0.00000000000E+00  0.00000000000E+00  0.74505805969E-08  0.10566000000E+00  0.10566000000E+00 0. -1.
     999900   -1    0    0    0    0 -0.00000000000E+00 -0.00000000000E+00 -0.74505805969E-08  0.93827000000E+00  0.93827000000E+00 0. -1.
     999903    2    1    2    0    0 -0.78716772483E-01  0.67994008772E-01 -0.16548746484E-01  0.10722274721E+00  0.20083351580E-01 0.  0.
         14    1    1    2    0    0 -0.32467081082E-01  0.29887393630E-01 -0.13066314627E-02  0.44148328821E-01  0.00000000000E+00 0.  1.
     999901    1    1    2    0    0  0.11118385356E+00 -0.97881402402E-01  0.17855377947E-01  0.89255892397E+00  0.88000000000E+00 0. -1.
        -11    1    3    3    0    0 -0.84823047116E-02  0.42229606148E-02 -0.71682927725E-02  0.11892368639E-01  0.51100000000E-03 0.  1.
         11    1    3    3    0    0 -0.70234467771E-01  0.63771048157E-01 -0.93804537114E-02  0.95330378574E-01  0.51100000000E-03 0. -1.
</event>
<event>
 8    1  0.1041149E+005  0.1043930E+01  0.7957747E-01            NaN
         13   -1    0    0    0    0  0.00000000000E+00  0.00000000000E+00  0.74505805969E-08  0.10566000000E+00  0.10566000000E+00 0.  1.
     999900   -1    0    0    0    0 -0.00000000000E+00 -0.00000000000E+00 -0.74505805969E-08  0.93827000000E+00  0.93827000000E+00 0. -1.
     999902    2    1    2    0    0  0.50461732346E-02 -0.23095455599E-01  0.90294636412E-02  0.10186239701E+01  0.10183095784E+01 0.  0.
     999903    2    3    3    0    0 -0.40258627128E-01  0.24194281571E-01  0.11880672023E+00  0.12938840504E+00  0.20498835754E-01 0.  0.
         14    1    1    2    0    0 -0.50461732346E-02  0.23095455599E-01 -0.90294636412E-02  0.25306029860E-01  0.00000000000E+00 0. -1.
     999901    1    3    3    0    0  0.45304800363E-01 -0.47289737170E-01 -0.10977725659E+00  0.88923556510E+00  0.88000000000E+00 0. -1.
        -11    1    4    4    0    0 -0.13244146435E-02 -0.26970945668E-02  0.14972545505E-01  0.15279614954E-01  0.51100000000E-03 0. -1.
         11    1    4    4    0    0 -0.38934212485E-01  0.26891376138E-01  0.10383417473E+00  0.11410879008E+00  0.51100000000E-03 0.  1.
</event>
<event>
 7    1  0.1041149E+005  0.1043930E+01  0.7957747E-01            NaN
         13   -1    0    0    0    0  0.00000000000E+00  0.00000000000E+00  0.74505805969E-08  0.10566000000E+00  0.10566000000E+00 0.  1.
     999900   -1    0    0    0    0 -0.00000000000E+00 -0.00000000000E+00 -0.74505805969E-08  0.93827000000E+00  0.93827000000E+00 0.  1.
     999903    2    1    2    0    0  0.21565965610E-03 -0.11866169845E-01 -0.10935490305E+00  0.11185293312E+00  0.20291163850E-01 0.  0.
         14    1    1    2    0    0  0.20142141836E-01  0.39292573469E-01  0.13720373441E-01  0.46237007417E-01  0.00000000000E+00 0.  1.
     999901    1    1    2    0    0 -0.20357801492E-01 -0.27426403624E-01  0.95634529609E-01  0.88584005946E+00  0.88000000000E+00 0. -1.
        -11    1    3    3    0    0 -0.17494264792E-03  0.57718758671E-02 -0.23723398843E-01  0.24421423579E-01  0.51100000000E-03 0.  1.
         11    1    3    3    0    0  0.39060230402E-03 -0.17638045712E-01 -0.85631504207E-01  0.87431509540E-01  0.51100000000E-03 0. -1.
</event>
<event>
 8    1  0.1041149E+005  0.1043930E+01  0.7957747E-01            NaN
         13   -1    0    0    0    0  0.00000000000E+00  0.00000000000E+00  0.74505805969E-08  0.10566000000E+00  0.10566000000E+00 0. -1.
     999900   -1    0    0    0    0 -0.00000000000E+00 -0.00000000000E+00 -0.74505805969E-08  0.93827000000E+00  0.93827000000E+00 0. -1.
     999902    2    1    2    0    0 -0.19552438134E-01 -0.12105397985E-01 -0.47795077291E-02  0.10204420841E+01  0.10201717330E+01 0.  0.
     999903    2    3    3    0    0  0.68559472136E-01  0.54248197711E-02 -0.10836500692E+00  0.12982377481E+00  0.19529667004E-01 0.  0.
         14    1    1    2    0    0  0.19552438134E-01  0.12105397985E-01  0.47795077291E-02  0.23487915861E-01  0.00000000000E+00 0. -1.
     999901    1    3    3    0    0 -0.88111910270E-01 -0.17530217756E-01  0.10358549919E+00  0.89061830933E+00  0.88000000000E+00 0.  1.
        -11    1    4    4    0    0  0.48678371413E-01  0.88257634363E-02 -0.62460966754E-01  0.79681311689E-01  0.51100000000E-03 0.  1.
         11    1    4    4    0    0  0.19881100723E-01 -0.34009436651E-02 -0.45904040163E-01  0.50142463123E-01  0.51100000000E-03 0. -1.
</event>
<event>
 8    1  0.1041149E+005  0.1043930E+01  0.7957747E-01            NaN
         13   -1    0    0    0    0  0.00000000000E+00  0.00000000000E+00  0.74505805969E-08  0.10566000000E+00  0.10566000000E+00 0.  1.
     999900   -1    0    0    0    0 -0.00000000000E+00 -0.00000000000E+00 -0.74505805969E-08  0.93827000000E+00  0.93827000000E+00 0.  1.
     999902    2    1    2    0    0  0.18066097264E-01 -0.11853075672E-01 -0.81214240908E-03  0.10223073533E+01  0.10220786593E+01 0.  0.
     999903    2    3    3    0    0  0.77831722220E-01 -0.10539029346E+00 -0.25708087670E-01  0.13498500542E+00  0.19878505374E-01 0.  0.
         14    1    1    2    0    0 -0.18066097264E-01  0.11853075672E-01  0.81214240908E-03  0.21622646658E-01  0.00000000000E+00 0.  1.
     999901    1    3    3    0    0 -0.59765624956E-01  0.93537217789E-01  0.24895945261E-01  0.88732234793E+00  0.88000000000E+00 0. -1.
        -11    1    4    4    0    0  0.39835261625E-01 -0.64771472715E-01 -0.22359699112E-01  0.79261649061E-01  0.51100000000E-03 0.  1.
         11    1    4    4    0    0  0.37996460596E-01 -0.40618820745E-01 -0.33483885582E-02  0.55723356355E-01  0.51100000000E-03 0. -1.
</event>
<event>
 8    1  0.1041149E+005  0.1043930E+01  0.7957747E-01            NaN
         13   -1    0    0    0    0  0.00000000000E+00  0.00000000000E+00  0.74505805969E-08  0.10566000000E+00  0.10566000000E+00 0.  1.
     999900   -1    0    0    0    0 -0.00000000000E+00 -0.00000000000E+00 -0.74505805969E-08  0.93827000000E+00  0.93827000000E+00 0. -1.
     999902    2    1    2    0    0  0.15021466015E-01  0.16106788039E-02 -0.19145906201E-01  0.10195413868E+01  0.10192496431E+01 0.  0.
     999903    2    3    3    0    0 -0.10584306537E+00 -0.60028684989E-01 -0.37399104058E-01  0.12895684546E+00  0.20614982388E-01 0.  0.
         14    1    1    2    0    0 -0.15021466015E-01 -0.16106788039E-02  0.19145906201E-01  0.24388613157E-01  0.00000000000E+00 0.  1.
     999901    1    3    3    0    0  0.12086453138E+00  0.61639363793E-01  0.18253197856E-01  0.89058454138E+00  0.88000000000E+00 0.  1.
        -11    1    4    4    0    0 -0.26456593683E-01 -0.95460617502E-02 -0.16399790766E-01  0.32562139095E-01  0.51100000000E-03 0. -1.
         11    1    4    4    0    0 -0.79386471686E-01 -0.50482623239E-01 -0.20999313291E-01  0.96394706367E-01  0.51100000000E-03 0.  1.
</event>
<event>
 8    1  0.1041149E+005  0.1043930E+01  0.7957747E-01            NaN
         13   -1    0    0    0    0  0.00000000000E+00  0.00000000000E+00  0.74505805969E-08  0.10566000000E+00  0.10566000000E+00 0.  1.
     999900   -1    0    0    0    0 -0.00000000000E+00 -0.00000000000E+00 -0.74505805969E-08  0.93827000000E+00  0.93827000000E+00 0.  1.
     999902    2    1    2    0    0  0.15891663516E-03  0.89912170031E-02 -0.21972639485E-01  0.10201883884E+01  0.10199120960E+01 0.  0.
     999903    2    3    3    0    0 -0.10469705304E+00  0.74777782664E-01 -0.10289936159E-01  0.13144819451E+00  0.24890868972E-01 0.  0.
         14    1    1    2    0    0 -0.15891663516E-03 -0.89912170031E-02  0.21972639485E-01  0.23741611648E-01  0.00000000000E+00 0.  1.
     999901    1    3    3    0    0  0.10485596967E+00 -0.65786565661E-01 -0.11682703326E-01  0.88874019384E+00  0.88000000000E+00 0.  1.
        -11    1    4    4    0    0 -0.73354507197E-01  0.39040641791E-01 -0.11534716602E-01  0.83894971516E-01  0.51100000000E-03 0. -1.
         11    1    4    4    0    0 -0.31342545841E-01  0.35737140873E-01  0.12447804424E-02  0.47553222992E-01  0.51100000000E-03 0.  1.
</event>
<event>
 8    1  0.1041149E+005  0.1043930E+01  0.7957747E-01            NaN
         13   -1    0    0    0    0  0.00000000000E+00  0.00000000000E+00  0.74505805969E-08  0.10566000000E+00  0.10566000000E+00 0. -1.
     999900   -1    0    0    0    0 -0.00000000000E+00 -0.00000000000E+00 -0.74505805969E-08  0.93827000000E+00  0.93827000000E+00 0.  1.
     999902    2    1    2    0    0  0.78165512177E-02 -0.13461712644E-01  0.18254577386E-01  0.10199394649E+01  0.10196572788E+01 0.  0.
     999903    2    3    3    0    0 -0.10049725086E+00  0.62209927465E-01  0.49535324392E-01  0.12952576216E+00  0.18798994557E-01 0.  0.
         14    1    1    2    0    0 -0.78165512177E-02  0.13461712644E-01 -0.18254577386E-01  0.23990535129E-01  0.00000000000E+00 0.  1.
     999901    1    3    3    0    0  0.10831380207E+00 -0.75671640109E-01 -0.31280747006E-01  0.89041370271E+00  0.88000000000E+00 0. -1.
        -11    1    4    4    0    0 -0.48783070313E-01  0.31209888684E-01  0.14167914903E-01  0.59622445728E-01  0.51100000000E-03 0.  1.
         11    1    4    4    0    0 -0.51714180543E-01  0.31000038781E-01  0.35367409489E-01  0.69903316435E-01  0.51100000000E-03 0. -1.
</event>
<event>
 8    1  0.1041149E+005  0.1043930E+01  0.7957747E-01            NaN
         13   -1    0    0    0    0  0.00000000000E+00  0.00000000000E+00  0.74505805969E-08  0.10566000000E+00  0.10566000000E+00 0. -1.
     999900   -1    0    0    0    0 -0.00000000000E+00 -0.00000000000E+00 -0.74505805969E-08  0.93827000000E+00  0.93827000000E+00 0.  1.
     999902    2    1    2    0    0  0.92407487066E-02 -0.21402826499E-01  0.27536803507E-02  0.10204554356E+01  0.10201853953E+01 0.  0.
     999903    2    3    3    0    0 -0.84237564762E-03 -0.11961404065E+00 -0.54842379139E-01  0.13306351651E+00  0.19748026688E-01 0.  0.
         14    1    1    2    0    0 -0.92407487066E-02  0.21402826499E-01 -0.27536803507E-02  0.23474564411E-01  0.00000000000E+00 0.  1.
     999901    1    3    3    0    0  0.10083124354E-01  0.98211214153E-01  0.57596059489E-01  0.88739191908E+00  0.88000000000E+00 0. -1.
        -11    1    4    4    0    0 -0.21138119072E-02 -0.98197121656E-01 -0.36340633038E-01  0.10472843756E+00  0.51100000000E-03 0. -1.
         11    1    4    4    0    0  0.12714362596E-02 -0.21416918996E-01 -0.18501746101E-01  0.28335078952E-01  0.51100000000E-03 0.  1.
</event>
<event>
 8    1  0.1041149E+005  0.1043930E+01  0.7957747E-01            NaN
         13   -1    0    0    0    0  0.00000000000E+00  0.00000000000E+00  0.74505805969E-08  0.10566000000E+00  0.10566000000E+00 0.  1.
     999900   -1    0    0    0    0 -0.00000000000E+00 -0.00000000000E+00 -0.74505805969E-08  0.93827000000E+00  0.93827000000E+00 0. -1.
     999902    2    1    2    0    0  0.15192353661E-01 -0.13212806144E-01 -0.13307369148E-01  0.10197955448E+01  0.10195099221E+01 0.  0.
     999903    2    3    3    0    0  0.16749280731E-01 -0.45378797613E-01 -0.12183722732E+00  0.13254371741E+00  0.19589624434E-01 0.  0.
         14    1    1    2    0    0 -0.15192353661E-01  0.13212806144E-01  0.13307369148E-01  0.24134455238E-01  0.00000000000E+00 0.  1.
     999901    1    3    3    0    0 -0.15569270699E-02  0.32165991468E-01  0.10852985817E+00  0.88725182735E+00  0.88000000000E+00 0.  1.
        -11    1    4    4    0    0  0.20955382255E-01 -0.40658580939E-01 -0.10951906050E+00  0.11868839027E+00  0.51100000000E-03 0.  1.
         11    1    4    4    0    0 -0.42061015243E-02 -0.47202166740E-02 -0.12318166816E-01  0.13855327141E-01  0.51100000000E-03 0. -1.
</event>
<event>
 8    1  0.1041149E+005  0.1043930E+01  0.7957747E-01            NaN
         13   -1    0    0    0    0  0.00000000000E+00  0.00000000000E+00  0.74505805969E-08  0.10566000000E+00  0.10566000000E+00 0.  1.
     999900   -1    0    0    0    0 -0.00000000000E+00 -0.00000000000E+00 -0.74505805969E-08  0.93827000000E+00  0.93827000000E+00 0.  1.
     999902    2    1    2    0    0 -0.21075610099E-01  0.16288470855E-01 -0.35290737713E-02  0.10170608730E+01  0.10167058913E+01 0.  0.
     999903    2    3    3    0    0  0.34808816176E-01 -0.60984642773E-01  0.10170658549E+00  0.12567501538E+00  0.22785952303E-01 0.  0.
         14    1    1    2    0    0  0.21075610099E-01 -0.16288470855E-01  0.35290737713E-02  0.26869126996E-01  0.00000000000E+00 0.  1.
     999901    1    3    3    0    0 -0.55884426276E-01  0.77273113628E-01 -0.10523565926E+00  0.89138585762E+00  0.88000000000E+00 0.  1.
        -11    1    4    4    0    0 -0.53968215006E-03 -0.88920075805E-02  0.24378303802E-01  0.25960005256E-01  0.51100000000E-03 0.  1.
         11    1    4    4    0    0  0.35348498326E-01 -0.52092635193E-01  0.77328281683E-01  0.99715010125E-01  0.51100000000E-03 0. -1.
</event>
<event>
 8    1  0.1041149E+005  0.1043930E+01  0.7957747E-01            NaN
         13   -1    0    0    0    0  0.00000000000E+00  0.00000000000E+00  0.74505805969E-08  0.10566000000E+00  0.10566000000E+00 0.  1.
     999900   -1    0    0    0    0 -0.00000000000E+00 -0.00000000000E+00 -0.74505805969E-08  0.93827000000E+00  0.93827000000E+00 0. -1.
     999902    2    1    2    0    0 -0.46993102692E-02  0.19055138672E-01 -0.58516940360E-02  0.10234501526E+01  0.10232452251E+01 0.  0.
     999903    2    3    3    0    0 -0.87854971992E-01  0.28262648803E-01  0.94592195702E-01  0.13379369232E+00  0.20875708259E-01 0.  0.
         14    1    1    2    0    0  0.46993102692E-02 -0.19055138672E-01  0.58516940360E-02  0.20479847409E-01  0.00000000000E+00 0.  1.
     999901    1    3    3    0    0  0.83155661723E-01 -0.92075101312E-02 -0.10044388974E+00  0.88965646027E+00  0.88000000000E+00 0. -1.
        -11    1    4    4    0    0 -0.51262893710E-01  0.27098450507E-01  0.59305919745E-01  0.82943737131E-01  0.51100000000E-03 0.  1.
         11    1    4    4    0    0 -0.36592078282E-01  0.11641982965E-02  0.35286275956E-01  0.50849955187E-01  0.51100000000E-03 0. -1.
</event>
<event>
 8    1  0.1041149E+005  0.1043930E+01  0.7957747E-01            NaN
         13   -1    0    0    0    0  0.00000000000E+00  0.00000000000E+00  0.74505805969E-08  0.10566000000E+00  0.10566000000E+00 0. -1.
     999900   -1    0    0    0    0 -0.00000000000E+00 -0.00000000000E+00 -0.74505805969E-08  0.93827000000E+00  0.93827000000E+00 0.  1.
     999902    2    1    2    0    0  0.26332721401E-03 -0.16695420064E-01 -0.18606039306E-01  0.10189301782E+01  0.10186234422E+01 0.  0.
     999903    2    3    3    0    0  0.11959611490E+00  0.37315375903E-01 -0.24350382103E-01  0.12921647267E+00  0.20206130841E-01 0.  0.
         14    1    1    2    0    0 -0.26332721401E-03  0.16695420064E-01  0.18606039306E-01  0.24999821820E-01  0.00000000000E+00 0. -1.
     999901    1    3    3    0    0 -0.11933278768E+00 -0.54010795967E-01  0.57443427970E-02  0.88971370551E+00  0.88000000000E+00 0.  1.
        -11    1    4    4    0    0  0.30663311769E-01  0.14659172535E-01 -0.14358812202E-01  0.36899412419E-01  0.51100000000E-03 0.  1.
         11    1    4    4    0    0  0.88932803129E-01  0.22656203368E-01 -0.99915699011E-02  0.92317060252E-01  0.51100000000E-03 0. -1.
</event>
<event>
 8    1  0.1041149E+005  0.1043930E+01  0.7957747E-01            NaN
         13   -1    0    0    0    0  0.00000000000E+00  0.00000000000E+00  0.74505805969E-08  0.10566000000E+00  0.10566000000E+00 0.  1.
     999900   -1    0    0    0    0 -0.00000000000E+00 -0.00000000000E+00 -0.74505805969E-08  0.93827000000E+00  0.93827000000E+00 0.  1.
     999902    2    1    2    0    0 -0.11008973367E-01 -0.12289653207E-01  0.17950667887E-01  0.10195484589E+01  0.10192568864E+01 0.  0.
     999903    2    3    3    0    0 -0.26062679624E-01 -0.12232344992E+00  0.38241441586E-01  0.13233610210E+00  0.20202633375E-01 0.  0.
         14    1    1    2    0    0  0.11008973367E-01  0.12289653207E-01 -0.17950667887E-01  0.24381541136E-01  0.00000000000E+00 0. -1.
     999901    1    3    3    0    0  0.15053706257E-01  0.11003379672E+00 -0.20290773699E-01  0.88721235676E+00  0.88000000000E+00 0. -1.
        -11    1    4    4    0    0 -0.20309674721E-01 -0.58856380968E-01  0.25831030304E-01  0.67409641117E-01  0.51100000000E-03 0. -1.
         11    1    4    4    0    0 -0.57530049030E-02 -0.63467068954E-01  0.12410411282E-01  0.64926460987E-01  0.51100000000E-03 0.  1.
</event>
<event>
 8    1  0.1041149E+005  0.1043930E+01  0.7957747E-01            NaN
         13   -1    0    0    0    0  0.00000000000E+00  0.00000000000E+00  0.74505805969E-08  0.10566000000E+00  0.10566000000E+00 0. -1.
     999900   -1    0    0    0    0 -0.00000000000E+00 -0.00000000000E+00 -0.74505805969E-08  0.93827000000E+00  0.93827000000E+00 0. -1.
     999902    2    1    2    0    0  0.83438585615E-02 -0.13542281364E-01 -0.17765213808E-01  0.10200843257E+01  0.10198055773E+01 0.  0.
     999903    2    3    3    0    0 -0.25386352120E-01 -0.90840620724E-01  0.87058566692E-01  0.12985919389E+00  0.19690885104E-01 0.  0.
         14    1    1    2    0    0 -0.83438585615E-02  0.13542281364E-01  0.17765213808E-01  0.23845674280E-01  0.00000000000E+00 0. -1.
     999901    1    3    3    0    0  0.33730210681E-01  0.77298339360E-01 -0.10482378050E+00  0.89022513183E+00  0.88000000000E+00 0. -1.
        -11    1    4    4    0    0 -0.24542462126E-03 -0.23387528077E-01  0.13852731015E-01  0.27188158826E-01  0.51100000000E-03 0.  1.
         11    1    4    4    0    0 -0.25140927499E-01 -0.67453092647E-01  0.73205835678E-01  0.10267103507E+00  0.51100000000E-03 0. -1.
</event>
<event>
 8    1  0.1041149E+005  0.1043930E+01  0.7957747E-01            NaN
         13   -1    0    0    0    0  0.00000000000E+00  0.00000000000E+00  0.74505805969E-08  0.10566000000E+00  0.10566000000E+00 0. -1.
     999900   -1    0    0    0    0 -0.00000000000E+00 -0.00000000000E+00 -0.74505805969E-08  0.93827000000E+00  0.93827000000E+00 0. -1.
     999902    2    1    2    0    0 -0.14998829962E-01  0.16944439323E-01  0.93982158731E-02  0.10194268291E+01  0.10191323047E+01 0.  0.
     999903    2    3    3    0    0 -0.44524153371E-01 -0.10540563981E+00  0.56601191032E-01  0.12921932098E+00  0.20029701714E-01 0.  0.
         14    1    1    2    0    0  0.14998829962E-01 -0.16944439323E-01 -0.93982158731E-02  0.24503170934E-01  0.00000000000E+00 0.  1.
     999901    1    3    3    0    0  0.29525323409E-01  0.12235007914E+00 -0.47202975159E-01  0.89020750809E+00  0.88000000000E+00 0. -1.
        -11    1    4    4    0    0 -0.24155999977E-01 -0.39281150107E-01  0.15055616673E-01  0.48512408753E-01  0.51100000000E-03 0. -1.
         11    1    4    4    0    0 -0.20368153394E-01 -0.66124489706E-01  0.41545574359E-01  0.80706912228E-01  0.51100000000E-03 0.  1.
</event>
<event>
 8    1  0.1041149E+005  0.1043930E+01  0.7957747E-01            NaN
         13   -1    0    0    0    0  0.00000000000E+00  0.00000000000E+00  0.74505805969E-08  0.10566000000E+00  0.10566000000E+00 0. -1.
     999900   -1    0    0    0    0 -0.00000000000E+00 -0.00000000000E+00 -0.74505805969E-08  0.93827000000E+00  0.93827000000E+00 0.  1.
     999902    2    1    2    0    0 -0.16683050984E-01  0.14683162437E-01 -0.72134245030E-02  0.10205643641E+01  0.10202968530E+01 0.  0.
     999903    2    3    3    0    0  0.12447565080E+00  0.24985276051E-01  0.94480366477E-02  0.12909954877E+00  0.21423735279E-01 0.  0.
         14    1    1    2    0    0  0.16683050984E-01 -0.14683162437E-01  0.72134245030E-02  0.23365635929E-01  0.00000000000E+00 0. -1.
     999901    1    3    3    0    0 -0.14115870179E+00 -0.10302113614E-01 -0.16661461151E-01  0.89146481530E+00  0.88000000000E+00 0.  1.
        -11    1    4    4    0    0  0.95625231169E-01  0.22735032007E-01  0.15567296201E-01  0.99517176148E-01  0.51100000000E-03 0. -1.
         11    1    4    4    0    0  0.28850419635E-01  0.22502440441E-02 -0.61192595533E-02  0.29582372620E-01  0.51100000000E-03 0.  1.
</event>
<event>
 8    1  0.1041149E+005  0.1043930E+01  0.7957747E-01            NaN
         13   -1    0    0    0    0  0.00000000000E+00  0.00000000000E+00  0.74505805969E-08  0.10566000000E+00  0.10566000000E+00 0.  1.
     999900   -1    0    0    0    0 -0.00000000000E+00 -0.00000000000E+00 -0.74505805969E-08  0.93827000000E+00  0.93827000000E+00 0.  1.
     999902    2    1    2    0    0 -0.22012413881E-01 -0.22767476260E-02 -0.71664294528E-02  0.10206687091E+01  0.10204036094E+01 0.  0.
     999903    2    3    3    0    0  0.36684958493E-01  0.12307302918E+00 -0.30012458210E-02  0.12984027619E+00  0.18887380840E-01 0.  0.
         14    1    1    2    0    0  0.22012413881E-01  0.22767476260E-02  0.71664294528E-02  0.23261290930E-01  0.00000000000E+00 0.  1.
     999901    1    3    3    0    0 -0.58697372374E-01 -0.12534977680E+00 -0.41651836318E-02  0.89082843288E+00  0.88000000000E+00 0.  1.
        -11    1    4    4    0    0  0.10446849468E-01  0.25593930885E-01  0.66286934334E-02  0.28432141312E-01  0.51100000000E-03 0. -1.
         11    1    4    4    0    0  0.26238109025E-01  0.97479098291E-01 -0.96299392544E-02  0.10140813488E+00  0.51100000000E-03 0.  1.
</event>
<event>
 8    1  0.1041149E+005  0.1043930E+01  0.7957747E-01            NaN
         13   -1    0    0    0    0  0.00000000000E+00  0.00000000000E+00  0.74505805969E-08  0.10566000000E+00  0.10566000000E+00 0. -1.
     999900   -1    0    0    0    0 -0.00000000000E+00 -0.00000000000E+00 -0.74505805969E-08  0.93827000000E+00  0.93827000000E+00 0.  1.
     999902    2    1    2    0    0  0.13940215755E-01  0.13469687866E-01 -0.12802707288E-01  0.10206991709E+01  0.10204347731E+01 0.  0.
     999903    2    3    3    0    0 -0.80482707910E-01 -0.38784487316E-02  0.98898007723E-01  0.12845834238E+00  0.15106990368E-01 0.  0.
         14    1    1    2    0    0 -0.13940215755E-01 -0.13469687866E-01  0.12802707288E-01  0.23230829094E-01  0.00000000000E+00 0.  1.
     999901    1    3    3    0    0  0.94422923665E-01  0.17348136597E-01 -0.11170071501E+00  0.89224082853E+00  0.88000000000E+00 0.  1.
        -11    1    4    4    0    0 -0.61759396176E-02  0.35821831850E-02  0.10917223098E-01  0.13054545098E-01  0.51100000000E-03 0. -1.
         11    1    4    4    0    0 -0.74306768292E-01 -0.74606319167E-02  0.87980784625E-01  0.11540379728E+00  0.51100000000E-03 0.  1.
</event>
<event>
 8    1  0.1041149E+005  0.1043930E+01  0.7957747E-01            NaN
         13   -1    0    0    0    0  0.00000000000E+00  0.00000000000E+00  0.74505805969E-08  0.10566000000E+00  0.10566000000E+00 0.  1.
     999900   -1    0    0    0    0 -0.00000000000E+00 -0.00000000000E+00 -0.74505805969E-08  0.93827000000E+00  0.93827000000E+00 0. -1.
     999902    2    1    2    0    0  0.59481343211E-02 -0.17845925779E-01  0.15048973820E-01  0.10198399817E+01  0.10195554224E+01 0.  0.
     999903    2    3    3    0    0  0.58796920816E-01  0.95898154040E-01  0.60247936169E-01  0.12979860281E+00  0.23755623212E-01 0.  0.
         14    1    1    2    0    0 -0.59481343211E-02  0.17845925779E-01 -0.15048973820E-01  0.24090018303E-01  0.00000000000E+00 0. -1.
     999901    1    3    3    0    0 -0.52848786495E-01 -0.11374407982E+00 -0.45198962349E-01  0.89004137888E+00  0.88000000000E+00 0.  1.
        -11    1    4    4    0    0  0.20670453910E-01  0.35925060696E-01  0.96507884410E-02  0.42559094086E-01  0.51100000000E-03 0.  1.
         11    1    4    4    0    0  0.38126466906E-01  0.59973093343E-01  0.50597147728E-01  0.87239508728E-01  0.51100000000E-03 0. -1.
</event>
<event>
 8    1  0.1041149E+005  0.1043930E+01  0.7957747E-01            NaN
         13   -1    0    0    0    0  0.00000000000E+00  0.00000000000E+00  0.74505805969E-08  0.10566000000E+00  0.10566000000E+00 0.  1.
     999900   -1    0    0    0    0 -0.00000000000E+00 -0.00000000000E+00 -0.74505805969E-08  0.93827000000E+00  0.93827000000E+00 0.  1.
     999902    2    1    2    0    0  0.13098401755E-01 -0.19217708407E-01 -0.55535451136E-02  0.10200191174E+01  0.10197388242E+01 0.  0.
     999903    2    3    3    0    0 -0.10964496021E+00 -0.57933293734E-01  0.32915467791E-01  0.12982548989E+00  0.19822865162E-01 0.  0.
         14    1    1    2    0    0 -0.13098401755E-01  0.19217708407E-01  0.55535451136E-02  0.23910882633E-01  0.00000000000E+00 0. -1.
     999901    1    3    3    0    0  0.12274336196E+00  0.38715585328E-01 -0.38469012905E-01  0.89019362748E+00  0.88000000000E+00 0.  1.
        -11    1    4    4    0    0 -0.37844053319E-01 -0.23419078633E-01  0.25923752700E-02  0.44582587926E-01  0.51100000000E-03 0. -1.
         11    1    4    4    0    0 -0.71800906886E-01 -0.34514215102E-01  0.30323092521E-01  0.85242901961E-01  0.51100000000E-03 0.  1.
</event>
<event>
 8    1  0.1041149E+005  0.1043930E+01  0.7957747E-01            NaN
         13   -1    0    0    0    0  0.00000000000E+00  0.00000000000E+00  0.74505805969E-08  0.10566000000E+00  0.10566000000E+00 0. -1.
     999900   -1    0    0    0    0 -0.00000000000E+00 -0.00000000000E+00 -0.74505805969E-08  0.93827000000E+00  0.93827000000E+00 0.  1.
     999902    2    1    2    0    0 -0.10277141270E-01 -0.42002891471E-02 -0.20793180413E-01  0.10203584406E+01  0.10200861380E+01 0.  0.
     999903    2    3    3    0    0  0.21557925047E-01  0.11907373282E+00 -0.45627336167E-01  0.13084919879E+00  0.19908818140E-01 0.  0.
         14    1    1    2    0    0  0.10277141270E-01  0.42002891471E-02  0.20793180413E-01  0.23571559416E-01  0.00000000000E+00 0. -1.
     999901    1    3    3    0    0 -0.31835066317E-01 -0.12327402196E+00  0.24834155754E-01  0.88950924179E+00  0.88000000000E+00 0.  1.
        -11    1    4    4    0    0  0.54642356371E-03  0.58310718011E-01 -0.23032706149E-01  0.62699322860E-01  0.51100000000E-03 0.  1.
         11    1    4    4    0    0  0.21011501483E-01  0.60763014807E-01 -0.22594630018E-01  0.68149875933E-01  0.51100000000E-03 0. -1.
</event>
<event>
 8    1  0.1041149E+005  0.1043930E+01  0.7957747E-01            NaN
         13   -1    0    0    0    0  0.00000000000E+00  0.00000000000E+00  0.74505805969E-08  0.10566000000E+00  0.10566000000E+00 0. -1.
     999900   -1    0    0    0    0 -0.00000000000E+00 -0.00000000000E+00 -0.74505805969E-08  0.93827000000E+00  0.93827000000E+00 0.  1.
     999902    2    1    2    0    0 -0.14357017032E-01  0.16877904639E-01  0.74788240281E-02  0.10205436704E+01  0.10202756798E+01 0.  0.
     999903    2    3    3    0    0  0.46457681910E-01  0.83547036811E-01 -0.87440271956E-01  0.13085111925E+00  0.18379082728E-01 0.  0.
         14    1    1    2    0    0  0.14357017032E-01 -0.16877904639E-01 -0.74788240281E-02  0.23386329595E-01  0.00000000000E+00 0.  1.
     999901    1    3    3    0    0 -0.60814698943E-01 -0.66669132172E-01  0.94919095984E-01  0.88969255115E+00  0.88000000000E+00 0. -1.
        -11    1    4    4    0    0  0.13515879616E-01  0.21964709688E-01 -0.35171498112E-01  0.43616772850E-01  0.51100000000E-03 0. -1.
         11    1    4    4    0    0  0.32941802294E-01  0.61582327123E-01 -0.52268773845E-01  0.87234346403E-01  0.51100000000E-03 0.  1.
</event>
<event>
 8    1  0.1041149E+005  0.1043930E+01  0.7957747E-01            NaN
         13   -1    0    0    0    0  0.00000000000E+00  0.00000000000E+00  0.74505805969E-08  0.10566000000E+00  0.10566000000E+00 0.  1.
     999900   -1    0    0    0    0 -0.00000000000E+00 -0.00000000000E+00 -0.74505805969E-08  0.93827000000E+00  0.93827000000E+00 0.  1.
     999902    2    1    2    0    0  0.41775891299E-02  0.16264283467E-01  0.16769813206E-01  0.10201980426E+01  0.10199219776E+01 0.  0.
     999903    2    3    3    0    0  0.27474225405E-01  0.11982700277E+00  0.47505010424E-01  0.13328619667E+00  0.19878142556E-01 0.  0.
         14    1    1    2    0    0 -0.41775891299E-02 -0.16264283467E-01 -0.16769813206E-01  0.23731957411E-01  0.00000000000E+00 0. -1.
     999901    1    3    3    0    0 -0.23296636275E-01 -0.10356271930E+00 -0.30735197218E-01  0.88691184592E+00  0.88000000000E+00 0.  1.
        -11    1    4    4    0    0  0.95316007024E-02  0.21055930281E-01  0.24419679493E-02  0.23247106065E-01  0.51100000000E-03 0.  1.
         11    1    4    4    0    0  0.17942624703E-01  0.98771072489E-01  0.45063042475E-01  0.11003909060E+00  0.51100000000E-03 0. -1.
</event>
<event>
 8    1  0.1041149E+005  0.1043930E+01  0.7957747E-01            NaN
         13   -1    0    0    0    0  0.00000000000E+00  0.00000000000E+00  0.74505805969E-08  0.10566000000E+00  0.10566000000E+00 0. -1.
     999900   -1    0    0    0    0 -0.00000000000E+00 -0.00000000000E+00 -0.74505805969E-08  0.93827000000E+00  0.93827000000E+00 0.  1.
     999902    2    1    2    0    0  0.35289755700E-02 -0.13213409385E-02 -0.22567669420E-01  0.10210498926E+01  0.10207935070E+01 0.  0.
     999903    2    3    3    0    0 -0.64700862969E-01  0.60645101820E-01 -0.97262048048E-01  0.13308908206E+00  0.19717193776E-01 0.  0.
         14    1    1    2    0    0 -0.35289755700E-02  0.13213409385E-02  0.22567669420E-01  0.22880107375E-01  0.00000000000E+00 0. -1.
     999901    1    3    3    0    0  0.68229838539E-01 -0.61966442758E-01  0.74694378628E-01  0.88796081056E+00  0.88000000000E+00 0. -1.
        -11    1    4    4    0    0 -0.41133946124E-01  0.25792637667E-01 -0.56654826286E-01  0.74614289141E-01  0.51100000000E-03 0.  1.
         11    1    4    4    0    0 -0.23566916845E-01  0.34852464153E-01 -0.40607221761E-01  0.58474792922E-01  0.51100000000E-03 0. -1.
</event>
<event>
 8    1  0.1041149E+005  0.1043930E+01  0.7957747E-01            NaN
         13   -1    0    0    0    0  0.00000000000E+00  0.00000000000E+00  0.74505805969E-08  0.10566000000E+00  0.10566000000E+00 0.  1.
     999900   -1    0    0    0    0 -0.00000000000E+00 -0.00000000000E+00 -0.74505805969E-08  0.93827000000E+00  0.93827000000E+00 0.  1.
     999902    2    1    2    0    0  0.91761650329E-02 -0.19265972948E-01 -0.89234583607E-02  0.10207997638E+01  0.10205376769E+01 0.  0.
     999903    2    3    3    0    0  0.73814402325E-01  0.65995591554E-01  0.81184599495E-01  0.12975144961E+00  0.20988458384E-01 0.  0.
         14    1    1    2    0    0 -0.91761650329E-02  0.19265972948E-01  0.89234583607E-02  0.23130236217E-01  0.00000000000E+00 0.  1.
     999901    1    3    3    0    0 -0.64638237292E-01 -0.85261564502E-01 -0.90108057855E-01  0.89104831417E+00  0.88000000000E+00 0.  1.
        -11    1    4    4    0    0  0.41489374848E-01  0.50016052911E-01  0.55732891835E-01  0.85611857400E-01  0.51100000000E-03 0. -1.
         11    1    4    4    0    0  0.32325027477E-01  0.15979538643E-01  0.25451707659E-01  0.44139592209E-01  0.51100000000E-03 0.  1.
</event>
<event>
 8    1  0.1041149E+005  0.1043930E+01  0.7957747E-01            NaN
         13   -1    0    0    0    0  0.00000000000E+00  0.00000000000E+00  0.74505805969E-08  0.10566000000E+00  0.10566000000E+00 0.  1.
     999900   -1    0    0    0    0 -0.00000000000E+00 -0.00000000000E+00 -0.74505805969E-08  0.93827000000E+00  0.93827000000E+00 0.  1.
     999902    2    1    2    0    0  0.15734171557E-02  0.10269249075E-01  0.22080809334E-01  0.10195272285E+01  0.10192351418E+01 0.  0.
     999903    2    3    3    0    0 -0.64323200873E-01  0.11228909181E+00  0.60426087089E-02  0.13104107974E+00  0.19721489521E-01 0.  0.
         14    1    1    2    0    0 -0.15734171557E-02 -0.10269249075E-01 -0.22080809334E-01  0.24402771543E-01  0.00000000000E+00 0. -1.
     999901    1    3    3    0    0  0.65896618028E-01 -0.10201984274E+00  0.16038200625E-01  0.88848614872E+00  0.88000000000E+00 0.  1.
        -11    1    4    4    0    0 -0.34837865151E-01  0.78663131351E-01  0.68742402412E-02  0.86308060933E-01  0.51100000000E-03 0.  1.
         11    1    4    4    0    0 -0.29485335722E-01  0.33625960463E-01 -0.83163153221E-03  0.44733018808E-01  0.51100000000E-03 0. -1.
</event>
<event>
 8    1  0.1041149E+005  0.1043930E+01  0.7957747E-01            NaN
         13   -1    0    0    0    0  0.00000000000E+00  0.00000000000E+00  0.74505805969E-08  0.10566000000E+00  0.10566000000E+00 0.  1.
     999900   -1    0    0    0    0 -0.00000000000E+00 -0.00000000000E+00 -0.74505805969E-08  0.93827000000E+00  0.93827000000E+00 0. -1.
     999902    2    1    2    0    0  0.21928193751E-01 -0.48972220393E-02 -0.60165628837E-02  0.10206700023E+01  0.10204049324E+01 0.  0.
     999903    2    3    3    0    0 -0.12279469850E+00  0.68847851940E-02  0.29616883914E-01  0.12805963165E+00  0.19904049814E-01 0.  0.
         14    1    1    2    0    0 -0.21928193751E-01  0.48972220393E-02  0.60165628837E-02  0.23259997717E-01  0.00000000000E+00 0. -1.
     999901    1    3    3    0    0  0.14472289225E+00 -0.11782007233E-01 -0.35633446798E-01  0.89261037064E+00  0.88000000000E+00 0. -1.
        -11    1    4    4    0    0 -0.39613861567E-01  0.91555033067E-02  0.33503703329E-02  0.40799109934E-01  0.51100000000E-03 0.  1.
         11    1    4    4    0    0 -0.83180836929E-01 -0.22707181126E-02  0.26266513581E-01  0.87260521713E-01  0.51100000000E-03 0. -1.
</event>
<event>
 8    1  0.1041149E+005  0.1043930E+01  0.7957747E-01            NaN
         13   -1    0    0    0    0  0.00000000000E+00  0.00000000000E+00  0.74505805969E-08  0.10566000000E+00  0.10566000000E+00 0.  1.
     999900   -1    0    0    0    0 -0.00000000000E+00 -0.00000000000E+00 -0.74505805969E-08  0.93827000000E+00  0.93827000000E+00 0. -1.
     999902    2    1    2    0    0  0.63914638548E-02  0.15606138414E-02  0.22212740528E-01  0.10207633825E+01  0.10205004610E+01 0.  0.
     999903    2    3    3    0    0  0.80668845772E-01 -0.98421707277E-01  0.28196000148E-01  0.13197240964E+00  0.20673832253E-01 0.  0.
         14    1    1    2    0    0 -0.63914638548E-02 -0.15606138414E-02 -0.22212740528E-01  0.23166617524E-01  0.00000000000E+00 0. -1.
     999901    1    3    3    0    0 -0.74277381917E-01  0.99982321118E-01 -0.59832596198E-02  0.88879097284E+00  0.88000000000E+00 0.  1.
        -11    1    4    4    0    0  0.26511247184E-01 -0.44954466390E-01  0.17885828581E-01  0.55171679879E-01  0.51100000000E-03 0. -1.
         11    1    4    4    0    0  0.54157598588E-01 -0.53467240887E-01  0.10310171567E-01  0.76800729760E-01  0.51100000000E-03 0.  1.
</event>
<event>
 8    1  0.1041149E+005  0.1043930E+01  0.7957747E-01            NaN
         13   -1    0    0    0    0  0.00000000000E+00  0.00000000000E+00  0.74505805969E-08  0.10566000000E+00  0.10566000000E+00 0.  1.
     999900   -1    0    0    0    0 -0.00000000000E+00 -0.00000000000E+00 -0.74505805969E-08  0.93827000000E+00  0.93827000000E+00 0.  1.
     999902    2    1    2    0    0 -0.10717488429E-01  0.16347253576E-01 -0.14018134972E-01  0.10198757828E+01  0.10195920787E+01 0.  0.
     999903    2    3    3    0    0  0.18567740092E-01  0.97183723526E-01  0.83125851518E-01  0.13036517937E+00  0.17196968056E-01 0.  0.
         14    1    1    2    0    0  0.10717488429E-01 -0.16347253576E-01  0.14018134972E-01  0.24054217214E-01  0.00000000000E+00 0. -1.
     999901    1    3    3    0    0 -0.29285228521E-01 -0.80836469950E-01 -0.97143986490E-01  0.88951060342E+00  0.88000000000E+00 0.  1.
        -11    1    4    4    0    0  0.12395809754E-01  0.85510253101E-01  0.65972442474E-01  0.10871193022E+00  0.51100000000E-03 0. -1.
         11    1    4    4    0    0  0.61719303383E-02  0.11673470425E-01  0.17153409044E-01  0.21653249149E-01  0.51100000000E-03 0.  1.
</event>
<event>
 8    1  0.1041149E+005  0.1043930E+01  0.7957747E-01            NaN
         13   -1    0    0    0    0  0.00000000000E+00  0.00000000000E+00  0.74505805969E-08  0.10566000000E+00  0.10566000000E+00 0.  1.
     999900   -1    0    0    0    0 -0.00000000000E+00 -0.00000000000E+00 -0.74505805969E-08  0.93827000000E+00  0.93827000000E+00 0.  1.
     999902    2    1    2    0    0 -0.17517353724E-01 -0.50395713030E-02 -0.11728936658E-01  0.10222546011E+01  0.10220247779E+01 0.  0.
     999903    2    3    3    0    0 -0.23743903389E-01 -0.16699100631E-01 -0.12973759632E+00  0.13427894928E+00  0.18877484220E-01 0.  0.
         14    1    1    2    0    0  0.17517353724E-01  0.50395713030E-02  0.11728936658E-01  0.21675398855E-01  0.00000000000E+00 0.  1.
     999901    1    3    3    0    0  0.62265496650E-02  0.11659529328E-01  0.11800865967E+00  0.88797565186E+00  0.88000000000E+00 0. -1.
        -11    1    4    4    0    0 -0.10655189966E-01 -0.18389628899E-01 -0.86144661079E-01  0.88729224484E-01  0.51100000000E-03 0. -1.
         11    1    4    4    0    0 -0.13088713422E-01  0.16905282677E-02 -0.43592935245E-01  0.45549724798E-01  0.51100000000E-03 0.  1.
</event>
<event>
 8    1  0.1041149E+005  0.1043930E+01  0.7957747E-01            NaN
         13   -1    0    0    0    0  0.00000000000E+00  0.00000000000E+00  0.74505805969E-08  0.10566000000E+00  0.10566000000E+00 0. -1.
     999900   -1    0    0    0    0 -0.00000000000E+00 -0.00000000000E+00 -0.74505805969E-08  0.93827000000E+00  0.93827000000E+00 0.  1.
     999902    2    1    2    0    0 -0.51376517967E-02 -0.86271436020E-02 -0.20817644199E-01  0.10208172896E+01  0.10205556042E+01 0.  0.
     999903    2    3    3    0    0  0.43820212422E-01 -0.93996636492E-01 -0.81910701535E-01  0.13322662693E+00  0.16863938081E-01 0.  0.
         14    1    1    2    0    0  0.51376517967E-02  0.86271436020E-02  0.20817644199E-01  0.23112710414E-01  0.00000000000E+00 0. -1.
     999901    1    3    3    0    0 -0.48957864219E-01  0.85369492890E-01  0.61093057337E-01  0.88759066266E+00  0.88000000000E+00 0. -1.
        -11    1    4    4    0    0  0.12070083333E-01 -0.40717837347E-01 -0.40214871495E-01  0.58490394085E-01  0.51100000000E-03 0. -1.
         11    1    4    4    0    0  0.31750129089E-01 -0.53278799145E-01 -0.41695830041E-01  0.74736232841E-01  0.51100000000E-03 0.  1.
</event>
<event>
 8    1  0.1041149E+005  0.1043930E+01  0.7957747E-01            NaN
         13   -1    0    0    0    0  0.00000000000E+00  0.00000000000E+00  0.74505805969E-08  0.10566000000E+00  0.10566000000E+00 0.  1.
     999900   -1    0    0    0    0 -0.00000000000E+00 -0.00000000000E+00 -0.74505805969E-08  0.93827000000E+00  0.93827000000E+00 0.  1.
     999902    2    1    2    0    0 -0.17090343844E-01 -0.13490108051E-01 -0.10551268798E-01  0.10197351216E+01  0.10194480497E+01 0.  0.
     999903    2    3    3    0    0  0.87184293424E-01 -0.17949163178E-01  0.89779325452E-01  0.12790592758E+00  0.19399112164E-01 0.  0.
         14    1    1    2    0    0  0.17090343844E-01  0.13490108051E-01  0.10551268798E-01  0.24194878408E-01  0.00000000000E+00 0. -1.
     999901    1    3    3    0    0 -0.10427463727E+00  0.44590551273E-02 -0.10033059425E+00  0.89182919401E+00  0.88000000000E+00 0.  1.
        -11    1    4    4    0    0  0.42423682310E-01  0.11611486369E-03  0.36020176220E-01  0.55655157167E-01  0.51100000000E-03 0. -1.
         11    1    4    4    0    0  0.44760611114E-01 -0.18065278042E-01  0.53759149232E-01  0.72250770412E-01  0.51100000000E-03 0.  1.
</event>
<event>
 8    1  0.1041149E+005  0.1043930E+01  0.7957747E-01            NaN
         13   -1    0    0    0    0  0.00000000000E+00  0.00000000000E+00  0.74505805969E-08  0.10566000000E+00  0.10566000000E+00 0.  1.
     999900   -1    0    0    0    0 -0.00000000000E+00 -0.00000000000E+00 -0.74505805969E-08  0.93827000000E+00  0.93827000000E+00 0. -1.
     999902    2    1    2    0    0 -0.94819534421E-03  0.15700904275E-01  0.16896891601E-01  0.10208448876E+01  0.10205838339E+01 0.  0.
     999903    2    3    3    0    0 -0.20670967824E-01  0.13052867191E+00  0.78997186004E-03  0.13301954618E+00  0.15117953177E-01 0.  0.
         14    1    1    2    0    0  0.94819534421E-03 -0.15700904275E-01 -0.16896891601E-01  0.23085112416E-01  0.00000000000E+00 0. -1.
     999901    1    3    3    0    0  0.19722772480E-01 -0.11482776764E+00  0.16106919741E-01  0.88782534140E+00  0.88000000000E+00 0.  1.
        -11    1    4    4    0    0 -0.13235699736E-01  0.39146657220E-01 -0.28623675900E-03  0.41327806274E-01  0.51100000000E-03 0.  1.
         11    1    4    4    0    0 -0.74352680888E-02  0.91382014694E-01  0.10762086190E-02  0.91691739907E-01  0.51100000000E-03 0. -1.
</event>
<event>
 8    1  0.1041149E+005  0.1043930E+01  0.7957747E-01            NaN
         13   -1    0    0    0    0  0.00000000000E+00  0.00000000000E+00  0.74505805969E-08  0.10566000000E+00  0.10566000000E+00 0.  1.
     999900   -1    0    0    0    0 -0.00000000000E+00 -0.00000000000E+00 -0.74505805969E-08  0.93827000000E+00  0.93827000000E+00 0. -1.
     999902    2    1    2    0    0  0.26352725786E-01  0.12120738462E-01  0.11280188732E-01  0.10128073215E+01  0.10123290223E+01 0.  0.
     999903    2    3    3    0    0 -0.10249443792E+00 -0.28297768924E-01  0.55348500944E-01  0.12141668692E+00  0.19304967631E-01 0.  0.
         14    1    1    2    0    0 -0.26352725786E-01 -0.12120738462E-01 -0.11280188732E-01  0.31122678468E-01  0.00000000000E+00 0. -1.
     999901    1    3    3    0    0  0.12884716370E+00  0.40418507387E-01 -0.44068312212E-01  0.89139063461E+00  0.88000000000E+00 0.  1.
        -11    1    4    4    0    0 -0.56994518780E-01 -0.20844945961E-01  0.22171523314E-01  0.64612108077E-01  0.51100000000E-03 0. -1.
         11    1    4    4    0    0 -0.45499919140E-01 -0.74528229631E-02  0.33176977630E-01  0.56804578843E-01  0.51100000000E-03 0.  1.
</event>
<event>
 8    1  0.1041149E+005  0.1043930E+01  0.7957747E-01            NaN
         13   -1    0    0    0    0  0.00000000000E+00  0.00000000000E+00  0.74505805969E-08  0.10566000000E+00  0.10566000000E+00 0.  1.
     999900   -1    0    0    0    0 -0.00000000000E+00 -0.00000000000E+00 -0.74505805969E-08  0.93827000000E+00  0.93827000000E+00 0. -1.
     999902    2    1    2    0    0  0.16068791956E-01 -0.13245493009E-01 -0.11269598480E-01  0.10202518875E+01  0.10199770885E+01 0.  0.
     999903    2    3    3    0    0 -0.78178412061E-01  0.88989907939E-01 -0.45928070046E-01  0.12866015231E+00  0.20321893285E-01 0.  0.
         14    1    1    2    0    0 -0.16068791956E-01  0.13245493009E-01  0.11269598480E-01  0.23678112465E-01  0.00000000000E+00 0.  1.
     999901    1    3    3    0    0  0.94247204017E-01 -0.10223540095E+00  0.34658471566E-01  0.89159173523E+00  0.88000000000E+00 0.  1.
        -11    1    4    4    0    0 -0.23837364966E-01  0.36131174414E-01 -0.25103766522E-01  0.50041402335E-01  0.51100000000E-03 0. -1.
         11    1    4    4    0    0 -0.54341047095E-01  0.52858733525E-01 -0.20824303525E-01  0.78618749974E-01  0.51100000000E-03 0.  1.
</event>
<event>
 8    1  0.1041149E+005  0.1043930E+01  0.7957747E-01            NaN
         13   -1    0    0    0    0  0.00000000000E+00  0.00000000000E+00  0.74505805969E-08  0.10566000000E+00  0.10566000000E+00 0.  1.
     999900   -1    0    0    0    0 -0.00000000000E+00 -0.00000000000E+00 -0.74505805969E-08  0.93827000000E+00  0.93827000000E+00 0. -1.
     999902    2    1    2    0    0 -0.13475396548E-01  0.12593108137E-01 -0.16202486429E-01  0.10193801884E+01  0.10190845280E+01 0.  0.
     999903    2    3    3    0    0  0.35834002374E-01 -0.10409393970E+00  0.60354225030E-01  0.12701915491E+00  0.19277168562E-01 0.  0.
         14    1    1    2    0    0  0.13475396548E-01 -0.12593108137E-01  0.16202486429E-01  0.24549811632E-01  0.00000000000E+00 0. -1.
     999901    1    3    3    0    0 -0.49309398922E-01  0.11668704784E+00 -0.76556711459E-01  0.89236103345E+00  0.88000000000E+00 0. -1.
        -11    1    4    4    0    0  0.35979236781E-02 -0.78238125306E-02  0.11431837468E-01  0.14321491759E-01  0.51100000000E-03 0.  1.
         11    1    4    4    0    0  0.32236078696E-01 -0.96270127170E-01  0.48922387562E-01  0.11269766316E+00  0.51100000000E-03 0. -1.
</event>
<event>
 8    1  0.1041149E+005  0.1043930E+01  0.7957747E-01            NaN
         13   -1    0    0    0    0  0.00000000000E+00  0.00000000000E+00  0.74505805969E-08  0.10566000000E+00  0.10566000000E+00 0. -1.
     999900   -1    0    0    0    0 -0.00000000000E+00 -0.00000000000E+00 -0.74505805969E-08  0.93827000000E+00  0.93827000000E+00 0. -1.
     999902    2    1    2    0    0  0.19046131295E-01  0.12696554788E-01  0.50506295335E-02  0.10204892987E+01  0.10202200460E+01 0.  0.
     999903    2    3    3    0    0  0.25903501446E-01  0.10551012049E+00  0.74314249643E-01  0.13287517609E+00  0.18161162094E-01 0.  0.
         14    1    1    2    0    0 -0.19046131295E-01 -0.12696554788E-01 -0.50506295335E-02  0.23440701344E-01  0.00000000000E+00 0.  1.
     999901    1    3    3    0    0 -0.68573701507E-02 -0.92813565702E-01 -0.69263620109E-01  0.88761412256E+00  0.88000000000E+00 0.  1.
        -11    1    4    4    0    0  0.25273992197E-01  0.66863585750E-01  0.47251551754E-01  0.85688295847E-01  0.51100000000E-03 0.  1.
         11    1    4    4    0    0  0.62950924895E-03  0.38646534740E-01  0.27062697889E-01  0.47186880246E-01  0.51100000000E-03 0. -1.
</event>
<event>
 8    1  0.1041149E+005  0.1043930E+01  0.7957747E-01            NaN
         13   -1    0    0    0    0  0.00000000000E+00  0.00000000000E+00  0.74505805969E-08  0.10566000000E+00  0.10566000000E+00 0.  1.
     999900   -1    0    0    0    0 -0.00000000000E+00 -0.00000000000E+00 -0.74505805969E-08  0.93827000000E+00  0.93827000000E+00 0. -1.
     999902    2    1    2    0    0 -0.15627879168E-01  0.36557785184E-02 -0.17845239994E-01  0.10199290018E+01  0.10196465666E+01 0.  0.
     999903    2    3    3    0    0  0.95940872272E-01 -0.82357063118E-01 -0.12327694325E-01  0.12870723449E+00  0.20645661660E-01 0.  0.
         14    1    1    2    0    0  0.15627879168E-01 -0.36557785184E-02  0.17845239994E-01  0.24000998194E-01  0.00000000000E+00 0.  1.
     999901    1    3    3    0    0 -0.11156875144E+00  0.86012841637E-01 -0.55175456690E-02  0.89122176731E+00  0.88000000000E+00 0.  1.
        -11    1    4    4    0    0  0.49002532607E-01 -0.39852745893E-01  0.40634383207E-02  0.63295040951E-01  0.51100000000E-03 0.  1.
         11    1    4    4    0    0  0.46938339665E-01 -0.42504317226E-01 -0.16391132646E-01  0.65412193540E-01  0.51100000000E-03 0. -1.
</event>
<event>
 8    1  0.1041149E+005  0.1043930E+01  0.7957747E-01            NaN
         13   -1    0    0    0    0  0.00000000000E+00  0.00000000000E+00  0.74505805969E-08  0.10566000000E+00  0.10566000000E+00 0. -1.
     999900   -1    0    0    0    0 -0.00000000000E+00 -0.00000000000E+00 -0.74505805969E-08  0.93827000000E+00  0.93827000000E+00 0. -1.
     999902    2    1    2    0    0 -0.15867590496E-01  0.10380894914E-01 -0.13611082181E-01  0.10205889425E+01  0.10203220004E+01 0.  0.
     999903    2    3    3    0    0 -0.87645638039E-01 -0.39910179615E-01 -0.90036576963E-01  0.13293915990E+00  0.17077902083E-01 0.  0.
         14    1    1    2    0    0  0.15867590496E-01 -0.10380894914E-01  0.13611082181E-01  0.23341057506E-01  0.00000000000E+00 0. -1.
     999901    1    3    3    0    0  0.71778047544E-01  0.50291074529E-01  0.76425494782E-01  0.88764978259E+00  0.88000000000E+00 0. -1.
        -11    1    4    4    0    0 -0.73316512963E-01 -0.39889907077E-01 -0.77110403342E-01  0.11363446301E+00  0.51100000000E-03 0. -1.
         11    1    4    4    0    0 -0.14329125077E-01 -0.20272537973E-04 -0.12926173620E-01  0.19304696887E-01  0.51100000000E-03 0.  1.
</event>
<event>
 8    1  0.1041149E+005  0.1043930E+01  0.7957747E-01            NaN
         13   -1    0    0    0    0  0.00000000000E+00  0.00000000000E+00  0.74505805969E-08  0.10566000000E+00  0.10566000000E+00 0.  1.
     999900   -1    0    0    0    0 -0.00000000000E+00 -0.00000000000E+00 -0.74505805969E-08  0.93827000000E+00  0.93827000000E+00 0. -1.
     999902    2    1    2    0    0  0.22109680265E-01  0.36942482061E-02 -0.68572481587E-02  0.10204884283E+01  0.10202191554E+01 0.  0.
     999903    2    3    3    0    0 -0.32629134138E-01 -0.40146914436E-01  0.11796330895E+00  0.12891759162E+00  0.52884815556E-02 0.  0.
         14    1    1    2    0    0 -0.22109680265E-01 -0.36942482061E-02  0.68572481587E-02  0.23441571695E-01  0.00000000000E+00 0. -1.
     999901    1    3    3    0    0  0.54738814403E-01  0.43841162642E-01 -0.12482055711E+00  0.89157083668E+00  0.88000000000E+00 0. -1.
        -11    1    4    4    0    0 -0.15917263613E-01 -0.15631777845E-01  0.52154243706E-01  0.56727753499E-01  0.51100000000E-03 0.  1.
         11    1    4    4    0    0 -0.16711870525E-01 -0.24515136591E-01  0.65809065248E-01  0.72189838124E-01  0.51100000000E-03 0. -1.
</event>
<event>
 8    1  0.1041149E+005  0.1043930E+01  0.7957747E-01            NaN
         13   -1    0    0    0    0  0.00000000000E+00  0.00000000000E+00  0.74505805969E-08  0.10566000000E+00  0.10566000000E+00 0. -1.
     999900   -1    0    0    0    0 -0.00000000000E+00 -0.00000000000E+00 -0.74505805969E-08  0.93827000000E+00  0.93827000000E+00 0. -1.
     999902    2    1    2    0    0 -0.14220179975E-01 -0.15893916083E-01  0.95130586572E-02  0.10205777330E+01  0.10203105316E+01 0.  0.
     999903    2    3    3    0    0 -0.22198743321E-01 -0.11397167463E+00 -0.59964856973E-01  0.13237162805E+00  0.21074558551E-01 0.  0.
         14    1    1    2    0    0  0.14220179975E-01  0.15893916083E-01 -0.95130586572E-02  0.23352266956E-01  0.00000000000E+00 0.  1.
     999901    1    3    3    0    0  0.79785633466E-02  0.98077758543E-01  0.69477915630E-01  0.88820610500E+00  0.88000000000E+00 0. -1.
        -11    1    4    4    0    0 -0.18980489071E-01 -0.10329446498E+00 -0.60483498328E-01  0.12119620519E+00  0.51100000000E-03 0.  1.
         11    1    4    4    0    0 -0.32182542502E-02 -0.10677209647E-01  0.51864135528E-03  0.11175422860E-01  0.51100000000E-03 0. -1.
</event>
<event>
 8    1  0.1041149E+005  0.1043930E+01  0.7957747E-01            NaN
         13   -1    0    0    0    0  0.00000000000E+00  0.00000000000E+00  0.74505805969E-08  0.10566000000E+00  0.10566000000E+00 0.  1.
     999900   -1    0    0    0    0 -0.00000000000E+00 -0.00000000000E+00 -0.74505805969E-08  0.93827000000E+00  0.93827000000E+00 0. -1.
     999902    2    1    2    0    0 -0.13184113880E-01 -0.47864141789E-02  0.17817031511E-01  0.10212545236E+01  0.10210027545E+01 0.  0.
     999903    2    3    3    0    0 -0.11249441418E+00  0.66173025485E-01  0.16379055499E-01  0.13282903677E+00  0.18477473452E-01 0.  0.
         14    1    1    2    0    0  0.13184113880E-01  0.47864141789E-02 -0.17817031511E-01  0.22675476431E-01  0.00000000000E+00 0. -1.
     999901    1    3    3    0    0  0.99310300303E-01 -0.70959439664E-01  0.14379760117E-02  0.88842548680E+00  0.88000000000E+00 0.  1.
        -11    1    4    4    0    0 -0.46869459034E-01  0.32125978603E-01  0.15458843502E-01  0.58890250931E-01  0.51100000000E-03 0.  1.
         11    1    4    4    0    0 -0.65624955150E-01  0.34047046882E-01  0.92021199703E-03  0.73938785836E-01  0.51100000000E-03 0. -1.
</event>
<event>
 8    1  0.1041149E+005  0.1043930E+01  0.7957747E-01            NaN
         13   -1    0    0    0    0  0.00000000000E+00  0.00000000000E+00  0.74505805969E-08  0.10566000000E+00  0.10566000000E+00 0.  1.
     999900   -1    0    0    0    0 -0.00000000000E+00 -0.00000000000E+00 -0.74505805969E-08  0.93827000000E+00  0.93827000000E+00 0.  1.
     999902    2    1    2    0    0  0.18496395843E-01  0.70700650290E-02 -0.11941167012E-01  0.10208065498E+01  0.10205446184E+01 0.  0.
     999903    2    3    3    0    0  0.68866910548E-02  0.12494999766E+00 -0.38161871755E-01  0.13248341654E+00  0.20871003189E-01 0.  0.
         14    1    1    2    0    0 -0.18496395843E-01 -0.70700650290E-02  0.11941167012E-01  0.23123450181E-01  0.00000000000E+00 0.  1.
     999901    1    3    3    0    0  0.11609704788E-01 -0.11787993263E+00  0.26220704743E-01  0.88832313328E+00  0.88000000000E+00 0. -1.
        -11    1    4    4    0    0 -0.63870647487E-02  0.65301366798E-01 -0.16611787641E-01  0.67685121787E-01  0.51100000000E-03 0. -1.
         11    1    4    4    0    0  0.13273755804E-01  0.59648630859E-01 -0.21550084114E-01  0.64798294752E-01  0.51100000000E-03 0.  1.
</event>
<event>
 8    1  0.1041149E+005  0.1043930E+01  0.7957747E-01            NaN
         13   -1    0    0    0    0  0.00000000000E+00  0.00000000000E+00  0.74505805969E-08  0.10566000000E+00  0.10566000000E+00 0.  1.
     999900   -1    0    0    0    0 -0.00000000000E+00 -0.00000000000E+00 -0.74505805969E-08  0.93827000000E+00  0.93827000000E+00 0. -1.
     999902    2    1    2    0    0  0.12951795291E-01  0.17546605740E-01  0.99675869362E-02  0.10199511517E+01  0.10196692438E+01 0.  0.
     999903    2    3    3    0    0  0.78774797707E-01 -0.77951366171E-01  0.66108444032E-01  0.13056691188E+00  0.19887379511E-01 0.  0.
         14    1    1    2    0    0 -0.12951795291E-01 -0.17546605740E-01 -0.99675869362E-02  0.23978848254E-01  0.00000000000E+00 0.  1.
     999901    1    3    3    0    0 -0.65823002416E-01  0.95497971911E-01 -0.56140857096E-01  0.88938423987E+00  0.88000000000E+00 0. -1.
        -11    1    4    4    0    0  0.44269837999E-01 -0.29952509844E-01  0.30032409125E-01  0.61312136819E-01  0.51100000000E-03 0. -1.
         11    1    4    4    0    0  0.34504959708E-01 -0.47998856328E-01  0.36076034907E-01  0.69254775062E-01  0.51100000000E-03 0.  1.
</event>
<event>
 8    1  0.1041149E+005  0.1043930E+01  0.7957747E-01            NaN
         13   -1    0    0    0    0  0.00000000000E+00  0.00000000000E+00  0.74505805969E-08  0.10566000000E+00  0.10566000000E+00 0. -1.
     999900   -1    0    0    0    0 -0.00000000000E+00 -0.00000000000E+00 -0.74505805969E-08  0.93827000000E+00  0.93827000000E+00 0. -1.
     999902    2    1    2    0    0  0.91003566872E-02 -0.11499006820E-01  0.18315227991E-01  0.10204674506E+01  0.10201976899E+01 0.  0.
     999903    2    3    3    0    0  0.91891168722E-01 -0.63516218593E-01  0.70331420322E-01  0.13352562996E+00  0.20106920634E-01 0.  0.
         14    1    1    2    0    0 -0.91003566872E-02  0.11499006820E-01 -0.18315227991E-01  0.23462549436E-01  0.00000000000E+00 0.  1.
     999901    1    3    3    0    0 -0.82790812035E-01  0.52017211773E-01 -0.52016192331E-01  0.88694182061E+00  0.88000000000E+00 0. -1.
        -11    1    4    4    0    0  0.17285945043E-02 -0.28810663764E-02  0.69454463827E-02  0.77323301068E-02  0.51100000000E-03 0.  1.
         11    1    4    4    0    0  0.90162574218E-01 -0.60635152216E-01  0.63385973939E-01  0.12579329985E+00  0.51100000000E-03 0. -1.
</event>
<event>
 8    1  0.1041149E+005  0.1043930E+01  0.7957747E-01            NaN
         13   -1    0    0    0    0  0.00000000000E+00  0.00000000000E+00  0.74505805969E-08  0.10566000000E+00  0.10566000000E+00 0. -1.
     999900   -1    0    0    0    0 -0.00000000000E+00 -0.00000000000E+00 -0.74505805969E-08  0.93827000000E+00  0.93827000000E+00 0. -1.
     999902    2    1    2    0    0  0.11135685997E-01  0.20992996873E-01 -0.12410101036E-02  0.10201340019E+01  0.10198564273E+01 0.  0.
     999903    2    3    3    0    0  0.94705256494E-01  0.36520807458E-01  0.82384901501E-01  0.13209217905E+00  0.18926615781E-01 0.  0.
         14    1    1    2    0    0 -0.11135685997E-01 -0.20992996873E-01  0.12410101036E-02  0.23795998117E-01  0.00000000000E+00 0.  1.
     999901    1    3    3    0    0 -0.83569570497E-01 -0.15527810586E-01 -0.83625911605E-01  0.88804182284E+00  0.88000000000E+00 0. -1.
        -11    1    4    4    0    0  0.73216672501E-01  0.23205035789E-01  0.52961727011E-01  0.93297162160E-01  0.51100000000E-03 0. -1.
         11    1    4    4    0    0  0.21488583994E-01  0.13315771670E-01  0.29423174490E-01  0.38795016887E-01  0.51100000000E-03 0.  1.
</event>
<event>
 8    1  0.1041149E+005  0.1043930E+01  0.7957747E-01            NaN
         13   -1    0    0    0    0  0.00000000000E+00  0.00000000000E+00  0.74505805969E-08  0.10566000000E+00  0.10566000000E+00 0. -1.
     999900   -1    0    0    0    0 -0.00000000000E+00 -0.00000000000E+00 -0.74505805969E-08  0.93827000000E+00  0.93827000000E+00 0. -1.
     999902    2    1    2    0    0  0.90191016587E-03 -0.20244595179E-01 -0.12181091881E-01  0.10202860563E+01  0.10200120590E+01 0.  0.
     999903    2    3    3    0    0 -0.70564219075E-01  0.92173495483E-01 -0.53073127498E-01  0.12932175097E+00  0.20786922041E-01 0.  0.
         14    1    1    2    0    0 -0.90191016587E-03  0.20244595179E-01  0.12181091881E-01  0.23643943734E-01  0.00000000000E+00 0. -1.
     999901    1    3    3    0    0  0.71466129241E-01 -0.11241809066E+00  0.40892035617E-01  0.89096430530E+00  0.88000000000E+00 0.  1.
        -11    1    4    4    0    0 -0.43292697008E-01  0.70011819483E-01 -0.31838166816E-01  0.88260084232E-01  0.51100000000E-03 0.  1.
         11    1    4    4    0    0 -0.27271522067E-01  0.22161676001E-01 -0.21234960682E-01  0.41061666736E-01  0.51100000000E-03 0. -1.
</event>
<event>
 8    1  0.1041149E+005  0.1043930E+01  0.7957747E-01            NaN
         13   -1    0    0    0    0  0.00000000000E+00  0.00000000000E+00  0.74505805969E-08  0.10566000000E+00  0.10566000000E+00 0.  1.
     999900   -1    0    0    0    0 -0.00000000000E+00 -0.00000000000E+00 -0.74505805969E-08  0.93827000000E+00  0.93827000000E+00 0. -1.
     999902    2    1    2    0    0  0.16104254260E-01  0.14329136434E-01 -0.14796504716E-01  0.10177841072E+01  0.10174482204E+01 0.  0.
     999903    2    3    3    0    0  0.35131033366E-01 -0.78177561068E-01  0.90759389583E-01  0.12645837878E+00  0.20212229103E-01 0.  0.
         14    1    1    2    0    0 -0.16104254260E-01 -0.14329136434E-01  0.14796504716E-01  0.26145892757E-01  0.00000000000E+00 0.  1.
     999901    1    3    3    0    0 -0.19026779106E-01  0.92506697502E-01 -0.10555589430E+00  0.89132572847E+00  0.88000000000E+00 0. -1.
        -11    1    4    4    0    0  0.14684595668E-01 -0.36078638453E-01  0.27143790285E-01  0.47480016581E-01  0.51100000000E-03 0. -1.
         11    1    4    4    0    0  0.20446437698E-01 -0.42098922615E-01  0.63615599299E-01  0.78978362195E-01  0.51100000000E-03 0.  1.
</event>
<event>
 8    1  0.1041149E+005  0.1043930E+01  0.7957747E-01            NaN
         13   -1    0    0    0    0  0.00000000000E+00  0.00000000000E+00  0.74505805969E-08  0.10566000000E+00  0.10566000000E+00 0.  1.
     999900   -1    0    0    0    0 -0.00000000000E+00 -0.00000000000E+00 -0.74505805969E-08  0.93827000000E+00  0.93827000000E+00 0.  1.
     999902    2    1    2    0    0  0.10179481839E-01 -0.19435738651E-01 -0.83692359534E-02  0.10204477961E+01  0.10201775781E+01 0.  0.
     999903    2    3    3    0    0 -0.82071292857E-01 -0.81949764102E-01  0.57346752155E-01  0.13098908440E+00  0.20445764868E-01 0.  0.
         14    1    1    2    0    0 -0.10179481839E-01  0.19435738651E-01  0.83692359534E-02  0.23482203855E-01  0.00000000000E+00 0. -1.
     999901    1    3    3    0    0  0.92250774697E-01  0.62514025450E-01 -0.65715988108E-01  0.88945871175E+00  0.88000000000E+00 0.  1.
        -11    1    4    4    0    0 -0.61478894155E-01 -0.48041727606E-01  0.40127622132E-01  0.87739097310E-01  0.51100000000E-03 0.  1.
         11    1    4    4    0    0 -0.20592398703E-01 -0.33908036496E-01  0.17219130022E-01  0.43249987088E-01  0.51100000000E-03 0. -1.
</event>
<event>
 8    1  0.1041149E+005  0.1043930E+01  0.7957747E-01            NaN
         13   -1    0    0    0    0  0.00000000000E+00  0.00000000000E+00  0.74505805969E-08  0.10566000000E+00  0.10566000000E+00 0. -1.
     999900   -1    0    0    0    0 -0.00000000000E+00 -0.00000000000E+00 -0.74505805969E-08  0.93827000000E+00  0.93827000000E+00 0. -1.
     999902    2    1    2    0    0  0.19586517360E-01 -0.46806731881E-02 -0.10945005529E-01  0.10210098449E+01  0.10207525508E+01 0.  0.
     999903    2    3    3    0    0 -0.51311520249E-01 -0.10665018847E+00 -0.52800871369E-01  0.13130414789E+00  0.21111902487E-01 0.  0.
         14    1    1    2    0    0 -0.19586517360E-01  0.46806731881E-02  0.10945005529E-01  0.22920155100E-01  0.00000000000E+00 0.  1.
     999901    1    3    3    0    0  0.70898037609E-01  0.10196951528E+00  0.41855865840E-01  0.88970569701E+00  0.88000000000E+00 0.  1.
        -11    1    4    4    0    0 -0.55199424714E-02 -0.32702775668E-01 -0.16617817603E-01  0.37099249105E-01  0.51100000000E-03 0.  1.
         11    1    4    4    0    0 -0.45791577778E-01 -0.73947412797E-01 -0.36183053765E-01  0.94204898788E-01  0.51100000000E-03 0. -1.
</event>
<event>
 8    1  0.1041149E+005  0.1043930E+01  0.7957747E-01            NaN
         13   -1    0    0    0    0  0.00000000000E+00  0.00000000000E+00  0.74505805969E-08  0.10566000000E+00  0.10566000000E+00 0.  1.
     999900   -1    0    0    0    0 -0.00000000000E+00 -0.00000000000E+00 -0.74505805969E-08  0.93827000000E+00  0.93827000000E+00 0. -1.
     999902    2    1    2    0    0  0.20962458932E-01  0.22999756593E-02  0.99702816599E-02  0.10206035967E+01  0.10203369936E+01 0.  0.
     999903    2    3    3    0    0 -0.12670829604E+00  0.27745588876E-02  0.45622075389E-02  0.12828295686E+00  0.19313539837E-01 0.  0.
         14    1    1    2    0    0 -0.20962458932E-01 -0.22999756593E-02 -0.99702816599E-02  0.23326403256E-01  0.00000000000E+00 0. -1.
     999901    1    3    3    0    0  0.14767075497E+00 -0.47458322833E-03  0.54080741210E-02  0.89232063989E+00  0.88000000000E+00 0.  1.
        -11    1    4    4    0    0 -0.13499617621E-01  0.10924404717E-02 -0.54731595878E-02  0.14616760892E-01  0.51100000000E-03 0.  1.
         11    1    4    4    0    0 -0.11320867842E+00  0.16821184159E-02  0.10035367127E-01  0.11366619597E+00  0.51100000000E-03 0. -1.
</event>
<event>
 8    1  0.1041149E+005  0.1043930E+01  0.7957747E-01            NaN
         13   -1    0    0    0    0  0.00000000000E+00  0.00000000000E+00  0.74505805969E-08  0.10566000000E+00  0.10566000000E+00 0.  1.
     999900   -1    0    0    0    0 -0.00000000000E+00 -0.00000000000E+00 -0.74505805969E-08  0.93827000000E+00  0.93827000000E+00 0. -1.
     999902    2    1    2    0    0  0.75006505900E-03  0.18926682676E-01  0.12885994783E-01  0.10210208146E+01  0.10207637695E+01 0.  0.
     999903    2    3    3    0    0 -0.11999716576E+00  0.14520375097E-01  0.49370602346E-01  0.13201550758E+00  0.19505814037E-01 0.  0.
         14    1    1    2    0    0 -0.75006505900E-03 -0.18926682676E-01 -0.12885994783E-01  0.22909185412E-01  0.00000000000E+00 0. -1.
     999901    1    3    3    0    0  0.12074723082E+00  0.44063075784E-02 -0.36484607563E-01  0.88900530701E+00  0.88000000000E+00 0. -1.
        -11    1    4    4    0    0 -0.75428304132E-03 -0.14364167101E-02  0.22250940359E-02  0.28007856648E-02  0.51100000000E-03 0.  1.
         11    1    4    4    0    0 -0.11924288272E+00  0.15956791807E-01  0.47145508310E-01  0.12921472192E+00  0.51100000000E-03 0. -1.
</event>
<event>
 8    1  0.1041149E+005  0.1043930E+01  0.7957747E-01            NaN
         13   -1    0    0    0    0  0.00000000000E+00  0.00000000000E+00  0.74505805969E-08  0.10566000000E+00  0.10566000000E+00 0.  1.
     999900   -1    0    0    0    0 -0.00000000000E+00 -0.00000000000E+00 -0.74505805969E-08  0.93827000000E+00  0.93827000000E+00 0.  1.
     999902    2    1    2    0    0 -0.52215845487E-02  0.23758690998E-01  0.10899712204E-01  0.10172739675E+01  0.10169246682E+01 0.  0.
     999903    2    3    3    0    0  0.81434299327E-01  0.97981777997E-01 -0.16069452195E-01  0.12949829499E+00  0.16721458804E-01 0.  0.
         14    1    1    2    0    0  0.52215845487E-02 -0.23758690998E-01 -0.10899712204E-01  0.26656032512E-01  0.00000000000E+00 0. -1.
     999901    1    3    3    0    0 -0.86655883876E-01 -0.74223086999E-01  0.26969164399E-01  0.88777567250E+00  0.88000000000E+00 0. -1.
        -11    1    4    4    0    0  0.46391357298E-01  0.44766174574E-01 -0.36044273471E-02  0.64571057258E-01  0.51100000000E-03 0. -1.
         11    1    4    4    0    0  0.35042942029E-01  0.53215603423E-01 -0.12465024848E-01  0.64927237730E-01  0.51100000000E-03 0.  1.
</event>
<event>
 8    1  0.1041149E+005  0.1043930E+01  0.7957747E-01            NaN
         13   -1    0    0    0    0  0.00000000000E+00  0.00000000000E+00  0.74505805969E-08  0.10566000000E+00  0.10566000000E+00 0.  1.
     999900   -1    0    0    0    0 -0.00000000000E+00 -0.00000000000E+00 -0.74505805969E-08  0.93827000000E+00  0.93827000000E+00 0. -1.
     999902    2    1    2    0    0  0.21284890252E-02  0.22598710700E-01  0.39854180636E-02  0.10208840514E+01  0.10206238928E+01 0.  0.
     999903    2    3    3    0    0  0.82621607358E-01  0.84778718766E-01  0.58054676449E-01  0.13337687946E+00  0.20131700345E-01 0.  0.
         14    1    1    2    0    0 -0.21284890252E-02 -0.22598710700E-01 -0.39854180636E-02  0.23045948624E-01  0.00000000000E+00 0.  1.
     999901    1    3    3    0    0 -0.80493118332E-01 -0.62180008066E-01 -0.54069258385E-01  0.88750717192E+00  0.88000000000E+00 0.  1.
        -11    1    4    4    0    0  0.71392601476E-01  0.76729983893E-01  0.44021010825E-01  0.11367719423E+00  0.51100000000E-03 0.  1.
         11    1    4    4    0    0  0.11229005881E-01  0.80487348726E-02  0.14033665625E-01  0.19699685226E-01  0.51100000000E-03 0. -1.
</event>
<event>
 8    1  0.1041149E+005  0.1043930E+01  0.7957747E-01            NaN
         13   -1    0    0    0    0  0.00000000000E+00  0.00000000000E+00  0.74505805969E-08  0.10566000000E+00  0.10566000000E+00 0.  1.
     999900   -1    0    0    0    0 -0.00000000000E+00 -0.00000000000E+00 -0.74505805969E-08  0.93827000000E+00  0.93827000000E+00 0.  1.
     999902    2    1    2    0    0  0.20397482020E-01  0.10883972956E-01  0.23648339111E-02  0.10206897208E+01  0.10204251053E+01 0.  0.
     999903    2    3    3    0    0  0.10821142801E+00 -0.67672334980E-01  0.29438790976E-01  0.13242434274E+00  0.19501437457E-01 0.  0.
         14    1    1    2    0    0 -0.20397482020E-01 -0.10883972956E-01 -0.23648339111E-02  0.23240279247E-01  0.00000000000E+00 0.  1.
     999901    1    3    3    0    0 -0.87813945987E-01  0.78556307935E-01 -0.27073957065E-01  0.88826537801E+00  0.88000000000E+00 0.  1.
        -11    1    4    4    0    0  0.49446747054E-01 -0.29626916149E-01  0.34488519228E-02  0.57748512148E-01  0.51100000000E-03 0.  1.
         11    1    4    4    0    0  0.58764680953E-01 -0.38045418830E-01  0.25989939053E-01  0.74675830591E-01  0.51100000000E-03 0. -1.
</event>
<event>
 8    1  0.1041149E+005  0.1043930E+01  0.7957747E-01            NaN
         13   -1    0    0    0    0  0.00000000000E+00  0.00000000000E+00  0.74505805969E-08  0.10566000000E+00  0.10566000000E+00 0.  1.
     999900   -1    0    0    0    0 -0.00000000000E+00 -0.00000000000E+00 -0.74505805969E-08  0.93827000000E+00  0.93827000000E+00 0. -1.
     999902    2    1    2    0    0  0.17347178793E-01  0.15586014150E-01  0.69862334272E-02  0.10195854748E+01  0.10192947977E+01 0.  0.
     999903    2    3    3    0    0 -0.97971304990E-02 -0.76552802197E-01 -0.99889830497E-01  0.12793034639E+00  0.20781722736E-01 0.  0.
         14    1    1    2    0    0 -0.17347178793E-01 -0.15586014150E-01 -0.69862334272E-02  0.24344525188E-01  0.00000000000E+00 0. -1.
     999901    1    3    3    0    0  0.27144309292E-01  0.92138816346E-01  0.10687606392E+00  0.89165512842E+00  0.88000000000E+00 0.  1.
        -11    1    4    4    0    0 -0.55817726316E-03 -0.40843425964E-01 -0.67195536653E-01  0.78638402027E-01  0.51100000000E-03 0. -1.
         11    1    4    4    0    0 -0.92389532359E-02 -0.35709376233E-01 -0.32694293844E-01  0.49291944360E-01  0.51100000000E-03 0.  1.
</event>
<event>
 8    1  0.1041149E+005  0.1043930E+01  0.7957747E-01            NaN
         13   -1    0    0    0    0  0.00000000000E+00  0.00000000000E+00  0.74505805969E-08  0.10566000000E+00  0.10566000000E+00 0.  1.
     999900   -1    0    0    0    0 -0.00000000000E+00 -0.00000000000E+00 -0.74505805969E-08  0.93827000000E+00  0.93827000000E+00 0.  1.
     999902    2    1    2    0    0 -0.72377112802E-02 -0.14560705864E-01  0.16499188677E-01  0.10207649002E+01  0.10205020136E+01 0.  0.
     999903    2    3    3    0    0  0.12544812259E+00 -0.14448801636E-01 -0.12590120554E-01  0.13034267964E+00  0.29743968641E-01 0.  0.
         14    1    1    2    0    0  0.72377112802E-02  0.14560705864E-01 -0.16499188677E-01  0.23165099759E-01  0.00000000000E+00 0.  1.
     999901    1    3    3    0    0 -0.13268583387E+00 -0.11190422841E-03  0.29089309231E-01  0.89042222060E+00  0.88000000000E+00 0.  1.
        -11    1    4    4    0    0  0.64461749764E-01 -0.18040901746E-01 -0.17075043949E-01  0.69084076061E-01  0.51100000000E-03 0.  1.
         11    1    4    4    0    0  0.60986372823E-01  0.35921001109E-02  0.44849233951E-02  0.61258603577E-01  0.51100000000E-03 0. -1.
</event>
<event>
 8    1  0.1041149E+005  0.1043930E+01  0.7957747E-01            NaN
         13   -1    0    0    0    0  0.00000000000E+00  0.00000000000E+00  0.74505805969E-08  0.10566000000E+00  0.10566000000E+00 0.  1.
     999900   -1    0    0    0    0 -0.00000000000E+00 -0.00000000000E+00 -0.74505805969E-08  0.93827000000E+00  0.93827000000E+00 0. -1.
     999902    2    1    2    0    0  0.14160418293E-01  0.87467496711E-04 -0.18157425906E-01  0.10209035541E+01  0.10206438407E+01 0.  0.
     999903    2    3    3    0    0  0.12842989507E+00  0.11119894074E-01 -0.27925328536E-01  0.13339319374E+00  0.19900506813E-01 0.  0.
         14    1    1    2    0    0 -0.14160418293E-01 -0.87467496711E-04  0.18157425906E-01  0.23026445934E-01  0.00000000000E+00 0.  1.
     999901    1    3    3    0    0 -0.11426947678E+00 -0.11032426578E-01  0.97679026304E-02  0.88751036032E+00  0.88000000000E+00 0. -1.
        -11    1    4    4    0    0  0.97324714884E-01  0.15114316127E-01 -0.26503232349E-01  0.10199620152E+00  0.51100000000E-03 0.  1.
         11    1    4    4    0    0  0.31105180185E-01 -0.39944220526E-02 -0.14220961877E-02  0.31396992220E-01  0.51100000000E-03 0. -1.
</event>
<event>
 8    1  0.1041149E+005  0.1043930E+01  0.7957747E-01            NaN
         13   -1    0    0    0    0  0.00000000000E+00  0.00000000000E+00  0.74505805969E-08  0.10566000000E+00  0.10566000000E+00 0.  1.
     999900   -1    0    0    0    0 -0.00000000000E+00 -0.00000000000E+00 -0.74505805969E-08  0.93827000000E+00  0.93827000000E+00 0.  1.
     999902    2    1    2    0    0  0.18633139114E-01 -0.59905706772E-02 -0.12482607131E-01  0.10207158601E+01  0.10204518464E+01 0.  0.
     999903    2    3    3    0    0  0.11479136202E+00  0.23051173244E-01  0.57907225624E-01  0.13220893538E+00  0.20433855072E-01 0.  0.
         14    1    1    2    0    0 -0.18633139114E-01  0.59905706772E-02  0.12482607131E-01  0.23214139895E-01  0.00000000000E+00 0.  1.
     999901    1    3    3    0    0 -0.96158222907E-01 -0.29041743921E-01 -0.70389832756E-01  0.88850692472E+00  0.88000000000E+00 0. -1.
        -11    1    4    4    0    0  0.72703501721E-01  0.54995828329E-02  0.40420748806E-01  0.83367515430E-01  0.51100000000E-03 0. -1.
         11    1    4    4    0    0  0.42087860300E-01  0.17551590411E-01  0.17486476818E-01  0.48841419954E-01  0.51100000000E-03 0.  1.
</event>
<event>
 7    1  0.1041149E+005  0.1043930E+01  0.7957747E-01            NaN
         13   -1    0    0    0    0  0.00000000000E+00  0.00000000000E+00  0.74505805969E-08  0.10566000000E+00  0.10566000000E+00 0.  1.
     999900   -1    0    0    0    0 -0.00000000000E+00 -0.00000000000E+00 -0.74505805969E-08  0.93827000000E+00  0.93827000000E+00 0. -1.
     999903    2    1    2    0    0 -0.11281949719E-01  0.63023615736E-02 -0.53332248688E-01  0.57860253195E-01  0.18343336632E-01 0.  0.
         14    1    1    2    0    0 -0.13470168990E-01 -0.31681666896E-01 -0.87626914396E-01  0.94146957447E-01  0.00000000000E+00 0. -1.
     999901    1    1    2    0    0  0.24752118709E-01  0.25379305323E-01  0.14095916308E+00  0.89192278936E+00  0.88000000000E+00 0.  1.
        -11    1    3    3    0    0  0.28675781726E-02 -0.24133039131E-02 -0.29244803601E-02  0.47812913245E-02  0.51100000000E-03 0.  1.
         11    1    3    3    0    0 -0.14149527891E-01  0.87156654868E-02 -0.50407768328E-01  0.53078961870E-01  0.51100000000E-03 0. -1.
</event>
<event>
 8    1  0.1041149E+005  0.1043930E+01  0.7957747E-01            NaN
         13   -1    0    0    0    0  0.00000000000E+00  0.00000000000E+00  0.74505805969E-08  0.10566000000E+00  0.10566000000E+00 0. -1.
     999900   -1    0    0    0    0 -0.00000000000E+00 -0.00000000000E+00 -0.74505805969E-08  0.93827000000E+00  0.93827000000E+00 0.  1.
     999902    2    1    2    0    0  0.67238991115E-02 -0.21725005948E-01 -0.67683970719E-02  0.10202024232E+01  0.10199264613E+01 0.  0.
     999903    2    3    3    0    0  0.18114935823E-01 -0.50693108804E-01  0.11768405150E+00  0.13090083280E+00  0.19686286330E-01 0.  0.
         14    1    1    2    0    0 -0.67238991115E-02  0.21725005948E-01  0.67683970719E-02  0.23727576818E-01  0.00000000000E+00 0.  1.
     999901    1    3    3    0    0 -0.11391036712E-01  0.28968102856E-01 -0.12445244857E+00  0.88930159038E+00  0.88000000000E+00 0.  1.
        -11    1    4    4    0    0  0.15975390061E-01 -0.26935966380E-01  0.83779940828E-01  0.89443272405E-01  0.51100000000E-03 0.  1.
         11    1    4    4    0    0  0.21395457626E-02 -0.23757142424E-01  0.33904110675E-01  0.41457560395E-01  0.51100000000E-03 0. -1.
</event>
<event>
 8    1  0.1041149E+005  0.1043930E+01  0.7957747E-01            NaN
         13   -1    0    0    0    0  0.00000000000E+00  0.00000000000E+00  0.74505805969E-08  0.10566000000E+00  0.10566000000E+00 0. -1.
     999900   -1    0    0    0    0 -0.00000000000E+00 -0.00000000000E+00 -0.74505805969E-08  0.93827000000E+00  0.93827000000E+00 0.  1.
     999902    2    1    2    0    0  0.19002719469E-01 -0.10022545192E-01  0.10644440691E-01  0.10199537852E+01  0.10196719399E+01 0.  0.
     999903    2    3    3    0    0 -0.25253696793E-01  0.12394307480E+00 -0.10402712630E-01  0.12846716140E+00  0.19898747082E-01 0.  0.
         14    1    1    2    0    0 -0.19002719469E-01  0.10022545192E-01 -0.10644440691E-01  0.23976214817E-01  0.00000000000E+00 0.  1.
     999901    1    3    3    0    0  0.44256416262E-01 -0.13396561999E+00  0.21047153322E-01  0.89148662378E+00  0.88000000000E+00 0. -1.
        -11    1    4    4    0    0 -0.11826292945E-01  0.99032376285E-01 -0.76678676727E-02  0.10003164536E+00  0.51100000000E-03 0.  1.
         11    1    4    4    0    0 -0.13427403847E-01  0.24910698515E-01 -0.27348449575E-02  0.28435516041E-01  0.51100000000E-03 0. -1.
</event>
<event>
 8    1  0.1041149E+005  0.1043930E+01  0.7957747E-01            NaN
         13   -1    0    0    0    0  0.00000000000E+00  0.00000000000E+00  0.74505805969E-08  0.10566000000E+00  0.10566000000E+00 0. -1.
     999900   -1    0    0    0    0 -0.00000000000E+00 -0.00000000000E+00 -0.74505805969E-08  0.93827000000E+00  0.93827000000E+00 0. -1.
     999902    2    1    2    0    0 -0.91593690035E-03  0.20337468318E-01  0.12022528132E-01  0.10202869727E+01  0.10200129969E+01 0.  0.
     999903    2    3    3    0    0  0.40617454465E-01 -0.11901359583E+00 -0.14051804293E-01  0.12797334369E+00  0.19123542845E-01 0.  0.
         14    1    1    2    0    0  0.91593690035E-03 -0.20337468318E-01 -0.12022528132E-01  0.23643027316E-01  0.00000000000E+00 0.  1.
     999901    1    3    3    0    0 -0.41533391366E-01  0.13935106415E+00  0.26074332425E-01  0.89231362899E+00  0.88000000000E+00 0.  1.
        -11    1    4    4    0    0  0.24613378398E-01 -0.43643710314E-01 -0.39871800873E-02  0.50266793931E-01  0.51100000000E-03 0.  1.
         11    1    4    4    0    0  0.16004076068E-01 -0.75369885519E-01 -0.10064624206E-01  0.77706549758E-01  0.51100000000E-03 0. -1.
</event>
<event>
 7    1  0.1041149E+005  0.1043930E+01  0.7957747E-01            NaN
         13   -1    0    0    0    0  0.00000000000E+00  0.00000000000E+00  0.74505805969E-08  0.10566000000E+00  0.10566000000E+00 0. -1.
     999900   -1    0    0    0    0 -0.00000000000E+00 -0.00000000000E+00 -0.74505805969E-08  0.93827000000E+00  0.93827000000E+00 0. -1.
     999903    2    1    2    0    0 -0.43698564683E-01 -0.30095067390E-01  0.36420692248E-01  0.67339884605E-01  0.19822098731E-01 0.  0.
         14    1    1    2    0    0 -0.38959350351E-01  0.20345454759E-01  0.73719537075E-01  0.85827377075E-01  0.00000000000E+00 0. -1.
     999901    1    1    2    0    0  0.82657915034E-01  0.97496126316E-02 -0.11014022932E+00  0.89076273832E+00  0.88000000000E+00 0. -1.
        -11    1    3    3    0    0 -0.25474826340E-01 -0.21827499707E-01  0.11704230874E-01  0.35533880479E-01  0.51100000000E-03 0.  1.
         11    1    3    3    0    0 -0.18223738343E-01 -0.82675676830E-02  0.24716461374E-01  0.31806004126E-01  0.51100000000E-03 0. -1.
</event>
<event>
 8    1  0.1041149E+005  0.1043930E+01  0.7957747E-01            NaN
         13   -1    0    0    0    0  0.00000000000E+00  0.00000000000E+00  0.74505805969E-08  0.10566000000E+00  0.10566000000E+00 0.  1.
     999900   -1    0    0    0    0 -0.00000000000E+00 -0.00000000000E+00 -0.74505805969E-08  0.93827000000E+00  0.93827000000E+00 0. -1.
     999902    2    1    2    0    0 -0.18752001594E-01  0.11319062745E-01 -0.11136344313E-01  0.10193581277E+01  0.10190619292E+01 0.  0.
     999903    2    3    3    0    0  0.23488563866E-01 -0.12245039068E+00  0.19415956098E-01  0.12772368738E+00  0.19762341879E-01 0.  0.
         14    1    1    2    0    0  0.18752001594E-01 -0.11319062745E-01  0.11136344313E-01  0.24571872331E-01  0.00000000000E+00 0. -1.
     999901    1    3    3    0    0 -0.42240565460E-01  0.13376945343E+00 -0.30552300411E-01  0.89163444028E+00  0.88000000000E+00 0. -1.
        -11    1    4    4    0    0 -0.32802201641E-02 -0.22064336977E-01  0.45248970999E-02  0.22766875616E-01  0.51100000000E-03 0.  1.
         11    1    4    4    0    0  0.26768784030E-01 -0.10038605371E+00  0.14891058998E-01  0.10495681177E+00  0.51100000000E-03 0. -1.
</event>
<event>
 8    1  0.1041149E+005  0.1043930E+01  0.7957747E-01            NaN
         13   -1    0    0    0    0  0.00000000000E+00  0.00000000000E+00  0.74505805969E-08  0.10566000000E+00  0.10566000000E+00 0. -1.
     999900   -1    0    0    0    0 -0.00000000000E+00 -0.00000000000E+00 -0.74505805969E-08  0.93827000000E+00  0.93827000000E+00 0.  1.
     999902    2    1    2    0    0 -0.81430293044E-02 -0.15918290392E-01 -0.15123198040E-01  0.10205118016E+01  0.10202430717E+01 0.  0.
     999903    2    3    3    0    0 -0.22686669915E-01 -0.10755405227E+00  0.69417707235E-01  0.13160472270E+00  0.20455459113E-01 0.  0.
         14    1    1    2    0    0  0.81430293044E-02  0.15918290392E-01  0.15123198040E-01  0.23418198356E-01  0.00000000000E+00 0. -1.
     999901    1    3    3    0    0  0.14543640611E-01  0.91635761876E-01 -0.84540905275E-01  0.88890707895E+00  0.88000000000E+00 0.  1.
        -11    1    4    4    0    0 -0.10585414004E-01 -0.24603887587E-01  0.89588632037E-02  0.28247559628E-01  0.51100000000E-03 0.  1.
         11    1    4    4    0    0 -0.12101255911E-01 -0.82950164681E-01  0.60458844032E-01  0.10335716307E+00  0.51100000000E-03 0. -1.
</event>
<event>
 8    1  0.1041149E+005  0.1043930E+01  0.7957747E-01            NaN
         13   -1    0    0    0    0  0.00000000000E+00  0.00000000000E+00  0.74505805969E-08  0.10566000000E+00  0.10566000000E+00 0. -1.
     999900   -1    0    0    0    0 -0.00000000000E+00 -0.00000000000E+00 -0.74505805969E-08  0.93827000000E+00  0.93827000000E+00 0.  1.
     999902    2    1    2    0    0 -0.78733866844E-02 -0.18702557559E-01 -0.12377139680E-01  0.10201609137E+01  0.10198839740E+01 0.  0.
     999903    2    3    3    0    0 -0.12919432112E+00  0.11439656738E-01  0.69359212945E-03  0.13123000173E+00  0.19969825461E-01 0.  0.
         14    1    1    2    0    0  0.78733866844E-02  0.18702557559E-01  0.12377139680E-01  0.23769086306E-01  0.00000000000E+00 0. -1.
     999901    1    3    3    0    0  0.12132093443E+00 -0.30142214298E-01 -0.13070731809E-01  0.88893091196E+00  0.88000000000E+00 0.  1.
        -11    1    4    4    0    0 -0.17605765169E-01  0.80790709064E-02 -0.25362112958E-02  0.19542974253E-01  0.51100000000E-03 0.  1.
         11    1    4    4    0    0 -0.11158855595E+00  0.33605858319E-02  0.32298034252E-02  0.11168702748E+00  0.51100000000E-03 0. -1.
</event>
<event>
 8    1  0.1041149E+005  0.1043930E+01  0.7957747E-01            NaN
         13   -1    0    0    0    0  0.00000000000E+00  0.00000000000E+00  0.74505805969E-08  0.10566000000E+00  0.10566000000E+00 0. -1.
     999900   -1    0    0    0    0 -0.00000000000E+00 -0.00000000000E+00 -0.74505805969E-08  0.93827000000E+00  0.93827000000E+00 0.  1.
     999902    2    1    2    0    0 -0.35437810075E-02 -0.76180241047E-02 -0.24866074761E-01  0.10176828221E+01  0.10173442937E+01 0.  0.
     999903    2    3    3    0    0 -0.84516285864E-01 -0.88067312547E-01  0.34359791969E-01  0.12833680514E+00  0.19770840464E-01 0.  0.
         14    1    1    2    0    0  0.35437810075E-02  0.76180241047E-02  0.24866074761E-01  0.26247177926E-01  0.00000000000E+00 0. -1.
     999901    1    3    3    0    0  0.80972504857E-01  0.80449288443E-01 -0.59225866730E-01  0.88934601694E+00  0.88000000000E+00 0.  1.
        -11    1    4    4    0    0 -0.43803303951E-01 -0.52708225161E-01  0.10373557322E-01  0.69316363502E-01  0.51100000000E-03 0. -1.
         11    1    4    4    0    0 -0.40712981913E-01 -0.35359087387E-01  0.23986234648E-01  0.59020441634E-01  0.51100000000E-03 0.  1.
</event>
<event>
 7    1  0.1041149E+005  0.1043930E+01  0.7957747E-01            NaN
         13   -1    0    0    0    0  0.00000000000E+00  0.00000000000E+00  0.74505805969E-08  0.10566000000E+00  0.10566000000E+00 0. -1.
     999900   -1    0    0    0    0 -0.00000000000E+00 -0.00000000000E+00 -0.74505805969E-08  0.93827000000E+00  0.93827000000E+00 0. -1.
     999902    2    1    2    0    0 -0.12591248828E-01  0.21914429043E-01  0.34885598948E-02  0.10184162430E+01  0.10180966026E+01 0.  0.
         14    1    1    2    0    0  0.12591248828E-01 -0.21914429043E-01 -0.34885598948E-02  0.25513757023E-01  0.00000000000E+00 0. -1.
     999901    1    3    3    0    0 -0.57146633261E-01 -0.47030862524E-01  0.96715672588E-01  0.88838705588E+00  0.88000000000E+00 0.  1.
        -11    1    3    3    0    0  0.46747597022E-01  0.45338830318E-01 -0.55998924228E-01  0.85889976118E-01  0.51100000000E-03 0. -1.
         11    1    3    3    0    0 -0.21922125897E-02  0.23606461249E-01 -0.37228188466E-01  0.44139210983E-01  0.51100000000E-03 0.  1.
</event>
<event>
 8    1  0.1041149E+005  0.1043930E+01  0.7957747E-01            NaN
         13   -1    0    0    0    0  0.00000000000E+00  0.00000000000E+00  0.74505805969E-08  0.10566000000E+00  0.10566000000E+00 0.  1.
     999900   -1    0    0    0    0 -0.00000000000E+00 -0.00000000000E+00 -0.74505805969E-08  0.93827000000E+00  0.93827000000E+00 0.  1.
     999902    2    1    2    0    0 -0.11444589055E-01 -0.10209853018E-01 -0.17271065418E-01  0.10208321772E+01  0.10205708327E+01 0.  0.
     999903    2    3    3    0    0  0.65430313100E-01  0.50645082405E-01  0.96050846029E-01  0.12816486551E+00  0.18825978984E-01 0.  0.
         14    1    1    2    0    0  0.11444589055E-01  0.10209853018E-01  0.17271065418E-01  0.23097822797E-01  0.00000000000E+00 0.  1.
     999901    1    3    3    0    0 -0.76874902155E-01 -0.60854935423E-01 -0.11332191145E+00  0.89266731169E+00  0.88000000000E+00 0.  1.
        -11    1    4    4    0    0  0.19197581615E-01  0.26365931695E-01  0.35784611087E-01  0.48420130170E-01  0.51100000000E-03 0.  1.
         11    1    4    4    0    0  0.46232731485E-01  0.24279150710E-01  0.60266234942E-01  0.79744735342E-01  0.51100000000E-03 0. -1.
</event>
<event>
 8    1  0.1041149E+005  0.1043930E+01  0.7957747E-01            NaN
         13   -1    0    0    0    0  0.00000000000E+00  0.00000000000E+00  0.74505805969E-08  0.10566000000E+00  0.10566000000E+00 0. -1.
     999900   -1    0    0    0    0 -0.00000000000E+00 -0.00000000000E+00 -0.74505805969E-08  0.93827000000E+00  0.93827000000E+00 0.  1.
     999902    2    1    2    0    0 -0.23198309319E-01 -0.74398874564E-02 -0.80153514730E-02  0.10182831807E+01  0.10179601548E+01 0.  0.
     999903    2    3    3    0    0  0.77225110968E-01 -0.94331621332E-01 -0.28857515775E-01  0.12807565851E+00  0.26616640277E-01 0.  0.
         14    1    1    2    0    0  0.23198309319E-01  0.74398874564E-02  0.80153514730E-02  0.25646819293E-01  0.00000000000E+00 0. -1.
     999901    1    3    3    0    0 -0.10042342029E+00  0.86891733875E-01  0.20842164302E-01  0.89020752219E+00  0.88000000000E+00 0. -1.
        -11    1    4    4    0    0  0.67513947541E-01 -0.65194839071E-01 -0.18510122027E-01  0.95662876250E-01  0.51100000000E-03 0.  1.
         11    1    4    4    0    0  0.97111634278E-02 -0.29136782261E-01 -0.10347393748E-01  0.32412782263E-01  0.51100000000E-03 0. -1.
</event>
<event>
 8    1  0.1041149E+005  0.1043930E+01  0.7957747E-01            NaN
         13   -1    0    0    0    0  0.00000000000E+00  0.00000000000E+00  0.74505805969E-08  0.10566000000E+00  0.10566000000E+00 0.  1.
     999900   -1    0    0    0    0 -0.00000000000E+00 -0.00000000000E+00 -0.74505805969E-08  0.93827000000E+00  0.93827000000E+00 0. -1.
     999902    2    1    2    0    0 -0.21887601989E-01  0.13010730259E-01 -0.10293308681E-01  0.10164655061E+01  0.10160943985E+01 0.  0.
     999903    2    3    3    0    0  0.10993843735E+00 -0.41819391069E-01 -0.36134483969E-01  0.12458422856E+00  0.19498912695E-01 0.  0.
         14    1    1    2    0    0  0.21887601989E-01 -0.13010730259E-01  0.10293308681E-01  0.27464493920E-01  0.00000000000E+00 0. -1.
     999901    1    3    3    0    0 -0.13182603934E+00  0.54830121327E-01  0.25841175289E-01  0.89188127752E+00  0.88000000000E+00 0.  1.
        -11    1    4    4    0    0  0.62402983696E-01 -0.21916988924E-01 -0.30190392258E-01  0.72706311166E-01  0.51100000000E-03 0.  1.
         11    1    4    4    0    0  0.47535453659E-01 -0.19902402145E-01 -0.59440917116E-02  0.51877917392E-01  0.51100000000E-03 0. -1.
</event>
<event>
 8    1  0.1041149E+005  0.1043930E+01  0.7957747E-01            NaN
         13   -1    0    0    0    0  0.00000000000E+00  0.00000000000E+00  0.74505805969E-08  0.10566000000E+00  0.10566000000E+00 0. -1.
     999900   -1    0    0    0    0 -0.00000000000E+00 -0.00000000000E+00 -0.74505805969E-08  0.93827000000E+00  0.93827000000E+00 0. -1.
     999902    2    1    2    0    0  0.17563156877E-01  0.25509570044E-02 -0.15463531146E-01  0.10203908272E+01  0.10201192810E+01 0.  0.
     999903    2    3    3    0    0 -0.44075825463E-01  0.11197769087E+00 -0.47526469452E-01  0.13089568598E+00  0.19830120168E-01 0.  0.
         14    1    1    2    0    0 -0.17563156877E-01 -0.25509570044E-02  0.15463531146E-01  0.23539172811E-01  0.00000000000E+00 0. -1.
     999901    1    3    3    0    0  0.61638982340E-01 -0.10942673387E+00  0.32062938306E-01  0.88949514121E+00  0.88000000000E+00 0.  1.
        -11    1    4    4    0    0 -0.23241089066E-01  0.82980021519E-01 -0.31460759773E-01  0.91738065811E-01  0.51100000000E-03 0. -1.
         11    1    4    4    0    0 -0.20834736397E-01  0.28997669351E-01 -0.16065709679E-01  0.39157620165E-01  0.51100000000E-03 0.  1.
</event>
<event>
 8    1  0.1041149E+005  0.1043930E+01  0.7957747E-01            NaN
         13   -1    0    0    0    0  0.00000000000E+00  0.00000000000E+00  0.74505805969E-08  0.10566000000E+00  0.10566000000E+00 0. -1.
     999900   -1    0    0    0    0 -0.00000000000E+00 -0.00000000000E+00 -0.74505805969E-08  0.93827000000E+00  0.93827000000E+00 0. -1.
     999902    2    1    2    0    0 -0.11760672625E-01  0.20938532683E-01 -0.19845698018E-03  0.10199138605E+01  0.10196310646E+01 0.  0.
     999903    2    3    3    0    0 -0.11524868254E+00  0.57252748497E-01  0.25763060072E-01  0.13272589234E+00  0.19806342308E-01 0.  0.
         14    1    1    2    0    0  0.11760672625E-01 -0.20938532683E-01  0.19845698018E-03  0.24016139504E-01  0.00000000000E+00 0. -1.
     999901    1    3    3    0    0  0.10348800992E+00 -0.36314215815E-01 -0.25961517052E-01  0.88718796815E+00  0.88000000000E+00 0. -1.
        -11    1    4    4    0    0 -0.77043771061E-01  0.42352558104E-01  0.88460064766E-02  0.88362858650E-01  0.51100000000E-03 0. -1.
         11    1    4    4    0    0 -0.38204911483E-01  0.14900190393E-01  0.16917053595E-01  0.44363033694E-01  0.51100000000E-03 0.  1.
</event>
<event>
 8    1  0.1041149E+005  0.1043930E+01  0.7957747E-01            NaN
         13   -1    0    0    0    0  0.00000000000E+00  0.00000000000E+00  0.74505805969E-08  0.10566000000E+00  0.10566000000E+00 0. -1.
     999900   -1    0    0    0    0 -0.00000000000E+00 -0.00000000000E+00 -0.74505805969E-08  0.93827000000E+00  0.93827000000E+00 0.  1.
     999902    2    1    2    0    0 -0.15796436968E-01  0.18461374694E-01 -0.32974774941E-04  0.10196328631E+01  0.10193433301E+01 0.  0.
     999903    2    3    3    0    0 -0.93152294360E-01 -0.82817341800E-01  0.30950815581E-01  0.12991307438E+00  0.19580394869E-01 0.  0.
         14    1    1    2    0    0  0.15796436968E-01 -0.18461374694E-01  0.32974774941E-04  0.24297136946E-01  0.00000000000E+00 0. -1.
     999901    1    3    3    0    0  0.77355857392E-01  0.10127871649E+00 -0.30983790356E-01  0.88971978867E+00  0.88000000000E+00 0.  1.
        -11    1    4    4    0    0 -0.94349281387E-02 -0.15204887793E-01  0.91915363313E-02  0.20123417774E-01  0.51100000000E-03 0.  1.
         11    1    4    4    0    0 -0.83717366221E-01 -0.67612454007E-01  0.21759279249E-01  0.10978965661E+00  0.51100000000E-03 0. -1.
</event>
<event>
 8    1  0.1041149E+005  0.1043930E+01  0.7957747E-01            NaN
         13   -1    0    0    0    0  0.00000000000E+00  0.00000000000E+00  0.74505805969E-08  0.10566000000E+00  0.10566000000E+00 0. -1.
     999900   -1    0    0    0    0 -0.00000000000E+00 -0.00000000000E+00 -0.74505805969E-08  0.93827000000E+00  0.93827000000E+00 0.  1.
     999902    2    1    2    0    0 -0.12911755515E-01  0.14234269146E-01 -0.15237264494E-01  0.10194044607E+01  0.10191093918E+01 0.  0.
     999903    2    3    3    0    0 -0.41359287850E-01 -0.24328017736E-01  0.11684254091E+00  0.12825835200E+00  0.22261679015E-01 0.  0.
         14    1    1    2    0    0  0.12911755515E-01 -0.14234269146E-01  0.15237264494E-01  0.24525539298E-01  0.00000000000E+00 0. -1.
     999901    1    3    3    0    0  0.28447532335E-01  0.38562286882E-01 -0.13207980540E+00  0.89114610871E+00  0.88000000000E+00 0.  1.
        -11    1    4    4    0    0 -0.20860711262E-01 -0.19179840974E-01  0.43411588678E-01  0.51844601712E-01  0.51100000000E-03 0. -1.
         11    1    4    4    0    0 -0.20498576588E-01 -0.51481767620E-02  0.73430952231E-01  0.76413750285E-01  0.51100000000E-03 0.  1.
</event>
<event>
 8    1  0.1041149E+005  0.1043930E+01  0.7957747E-01            NaN
         13   -1    0    0    0    0  0.00000000000E+00  0.00000000000E+00  0.74505805969E-08  0.10566000000E+00  0.10566000000E+00 0. -1.
     999900   -1    0    0    0    0 -0.00000000000E+00 -0.00000000000E+00 -0.74505805969E-08  0.93827000000E+00  0.93827000000E+00 0.  1.
     999902    2    1    2    0    0 -0.60511468686E-02 -0.21889225281E-01 -0.44927828090E-02  0.10207796294E+01  0.10205170808E+01 0.  0.
     999903    2    3    3    0    0 -0.12468048067E+00  0.14414023996E-01 -0.34006024154E-01  0.13158793119E+00  0.20149134179E-01 0.  0.
         14    1    1    2    0    0  0.60511468686E-02  0.21889225281E-01  0.44927828090E-02  0.23150370606E-01  0.00000000000E+00 0.  1.
     999901    1    3    3    0    0  0.11862933380E+00 -0.36303249277E-01  0.29513241345E-01  0.88919169821E+00  0.88000000000E+00 0.  1.
        -11    1    4    4    0    0 -0.59821037481E-01  0.15965861991E-01 -0.21278067647E-01  0.65471234586E-01  0.51100000000E-03 0. -1.
         11    1    4    4    0    0 -0.64859443186E-01 -0.15518379952E-02 -0.12727956506E-01  0.66116696601E-01  0.51100000000E-03 0.  1.
</event>
<event>
 8    1  0.1041149E+005  0.1043930E+01  0.7957747E-01            NaN
         13   -1    0    0    0    0  0.00000000000E+00  0.00000000000E+00  0.74505805969E-08  0.10566000000E+00  0.10566000000E+00 0. -1.
     999900   -1    0    0    0    0 -0.00000000000E+00 -0.00000000000E+00 -0.74505805969E-08  0.93827000000E+00  0.93827000000E+00 0.  1.
     999902    2    1    2    0    0 -0.15003415264E-01 -0.11730182018E-01 -0.12027333419E-01  0.10214054270E+01  0.10211570349E+01 0.  0.
     999903    2    3    3    0    0  0.99903175975E-01 -0.46754009941E-01  0.65396426646E-01  0.12987604899E+00  0.20603724594E-01 0.  0.
         14    1    1    2    0    0  0.15003415264E-01  0.11730182018E-01  0.12027333419E-01  0.22524573002E-01  0.00000000000E+00 0. -1.
     999901    1    3    3    0    0 -0.11490659124E+00  0.35023827924E-01 -0.77423760065E-01  0.89152937801E+00  0.88000000000E+00 0.  1.
        -11    1    4    4    0    0  0.17245469008E-01 -0.17290629557E-01  0.12996961007E-01  0.27668649917E-01  0.51100000000E-03 0. -1.
         11    1    4    4    0    0  0.82657706967E-01 -0.29463380385E-01  0.52399465639E-01  0.10220739907E+00  0.51100000000E-03 0.  1.
</event>
<event>
 8    1  0.1041149E+005  0.1043930E+01  0.7957747E-01            NaN
         13   -1    0    0    0    0  0.00000000000E+00  0.00000000000E+00  0.74505805969E-08  0.10566000000E+00  0.10566000000E+00 0.  1.
     999900   -1    0    0    0    0 -0.00000000000E+00 -0.00000000000E+00 -0.74505805969E-08  0.93827000000E+00  0.93827000000E+00 0. -1.
     999902    2    1    2    0    0  0.75153581905E-03 -0.16602970156E-01 -0.16874128914E-01  0.10202454132E+01  0.10199704621E+01 0.  0.
     999903    2    3    3    0    0 -0.11369634940E+00 -0.61541567390E-01  0.15568080252E-01  0.13110521456E+00  0.15231144976E-01 0.  0.
         14    1    1    2    0    0 -0.75153581905E-03  0.16602970156E-01  0.16874128914E-01  0.23684586775E-01  0.00000000000E+00 0. -1.
     999901    1    3    3    0    0  0.11444788522E+00  0.44938597234E-01 -0.32442209166E-01  0.88914019867E+00  0.88000000000E+00 0.  1.
        -11    1    4    4    0    0 -0.37148296105E-01 -0.27006694332E-01  0.14949981309E-02  0.45954908145E-01  0.51100000000E-03 0. -1.
         11    1    4    4    0    0 -0.76548053295E-01 -0.34534873058E-01  0.14073082121E-01  0.85150306411E-01  0.51100000000E-03 0.  1.
</event>
<event>
 8    1  0.1041149E+005  0.1043930E+01  0.7957747E-01            NaN
         13   -1    0    0    0    0  0.00000000000E+00  0.00000000000E+00  0.74505805969E-08  0.10566000000E+00  0.10566000000E+00 0.  1.
     999900   -1    0    0    0    0 -0.00000000000E+00 -0.00000000000E+00 -0.74505805969E-08  0.93827000000E+00  0.93827000000E+00 0.  1.
     999902    2    1    2    0    0  0.12316375747E-03 -0.12784303128E-01 -0.19953222836E-01  0.10202322221E+01  0.10199569610E+01 0.  0.
     999903    2    3    3    0    0 -0.92373082614E-02  0.12116548203E+00 -0.40866704448E-01  0.12980112589E+00  0.20293911657E-01 0.  0.
         14    1    1    2    0    0 -0.12316375747E-03  0.12784303128E-01  0.19953222836E-01  0.23697777898E-01  0.00000000000E+00 0. -1.
     999901    1    3    3    0    0  0.93604720188E-02 -0.13394978516E+00  0.20913481613E-01  0.89043109621E+00  0.88000000000E+00 0. -1.
        -11    1    4    4    0    0 -0.13339978792E-01  0.10367849362E+00 -0.39613039631E-01  0.11178836747E+00  0.51100000000E-03 0.  1.
         11    1    4    4    0    0  0.41026705303E-02  0.17486988418E-01 -0.12536648167E-02  0.18012758419E-01  0.51100000000E-03 0. -1.
</event>
<event>
 8    1  0.1041149E+005  0.1043930E+01  0.7957747E-01            NaN
         13   -1    0    0    0    0  0.00000000000E+00  0.00000000000E+00  0.74505805969E-08  0.10566000000E+00  0.10566000000E+00 0. -1.
     999900   -1    0    0    0    0 -0.00000000000E+00 -0.00000000000E+00 -0.74505805969E-08  0.93827000000E+00  0.93827000000E+00 0.  1.
     999902    2    1    2    0    0 -0.22986708740E-01 -0.67735107695E-02  0.97409165163E-03  0.10199462955E+01  0.10196642720E+01 0.  0.
     999903    2    3    3    0    0  0.50465317244E-01 -0.45951055683E-01 -0.10803073225E+00  0.12932172152E+00  0.19880160537E-01 0.  0.
         14    1    1    2    0    0  0.22986708740E-01  0.67735107695E-02 -0.97409165163E-03  0.23983704496E-01  0.00000000000E+00 0. -1.
     999901    1    3    3    0    0 -0.73452025984E-01  0.39177544913E-01  0.10900482391E+00  0.89062457398E+00  0.88000000000E+00 0. -1.
        -11    1    4    4    0    0  0.47497341596E-01 -0.34787187757E-01 -0.83133714918E-01  0.10187061189E+00  0.51100000000E-03 0.  1.
         11    1    4    4    0    0  0.29679756485E-02 -0.11163867925E-01 -0.24897017336E-01  0.27451109627E-01  0.51100000000E-03 0. -1.
</event>
<event>
 8    1  0.1041149E+005  0.1043930E+01  0.7957747E-01            NaN
         13   -1    0    0    0    0  0.00000000000E+00  0.00000000000E+00  0.74505805969E-08  0.10566000000E+00  0.10566000000E+00 0.  1.
     999900   -1    0    0    0    0 -0.00000000000E+00 -0.00000000000E+00 -0.74505805969E-08  0.93827000000E+00  0.93827000000E+00 0.  1.
     999902    2    1    2    0    0 -0.43840761288E-02 -0.79123286736E-02  0.21335523010E-01  0.10207561007E+01  0.10204930119E+01 0.  0.
     999903    2    3    3    0    0 -0.95134909121E-01  0.62228249370E-01  0.64497385140E-01  0.13226391683E+00  0.20268819728E-01 0.  0.
         14    1    1    2    0    0  0.43840761288E-02  0.79123286736E-02 -0.21335523010E-01  0.23173899340E-01  0.00000000000E+00 0. -1.
     999901    1    3    3    0    0  0.90750832993E-01 -0.70140578043E-01 -0.43161862130E-01  0.88849218383E+00  0.88000000000E+00 0.  1.
        -11    1    4    4    0    0 -0.69975223494E-01  0.45300485828E-01  0.36545673103E-01  0.91019301595E-01  0.51100000000E-03 0.  1.
         11    1    4    4    0    0 -0.25159685627E-01  0.16927763542E-01  0.27951712037E-01  0.41244615239E-01  0.51100000000E-03 0. -1.
</event>
<event>
 8    1  0.1041149E+005  0.1043930E+01  0.7957747E-01            NaN
         13   -1    0    0    0    0  0.00000000000E+00  0.00000000000E+00  0.74505805969E-08  0.10566000000E+00  0.10566000000E+00 0. -1.
     999900   -1    0    0    0    0 -0.00000000000E+00 -0.00000000000E+00 -0.74505805969E-08  0.93827000000E+00  0.93827000000E+00 0. -1.
     999902    2    1    2    0    0  0.20948510008E-01 -0.46839377964E-02 -0.19183050909E-03  0.10224633714E+01  0.10222380005E+01 0.  0.
     999903    2    3    3    0    0 -0.96546578693E-01 -0.15922884048E-01  0.84116110678E-01  0.13058936755E+00  0.20081901004E-01 0.  0.
         14    1    1    2    0    0 -0.20948510008E-01  0.46839377964E-02  0.19183050909E-03  0.21466628608E-01  0.00000000000E+00 0.  1.
     999901    1    3    3    0    0  0.11749508870E+00  0.11238946251E-01 -0.84307941187E-01  0.89187400384E+00  0.88000000000E+00 0. -1.
        -11    1    4    4    0    0 -0.57984928911E-01 -0.18381001902E-01  0.57166904917E-01  0.83477118724E-01  0.51100000000E-03 0. -1.
         11    1    4    4    0    0 -0.38561649782E-01  0.24581178545E-02  0.26949205761E-01  0.47112248826E-01  0.51100000000E-03 0.  1.
</event>
<event>
 8    1  0.1041149E+005  0.1043930E+01  0.7957747E-01            NaN
         13   -1    0    0    0    0  0.00000000000E+00  0.00000000000E+00  0.74505805969E-08  0.10566000000E+00  0.10566000000E+00 0. -1.
     999900   -1    0    0    0    0 -0.00000000000E+00 -0.00000000000E+00 -0.74505805969E-08  0.93827000000E+00  0.93827000000E+00 0.  1.
     999902    2    1    2    0    0 -0.49690682306E-02  0.22028284711E-01 -0.60267393025E-02  0.10205578252E+01  0.10202901627E+01 0.  0.
     999903    2    3    3    0    0  0.63151492414E-01  0.10299156820E+00 -0.52050714008E-01  0.13302547636E+00  0.19776916324E-01 0.  0.
         14    1    1    2    0    0  0.49690682306E-02 -0.22028284711E-01  0.60267393025E-02  0.23372174760E-01  0.00000000000E+00 0.  1.
     999901    1    3    3    0    0 -0.68120560644E-01 -0.80963283484E-01  0.46023974706E-01  0.88753234888E+00  0.88000000000E+00 0. -1.
        -11    1    4    4    0    0  0.51664626489E-01  0.66887480184E-01 -0.35161993606E-01  0.91541223233E-01  0.51100000000E-03 0. -1.
         11    1    4    4    0    0  0.11486865925E-01  0.36104088012E-01 -0.16888720402E-01  0.41484253130E-01  0.51100000000E-03 0.  1.
</event>
<event>
 8    1  0.1041149E+005  0.1043930E+01  0.7957747E-01            NaN
         13   -1    0    0    0    0  0.00000000000E+00  0.00000000000E+00  0.74505805969E-08  0.10566000000E+00  0.10566000000E+00 0. -1.
     999900   -1    0    0    0    0 -0.00000000000E+00 -0.00000000000E+00 -0.74505805969E-08  0.93827000000E+00  0.93827000000E+00 0. -1.
     999902    2    1    2    0    0  0.81320700542E-02  0.13307243509E-01 -0.18771665555E-01  0.10195253135E+01  0.10192331805E+01 0.  0.
     999903    2    3    3    0    0 -0.39281065966E-01 -0.74732537203E-01 -0.97355336958E-01  0.13038280423E+00  0.19840860505E-01 0.  0.
         14    1    1    2    0    0 -0.81320700542E-02 -0.13307243509E-01  0.18771665555E-01  0.24404686453E-01  0.00000000000E+00 0.  1.
     999901    1    3    3    0    0  0.47413136020E-01  0.88039780712E-01  0.78583671404E-01  0.88914250931E+00  0.88000000000E+00 0.  1.
        -11    1    4    4    0    0 -0.22276962749E-01 -0.49173895056E-01 -0.47906731870E-01  0.72177912853E-01  0.51100000000E-03 0.  1.
         11    1    4    4    0    0 -0.17004103216E-01 -0.25558642147E-01 -0.49448605088E-01  0.58204891382E-01  0.51100000000E-03 0. -1.
</event>
<event>
 8    1  0.1041149E+005  0.1043930E+01  0.7957747E-01            NaN
         13   -1    0    0    0    0  0.00000000000E+00  0.00000000000E+00  0.74505805969E-08  0.10566000000E+00  0.10566000000E+00 0. -1.
     999900   -1    0    0    0    0 -0.00000000000E+00 -0.00000000000E+00 -0.74505805969E-08  0.93827000000E+00  0.93827000000E+00 0.  1.
     999902    2    1    2    0    0 -0.53934050241E-02  0.20738878453E-01  0.12573833026E-01  0.10190846549E+01  0.10187817444E+01 0.  0.
     999903    2    3    3    0    0 -0.83757115989E-01 -0.49878047142E-01 -0.80022693432E-01  0.12796079251E+00  0.21616171937E-01 0.  0.
         14    1    1    2    0    0  0.53934050241E-02 -0.20738878453E-01 -0.12573833026E-01  0.24845345122E-01  0.00000000000E+00 0.  1.
     999901    1    3    3    0    0  0.78363710965E-01  0.70616925596E-01  0.92596526457E-01  0.89112386237E+00  0.88000000000E+00 0. -1.
        -11    1    4    4    0    0 -0.20556904687E-02 -0.39546868683E-02 -0.10021988730E-01  0.10980291008E-01  0.51100000000E-03 0. -1.
         11    1    4    4    0    0 -0.81701425521E-01 -0.45923360274E-01 -0.70000704702E-01  0.11698050150E+00  0.51100000000E-03 0.  1.
</event>
<event>
 8    1  0.1041149E+005  0.1043930E+01  0.7957747E-01            NaN
         13   -1    0    0    0    0  0.00000000000E+00  0.00000000000E+00  0.74505805969E-08  0.10566000000E+00  0.10566000000E+00 0. -1.
     999900   -1    0    0    0    0 -0.00000000000E+00 -0.00000000000E+00 -0.74505805969E-08  0.93827000000E+00  0.93827000000E+00 0.  1.
     999902    2    1    2    0    0 -0.20598188781E-02  0.27632873183E-01 -0.79981129687E-03  0.10162089208E+01  0.10158307499E+01 0.  0.
     999903    2    3    3    0    0 -0.44867923767E-01 -0.10465509962E+00 -0.45438664760E-01  0.12417457794E+00  0.19718851163E-01 0.  0.
         14    1    1    2    0    0  0.20598188781E-02 -0.27632873183E-01  0.79981129687E-03  0.27721079204E-01  0.00000000000E+00 0. -1.
     999901    1    3    3    0    0  0.42808104889E-01  0.13228797281E+00  0.44638853463E-01  0.89203434285E+00  0.88000000000E+00 0. -1.
        -11    1    4    4    0    0 -0.80095120826E-03 -0.19255401082E-01 -0.50295740976E-02  0.19924099234E-01  0.51100000000E-03 0.  1.
         11    1    4    4    0    0 -0.44066972559E-01 -0.85399698542E-01 -0.40409090662E-01  0.10425047871E+00  0.51100000000E-03 0. -1.
</event>
<event>
 8    1  0.1041149E+005  0.1043930E+01  0.7957747E-01            NaN
         13   -1    0    0    0    0  0.00000000000E+00  0.00000000000E+00  0.74505805969E-08  0.10566000000E+00  0.10566000000E+00 0.  1.
     999900   -1    0    0    0    0 -0.00000000000E+00 -0.00000000000E+00 -0.74505805969E-08  0.93827000000E+00  0.93827000000E+00 0.  1.
     999902    2    1    2    0    0  0.14384601305E-01  0.24377274022E-02 -0.19329014561E-01  0.10197128558E+01  0.10194252490E+01 0.  0.
     999903    2    3    3    0    0 -0.12469694902E+00 -0.20925511374E-01 -0.70626125968E-02  0.12839922795E+00  0.21196110987E-01 0.  0.
         14    1    1    2    0    0 -0.14384601305E-01 -0.24377274022E-02  0.19329014561E-01  0.24217144206E-01  0.00000000000E+00 0.  1.
     999901    1    3    3    0    0  0.13908155032E+00  0.23363238777E-01 -0.12266401964E-01  0.89131362785E+00  0.88000000000E+00 0.  1.
        -11    1    4    4    0    0 -0.10568835468E+00 -0.24874303520E-01 -0.86001347614E-02  0.10891732061E+00  0.51100000000E-03 0.  1.
         11    1    4    4    0    0 -0.19008594335E-01  0.39487921456E-02  0.15375221647E-02  0.19481907335E-01  0.51100000000E-03 0. -1.
</event>
<event>
 8    1  0.1041149E+005  0.1043930E+01  0.7957747E-01            NaN
         13   -1    0    0    0    0  0.00000000000E+00  0.00000000000E+00  0.74505805969E-08  0.10566000000E+00  0.10566000000E+00 0.  1.
     999900   -1    0    0    0    0 -0.00000000000E+00 -0.00000000000E+00 -0.74505805969E-08  0.93827000000E+00  0.93827000000E+00 0. -1.
     999902    2    1    2    0    0 -0.60881653694E-02  0.17215129858E-01 -0.11913700503E-01  0.10221271857E+01  0.10218946232E+01 0.  0.
     999903    2    3    3    0    0  0.80669852150E-01 -0.92707438179E-01  0.36409257895E-01  0.12974552242E+00  0.20148756502E-01 0.  0.
         14    1    1    2    0    0  0.60881653694E-02 -0.17215129858E-01  0.11913700503E-01  0.21802814343E-01  0.00000000000E+00 0. -1.
     999901    1    3    3    0    0 -0.86758017520E-01  0.10992256804E+00 -0.48322958399E-01  0.89238166323E+00  0.88000000000E+00 0.  1.
        -11    1    4    4    0    0  0.35516942076E-01 -0.31731853031E-01  0.60130067981E-02  0.48008135175E-01  0.51100000000E-03 0. -1.
         11    1    4    4    0    0  0.45152910074E-01 -0.60975585148E-01  0.30396251097E-01  0.81737387248E-01  0.51100000000E-03 0.  1.
</event>
<event>
 8    1  0.1041149E+005  0.1043930E+01  0.7957747E-01            NaN
         13   -1    0    0    0    0  0.00000000000E+00  0.00000000000E+00  0.74505805969E-08  0.10566000000E+00  0.10566000000E+00 0. -1.
     999900   -1    0    0    0    0 -0.00000000000E+00 -0.00000000000E+00 -0.74505805969E-08  0.93827000000E+00  0.93827000000E+00 0. -1.
     999902    2    1    2    0    0  0.15276071582E-01 -0.23171861414E-02 -0.17982002546E-01  0.10202217708E+01  0.10199462641E+01 0.  0.
     999903    2    3    3    0    0  0.11700698995E+00 -0.10042475595E-02  0.56365543911E-01  0.13124569623E+00  0.18886874457E-01 0.  0.
         14    1    1    2    0    0 -0.15276071582E-01  0.23171861414E-02  0.17982002546E-01  0.23708229166E-01  0.00000000000E+00 0. -1.
     999901    1    3    3    0    0 -0.10173091837E+00 -0.13129385819E-02 -0.74347546457E-01  0.88897607461E+00  0.88000000000E+00 0.  1.
        -11    1    4    4    0    0  0.91212307251E-01  0.43900031635E-03  0.34937691927E-01  0.97676922318E-01  0.51100000000E-03 0.  1.
         11    1    4    4    0    0  0.25794682702E-01 -0.14432478759E-02  0.21427851983E-01  0.33568773909E-01  0.51100000000E-03 0. -1.
</event>
<event>
 8    1  0.1041149E+005  0.1043930E+01  0.7957747E-01            NaN
         13   -1    0    0    0    0  0.00000000000E+00  0.00000000000E+00  0.74505805969E-08  0.10566000000E+00  0.10566000000E+00 0. -1.
     999900   -1    0    0    0    0 -0.00000000000E+00 -0.00000000000E+00 -0.74505805969E-08  0.93827000000E+00  0.93827000000E+00 0.  1.
     999902    2    1    2    0    0 -0.11683686118E-01  0.12224658757E-01  0.15451193214E-01  0.10210238835E+01  0.10207669080E+01 0.  0.
     999903    2    3    3    0    0  0.11021681151E+00 -0.18307633246E-01 -0.60799528634E-01  0.12883213011E+00  0.20450430069E-01 0.  0.
         14    1    1    2    0    0  0.11683686118E-01 -0.12224658757E-01 -0.15451193214E-01  0.22906116536E-01  0.00000000000E+00 0.  1.
     999901    1    3    3    0    0 -0.12190049763E+00  0.30532292003E-01  0.76250721848E-01  0.89219175336E+00  0.88000000000E+00 0. -1.
        -11    1    4    4    0    0  0.61352331350E-01 -0.85158960640E-02 -0.22224179149E-01  0.65808846728E-01  0.51100000000E-03 0.  1.
         11    1    4    4    0    0  0.48864480164E-01 -0.97917371817E-02 -0.38575349486E-01  0.63023283377E-01  0.51100000000E-03 0. -1.
</event>
<event>
 8    1  0.1041149E+005  0.1043930E+01  0.7957747E-01            NaN
         13   -1    0    0    0    0  0.00000000000E+00  0.00000000000E+00  0.74505805969E-08  0.10566000000E+00  0.10566000000E+00 0.  1.
     999900   -1    0    0    0    0 -0.00000000000E+00 -0.00000000000E+00 -0.74505805969E-08  0.93827000000E+00  0.93827000000E+00 0. -1.
     999902    2    1    2    0    0  0.46588932572E-02 -0.31537462626E-03 -0.24630558993E-01  0.10188607123E+01  0.10185522480E+01 0.  0.
     999903    2    3    3    0    0 -0.26427117218E-01  0.10368566990E+00 -0.72735540416E-01  0.13088737572E+00  0.19797363873E-01 0.  0.
         14    1    1    2    0    0 -0.46588932572E-02  0.31537462626E-03  0.24630558993E-01  0.25069287661E-01  0.00000000000E+00 0.  1.
     999901    1    3    3    0    0  0.31086010475E-01 -0.10400104452E+00  0.48104981423E-01  0.88797333662E+00  0.88000000000E+00 0.  1.
        -11    1    4    4    0    0 -0.10571012137E-01  0.38108799222E-01 -0.15743794680E-01  0.42569414697E-01  0.51100000000E-03 0.  1.
         11    1    4    4    0    0 -0.15856105082E-01  0.65576870677E-01 -0.56991745736E-01  0.88317961023E-01  0.51100000000E-03 0. -1.
</event>
<event>
 8    1  0.1041149E+005  0.1043930E+01  0.7957747E-01            NaN
         13   -1    0    0    0    0  0.00000000000E+00  0.00000000000E+00  0.74505805969E-08  0.10566000000E+00  0.10566000000E+00 0. -1.
     999900   -1    0    0    0    0 -0.00000000000E+00 -0.00000000000E+00 -0.74505805969E-08  0.93827000000E+00  0.93827000000E+00 0. -1.
     999902    2    1    2    0    0  0.16113240708E-01  0.13642176125E-01 -0.47328684233E-02  0.10222933288E+01  0.10220643349E+01 0.  0.
     999903    2    3    3    0    0 -0.18461758458E-01 -0.83579247998E-01 -0.97129240858E-01  0.13145971614E+00  0.22830688030E-01 0.  0.
         14    1    1    2    0    0 -0.16113240708E-01 -0.13642176125E-01  0.47328684233E-02  0.21636671164E-01  0.00000000000E+00 0.  1.
     999901    1    3    3    0    0  0.34574999166E-01  0.97221424123E-01  0.92396372435E-01  0.89083361270E+00  0.88000000000E+00 0. -1.
        -11    1    4    4    0    0 -0.93108933016E-02 -0.60504112621E-01 -0.82188218030E-01  0.10248221642E+00  0.51100000000E-03 0. -1.
         11    1    4    4    0    0 -0.91508651562E-02 -0.23075135377E-01 -0.14941022827E-01  0.28977499718E-01  0.51100000000E-03 0.  1.
</event>
<event>
 8    1  0.1041149E+005  0.1043930E+01  0.7957747E-01            NaN
         13   -1    0    0    0    0  0.00000000000E+00  0.00000000000E+00  0.74505805969E-08  0.10566000000E+00  0.10566000000E+00 0.  1.
     999900   -1    0    0    0    0 -0.00000000000E+00 -0.00000000000E+00 -0.74505805969E-08  0.93827000000E+00  0.93827000000E+00 0.  1.
     999902    2    1    2    0    0  0.10128383137E-03 -0.16619220410E-01  0.15437486460E-01  0.10212468623E+01  0.10209949212E+01 0.  0.
     999903    2    3    3    0    0  0.41507142197E-02  0.12768048952E+00  0.57885640097E-02  0.12943303319E+00  0.19996669093E-01 0.  0.
         14    1    1    2    0    0 -0.10128383137E-03  0.16619220410E-01 -0.15437486460E-01  0.22683137650E-01  0.00000000000E+00 0. -1.
     999901    1    3    3    0    0 -0.40494303883E-02 -0.14429970993E+00  0.96489224507E-02  0.89181382916E+00  0.88000000000E+00 0.  1.
        -11    1    4    4    0    0  0.11686598858E-01  0.97162462597E-01  0.45488930409E-02  0.97969762068E-01  0.51100000000E-03 0. -1.
         11    1    4    4    0    0 -0.75358846387E-02  0.30518026925E-01  0.12396709688E-02  0.31463271123E-01  0.51100000000E-03 0.  1.
</event>
<event>
 8    1  0.1041149E+005  0.1043930E+01  0.7957747E-01            NaN
         13   -1    0    0    0    0  0.00000000000E+00  0.00000000000E+00  0.74505805969E-08  0.10566000000E+00  0.10566000000E+00 0. -1.
     999900   -1    0    0    0    0 -0.00000000000E+00 -0.00000000000E+00 -0.74505805969E-08  0.93827000000E+00  0.93827000000E+00 0. -1.
     999902    2    1    2    0    0 -0.11105839259E-01  0.10494025877E-01 -0.17593780785E-01  0.10206275244E+01  0.10203614743E+01 0.  0.
     999903    2    3    3    0    0  0.66947286035E-01  0.31828886313E-01 -0.10820966144E+00  0.13228147449E+00  0.17147610695E-01 0.  0.
         14    1    1    2    0    0  0.11105839259E-01 -0.10494025877E-01  0.17593780785E-01  0.23302475557E-01  0.00000000000E+00 0.  1.
     999901    1    3    3    0    0 -0.78053125295E-01 -0.21334860436E-01  0.90615880658E-01  0.88834604995E+00  0.88000000000E+00 0.  1.
        -11    1    4    4    0    0  0.16875262625E-01  0.10746208935E-02 -0.30189478939E-01  0.34606286399E-01  0.51100000000E-03 0. -1.
         11    1    4    4    0    0  0.50072023410E-01  0.30754265419E-01 -0.78020182504E-01  0.97675188092E-01  0.51100000000E-03 0.  1.
</event>
<event>
 6    1  0.1041149E+005  0.1043930E+01  0.7957747E-01            NaN
         13   -1    0    0    0    0  0.00000000000E+00  0.00000000000E+00  0.74505805969E-08  0.10566000000E+00  0.10566000000E+00 0. -1.
     999900   -1    0    0    0    0 -0.00000000000E+00 -0.00000000000E+00 -0.74505805969E-08  0.93827000000E+00  0.93827000000E+00 0.  1.
         14    1    1    2    0    0 -0.14457019475E-01 -0.30304345365E-01  0.24796127006E-01  0.41739749336E-01  0.00000000000E+00 0. -1.
     999901    1    1    2    0    0  0.16681279896E-01  0.95163580561E-01  0.61312158692E-01  0.88740833497E+00  0.88000000000E+00 0. -1.
        -11    1    1    2    0    0 -0.15490896785E-01 -0.50333029113E-01 -0.45264297016E-01  0.69444217961E-01  0.51100000000E-03 0.  1.
         11    1    1    2    0    0  0.13266636364E-01 -0.14526206083E-01 -0.40843988683E-01  0.45337697737E-01  0.51100000000E-03 0. -1.
</event>
<event>
 8    1  0.1041149E+005  0.1043930E+01  0.7957747E-01            NaN
         13   -1    0    0    0    0  0.00000000000E+00  0.00000000000E+00  0.74505805969E-08  0.10566000000E+00  0.10566000000E+00 0.  1.
     999900   -1    0    0    0    0 -0.00000000000E+00 -0.00000000000E+00 -0.74505805969E-08  0.93827000000E+00  0.93827000000E+00 0.  1.
     999902    2    1    2    0    0  0.21664517771E-01 -0.41727536867E-03 -0.10193236948E-01  0.10199836531E+01  0.10197025180E+01 0.  0.
     999903    2    3    3    0    0  0.97625941184E-01 -0.53402451791E-01  0.67719317271E-01  0.13169995246E+00  0.19399105579E-01 0.  0.
         14    1    1    2    0    0 -0.21664517771E-01  0.41727536867E-03  0.10193236948E-01  0.23946346871E-01  0.00000000000E+00 0. -1.
     999901    1    3    3    0    0 -0.75961423413E-01  0.52985176422E-01 -0.77912554218E-01  0.88828370067E+00  0.88000000000E+00 0.  1.
        -11    1    4    4    0    0  0.50392816203E-01 -0.24927665007E-01  0.23209717975E-01  0.60825788421E-01  0.51100000000E-03 0.  1.
         11    1    4    4    0    0  0.47233124981E-01 -0.28474786784E-01  0.44509599296E-01  0.70874164040E-01  0.51100000000E-03 0. -1.
</event>
<event>
 8    1  0.1041149E+005  0.1043930E+01  0.7957747E-01            NaN
         13   -1    0    0    0    0  0.00000000000E+00  0.00000000000E+00  0.74505805969E-08  0.10566000000E+00  0.10566000000E+00 0.  1.
     999900   -1    0    0    0    0 -0.00000000000E+00 -0.00000000000E+00 -0.74505805969E-08  0.93827000000E+00  0.93827000000E+00 0.  1.
     999902    2    1    2    0    0 -0.51805794979E-02 -0.86403384739E-02  0.21675475770E-01  0.10200276967E+01  0.10197476070E+01 0.  0.
     999903    2    3    3    0    0 -0.61384549583E-01 -0.10859667496E+00  0.39797805550E-01  0.13240245242E+00  0.19627616785E-01 0.  0.
         14    1    1    2    0    0  0.51805794979E-02  0.86403384739E-02 -0.21675475770E-01  0.23902303294E-01  0.00000000000E+00 0. -1.
     999901    1    3    3    0    0  0.56203970085E-01  0.99956336485E-01 -0.18122329780E-01  0.88762524429E+00  0.88000000000E+00 0. -1.
        -11    1    4    4    0    0 -0.56530465996E-02 -0.86921745781E-02  0.94693153373E-02  0.14051330496E-01  0.51100000000E-03 0. -1.
         11    1    4    4    0    0 -0.55731502984E-01 -0.99904500381E-01  0.30328490213E-01  0.11835112192E+00  0.51100000000E-03 0.  1.
</event>
<event>
 8    1  0.1041149E+005  0.1043930E+01  0.7957747E-01            NaN
         13   -1    0    0    0    0  0.00000000000E+00  0.00000000000E+00  0.74505805969E-08  0.10566000000E+00  0.10566000000E+00 0.  1.
     999900   -1    0    0    0    0 -0.00000000000E+00 -0.00000000000E+00 -0.74505805969E-08  0.93827000000E+00  0.93827000000E+00 0. -1.
     999902    2    1    2    0    0 -0.15388666050E-01 -0.13202673688E-01  0.14229057191E-01  0.10191592975E+01  0.10188582266E+01 0.  0.
     999903    2    3    3    0    0  0.39216238639E-01 -0.90641122484E-01 -0.80627500951E-01  0.12900415617E+00  0.19686338919E-01 0.  0.
         14    1    1    2    0    0  0.15388666050E-01  0.13202673688E-01 -0.14229057191E-01  0.24770702531E-01  0.00000000000E+00 0. -1.
     999901    1    3    3    0    0 -0.54604904689E-01  0.77438448796E-01  0.94856558142E-01  0.89015514130E+00  0.88000000000E+00 0. -1.
        -11    1    4    4    0    0  0.29696692646E-01 -0.81072372805E-01 -0.75015631487E-01  0.11437757330E+00  0.51100000000E-03 0.  1.
         11    1    4    4    0    0  0.95195459928E-02 -0.95687496791E-02 -0.56118694647E-02  0.14626582862E-01  0.51100000000E-03 0. -1.
</event>
<event>
 8    1  0.1041149E+005  0.1043930E+01  0.7957747E-01            NaN
         13   -1    0    0    0    0  0.00000000000E+00  0.00000000000E+00  0.74505805969E-08  0.10566000000E+00  0.10566000000E+00 0.  1.
     999900   -1    0    0    0    0 -0.00000000000E+00 -0.00000000000E+00 -0.74505805969E-08  0.93827000000E+00  0.93827000000E+00 0.  1.
     999902    2    1    2    0    0 -0.64812178933E-03  0.11406618622E-01  0.20306275654E-01  0.10206303038E+01  0.10203643179E+01 0.  0.
     999903    2    3    3    0    0 -0.67564278930E-02 -0.12707767737E+00  0.15395459838E-01  0.12976593271E+00  0.20193853106E-01 0.  0.
         14    1    1    2    0    0  0.64812178933E-03 -0.11406618622E-01 -0.20306275654E-01  0.23299696161E-01  0.00000000000E+00 0. -1.
     999901    1    3    3    0    0  0.61083061037E-02  0.13848429600E+00  0.49108158165E-02  0.89086437113E+00  0.88000000000E+00 0. -1.
        -11    1    4    4    0    0 -0.82264323086E-02 -0.89763479740E-01  0.19400403035E-01  0.92205169283E-01  0.51100000000E-03 0. -1.
         11    1    4    4    0    0  0.14700044156E-02 -0.37314197633E-01 -0.40049431971E-02  0.37560763424E-01  0.51100000000E-03 0.  1.
</event>
<event>
 8    1  0.1041149E+005  0.1043930E+01  0.7957747E-01            NaN
         13   -1    0    0    0    0  0.00000000000E+00  0.00000000000E+00  0.74505805969E-08  0.10566000000E+00  0.10566000000E+00 0. -1.
     999900   -1    0    0    0    0 -0.00000000000E+00 -0.00000000000E+00 -0.74505805969E-08  0.93827000000E+00  0.93827000000E+00 0.  1.
     999902    2    1    2    0    0  0.17566789702E-01  0.93304192585E-02  0.75121479906E-02  0.10226677990E+01  0.10224467448E+01 0.  0.
     999903    2    3    3    0    0  0.34249798212E-01  0.10183856700E+00 -0.76866769326E-01  0.13364818062E+00  0.20228533076E-01 0.  0.
         14    1    1    2    0    0 -0.17566789702E-01 -0.93304192585E-02 -0.75121479906E-02  0.21262201001E-01  0.00000000000E+00 0.  1.
     999901    1    3    3    0    0 -0.16683008510E-01 -0.92508147744E-01  0.84378917317E-01  0.88901961838E+00  0.88000000000E+00 0. -1.
        -11    1    4    4    0    0  0.11265500072E-01  0.47619498131E-01 -0.45977958893E-01  0.67147315055E-01  0.51100000000E-03 0.  1.
         11    1    4    4    0    0  0.22984298140E-01  0.54219068871E-01 -0.30888810433E-01  0.66500865567E-01  0.51100000000E-03 0. -1.
</event>
<event>
 8    1  0.1041149E+005  0.1043930E+01  0.7957747E-01            NaN
         13   -1    0    0    0    0  0.00000000000E+00  0.00000000000E+00  0.74505805969E-08  0.10566000000E+00  0.10566000000E+00 0.  1.
     999900   -1    0    0    0    0 -0.00000000000E+00 -0.00000000000E+00 -0.74505805969E-08  0.93827000000E+00  0.93827000000E+00 0. -1.
     999902    2    1    2    0    0 -0.75752976663E-02 -0.76383787842E-02  0.20858078746E-01  0.10204610969E+01  0.10201911884E+01 0.  0.
     999903    2    3    3    0    0 -0.10576551982E+00 -0.76697792576E-01  0.71976752361E-02  0.13220599332E+00  0.18913528812E-01 0.  0.
         14    1    1    2    0    0  0.75752976663E-02  0.76383787842E-02 -0.20858078746E-01  0.23468903130E-01  0.00000000000E+00 0. -1.
     999901    1    3    3    0    0  0.98190222152E-01  0.69059413792E-01  0.13660403510E-01  0.88825510355E+00  0.88000000000E+00 0. -1.
        -11    1    4    4    0    0 -0.86808704228E-01 -0.65636435519E-01 -0.81964606348E-03  0.10883393652E+00  0.51100000000E-03 0.  1.
         11    1    4    4    0    0 -0.18956815590E-01 -0.11061357058E-01  0.80173212996E-02  0.23372056801E-01  0.51100000000E-03 0. -1.
</event>
<event>
 8    1  0.1041149E+005  0.1043930E+01  0.7957747E-01            NaN
         13   -1    0    0    0    0  0.00000000000E+00  0.00000000000E+00  0.74505805969E-08  0.10566000000E+00  0.10566000000E+00 0. -1.
     999900   -1    0    0    0    0 -0.00000000000E+00 -0.00000000000E+00 -0.74505805969E-08  0.93827000000E+00  0.93827000000E+00 0. -1.
     999902    2    1    2    0    0 -0.14568288180E-01 -0.19086612716E-01 -0.79462352719E-02  0.10186381740E+01  0.10183241395E+01 0.  0.
     999903    2    3    3    0    0  0.63923048466E-01 -0.91577040897E-01 -0.64172762190E-01  0.13039430300E+00  0.20298283260E-01 0.  0.
         14    1    1    2    0    0  0.14568288180E-01  0.19086612716E-01  0.79462352719E-02  0.25291825961E-01  0.00000000000E+00 0. -1.
     999901    1    3    3    0    0 -0.78491336647E-01  0.72490428182E-01  0.56226526918E-01  0.88824387104E+00  0.88000000000E+00 0.  1.
        -11    1    4    4    0    0  0.41903967429E-01 -0.71599277237E-01 -0.40146480255E-01  0.92165069224E-01  0.51100000000E-03 0.  1.
         11    1    4    4    0    0  0.22019081037E-01 -0.19977763661E-01 -0.24026281935E-01  0.38229233777E-01  0.51100000000E-03 0. -1.
</event>
<event>
 8    1  0.1041149E+005  0.1043930E+01  0.7957747E-01            NaN
         13   -1    0    0    0    0  0.00000000000E+00  0.00000000000E+00  0.74505805969E-08  0.10566000000E+00  0.10566000000E+00 0.  1.
     999900   -1    0    0    0    0 -0.00000000000E+00 -0.00000000000E+00 -0.74505805969E-08  0.93827000000E+00  0.93827000000E+00 0. -1.
     999902    2    1    2    0    0 -0.17607576263E-01 -0.39395829435E-02 -0.15439876731E-01  0.10201826454E+01  0.10199062178E+01 0.  0.
     999903    2    3    3    0    0 -0.29328175089E-01 -0.11531782970E+00 -0.54151781414E-01  0.13224058772E+00  0.19920188463E-01 0.  0.
         14    1    1    2    0    0  0.17607576263E-01  0.39395829435E-02  0.15439876731E-01  0.23747354570E-01  0.00000000000E+00 0.  1.
     999901    1    3    3    0    0  0.11720598826E-01  0.11137824676E+00  0.38711904683E-01  0.88794205771E+00  0.88000000000E+00 0. -1.
        -11    1    4    4    0    0  0.53359197825E-03 -0.20113566939E-01 -0.14796435688E-01  0.24980711069E-01  0.51100000000E-03 0. -1.
         11    1    4    4    0    0 -0.29861767067E-01 -0.95204262764E-01 -0.39355345726E-01  0.10725987665E+00  0.51100000000E-03 0.  1.
</event>
<event>
 8    1  0.1041149E+005  0.1043930E+01  0.7957747E-01            NaN
         13   -1    0    0    0    0  0.00000000000E+00  0.00000000000E+00  0.74505805969E-08  0.10566000000E+00  0.10566000000E+00 0.  1.
     999900   -1    0    0    0    0 -0.00000000000E+00 -0.00000000000E+00 -0.74505805969E-08  0.93827000000E+00  0.93827000000E+00 0.  1.
     999902    2    1    2    0    0 -0.33625278305E-02  0.18154954259E-01  0.10772465869E-01  0.10225534947E+01  0.10223300321E+01 0.  0.
     999903    2    3    3    0    0 -0.10788763571E+00 -0.22182361811E-01  0.71873496523E-01  0.13334826913E+00  0.22003687530E-01 0.  0.
         14    1    1    2    0    0  0.33625278305E-02 -0.18154954259E-01 -0.10772465869E-01  0.21376505291E-01  0.00000000000E+00 0. -1.
     999901    1    3    3    0    0  0.10452510787E+00  0.40337316070E-01 -0.61101030654E-01  0.88920522558E+00  0.88000000000E+00 0.  1.
        -11    1    4    4    0    0 -0.72427784901E-01 -0.13293704160E-01  0.35403496043E-01  0.81707865283E-01  0.51100000000E-03 0.  1.
         11    1    4    4    0    0 -0.35459850804E-01 -0.88886576513E-02  0.36470000480E-01  0.51640403851E-01  0.51100000000E-03 0. -1.
</event>
<event>
 8    1  0.1041149E+005  0.1043930E+01  0.7957747E-01            NaN
         13   -1    0    0    0    0  0.00000000000E+00  0.00000000000E+00  0.74505805969E-08  0.10566000000E+00  0.10566000000E+00 0. -1.
     999900   -1    0    0    0    0 -0.00000000000E+00 -0.00000000000E+00 -0.74505805969E-08  0.93827000000E+00  0.93827000000E+00 0. -1.
     999902    2    1    2    0    0  0.23429114318E-01  0.30532737895E-02  0.48600460374E-02  0.10198081028E+01  0.10195227808E+01 0.  0.
     999903    2    3    3    0    0 -0.88701680874E-01  0.26420411275E-01  0.86587308706E-01  0.12862984686E+00  0.21960171947E-01 0.  0.
         14    1    1    2    0    0 -0.23429114318E-01 -0.30532737895E-02 -0.48600460374E-02  0.24121897231E-01  0.00000000000E+00 0.  1.
     999901    1    3    3    0    0  0.11213079519E+00 -0.23367137486E-01 -0.81727262669E-01  0.89117825591E+00  0.88000000000E+00 0.  1.
        -11    1    4    4    0    0 -0.59894622274E-01  0.13273263338E-01  0.43725766675E-01  0.75337567583E-01  0.51100000000E-03 0. -1.
         11    1    4    4    0    0 -0.28807058600E-01  0.13147147937E-01  0.42861542031E-01  0.53292279275E-01  0.51100000000E-03 0.  1.
</event>
<event>
 8    1  0.1041149E+005  0.1043930E+01  0.7957747E-01            NaN
         13   -1    0    0    0    0  0.00000000000E+00  0.00000000000E+00  0.74505805969E-08  0.10566000000E+00  0.10566000000E+00 0. -1.
     999900   -1    0    0    0    0 -0.00000000000E+00 -0.00000000000E+00 -0.74505805969E-08  0.93827000000E+00  0.93827000000E+00 0.  1.
     999902    2    1    2    0    0 -0.16225170062E-01  0.16268261703E-01  0.39352251082E-02  0.10206190910E+01  0.10203528460E+01 0.  0.
     999903    2    3    3    0    0 -0.37015412903E-03  0.13065249597E+00 -0.22006056823E-01  0.13269562318E+00  0.73246267094E-02 0.  0.
         14    1    1    2    0    0  0.16225170062E-01 -0.16268261703E-01 -0.39352251082E-02  0.23310909014E-01  0.00000000000E+00 0.  1.
     999901    1    3    3    0    0 -0.15855015933E-01 -0.11438423427E+00  0.25941281931E-01  0.88792346781E+00  0.88000000000E+00 0. -1.
        -11    1    4    4    0    0  0.15483032033E-02  0.91323695228E-01 -0.18193745644E-01  0.93132636892E-01  0.51100000000E-03 0.  1.
         11    1    4    4    0    0 -0.19184573323E-02  0.39328800740E-01 -0.38123111791E-02  0.39562986284E-01  0.51100000000E-03 0. -1.
</event>
<event>
 8    1  0.1041149E+005  0.1043930E+01  0.7957747E-01            NaN
         13   -1    0    0    0    0  0.00000000000E+00  0.00000000000E+00  0.74505805969E-08  0.10566000000E+00  0.10566000000E+00 0. -1.
     999900   -1    0    0    0    0 -0.00000000000E+00 -0.00000000000E+00 -0.74505805969E-08  0.93827000000E+00  0.93827000000E+00 0.  1.
     999902    2    1    2    0    0 -0.12516931219E-01 -0.17119474658E-01  0.95856066721E-02  0.10206569719E+01  0.10203916016E+01 0.  0.
     999903    2    3    3    0    0 -0.12751792201E+00 -0.31784990821E-01 -0.11095474424E-02  0.13298885177E+00  0.20339555682E-01 0.  0.
         14    1    1    2    0    0  0.12516931219E-01  0.17119474658E-01 -0.95856066721E-02  0.23273028058E-01  0.00000000000E+00 0. -1.
     999901    1    3    3    0    0  0.11500099079E+00  0.14665516163E-01  0.10695154114E-01  0.88766812017E+00  0.88000000000E+00 0. -1.
        -11    1    4    4    0    0 -0.17183358639E-01 -0.13342960736E-02  0.61291654937E-02  0.18299616137E-01  0.51100000000E-03 0. -1.
         11    1    4    4    0    0 -0.11033456337E+00 -0.30450694747E-01 -0.72387129361E-02  0.11468923563E+00  0.51100000000E-03 0.  1.
</event>
<event>
 8    1  0.1041149E+005  0.1043930E+01  0.7957747E-01            NaN
         13   -1    0    0    0    0  0.00000000000E+00  0.00000000000E+00  0.74505805969E-08  0.10566000000E+00  0.10566000000E+00 0. -1.
     999900   -1    0    0    0    0 -0.00000000000E+00 -0.00000000000E+00 -0.74505805969E-08  0.93827000000E+00  0.93827000000E+00 0. -1.
     999902    2    1    2    0    0 -0.51510626810E-02  0.21759952048E-01  0.89213878794E-02  0.10198546989E+01  0.10195704913E+01 0.  0.
     999903    2    3    3    0    0  0.36364134988E-01 -0.12033200671E+00 -0.57998122806E-02  0.12736920879E+00  0.19675755988E-01 0.  0.
         14    1    1    2    0    0  0.51510626810E-02 -0.21759952048E-01 -0.89213878794E-02  0.24075301069E-01  0.00000000000E+00 0.  1.
     999901    1    3    3    0    0 -0.41515197669E-01  0.14209195875E+00  0.14721200160E-01  0.89248549014E+00  0.88000000000E+00 0. -1.
        -11    1    4    4    0    0  0.32630508578E-01 -0.92752000247E-01  0.23848235016E-02  0.98354624416E-01  0.51100000000E-03 0.  1.
         11    1    4    4    0    0  0.37336264103E-02 -0.27580006459E-01 -0.81846357822E-02  0.29014584373E-01  0.51100000000E-03 0. -1.
</event>
<event>
 8    1  0.1041149E+005  0.1043930E+01  0.7957747E-01            NaN
         13   -1    0    0    0    0  0.00000000000E+00  0.00000000000E+00  0.74505805969E-08  0.10566000000E+00  0.10566000000E+00 0. -1.
     999900   -1    0    0    0    0 -0.00000000000E+00 -0.00000000000E+00 -0.74505805969E-08  0.93827000000E+00  0.93827000000E+00 0. -1.
     999902    2    1    2    0    0 -0.23941900125E-01 -0.27327072401E-02 -0.68763735525E-03  0.10198228410E+01  0.10195378717E+01 0.  0.
     999903    2    3    3    0    0 -0.50451824350E-01  0.11408653927E+00 -0.35680989664E-01  0.13101799900E+00  0.18205988480E-01 0.  0.
         14    1    1    2    0    0  0.23941900125E-01  0.27327072401E-02  0.68763735525E-03  0.24107159011E-01  0.00000000000E+00 0.  1.
     999901    1    3    3    0    0  0.26509924225E-01 -0.11681924651E+00  0.34993352309E-01  0.88880484199E+00  0.88000000000E+00 0.  1.
        -11    1    4    4    0    0 -0.39811827328E-01  0.76274152401E-01 -0.31004813776E-01  0.91456478819E-01  0.51100000000E-03 0. -1.
         11    1    4    4    0    0 -0.10639997022E-01  0.37812386866E-01 -0.46761758879E-02  0.39561520182E-01  0.51100000000E-03 0.  1.
</event>
<event>
 8    1  0.1041149E+005  0.1043930E+01  0.7957747E-01            NaN
         13   -1    0    0    0    0  0.00000000000E+00  0.00000000000E+00  0.74505805969E-08  0.10566000000E+00  0.10566000000E+00 0. -1.
     999900   -1    0    0    0    0 -0.00000000000E+00 -0.00000000000E+00 -0.74505805969E-08  0.93827000000E+00  0.93827000000E+00 0. -1.
     999902    2    1    2    0    0 -0.65330166644E-02 -0.23797639875E-01  0.74909936284E-03  0.10192405464E+01  0.10189414715E+01 0.  0.
     999903    2    3    3    0    0 -0.11552185155E+00  0.43871294875E-01  0.32649632629E-01  0.12936679416E+00  0.19994504804E-01 0.  0.
         14    1    1    2    0    0  0.65330166644E-02  0.23797639875E-01 -0.74909936284E-03  0.24689453623E-01  0.00000000000E+00 0. -1.
     999901    1    3    3    0    0  0.10898883488E+00 -0.67668934750E-01 -0.31900533266E-01  0.88987375222E+00  0.88000000000E+00 0.  1.
        -11    1    4    4    0    0 -0.35719338306E-01  0.60455181220E-02  0.36578482697E-02  0.36415112156E-01  0.51100000000E-03 0.  1.
         11    1    4    4    0    0 -0.79802513239E-01  0.37825776754E-01  0.28991784359E-01  0.92951682005E-01  0.51100000000E-03 0. -1.
</event>
<event>
 8    1  0.1041149E+005  0.1043930E+01  0.7957747E-01            NaN
         13   -1    0    0    0    0  0.00000000000E+00  0.00000000000E+00  0.74505805969E-08  0.10566000000E+00  0.10566000000E+00 0.  1.
     999900   -1    0    0    0    0 -0.00000000000E+00 -0.00000000000E+00 -0.74505805969E-08  0.93827000000E+00  0.93827000000E+00 0.  1.
     999902    2    1    2    0    0 -0.85130558121E-02  0.87169652307E-02 -0.22037609532E-01  0.10187483830E+01  0.10184371134E+01 0.  0.
     999903    2    3    3    0    0 -0.12289911240E+00  0.38637677994E-01 -0.97278421221E-02  0.13075573133E+00  0.20133762075E-01 0.  0.
         14    1    1    2    0    0  0.85130558121E-02 -0.87169652307E-02  0.22037609532E-01  0.25181617025E-01  0.00000000000E+00 0.  1.
     999901    1    3    3    0    0  0.11438605659E+00 -0.29920712763E-01 -0.12309767410E-01  0.88799265164E+00  0.88000000000E+00 0. -1.
        -11    1    4    4    0    0 -0.49392431830E-01  0.66249054096E-02 -0.85814860257E-02  0.50570789169E-01  0.51100000000E-03 0.  1.
         11    1    4    4    0    0 -0.73506680569E-01  0.32012772584E-01 -0.11463560964E-02  0.80184942166E-01  0.51100000000E-03 0. -1.
</event>
<event>
 8    1  0.1041149E+005  0.1043930E+01  0.7957747E-01            NaN
         13   -1    0    0    0    0  0.00000000000E+00  0.00000000000E+00  0.74505805969E-08  0.10566000000E+00  0.10566000000E+00 0. -1.
     999900   -1    0    0    0    0 -0.00000000000E+00 -0.00000000000E+00 -0.74505805969E-08  0.93827000000E+00  0.93827000000E+00 0.  1.
     999902    2    1    2    0    0 -0.22940952624E-01 -0.84386857564E-02  0.49153988821E-02  0.10189968921E+01  0.10186918112E+01 0.  0.
     999903    2    3    3    0    0 -0.12291160796E+00  0.69984148087E-02  0.44065918808E-01  0.13233731861E+00  0.20374481995E-01 0.  0.
         14    1    1    2    0    0  0.22940952624E-01  0.84386857564E-02 -0.49153988821E-02  0.24933107924E-01  0.00000000000E+00 0.  1.
     999901    1    3    3    0    0  0.99970655334E-01 -0.15437100565E-01 -0.39150519926E-01  0.88665957346E+00  0.88000000000E+00 0.  1.
        -11    1    4    4    0    0 -0.37034669372E-01  0.96628387150E-02  0.77328098359E-02  0.39051179963E-01  0.51100000000E-03 0. -1.
         11    1    4    4    0    0 -0.85876938587E-01 -0.26644239063E-02  0.36333108972E-01  0.93286138651E-01  0.51100000000E-03 0.  1.
</event>
<event>
 8    1  0.1041149E+005  0.1043930E+01  0.7957747E-01            NaN
         13   -1    0    0    0    0  0.00000000000E+00  0.00000000000E+00  0.74505805969E-08  0.10566000000E+00  0.10566000000E+00 0. -1.
     999900   -1    0    0    0    0 -0.00000000000E+00 -0.00000000000E+00 -0.74505805969E-08  0.93827000000E+00  0.93827000000E+00 0.  1.
     999902    2    1    2    0    0 -0.13621956751E-01 -0.19489210806E-01 -0.25085789311E-02  0.10200201691E+01  0.10197399009E+01 0.  0.
     999903    2    3    3    0    0 -0.12262957495E+00  0.98734752284E-02  0.40733075359E-01  0.13175519244E+00  0.23764451237E-01 0.  0.
         14    1    1    2    0    0  0.13621956751E-01  0.19489210806E-01  0.25085789311E-02  0.23909830861E-01  0.00000000000E+00 0.  1.
     999901    1    3    3    0    0  0.10900761820E+00 -0.29362686034E-01 -0.43241654290E-01  0.88826497669E+00  0.88000000000E+00 0. -1.
        -11    1    4    4    0    0 -0.59764445839E-01  0.83234773404E-02  0.80349402358E-02  0.60876026867E-01  0.51100000000E-03 0. -1.
         11    1    4    4    0    0 -0.62865129110E-01  0.15499978879E-02  0.32698135123E-01  0.70879165577E-01  0.51100000000E-03 0.  1.
</event>
<event>
 8    1  0.1041149E+005  0.1043930E+01  0.7957747E-01            NaN
         13   -1    0    0    0    0  0.00000000000E+00  0.00000000000E+00  0.74505805969E-08  0.10566000000E+00  0.10566000000E+00 0. -1.
     999900   -1    0    0    0    0 -0.00000000000E+00 -0.00000000000E+00 -0.74505805969E-08  0.93827000000E+00  0.93827000000E+00 0. -1.
     999902    2    1    2    0    0  0.43901568794E-05  0.18230437091E-01  0.16518551693E-01  0.10193289552E+01  0.10190320444E+01 0.  0.
     999903    2    3    3    0    0  0.10494307206E+00  0.66144029319E-01  0.39003958975E-01  0.13151510487E+00  0.19668070680E-01 0.  0.
         14    1    1    2    0    0 -0.43901568794E-05 -0.18230437091E-01 -0.16518551693E-01  0.24601044812E-01  0.00000000000E+00 0.  1.
     999901    1    3    3    0    0 -0.10493868190E+00 -0.47913592228E-01 -0.22485407282E-01  0.88781385032E+00  0.88000000000E+00 0. -1.
        -11    1    4    4    0    0  0.71906988994E-01  0.34738089132E-01  0.21691331626E-01  0.82753398066E-01  0.51100000000E-03 0. -1.
         11    1    4    4    0    0  0.33036083068E-01  0.31405940187E-01  0.17312627348E-01  0.48761706802E-01  0.51100000000E-03 0.  1.
</event>
<event>
 8    1  0.1041149E+005  0.1043930E+01  0.7957747E-01            NaN
         13   -1    0    0    0    0  0.00000000000E+00  0.00000000000E+00  0.74505805969E-08  0.10566000000E+00  0.10566000000E+00 0. -1.
     999900   -1    0    0    0    0 -0.00000000000E+00 -0.00000000000E+00 -0.74505805969E-08  0.93827000000E+00  0.93827000000E+00 0. -1.
     999902    2    1    2    0    0  0.19000409881E-01 -0.10184499103E-01 -0.25708975940E-02  0.10222194240E+01  0.10219888461E+01 0.  0.
     999903    2    3    3    0    0  0.86376913354E-01  0.60432704356E-01  0.78683042895E-01  0.13310267938E+00  0.20303179621E-01 0.  0.
         14    1    1    2    0    0 -0.19000409881E-01  0.10184499103E-01  0.25708975940E-02  0.21710576041E-01  0.00000000000E+00 0.  1.
     999901    1    3    3    0    0 -0.67376503473E-01 -0.70617203459E-01 -0.81253940489E-01  0.88911674458E+00  0.88000000000E+00 0. -1.
        -11    1    4    4    0    0  0.49714262253E-01  0.23868641168E-01  0.46481515353E-01  0.72124976901E-01  0.51100000000E-03 0.  1.
         11    1    4    4    0    0  0.36662651101E-01  0.36564063188E-01  0.32201527542E-01  0.60977702479E-01  0.51100000000E-03 0. -1.
</event>
<event>
 8    1  0.1041149E+005  0.1043930E+01  0.7957747E-01            NaN
         13   -1    0    0    0    0  0.00000000000E+00  0.00000000000E+00  0.74505805969E-08  0.10566000000E+00  0.10566000000E+00 0.  1.
     999900   -1    0    0    0    0 -0.00000000000E+00 -0.00000000000E+00 -0.74505805969E-08  0.93827000000E+00  0.93827000000E+00 0.  1.
     999902    2    1    2    0    0  0.76454303551E-02 -0.24877191210E-02 -0.20731943768E-01  0.10216936594E+01  0.10214516527E+01 0.  0.
     999903    2    3    3    0    0 -0.73400512036E-01 -0.10428538839E+00 -0.27866767872E-01  0.13209705644E+00  0.20248411546E-01 0.  0.
         14    1    1    2    0    0 -0.76454303551E-02  0.24877191210E-02  0.20731943768E-01  0.22236340619E-01  0.00000000000E+00 0.  1.
     999901    1    3    3    0    0  0.81045942391E-01  0.10179766927E+00  0.71348241038E-02  0.88959660294E+00  0.88000000000E+00 0.  1.
        -11    1    4    4    0    0 -0.50202970738E-01 -0.66712779584E-01 -0.27597504671E-01  0.87936435087E-01  0.51100000000E-03 0. -1.
         11    1    4    4    0    0 -0.23197541298E-01 -0.37572608805E-01 -0.26926320075E-03  0.44160621354E-01  0.51100000000E-03 0.  1.
</event>
<event>
 8    1  0.1041149E+005  0.1043930E+01  0.7957747E-01            NaN
         13   -1    0    0    0    0  0.00000000000E+00  0.00000000000E+00  0.74505805969E-08  0.10566000000E+00  0.10566000000E+00 0. -1.
     999900   -1    0    0    0    0 -0.00000000000E+00 -0.00000000000E+00 -0.74505805969E-08  0.93827000000E+00  0.93827000000E+00 0.  1.
     999902    2    1    2    0    0  0.22479284583E-01 -0.46460425178E-02 -0.65571678985E-03  0.10209662479E+01  0.10207079628E+01 0.  0.
     999903    2    3    3    0    0  0.11571866101E+00  0.56525745045E-01 -0.29004056255E-01  0.13347585512E+00  0.19712946554E-01 0.  0.
         14    1    1    2    0    0 -0.22479284583E-01  0.46460425178E-02  0.65571678985E-03  0.22963752110E-01  0.00000000000E+00 0. -1.
     999901    1    3    3    0    0 -0.93239376427E-01 -0.61171787563E-01  0.28348339466E-01  0.88749039277E+00  0.88000000000E+00 0. -1.
        -11    1    4    4    0    0  0.79497556203E-01  0.30271206861E-01 -0.24420104902E-01  0.88503164076E-01  0.51100000000E-03 0.  1.
         11    1    4    4    0    0  0.36221104807E-01  0.26254538184E-01 -0.45839513538E-02  0.44972691043E-01  0.51100000000E-03 0. -1.
</event>
<event>
 8    1  0.1041149E+005  0.1043930E+01  0.7957747E-01            NaN
         13   -1    0    0    0    0  0.00000000000E+00  0.00000000000E+00  0.74505805969E-08  0.10566000000E+00  0.10566000000E+00 0.  1.
     999900   -1    0    0    0    0 -0.00000000000E+00 -0.00000000000E+00 -0.74505805969E-08  0.93827000000E+00  0.93827000000E+00 0. -1.
     999902    2    1    2    0    0 -0.72033669082E-02 -0.16018945029E-01 -0.19650764779E-01  0.10175738309E+01  0.10172324482E+01 0.  0.
     999903    2    3    3    0    0 -0.62880622020E-01  0.61075671907E-01  0.88168240309E-01  0.12590770807E+00  0.19872142001E-01 0.  0.
         14    1    1    2    0    0  0.72033669082E-02  0.16018945029E-01  0.19650764779E-01  0.26356169127E-01  0.00000000000E+00 0.  1.
     999901    1    3    3    0    0  0.55677255112E-01 -0.77094616936E-01 -0.10781900509E+00  0.89166612280E+00  0.88000000000E+00 0. -1.
        -11    1    4    4    0    0 -0.21674409869E-02  0.10790552522E-01  0.11919801361E-01  0.16231962594E-01  0.51100000000E-03 0. -1.
         11    1    4    4    0    0 -0.60713181033E-01  0.50285119385E-01  0.76248438948E-01  0.10967574548E+00  0.51100000000E-03 0.  1.
</event>
<event>
 8    1  0.1041149E+005  0.1043930E+01  0.7957747E-01            NaN
         13   -1    0    0    0    0  0.00000000000E+00  0.00000000000E+00  0.74505805969E-08  0.10566000000E+00  0.10566000000E+00 0.  1.
     999900   -1    0    0    0    0 -0.00000000000E+00 -0.00000000000E+00 -0.74505805969E-08  0.93827000000E+00  0.93827000000E+00 0. -1.
     999902    2    1    2    0    0  0.22843692250E-02 -0.10412342412E-01  0.20426052827E-01  0.10208896256E+01  0.10206295943E+01 0.  0.
     999903    2    3    3    0    0  0.24649606215E-01  0.12320354651E+00 -0.26284505278E-01  0.12929819126E+00  0.15505808095E-01 0.  0.
         14    1    1    2    0    0 -0.22843692250E-02  0.10412342412E-01 -0.20426052827E-01  0.23040374375E-01  0.00000000000E+00 0. -1.
     999901    1    3    3    0    0 -0.22365236990E-01 -0.13361588892E+00  0.46710558105E-01  0.89159143437E+00  0.88000000000E+00 0.  1.
        -11    1    4    4    0    0  0.91457250773E-02  0.66062813056E-01 -0.20666328521E-01  0.69823332859E-01  0.51100000000E-03 0.  1.
         11    1    4    4    0    0  0.15503881138E-01  0.57140733458E-01 -0.56181767572E-02  0.59474858398E-01  0.51100000000E-03 0. -1.
</event>
<event>
 8    1  0.1177473E+005  0.1043930E+01  0.7957747E-01            NaN
         13   -1    0    0    0    0  0.00000000000E+00  0.00000000000E+00  0.74505805969E-08  0.10566000000E+00  0.10566000000E+00 0.  1.
     999900   -1    0    0    0    0 -0.00000000000E+00 -0.00000000000E+00 -0.74505805969E-08  0.93827000000E+00  0.93827000000E+00 0. -1.
     999902    2    1    2    0    0 -0.18504371444E-01  0.10241024424E-01  0.12913620604E-01  0.10191499286E+01  0.10188486271E+01 0.  0.
     999903    2    3    3    0    0 -0.39012792667E-01  0.10351368041E+00 -0.66276699927E-01  0.13044779029E+00  0.19670917984E-01 0.  0.
         14    1    1    2    0    0  0.18504371444E-01 -0.10241024424E-01 -0.12913620604E-01  0.24780071446E-01  0.00000000000E+00 0. -1.
     999901    1    3    3    0    0  0.20508421223E-01 -0.93272655984E-01  0.79190320531E-01  0.88870213827E+00  0.88000000000E+00 0.  1.
        -11    1    4    4    0    0 -0.14045897567E-01  0.62708425431E-01 -0.33649791435E-01  0.72541046609E-01  0.51100000000E-03 0. -1.
         11    1    4    4    0    0 -0.24966895100E-01  0.40805254976E-01 -0.32626908492E-01  0.57906743678E-01  0.51100000000E-03 0.  1.
</event>
<event>
 8    1  0.1041149E+005  0.1043930E+01  0.7957747E-01            NaN
         13   -1    0    0    0    0  0.00000000000E+00  0.00000000000E+00  0.74505805969E-08  0.10566000000E+00  0.10566000000E+00 0. -1.
     999900   -1    0    0    0    0 -0.00000000000E+00 -0.00000000000E+00 -0.74505805969E-08  0.93827000000E+00  0.93827000000E+00 0.  1.
     999902    2    1    2    0    0 -0.17457469466E-01 -0.13938625494E-01  0.53542308652E-02  0.10209579233E+01  0.10206994488E+01 0.  0.
     999903    2    3    3    0    0  0.46896165440E-01 -0.52875983574E-02  0.12065082302E+00  0.13106493265E+00  0.19854129200E-01 0.  0.
         14    1    1    2    0    0  0.17457469466E-01  0.13938625494E-01 -0.53542308652E-02  0.22972076723E-01  0.00000000000E+00 0.  1.
     999901    1    3    3    0    0 -0.64353634906E-01 -0.86510271363E-02 -0.11529659216E+00  0.88989299062E+00  0.88000000000E+00 0.  1.
        -11    1    4    4    0    0  0.24008358138E-01  0.54991111325E-02  0.73982242807E-01  0.77976117212E-01  0.51100000000E-03 0.  1.
         11    1    4    4    0    0  0.22887807302E-01 -0.10786709490E-01  0.46668580216E-01  0.53088815443E-01  0.51100000000E-03 0. -1.
</event>
<event>
 8    1  0.1041149E+005  0.1043930E+01  0.7957747E-01            NaN
         13   -1    0    0    0    0  0.00000000000E+00  0.00000000000E+00  0.74505805969E-08  0.10566000000E+00  0.10566000000E+00 0. -1.
     999900   -1    0    0    0    0 -0.00000000000E+00 -0.00000000000E+00 -0.74505805969E-08  0.93827000000E+00  0.93827000000E+00 0. -1.
     999902    2    1    2    0    0  0.97195815004E-02 -0.14864745811E-01  0.16547012780E-01  0.10196558458E+01  0.10193668668E+01 0.  0.
     999903    2    3    3    0    0  0.79909753306E-01  0.38269644800E-01  0.95489016432E-01  0.13174719976E+00  0.19724046214E-01 0.  0.
         14    1    1    2    0    0 -0.97195815004E-02  0.14864745811E-01 -0.16547012780E-01  0.24274154249E-01  0.00000000000E+00 0. -1.
     999901    1    3    3    0    0 -0.70190171806E-01 -0.53134390611E-01 -0.78942003652E-01  0.88790864599E+00  0.88000000000E+00 0. -1.
        -11    1    4    4    0    0  0.46843071063E-01  0.29445012211E-01  0.48266615312E-01  0.73424854956E-01  0.51100000000E-03 0.  1.
         11    1    4    4    0    0  0.33066682243E-01  0.88246325889E-02  0.47222401120E-01  0.58322344804E-01  0.51100000000E-03 0. -1.
</event>
<event>
 8    1  0.1041149E+005  0.1043930E+01  0.7957747E-01            NaN
         13   -1    0    0    0    0  0.00000000000E+00  0.00000000000E+00  0.74505805969E-08  0.10566000000E+00  0.10566000000E+00 0. -1.
     999900   -1    0    0    0    0 -0.00000000000E+00 -0.00000000000E+00 -0.74505805969E-08  0.93827000000E+00  0.93827000000E+00 0. -1.
     999902    2    1    2    0    0 -0.26433052543E-01 -0.17896486543E-01  0.77109929171E-02  0.10110902389E+01  0.10105567878E+01 0.  0.
     999903    2    3    3    0    0 -0.11198698452E-01  0.62001759700E-01 -0.10103571296E+00  0.12067367272E+00  0.19603340013E-01 0.  0.
         14    1    1    2    0    0  0.26433052543E-01  0.17896486543E-01 -0.77109929171E-02  0.32839761099E-01  0.00000000000E+00 0.  1.
     999901    1    3    3    0    0 -0.15234354091E-01 -0.79898246243E-01  0.10874670588E+00  0.89041656619E+00  0.88000000000E+00 0. -1.
        -11    1    4    4    0    0 -0.31226210103E-02  0.19643416820E-01 -0.16799151083E-01  0.26040107228E-01  0.51100000000E-03 0. -1.
         11    1    4    4    0    0 -0.80760774417E-02  0.42358342880E-01 -0.84236561880E-01  0.94633565487E-01  0.51100000000E-03 0.  1.
</event>
<event>
 8    1  0.1041149E+005  0.1043930E+01  0.7957747E-01            NaN
         13   -1    0    0    0    0  0.00000000000E+00  0.00000000000E+00  0.74505805969E-08  0.10566000000E+00  0.10566000000E+00 0.  1.
     999900   -1    0    0    0    0 -0.00000000000E+00 -0.00000000000E+00 -0.74505805969E-08  0.93827000000E+00  0.93827000000E+00 0. -1.
     999902    2    1    2    0    0 -0.62371706936E-02 -0.11668584064E-01  0.19898869302E-01  0.10200339093E+01  0.10197539669E+01 0.  0.
     999903    2    3    3    0    0 -0.72425687586E-01 -0.73982774094E-01  0.81390458240E-01  0.13321645706E+00  0.20081998255E-01 0.  0.
         14    1    1    2    0    0  0.62371706936E-02  0.11668584064E-01 -0.19898869302E-01  0.23896090723E-01  0.00000000000E+00 0. -1.
     999901    1    3    3    0    0  0.66188516892E-01  0.62314190030E-01 -0.61491588938E-01  0.88681745222E+00  0.88000000000E+00 0.  1.
        -11    1    4    4    0    0 -0.23063085032E-01 -0.14237853757E-01  0.28831308408E-01  0.39574333049E-01  0.51100000000E-03 0. -1.
         11    1    4    4    0    0 -0.49362602554E-01 -0.59744920338E-01  0.52559149833E-01  0.93642124011E-01  0.51100000000E-03 0.  1.
</event>
<event>
 8    1  0.1041149E+005  0.1043930E+01  0.7957747E-01            NaN
         13   -1    0    0    0    0  0.00000000000E+00  0.00000000000E+00  0.74505805969E-08  0.10566000000E+00  0.10566000000E+00 0.  1.
     999900   -1    0    0    0    0 -0.00000000000E+00 -0.00000000000E+00 -0.74505805969E-08  0.93827000000E+00  0.93827000000E+00 0.  1.
     999902    2    1    2    0    0  0.27939491578E-01  0.12846976171E-01  0.62866924030E-02  0.10125423832E+01  0.10120557768E+01 0.  0.
     999903    2    3    3    0    0  0.74510775287E-01 -0.87455214966E-01 -0.42467011880E-01  0.12428209608E+00  0.21031453809E-01 0.  0.
         14    1    1    2    0    0 -0.27939491578E-01 -0.12846976171E-01 -0.62866924030E-02  0.31387616789E-01  0.00000000000E+00 0. -1.
     999901    1    3    3    0    0 -0.46571283709E-01  0.10030219114E+00  0.48753704283E-01  0.88826028713E+00  0.88000000000E+00 0. -1.
        -11    1    4    4    0    0  0.33629569944E-01 -0.24957136154E-01 -0.11485532105E-01  0.43427930970E-01  0.51100000000E-03 0. -1.
         11    1    4    4    0    0  0.40881205343E-01 -0.62498078811E-01 -0.30981479775E-01  0.80854165109E-01  0.51100000000E-03 0.  1.
</event>
<event>
 8    1  0.1041149E+005  0.1043930E+01  0.7957747E-01            NaN
         13   -1    0    0    0    0  0.00000000000E+00  0.00000000000E+00  0.74505805969E-08  0.10566000000E+00  0.10566000000E+00 0. -1.
     999900   -1    0    0    0    0 -0.00000000000E+00 -0.00000000000E+00 -0.74505805969E-08  0.93827000000E+00  0.93827000000E+00 0. -1.
     999902    2    1    2    0    0  0.16443541810E-01 -0.15507905730E-01  0.11994634536E-01  0.10183417905E+01  0.10180202581E+01 0.  0.
     999903    2    3    3    0    0 -0.28892604823E-01  0.69719894994E-02  0.12467957518E+00  0.12971441769E+00  0.19935958406E-01 0.  0.
         14    1    1    2    0    0 -0.16443541810E-01  0.15507905730E-01 -0.11994634536E-01  0.25588209493E-01  0.00000000000E+00 0.  1.
     999901    1    3    3    0    0  0.45336146633E-01 -0.22479895229E-01 -0.11268494064E+00  0.88862737282E+00  0.88000000000E+00 0. -1.
        -11    1    4    4    0    0 -0.49290513446E-02  0.87340847122E-02  0.57382312327E-01  0.58254361827E-01  0.51100000000E-03 0.  1.
         11    1    4    4    0    0 -0.23963553478E-01 -0.17620952128E-02  0.67297262852E-01  0.71460055858E-01  0.51100000000E-03 0. -1.
</event>
<event>
 8    1  0.1041149E+005  0.1043930E+01  0.7957747E-01            NaN
         13   -1    0    0    0    0  0.00000000000E+00  0.00000000000E+00  0.74505805969E-08  0.10566000000E+00  0.10566000000E+00 0.  1.
     999900   -1    0    0    0    0 -0.00000000000E+00 -0.00000000000E+00 -0.74505805969E-08  0.93827000000E+00  0.93827000000E+00 0.  1.
     999902    2    1    2    0    0  0.20745623171E-01 -0.59354573808E-02  0.75714385695E-02  0.10210621794E+01  0.10208060722E+01 0.  0.
     999903    2    3    3    0    0 -0.77539118351E-01 -0.65192911836E-01  0.79842799302E-01  0.13067210430E+00  0.20925955516E-01 0.  0.
         14    1    1    2    0    0 -0.20745623171E-01  0.59354573808E-02 -0.75714385695E-02  0.22867820558E-01  0.00000000000E+00 0. -1.
     999901    1    3    3    0    0  0.98284741522E-01  0.59257454455E-01 -0.72271360732E-01  0.89039007514E+00  0.88000000000E+00 0. -1.
        -11    1    4    4    0    0 -0.58083308217E-01 -0.35962634076E-01  0.53513813112E-01  0.86781167645E-01  0.51100000000E-03 0.  1.
         11    1    4    4    0    0 -0.19455810135E-01 -0.29230277760E-01  0.26328986190E-01  0.43890936658E-01  0.51100000000E-03 0. -1.
</event>
<event>
 8    1  0.1041149E+005  0.1043930E+01  0.7957747E-01            NaN
         13   -1    0    0    0    0  0.00000000000E+00  0.00000000000E+00  0.74505805969E-08  0.10566000000E+00  0.10566000000E+00 0. -1.
     999900   -1    0    0    0    0 -0.00000000000E+00 -0.00000000000E+00 -0.74505805969E-08  0.93827000000E+00  0.93827000000E+00 0. -1.
     999902    2    1    2    0    0  0.14386028629E-01 -0.20716400016E-01 -0.17581858924E-02  0.10186472338E+01  0.10183334271E+01 0.  0.
     999903    2    3    3    0    0 -0.22119149410E-01  0.93779085489E-01 -0.80168245619E-01  0.12702512679E+00  0.20607318742E-01 0.  0.
         14    1    1    2    0    0 -0.14386028629E-01  0.20716400016E-01  0.17581858924E-02  0.25282766205E-01  0.00000000000E+00 0. -1.
     999901    1    3    3    0    0  0.36505178039E-01 -0.11449548551E+00  0.78410059727E-01  0.89162210700E+00  0.88000000000E+00 0.  1.
        -11    1    4    4    0    0 -0.22615033310E-01  0.72226112607E-01 -0.53284617455E-01  0.92561129272E-01  0.51100000000E-03 0.  1.
         11    1    4    4    0    0  0.49588390081E-03  0.21552972883E-01 -0.26883628165E-01  0.34463997522E-01  0.51100000000E-03 0. -1.
</event>
<event>
 8    1  0.1041149E+005  0.1043930E+01  0.7957747E-01            NaN
         13   -1    0    0    0    0  0.00000000000E+00  0.00000000000E+00  0.74505805969E-08  0.10566000000E+00  0.10566000000E+00 0. -1.
     999900   -1    0    0    0    0 -0.00000000000E+00 -0.00000000000E+00 -0.74505805969E-08  0.93827000000E+00  0.93827000000E+00 0.  1.
     999902    2    1    2    0    0  0.13765339034E-01  0.18523663653E-01  0.55917203486E-02  0.10201838843E+01  0.10199074859E+01 0.  0.
     999903    2    3    3    0    0 -0.12457142832E+00  0.24844888076E-01  0.14269586616E-01  0.12931221878E+00  0.19563220767E-01 0.  0.
         14    1    1    2    0    0 -0.13765339034E-01 -0.18523663653E-01 -0.55917203486E-02  0.23746115689E-01  0.00000000000E+00 0.  1.
     999901    1    3    3    0    0  0.13833676735E+00 -0.63212244233E-02 -0.86778662671E-02  0.89087166553E+00  0.88000000000E+00 0.  1.
        -11    1    4    4    0    0 -0.34903859182E-01  0.31814242494E-02 -0.39737640877E-02  0.35276802124E-01  0.51100000000E-03 0. -1.
         11    1    4    4    0    0 -0.89667569138E-01  0.21663463827E-01  0.18243350703E-01  0.94035416658E-01  0.51100000000E-03 0.  1.
</event>
<event>
 8    1  0.1041149E+005  0.1043930E+01  0.7957747E-01            NaN
         13   -1    0    0    0    0  0.00000000000E+00  0.00000000000E+00  0.74505805969E-08  0.10566000000E+00  0.10566000000E+00 0. -1.
     999900   -1    0    0    0    0 -0.00000000000E+00 -0.00000000000E+00 -0.74505805969E-08  0.93827000000E+00  0.93827000000E+00 0.  1.
     999902    2    1    2    0    0 -0.64490232008E-03  0.31449646927E-01 -0.64003525695E-03  0.10124672310E+01  0.10119782547E+01 0.  0.
     999903    2    3    3    0    0 -0.35718898283E-01  0.86642942016E-01  0.82093644781E-01  0.12617080942E+00  0.19921534589E-01 0.  0.
         14    1    1    2    0    0  0.64490232008E-03 -0.31449646927E-01  0.64003525695E-03  0.31462769044E-01  0.00000000000E+00 0. -1.
     999901    1    3    3    0    0  0.35073995963E-01 -0.55193295089E-01 -0.82733680038E-01  0.88629642154E+00  0.88000000000E+00 0.  1.
        -11    1    4    4    0    0 -0.19910754526E-01  0.49321831574E-01  0.59325898892E-01  0.79680013906E-01  0.51100000000E-03 0. -1.
         11    1    4    4    0    0 -0.15808143757E-01  0.37321110441E-01  0.22767745889E-01  0.46490795513E-01  0.51100000000E-03 0.  1.
</event>
<event>
 8    1  0.1041149E+005  0.1043930E+01  0.7957747E-01            NaN
         13   -1    0    0    0    0  0.00000000000E+00  0.00000000000E+00  0.74505805969E-08  0.10566000000E+00  0.10566000000E+00 0. -1.
     999900   -1    0    0    0    0 -0.00000000000E+00 -0.00000000000E+00 -0.74505805969E-08  0.93827000000E+00  0.93827000000E+00 0. -1.
     999902    2    1    2    0    0 -0.50261407757E-02 -0.15732859704E-01 -0.16378968089E-01  0.10206693989E+01  0.10204043152E+01 0.  0.
     999903    2    3    3    0    0  0.39527223005E-01 -0.32444426879E-01 -0.12260425425E+00  0.13300499721E+00  0.65942344483E-02 0.  0.
         14    1    1    2    0    0  0.50261407757E-02  0.15732859704E-01  0.16378968089E-01  0.23260601050E-01  0.00000000000E+00 0. -1.
     999901    1    3    3    0    0 -0.44553363780E-01  0.16711567175E-01  0.10622528616E+00  0.88766440174E+00  0.88000000000E+00 0.  1.
        -11    1    4    4    0    0  0.23004732418E-01 -0.21782181503E-01 -0.69766431689E-01  0.76624390740E-01  0.51100000000E-03 0. -1.
         11    1    4    4    0    0  0.16522490587E-01 -0.10662245376E-01 -0.52837822561E-01  0.56380606467E-01  0.51100000000E-03 0.  1.
</event>
<event>
 8    1  0.1041149E+005  0.1043930E+01  0.7957747E-01            NaN
         13   -1    0    0    0    0  0.00000000000E+00  0.00000000000E+00  0.74505805969E-08  0.10566000000E+00  0.10566000000E+00 0.  1.
     999900   -1    0    0    0    0 -0.00000000000E+00 -0.00000000000E+00 -0.74505805969E-08  0.93827000000E+00  0.93827000000E+00 0. -1.
     999902    2    1    2    0    0  0.13117598868E-01 -0.36220047134E-02 -0.20415756944E-01  0.10193944452E+01  0.10190991323E+01 0.  0.
     999903    2    3    3    0    0  0.13018804994E-01  0.58928041487E-01 -0.11538001643E+00  0.13207785647E+00  0.22136138357E-01 0.  0.
         14    1    1    2    0    0 -0.13117598868E-01  0.36220047134E-02  0.20415756944E-01  0.24535554810E-01  0.00000000000E+00 0.  1.
     999901    1    3    3    0    0  0.98793874936E-04 -0.62550046201E-01  0.94964259485E-01  0.88731658872E+00  0.88000000000E+00 0.  1.
        -11    1    4    4    0    0 -0.11510415560E-02  0.42689972770E-01 -0.75329809904E-01  0.86594457403E-01  0.51100000000E-03 0. -1.
         11    1    4    4    0    0  0.14169846550E-01  0.16238068717E-01 -0.40050206525E-01  0.45483399066E-01  0.51100000000E-03 0.  1.
</event>
<event>
 8    1  0.1041149E+005  0.1043930E+01  0.7957747E-01            NaN
         13   -1    0    0    0    0  0.00000000000E+00  0.00000000000E+00  0.74505805969E-08  0.10566000000E+00  0.10566000000E+00 0. -1.
     999900   -1    0    0    0    0 -0.00000000000E+00 -0.00000000000E+00 -0.74505805969E-08  0.93827000000E+00  0.93827000000E+00 0. -1.
     999902    2    1    2    0    0  0.12524616579E-01  0.11879516240E-01 -0.17116666824E-01  0.10196201417E+01  0.10193303018E+01 0.  0.
     999903    2    3    3    0    0 -0.68763690710E-01  0.10455484487E+00  0.20499635468E-01  0.13023187350E+00  0.29663868175E-01 0.  0.
         14    1    1    2    0    0 -0.12524616579E-01 -0.11879516240E-01  0.17116666824E-01  0.24309858282E-01  0.00000000000E+00 0. -1.
     999901    1    3    3    0    0  0.81288307289E-01 -0.92675328635E-01 -0.37616302292E-01  0.88938826821E+00  0.88000000000E+00 0. -1.
        -11    1    4    4    0    0 -0.55052441500E-02  0.30933622628E-01  0.74174039552E-02  0.32287392656E-01  0.51100000000E-03 0. -1.
         11    1    4    4    0    0 -0.63258446560E-01  0.73621222246E-01  0.13082231513E-01  0.97944480848E-01  0.51100000000E-03 0.  1.
</event>
<event>
 8    1  0.1041149E+005  0.1043930E+01  0.7957747E-01            NaN
         13   -1    0    0    0    0  0.00000000000E+00  0.00000000000E+00  0.74505805969E-08  0.10566000000E+00  0.10566000000E+00 0. -1.
     999900   -1    0    0    0    0 -0.00000000000E+00 -0.00000000000E+00 -0.74505805969E-08  0.93827000000E+00  0.93827000000E+00 0.  1.
     999902    2    1    2    0    0 -0.20980970988E-02 -0.20790054505E-01  0.12915345212E-01  0.10193650958E+01  0.10190690673E+01 0.  0.
     999903    2    3    3    0    0 -0.90178298253E-01 -0.13007151966E-01 -0.88349364379E-01  0.12915543686E+00  0.23962579308E-01 0.  0.
         14    1    1    2    0    0  0.20980970988E-02  0.20790054505E-01 -0.12915345212E-01  0.24564904227E-01  0.00000000000E+00 0.  1.
     999901    1    3    3    0    0  0.88080201155E-01 -0.77829025385E-02  0.10126470959E+00  0.89020965891E+00  0.88000000000E+00 0. -1.
        -11    1    4    4    0    0 -0.40972463140E-01  0.54063701045E-02 -0.44367063777E-01  0.60635542735E-01  0.51100000000E-03 0.  1.
         11    1    4    4    0    0 -0.49205835113E-01 -0.18413522071E-01 -0.43982300601E-01  0.68519894129E-01  0.51100000000E-03 0. -1.
</event>
<event>
 8    1  0.1041149E+005  0.1043930E+01  0.7957747E-01            NaN
         13   -1    0    0    0    0  0.00000000000E+00  0.00000000000E+00  0.74505805969E-08  0.10566000000E+00  0.10566000000E+00 0. -1.
     999900   -1    0    0    0    0 -0.00000000000E+00 -0.00000000000E+00 -0.74505805969E-08  0.93827000000E+00  0.93827000000E+00 0.  1.
     999902    2    1    2    0    0 -0.20886082045E-01  0.73002186669E-02  0.14235398975E-01  0.10176209103E+01  0.10172807621E+01 0.  0.
     999903    2    3    3    0    0  0.10016046537E+00 -0.72738331256E-01  0.10660941821E-01  0.12572898141E+00  0.19264927405E-01 0.  0.
         14    1    1    2    0    0  0.20886082045E-01 -0.73002186669E-02 -0.14235398975E-01  0.26309089679E-01  0.00000000000E+00 0.  1.
     999901    1    3    3    0    0 -0.12104654742E+00  0.80038549923E-01  0.35744571537E-02  0.89189192891E+00  0.88000000000E+00 0.  1.
        -11    1    4    4    0    0  0.91556546053E-01 -0.59959833454E-01  0.12709986765E-01  0.11017979687E+00  0.51100000000E-03 0. -1.
         11    1    4    4    0    0  0.86039193197E-02 -0.12778497802E-01 -0.20490449441E-02  0.15549184542E-01  0.51100000000E-03 0.  1.
</event>
<event>
 8    1  0.1041149E+005  0.1043930E+01  0.7957747E-01            NaN
         13   -1    0    0    0    0  0.00000000000E+00  0.00000000000E+00  0.74505805969E-08  0.10566000000E+00  0.10566000000E+00 0.  1.
     999900   -1    0    0    0    0 -0.00000000000E+00 -0.00000000000E+00 -0.74505805969E-08  0.93827000000E+00  0.93827000000E+00 0.  1.
     999902    2    1    2    0    0  0.10740441517E-01  0.17948844430E-01 -0.11548485021E-01  0.10200367874E+01  0.10197569132E+01 0.  0.
     999903    2    3    3    0    0  0.25448321385E-01  0.12763927386E+00 -0.17911512916E-01  0.13308199706E+00  0.21227207884E-01 0.  0.
         14    1    1    2    0    0 -0.10740441517E-01 -0.17948844430E-01  0.11548485021E-01  0.23893212564E-01  0.00000000000E+00 0.  1.
     999901    1    3    3    0    0 -0.14707879868E-01 -0.10969042943E+00  0.63630278953E-02  0.88695479037E+00  0.88000000000E+00 0.  1.
        -11    1    4    4    0    0  0.27381659086E-01  0.11107219220E+00 -0.10683117779E-01  0.11489637619E+00  0.51100000000E-03 0. -1.
         11    1    4    4    0    0 -0.19333377007E-02  0.16567081658E-01 -0.72283951369E-02  0.18185620874E-01  0.51100000000E-03 0.  1.
</event>
<event>
 8    1  0.1041149E+005  0.1043930E+01  0.7957747E-01            NaN
         13   -1    0    0    0    0  0.00000000000E+00  0.00000000000E+00  0.74505805969E-08  0.10566000000E+00  0.10566000000E+00 0. -1.
     999900   -1    0    0    0    0 -0.00000000000E+00 -0.00000000000E+00 -0.74505805969E-08  0.93827000000E+00  0.93827000000E+00 0. -1.
     999902    2    1    2    0    0 -0.42472575719E-02  0.95508032277E-02 -0.22322724903E-01  0.10192812457E+01  0.10189831681E+01 0.  0.
     999903    2    3    3    0    0 -0.35189020364E-01  0.25935312087E-01  0.11809316258E+00  0.12746149587E+00  0.19736522319E-01 0.  0.
         14    1    1    2    0    0  0.42472575719E-02 -0.95508032277E-02  0.22322724903E-01  0.24648754254E-01  0.00000000000E+00 0. -1.
     999901    1    3    3    0    0  0.30941762792E-01 -0.16384508859E-01 -0.14041588748E+00  0.89181974988E+00  0.88000000000E+00 0. -1.
        -11    1    4    4    0    0 -0.23742498094E-01  0.26531295456E-01  0.98725695100E-01  0.10495065435E+00  0.51100000000E-03 0.  1.
         11    1    4    4    0    0 -0.11446522270E-01 -0.59598336939E-03  0.19367467480E-01  0.22510841518E-01  0.51100000000E-03 0. -1.
</event>
<event>
 8    1  0.1041149E+005  0.1043930E+01  0.7957747E-01            NaN
         13   -1    0    0    0    0  0.00000000000E+00  0.00000000000E+00  0.74505805969E-08  0.10566000000E+00  0.10566000000E+00 0.  1.
     999900   -1    0    0    0    0 -0.00000000000E+00 -0.00000000000E+00 -0.74505805969E-08  0.93827000000E+00  0.93827000000E+00 0.  1.
     999902    2    1    2    0    0 -0.17323296460E-01  0.10313970585E-01  0.12400592362E-01  0.10202604144E+01  0.10199858156E+01 0.  0.
     999903    2    3    3    0    0 -0.17925590933E-01  0.60304332525E-01 -0.11217145761E+00  0.13008200835E+00  0.19518034269E-01 0.  0.
         14    1    1    2    0    0  0.17323296460E-01 -0.10313970585E-01 -0.12400592362E-01  0.23669585556E-01  0.00000000000E+00 0. -1.
     999901    1    3    3    0    0  0.60229447306E-03 -0.49990361940E-01  0.12457204997E+00  0.89017840610E+00  0.88000000000E+00 0. -1.
        -11    1    4    4    0    0 -0.11382150511E-01  0.46404951347E-01 -0.66453830214E-01  0.81849529814E-01  0.51100000000E-03 0. -1.
         11    1    4    4    0    0 -0.65434404214E-02  0.13899381179E-01 -0.45717627397E-01  0.48232478533E-01  0.51100000000E-03 0.  1.
</event>
<event>
 8    1  0.1041149E+005  0.1043930E+01  0.7957747E-01            NaN
         13   -1    0    0    0    0  0.00000000000E+00  0.00000000000E+00  0.74505805969E-08  0.10566000000E+00  0.10566000000E+00 0. -1.
     999900   -1    0    0    0    0 -0.00000000000E+00 -0.00000000000E+00 -0.74505805969E-08  0.93827000000E+00  0.93827000000E+00 0. -1.
     999902    2    1    2    0    0  0.20015299149E-01 -0.14624346089E-01  0.89650325743E-02  0.10175698879E+01  0.10172284018E+01 0.  0.
     999903    2    3    3    0    0 -0.12017892764E+00  0.22714398967E-01 -0.13928194811E-01  0.12539686494E+00  0.23905241218E-01 0.  0.
         14    1    1    2    0    0 -0.20015299149E-01  0.14624346089E-01 -0.89650325743E-02  0.26360112057E-01  0.00000000000E+00 0.  1.
     999901    1    3    3    0    0  0.14019422679E+00 -0.37338745056E-01  0.22893227386E-01  0.89217302300E+00  0.88000000000E+00 0.  1.
        -11    1    4    4    0    0 -0.54766058963E-01  0.22327595410E-01 -0.46682811084E-02  0.59328717335E-01  0.51100000000E-03 0. -1.
         11    1    4    4    0    0 -0.65412868678E-01  0.38680355681E-03 -0.92599137030E-02  0.66068147609E-01  0.51100000000E-03 0.  1.
</event>
<event>
 8    1  0.1041149E+005  0.1043930E+01  0.7957747E-01            NaN
         13   -1    0    0    0    0  0.00000000000E+00  0.00000000000E+00  0.74505805969E-08  0.10566000000E+00  0.10566000000E+00 0. -1.
     999900   -1    0    0    0    0 -0.00000000000E+00 -0.00000000000E+00 -0.74505805969E-08  0.93827000000E+00  0.93827000000E+00 0.  1.
     999902    2    1    2    0    0  0.15507377157E-01  0.16951945962E-01  0.98546625892E-03  0.10209339490E+01  0.10206749286E+01 0.  0.
     999903    2    3    3    0    0  0.19710949705E-01  0.59155925166E-01 -0.11518737396E+00  0.13228611397E+00  0.18534826956E-01 0.  0.
         14    1    1    2    0    0 -0.15507377157E-01 -0.16951945962E-01 -0.98546625892E-03  0.22996051007E-01  0.00000000000E+00 0. -1.
     999901    1    3    3    0    0 -0.42035725474E-02 -0.42203979204E-01  0.11617284022E+00  0.88864783502E+00  0.88000000000E+00 0. -1.
        -11    1    4    4    0    0  0.11618530012E-01  0.10495230914E-01 -0.25527900904E-01  0.29951209610E-01  0.51100000000E-03 0. -1.
         11    1    4    4    0    0  0.80924196927E-02  0.48660694252E-01 -0.89659473053E-01  0.10233490436E+00  0.51100000000E-03 0.  1.
</event>
<event>
 8    1  0.1041149E+005  0.1043930E+01  0.7957747E-01            NaN
         13   -1    0    0    0    0  0.00000000000E+00  0.00000000000E+00  0.74505805969E-08  0.10566000000E+00  0.10566000000E+00 0.  1.
     999900   -1    0    0    0    0 -0.00000000000E+00 -0.00000000000E+00 -0.74505805969E-08  0.93827000000E+00  0.93827000000E+00 0.  1.
     999902    2    1    2    0    0 -0.46110215107E-02  0.12425139518E-01  0.18565606250E-01  0.10211193151E+01  0.10208645004E+01 0.  0.
     999903    2    3    3    0    0  0.10489326340E+00 -0.39776697406E-01  0.65515671958E-01  0.13155732799E+00  0.20742345861E-01 0.  0.
         14    1    1    2    0    0  0.46110215107E-02 -0.12425139518E-01 -0.18565606250E-01  0.22810684927E-01  0.00000000000E+00 0. -1.
     999901    1    3    3    0    0 -0.10950428491E+00  0.52201836924E-01 -0.46950065708E-01  0.88956198708E+00  0.88000000000E+00 0.  1.
        -11    1    4    4    0    0  0.31370643441E-01 -0.20803541414E-02  0.19015739125E-01  0.36746490972E-01  0.51100000000E-03 0.  1.
         11    1    4    4    0    0  0.73522619962E-01 -0.37696343264E-01  0.46499932833E-01  0.94810837018E-01  0.51100000000E-03 0. -1.
</event>
<event>
 8    1  0.1041149E+005  0.1043930E+01  0.7957747E-01            NaN
         13   -1    0    0    0    0  0.00000000000E+00  0.00000000000E+00  0.74505805969E-08  0.10566000000E+00  0.10566000000E+00 0. -1.
     999900   -1    0    0    0    0 -0.00000000000E+00 -0.00000000000E+00 -0.74505805969E-08  0.93827000000E+00  0.93827000000E+00 0. -1.
     999902    2    1    2    0    0  0.29308297106E-03  0.13339982284E-01  0.19297303428E-01  0.10204688205E+01  0.10201990917E+01 0.  0.
     999903    2    3    3    0    0  0.55118804795E-01  0.10834537996E+00  0.50703235658E-01  0.13310293318E+00  0.19203351618E-01 0.  0.
         14    1    1    2    0    0 -0.29308297106E-03 -0.13339982284E-01 -0.19297303428E-01  0.23461179522E-01  0.00000000000E+00 0.  1.
     999901    1    3    3    0    0 -0.54825721824E-01 -0.95005397680E-01 -0.31405932230E-01  0.88736588730E+00  0.88000000000E+00 0.  1.
        -11    1    4    4    0    0  0.28697253407E-01  0.76342610465E-01  0.34121321456E-01  0.88409570889E-01  0.51100000000E-03 0.  1.
         11    1    4    4    0    0  0.26421551388E-01  0.32002769498E-01  0.16581914202E-01  0.44693362291E-01  0.51100000000E-03 0. -1.
</event>
<event>
 8    1  0.1041149E+005  0.1043930E+01  0.7957747E-01            NaN
         13   -1    0    0    0    0  0.00000000000E+00  0.00000000000E+00  0.74505805969E-08  0.10566000000E+00  0.10566000000E+00 0. -1.
     999900   -1    0    0    0    0 -0.00000000000E+00 -0.00000000000E+00 -0.74505805969E-08  0.93827000000E+00  0.93827000000E+00 0.  1.
     999902    2    1    2    0    0 -0.86338589232E-02  0.14468014080E-01 -0.17540481178E-01  0.10196084986E+01  0.10193183776E+01 0.  0.
     999903    2    3    3    0    0 -0.11246669582E+00  0.47772095628E-01 -0.46961037793E-01  0.13239038052E+00  0.19772278452E-01 0.  0.
         14    1    1    2    0    0  0.86338589232E-02 -0.14468014080E-01  0.17540481178E-01  0.24321501419E-01  0.00000000000E+00 0.  1.
     999901    1    3    3    0    0  0.10383283689E+00 -0.33304081548E-01  0.29420556615E-01  0.88721811806E+00  0.88000000000E+00 0. -1.
        -11    1    4    4    0    0 -0.87513378727E-01  0.29022112767E-01 -0.39423987309E-01  0.10027654951E+00  0.51100000000E-03 0.  1.
         11    1    4    4    0    0 -0.24953317088E-01  0.18749982860E-01 -0.75370504843E-02  0.32113831008E-01  0.51100000000E-03 0. -1.
</event>
<event>
 8    1  0.1041149E+005  0.1043930E+01  0.7957747E-01            NaN
         13   -1    0    0    0    0  0.00000000000E+00  0.00000000000E+00  0.74505805969E-08  0.10566000000E+00  0.10566000000E+00 0.  1.
     999900   -1    0    0    0    0 -0.00000000000E+00 -0.00000000000E+00 -0.74505805969E-08  0.93827000000E+00  0.93827000000E+00 0. -1.
     999902    2    1    2    0    0 -0.21868920735E-01  0.11269109256E-01  0.27724915347E-02  0.10191725925E+01  0.10188718487E+01 0.  0.
     999903    2    3    3    0    0  0.81545799137E-01  0.50160016749E-01  0.83504212065E-01  0.12859709447E+00  0.19962831348E-01 0.  0.
         14    1    1    2    0    0  0.21868920735E-01 -0.11269109256E-01 -0.27724915347E-02  0.24757407515E-01  0.00000000000E+00 0.  1.
     999901    1    3    3    0    0 -0.10341471987E+00 -0.38890907493E-01 -0.80731720530E-01  0.89057549802E+00  0.88000000000E+00 0. -1.
        -11    1    4    4    0    0  0.61498863722E-01  0.43905173927E-01  0.73175572551E-01  0.10518887810E+00  0.51100000000E-03 0.  1.
         11    1    4    4    0    0  0.20046935416E-01  0.62548428216E-02  0.10328639514E-01  0.23408216367E-01  0.51100000000E-03 0. -1.
</event>
<event>
 8    1  0.1041149E+005  0.1043930E+01  0.7957747E-01            NaN
         13   -1    0    0    0    0  0.00000000000E+00  0.00000000000E+00  0.74505805969E-08  0.10566000000E+00  0.10566000000E+00 0. -1.
     999900   -1    0    0    0    0 -0.00000000000E+00 -0.00000000000E+00 -0.74505805969E-08  0.93827000000E+00  0.93827000000E+00 0.  1.
     999902    2    1    2    0    0 -0.41689024703E-02 -0.17537691643E-01 -0.15411638777E-01  0.10202135714E+01  0.10199378718E+01 0.  0.
     999903    2    3    3    0    0  0.44863899265E-01  0.28695234937E-01 -0.11870841348E+00  0.13161246696E+00  0.19848628686E-01 0.  0.
         14    1    1    2    0    0  0.41689024703E-02  0.17537691643E-01  0.15411638777E-01  0.23716428605E-01  0.00000000000E+00 0. -1.
     999901    1    3    3    0    0 -0.49032801736E-01 -0.46232926581E-01  0.10329677471E+00  0.88860110444E+00  0.88000000000E+00 0. -1.
        -11    1    4    4    0    0  0.86861500357E-02  0.29731315966E-02 -0.41908607508E-01  0.42905491702E-01  0.51100000000E-03 0. -1.
         11    1    4    4    0    0  0.36177749230E-01  0.25722103341E-01 -0.76799805977E-01  0.88706975254E-01  0.51100000000E-03 0.  1.
</event>
<event>
 8    1  0.1041149E+005  0.1043930E+01  0.7957747E-01            NaN
         13   -1    0    0    0    0  0.00000000000E+00  0.00000000000E+00  0.74505805969E-08  0.10566000000E+00  0.10566000000E+00 0.  1.
     999900   -1    0    0    0    0 -0.00000000000E+00 -0.00000000000E+00 -0.74505805969E-08  0.93827000000E+00  0.93827000000E+00 0. -1.
     999902    2    1    2    0    0  0.21972537441E-01 -0.30458882687E-02  0.86421644902E-02  0.10201233445E+01  0.10198455183E+01 0.  0.
     999903    2    3    3    0    0 -0.32299499146E-01  0.86811126927E-01 -0.87008101532E-01  0.12873750748E+00  0.20579278299E-01 0.  0.
         14    1    1    2    0    0 -0.21972537441E-01  0.30458882687E-02 -0.86421644902E-02  0.23806655456E-01  0.00000000000E+00 0. -1.
     999901    1    3    3    0    0  0.54272036587E-01 -0.89857015196E-01  0.95650266023E-01  0.89138583707E+00  0.88000000000E+00 0. -1.
        -11    1    4    4    0    0 -0.28183299180E-01  0.47548808667E-01 -0.47455127857E-01  0.72852164273E-01  0.51100000000E-03 0.  1.
         11    1    4    4    0    0 -0.41161999663E-02  0.39262318260E-01 -0.39552973675E-01  0.55885343203E-01  0.51100000000E-03 0. -1.
</event>
<event>
 8    1  0.1041149E+005  0.1043930E+01  0.7957747E-01            NaN
         13   -1    0    0    0    0  0.00000000000E+00  0.00000000000E+00  0.74505805969E-08  0.10566000000E+00  0.10566000000E+00 0. -1.
     999900   -1    0    0    0    0 -0.00000000000E+00 -0.00000000000E+00 -0.74505805969E-08  0.93827000000E+00  0.93827000000E+00 0. -1.
     999902    2    1    2    0    0 -0.12022725644E-03 -0.27092365066E-02  0.23714145399E-01  0.10200612944E+01  0.10197820008E+01 0.  0.
     999903    2    3    3    0    0  0.29061386434E-01  0.10727689864E+00  0.68339004961E-01  0.13161326853E+00  0.17289756825E-01 0.  0.
         14    1    1    2    0    0  0.12022725644E-03  0.27092365066E-02 -0.23714145399E-01  0.23868705642E-01  0.00000000000E+00 0.  1.
     999901    1    3    3    0    0 -0.29181613690E-01 -0.10998613515E+00 -0.44624859562E-01  0.88844802583E+00  0.88000000000E+00 0. -1.
        -11    1    4    4    0    0  0.16876020385E-01  0.52744682788E-01  0.43685252075E-01  0.70536969004E-01  0.51100000000E-03 0. -1.
         11    1    4    4    0    0  0.12185366048E-01  0.54532215854E-01  0.24653752885E-01  0.61076299528E-01  0.51100000000E-03 0.  1.
</event>
<event>
 7    1  0.1041149E+005  0.1043930E+01  0.7957747E-01            NaN
         13   -1    0    0    0    0  0.00000000000E+00  0.00000000000E+00  0.74505805969E-08  0.10566000000E+00  0.10566000000E+00 0.  1.
     999900   -1    0    0    0    0 -0.00000000000E+00 -0.00000000000E+00 -0.74505805969E-08  0.93827000000E+00  0.93827000000E+00 0.  1.
     999902    2    1    2    0    0 -0.11930444363E-01  0.20684439905E-01  0.36960238055E-02  0.10197671742E+01  0.10194808716E+01 0.  0.
         14    1    1    2    0    0  0.11930444363E-01 -0.20684439905E-01 -0.36960238055E-02  0.24162825763E-01  0.00000000000E+00 0. -1.
     999901    1    3    3    0    0 -0.42526222723E-01  0.77655432133E-01 -0.90154225279E-01  0.88902566335E+00  0.88000000000E+00 0.  1.
        -11    1    3    3    0    0 -0.87129868179E-02  0.35507125633E-03  0.44858012372E-01  0.45700597478E-01  0.51100000000E-03 0. -1.
         11    1    3    3    0    0  0.39308765178E-01 -0.57326063484E-01  0.48992236713E-01  0.85040913410E-01  0.51100000000E-03 0.  1.
</event>
<event>
 8    1  0.1041149E+005  0.1043930E+01  0.7957747E-01            NaN
         13   -1    0    0    0    0  0.00000000000E+00  0.00000000000E+00  0.74505805969E-08  0.10566000000E+00  0.10566000000E+00 0. -1.
     999900   -1    0    0    0    0 -0.00000000000E+00 -0.00000000000E+00 -0.74505805969E-08  0.93827000000E+00  0.93827000000E+00 0. -1.
     999902    2    1    2    0    0  0.15645603209E-01  0.83694124773E-02 -0.15105864977E-01  0.10206272293E+01  0.10203611724E+01 0.  0.
     999903    2    3    3    0    0 -0.63682419642E-01 -0.86728468565E-01 -0.70449847868E-01  0.13023433927E+00  0.20506687462E-01 0.  0.
         14    1    1    2    0    0 -0.15645603209E-01 -0.83694124773E-02  0.15105864977E-01  0.23302770687E-01  0.00000000000E+00 0.  1.
     999901    1    3    3    0    0  0.79328022851E-01  0.95097881042E-01  0.55343982891E-01  0.89039289004E+00  0.88000000000E+00 0. -1.
        -11    1    4    4    0    0 -0.32577989030E-01 -0.28605120035E-01 -0.23658966179E-01  0.49392166009E-01  0.51100000000E-03 0.  1.
         11    1    4    4    0    0 -0.31104430612E-01 -0.58123348530E-01 -0.46790881689E-01  0.80842173265E-01  0.51100000000E-03 0. -1.
</event>
<event>
 8    1  0.1041149E+005  0.1043930E+01  0.7957747E-01            NaN
         13   -1    0    0    0    0  0.00000000000E+00  0.00000000000E+00  0.74505805969E-08  0.10566000000E+00  0.10566000000E+00 0.  1.
     999900   -1    0    0    0    0 -0.00000000000E+00 -0.00000000000E+00 -0.74505805969E-08  0.93827000000E+00  0.93827000000E+00 0. -1.
     999902    2    1    2    0    0  0.17485620091E-01 -0.21713191500E-02  0.16802646773E-01  0.10195827111E+01  0.10192919672E+01 0.  0.
     999903    2    3    3    0    0  0.11789090593E-01 -0.52132860294E-01  0.11944080254E+00  0.13219148001E+00  0.18752714387E-01 0.  0.
         14    1    1    2    0    0 -0.17485620091E-01  0.21713191500E-02 -0.16802646773E-01  0.24347288872E-01  0.00000000000E+00 0.  1.
     999901    1    3    3    0    0  0.56965294980E-02  0.49961541144E-01 -0.10263815577E+00  0.88739123112E+00  0.88000000000E+00 0. -1.
        -11    1    4    4    0    0 -0.40501937242E-02 -0.21915087840E-01  0.41478081905E-01  0.47088932286E-01  0.51100000000E-03 0. -1.
         11    1    4    4    0    0  0.15839284317E-01 -0.30217772454E-01  0.77962720635E-01  0.85102547727E-01  0.51100000000E-03 0.  1.
</event>
<event>
 8    1  0.1041149E+005  0.1043930E+01  0.7957747E-01            NaN
         13   -1    0    0    0    0  0.00000000000E+00  0.00000000000E+00  0.74505805969E-08  0.10566000000E+00  0.10566000000E+00 0.  1.
     999900   -1    0    0    0    0 -0.00000000000E+00 -0.00000000000E+00 -0.74505805969E-08  0.93827000000E+00  0.93827000000E+00 0.  1.
     999902    2    1    2    0    0 -0.19762101319E-01 -0.11922676543E-01  0.16578755678E-02  0.10207904361E+01  0.10205281354E+01 0.  0.
     999903    2    3    3    0    0 -0.18184508533E-01 -0.72181486054E-01  0.10802805356E+00  0.13233772063E+00  0.17388751095E-01 0.  0.
         14    1    1    2    0    0  0.19762101319E-01  0.11922676543E-01 -0.16578755678E-02  0.23139563866E-01  0.00000000000E+00 0. -1.
     999901    1    3    3    0    0 -0.15775927859E-02  0.60258809511E-01 -0.10637017800E+00  0.88845271551E+00  0.88000000000E+00 0.  1.
        -11    1    4    4    0    0 -0.12628259934E-01 -0.18121022253E-01  0.31104815069E-01  0.38152523350E-01  0.51100000000E-03 0. -1.
         11    1    4    4    0    0 -0.55562485996E-02 -0.54060463801E-01  0.76923238495E-01  0.94185197279E-01  0.51100000000E-03 0.  1.
</event>
<event>
 8    1  0.1041149E+005  0.1043930E+01  0.7957747E-01            NaN
         13   -1    0    0    0    0  0.00000000000E+00  0.00000000000E+00  0.74505805969E-08  0.10566000000E+00  0.10566000000E+00 0.  1.
     999900   -1    0    0    0    0 -0.00000000000E+00 -0.00000000000E+00 -0.74505805969E-08  0.93827000000E+00  0.93827000000E+00 0. -1.
     999902    2    1    2    0    0 -0.14549796559E-01 -0.77911356698E-02 -0.17526496044E-01  0.10198556062E+01  0.10195714202E+01 0.  0.
     999903    2    3    3    0    0  0.11027449845E+00 -0.55485782935E-01  0.27816278822E-01  0.12861385937E+00  0.22992223426E-01 0.  0.
         14    1    1    2    0    0  0.14549796559E-01  0.77911356698E-02  0.17526496044E-01  0.24074393835E-01  0.00000000000E+00 0.  1.
     999901    1    3    3    0    0 -0.12482429501E+00  0.47694647266E-01 -0.45342774866E-01  0.89124174680E+00  0.88000000000E+00 0. -1.
        -11    1    4    4    0    0  0.27379315680E-01 -0.13507359433E-01  0.17316994815E-01  0.35102921765E-01  0.51100000000E-03 0. -1.
         11    1    4    4    0    0  0.82895182767E-01 -0.41978423502E-01  0.10499284007E-01  0.93510937603E-01  0.51100000000E-03 0.  1.
</event>
<event>
 8    1  0.1041149E+005  0.1043930E+01  0.7957747E-01            NaN
         13   -1    0    0    0    0  0.00000000000E+00  0.00000000000E+00  0.74505805969E-08  0.10566000000E+00  0.10566000000E+00 0.  1.
     999900   -1    0    0    0    0 -0.00000000000E+00 -0.00000000000E+00 -0.74505805969E-08  0.93827000000E+00  0.93827000000E+00 0.  1.
     999902    2    1    2    0    0  0.53690267955E-02  0.10754837809E-01 -0.20704957271E-01  0.10199886500E+01  0.10197076335E+01 0.  0.
     999903    2    3    3    0    0  0.64485060143E-01  0.11316667330E+00  0.82844696719E-03  0.13181829642E+00  0.20257295485E-01 0.  0.
         14    1    1    2    0    0 -0.53690267955E-02 -0.10754837809E-01  0.20704957271E-01  0.23941350017E-01  0.00000000000E+00 0.  1.
     999901    1    3    3    0    0 -0.59116033348E-01 -0.10241183549E+00 -0.21533404238E-01  0.88817035356E+00  0.88000000000E+00 0. -1.
        -11    1    4    4    0    0  0.32444858947E-01  0.55005384325E-01  0.10475013833E-01  0.64716676465E-01  0.51100000000E-03 0.  1.
         11    1    4    4    0    0  0.32040201196E-01  0.58161288972E-01 -0.96465668655E-02  0.67101619958E-01  0.51100000000E-03 0. -1.
</event>
<event>
 8    1  0.1041149E+005  0.1043930E+01  0.7957747E-01            NaN
         13   -1    0    0    0    0  0.00000000000E+00  0.00000000000E+00  0.74505805969E-08  0.10566000000E+00  0.10566000000E+00 0. -1.
     999900   -1    0    0    0    0 -0.00000000000E+00 -0.00000000000E+00 -0.74505805969E-08  0.93827000000E+00  0.93827000000E+00 0. -1.
     999902    2    1    2    0    0  0.19957603037E-01  0.75063421656E-02  0.92713356363E-02  0.10206790053E+01  0.10204141429E+01 0.  0.
     999903    2    3    3    0    0 -0.27715653389E-01  0.26380498972E-01 -0.12200053032E+00  0.12946563240E+00  0.20325658792E-01 0.  0.
         14    1    1    2    0    0 -0.19957603037E-01 -0.75063421656E-02 -0.92713356363E-02  0.23250994735E-01  0.00000000000E+00 0.  1.
     999901    1    3    3    0    0  0.47673256427E-01 -0.18874156806E-01  0.13127186596E+00  0.89121337286E+00  0.88000000000E+00 0.  1.
        -11    1    4    4    0    0 -0.15500379832E-01  0.10022151070E-01 -0.30013368334E-01  0.35238738439E-01  0.51100000000E-03 0.  1.
         11    1    4    4    0    0 -0.12215273558E-01  0.16358347902E-01 -0.91987161990E-01  0.94226893965E-01  0.51100000000E-03 0. -1.
</event>
<event>
 8    1  0.1041149E+005  0.1043930E+01  0.7957747E-01            NaN
         13   -1    0    0    0    0  0.00000000000E+00  0.00000000000E+00  0.74505805969E-08  0.10566000000E+00  0.10566000000E+00 0. -1.
     999900   -1    0    0    0    0 -0.00000000000E+00 -0.00000000000E+00 -0.74505805969E-08  0.93827000000E+00  0.93827000000E+00 0.  1.
     999902    2    1    2    0    0  0.71819262860E-02  0.19424722425E-01  0.11099400283E-03  0.10232198038E+01  0.10230101929E+01 0.  0.
     999903    2    3    3    0    0 -0.82525059806E-01 -0.87055985801E-01  0.50861831384E-01  0.13082912027E+00  0.11840720387E-01 0.  0.
         14    1    1    2    0    0 -0.71819262860E-02 -0.19424722425E-01 -0.11099400283E-03  0.20710196188E-01  0.00000000000E+00 0. -1.
     999901    1    3    3    0    0  0.89706986092E-01  0.10648070823E+00 -0.50750837381E-01  0.89239068354E+00  0.88000000000E+00 0.  1.
        -11    1    4    4    0    0 -0.50277852143E-01 -0.59185581706E-01  0.28756572143E-01  0.82813024703E-01  0.51100000000E-03 0.  1.
         11    1    4    4    0    0 -0.32247207663E-01 -0.27870404095E-01  0.22105259240E-01  0.48016095568E-01  0.51100000000E-03 0. -1.
</event>
<event>
 8    1  0.1041149E+005  0.1043930E+01  0.7957747E-01            NaN
         13   -1    0    0    0    0  0.00000000000E+00  0.00000000000E+00  0.74505805969E-08  0.10566000000E+00  0.10566000000E+00 0. -1.
     999900   -1    0    0    0    0 -0.00000000000E+00 -0.00000000000E+00 -0.74505805969E-08  0.93827000000E+00  0.93827000000E+00 0.  1.
     999902    2    1    2    0    0  0.10807591419E-01  0.16002060709E-01  0.11807107898E-01  0.10212964458E+01  0.10210456172E+01 0.  0.
     999903    2    3    3    0    0 -0.96620661502E-01 -0.14017314905E-01 -0.81832327195E-01  0.12932652688E+00  0.22288639128E-01 0.  0.
         14    1    1    2    0    0 -0.10807591419E-01 -0.16002060709E-01 -0.11807107898E-01  0.22633554209E-01  0.00000000000E+00 0. -1.
     999901    1    3    3    0    0  0.10742825292E+00  0.30019375614E-01  0.93639435094E-01  0.89196991891E+00  0.88000000000E+00 0. -1.
        -11    1    4    4    0    0 -0.84970521218E-01 -0.17372811889E-01 -0.64129434988E-01  0.10786403303E+00  0.51100000000E-03 0.  1.
         11    1    4    4    0    0 -0.11650140284E-01  0.33554969841E-02 -0.17702892208E-01  0.21462493848E-01  0.51100000000E-03 0. -1.
</event>
<event>
 8    1  0.1041149E+005  0.1043930E+01  0.7957747E-01            NaN
         13   -1    0    0    0    0  0.00000000000E+00  0.00000000000E+00  0.74505805969E-08  0.10566000000E+00  0.10566000000E+00 0. -1.
     999900   -1    0    0    0    0 -0.00000000000E+00 -0.00000000000E+00 -0.74505805969E-08  0.93827000000E+00  0.93827000000E+00 0.  1.
     999902    2    1    2    0    0  0.91471285632E-02  0.15092730554E-01 -0.18612327658E-01  0.10182808437E+01  0.10179577582E+01 0.  0.
     999903    2    3    3    0    0 -0.61382800886E-01  0.10728751814E+00 -0.36034042083E-01  0.13048702423E+00  0.21212060520E-01 0.  0.
         14    1    1    2    0    0 -0.91471285632E-02 -0.15092730554E-01  0.18612327658E-01  0.25649156270E-01  0.00000000000E+00 0.  1.
     999901    1    3    3    0    0  0.70529929449E-01 -0.92194787582E-01  0.17421714425E-01  0.88779381950E+00  0.88000000000E+00 0. -1.
        -11    1    4    4    0    0 -0.42017352681E-01  0.71175906468E-01 -0.34247283287E-01  0.89468458807E-01  0.51100000000E-03 0.  1.
         11    1    4    4    0    0 -0.19365448205E-01  0.36111611668E-01 -0.17867587968E-02  0.41018565424E-01  0.51100000000E-03 0. -1.
</event>
<event>
 8    1  0.1041149E+005  0.1043930E+01  0.7957747E-01            NaN
         13   -1    0    0    0    0  0.00000000000E+00  0.00000000000E+00  0.74505805969E-08  0.10566000000E+00  0.10566000000E+00 0.  1.
     999900   -1    0    0    0    0 -0.00000000000E+00 -0.00000000000E+00 -0.74505805969E-08  0.93827000000E+00  0.93827000000E+00 0.  1.
     999902    2    1    2    0    0  0.91415295541E-02 -0.18490329430E-01 -0.11866791469E-01  0.10201333493E+01  0.10198557593E+01 0.  0.
     999903    2    3    3    0    0 -0.69548837629E-01 -0.49676377318E-01 -0.98173943889E-01  0.13186893594E+00  0.21130776809E-01 0.  0.
         14    1    1    2    0    0 -0.91415295541E-02  0.18490329430E-01  0.11866791469E-01  0.23796650706E-01  0.00000000000E+00 0. -1.
     999901    1    3    3    0    0  0.78690367183E-01  0.31186047888E-01  0.86307152420E-01  0.88826441335E+00  0.88000000000E+00 0. -1.
        -11    1    4    4    0    0  0.70247082307E-03 -0.31324602189E-02 -0.69750659209E-02  0.76953517061E-02  0.51100000000E-03 0. -1.
         11    1    4    4    0    0 -0.70251308452E-01 -0.46543917100E-01 -0.91198877968E-01  0.12417358424E+00  0.51100000000E-03 0.  1.
</event>
<event>
 8    1  0.1041149E+005  0.1043930E+01  0.7957747E-01            NaN
         13   -1    0    0    0    0  0.00000000000E+00  0.00000000000E+00  0.74505805969E-08  0.10566000000E+00  0.10566000000E+00 0.  1.
     999900   -1    0    0    0    0 -0.00000000000E+00 -0.00000000000E+00 -0.74505805969E-08  0.93827000000E+00  0.93827000000E+00 0.  1.
     999902    2    1    2    0    0 -0.21907720959E-01 -0.10242357909E-01 -0.65927731464E-02  0.10188637121E+01  0.10185553225E+01 0.  0.
     999903    2    3    3    0    0 -0.95342844041E-01  0.81699529272E-01  0.27982347159E-01  0.13035852532E+00  0.21101241172E-01 0.  0.
         14    1    1    2    0    0  0.21907720959E-01  0.10242357909E-01  0.65927731464E-02  0.25066287936E-01  0.00000000000E+00 0.  1.
     999901    1    3    3    0    0  0.73435123082E-01 -0.91941887180E-01 -0.34575120305E-01  0.88850518674E+00  0.88000000000E+00 0.  1.
        -11    1    4    4    0    0 -0.63799692589E-01  0.62092862521E-01  0.11669963153E-01  0.89790720632E-01  0.51100000000E-03 0. -1.
         11    1    4    4    0    0 -0.31543151452E-01  0.19606666751E-01  0.16312384006E-01  0.40567804692E-01  0.51100000000E-03 0.  1.
</event>
<event>
 8    1  0.1041149E+005  0.1043930E+01  0.7957747E-01            NaN
         13   -1    0    0    0    0  0.00000000000E+00  0.00000000000E+00  0.74505805969E-08  0.10566000000E+00  0.10566000000E+00 0.  1.
     999900   -1    0    0    0    0 -0.00000000000E+00 -0.00000000000E+00 -0.74505805969E-08  0.93827000000E+00  0.93827000000E+00 0.  1.
     999902    2    1    2    0    0  0.21993390793E-01  0.82203848557E-02  0.15110410584E-02  0.10204019909E+01  0.10201307053E+01 0.  0.
     999903    2    3    3    0    0 -0.58240893226E-01 -0.11942119220E-01 -0.11289758834E+00  0.12914815426E+00  0.19969087071E-01 0.  0.
         14    1    1    2    0    0 -0.21993390793E-01 -0.82203848557E-02 -0.15110410584E-02  0.23528009071E-01  0.00000000000E+00 0.  1.
     999901    1    3    3    0    0  0.80234284019E-01  0.20162504075E-01  0.11440862940E+00  0.89125383667E+00  0.88000000000E+00 0. -1.
        -11    1    4    4    0    0 -0.16164353073E-01 -0.95705298723E-02 -0.50193895098E-01  0.53596357884E-01  0.51100000000E-03 0. -1.
         11    1    4    4    0    0 -0.42076540153E-01 -0.23715893475E-02 -0.62703693247E-01  0.75551796372E-01  0.51100000000E-03 0.  1.
</event>
<event>
 8    1  0.1041149E+005  0.1043930E+01  0.7957747E-01            NaN
         13   -1    0    0    0    0  0.00000000000E+00  0.00000000000E+00  0.74505805969E-08  0.10566000000E+00  0.10566000000E+00 0.  1.
     999900   -1    0    0    0    0 -0.00000000000E+00 -0.00000000000E+00 -0.74505805969E-08  0.93827000000E+00  0.93827000000E+00 0. -1.
     999902    2    1    2    0    0 -0.17159489497E-01  0.36600214563E-02  0.49623978095E-02  0.10256962612E+01  0.10255341784E+01 0.  0.
     999903    2    3    3    0    0  0.12936301526E+00 -0.23882273430E-01  0.56936392387E-02  0.13315609010E+00  0.19823574355E-01 0.  0.
         14    1    1    2    0    0  0.17159489497E-01 -0.36600214563E-02 -0.49623978095E-02  0.18233738752E-01  0.00000000000E+00 0. -1.
     999901    1    3    3    0    0 -0.14652250476E+00  0.27542294886E-01 -0.73124142919E-03  0.89254017115E+00  0.88000000000E+00 0. -1.
        -11    1    4    4    0    0  0.11503649483E+00 -0.27249156785E-01  0.65791352322E-02  0.11840379145E+00  0.51100000000E-03 0.  1.
         11    1    4    4    0    0  0.14326520434E-01  0.33668833552E-02 -0.88549599348E-03  0.14752298648E-01  0.51100000000E-03 0. -1.
</event>
<event>
 8    1  0.1041149E+005  0.1043930E+01  0.7957747E-01            NaN
         13   -1    0    0    0    0  0.00000000000E+00  0.00000000000E+00  0.74505805969E-08  0.10566000000E+00  0.10566000000E+00 0. -1.
     999900   -1    0    0    0    0 -0.00000000000E+00 -0.00000000000E+00 -0.74505805969E-08  0.93827000000E+00  0.93827000000E+00 0.  1.
     999902    2    1    2    0    0  0.17795194536E-01  0.15647973895E-01  0.11649647526E-02  0.10202047987E+01  0.10199288926E+01 0.  0.
     999903    2    3    3    0    0 -0.51141051552E-01  0.28747890395E-01 -0.11405896370E+00  0.12992373769E+00  0.20709467885E-01 0.  0.
         14    1    1    2    0    0 -0.17795194536E-01 -0.15647973895E-01 -0.11649647526E-02  0.23725201337E-01  0.00000000000E+00 0.  1.
     999901    1    3    3    0    0  0.68936246088E-01 -0.13099916500E-01  0.11522392845E+00  0.89028106097E+00  0.88000000000E+00 0. -1.
        -11    1    4    4    0    0 -0.33659249468E-01  0.81710624205E-02 -0.55262082414E-01  0.65221700450E-01  0.51100000000E-03 0. -1.
         11    1    4    4    0    0 -0.17481802083E-01  0.20576827975E-01 -0.58796881283E-01  0.64702037242E-01  0.51100000000E-03 0.  1.
</event>
<event>
 8    1  0.1041149E+005  0.1043930E+01  0.7957747E-01            NaN
         13   -1    0    0    0    0  0.00000000000E+00  0.00000000000E+00  0.74505805969E-08  0.10566000000E+00  0.10566000000E+00 0. -1.
     999900   -1    0    0    0    0 -0.00000000000E+00 -0.00000000000E+00 -0.74505805969E-08  0.93827000000E+00  0.93827000000E+00 0.  1.
     999902    2    1    2    0    0 -0.20520390526E-01 -0.54448526458E-02  0.10109495956E-01  0.10204154352E+01  0.10201444632E+01 0.  0.
     999903    2    3    3    0    0  0.35670398295E-01  0.91683916477E-01  0.82981406814E-01  0.13030211777E+00  0.20357066647E-01 0.  0.
         14    1    1    2    0    0  0.20520390526E-01  0.54448526458E-02 -0.10109495956E-01  0.23514564767E-01  0.00000000000E+00 0.  1.
     999901    1    3    3    0    0 -0.56190788822E-01 -0.97128769123E-01 -0.72871910858E-01  0.89011331747E+00  0.88000000000E+00 0.  1.
        -11    1    4    4    0    0 -0.10801018948E-02  0.18024043234E-01  0.12992583652E-01  0.22250867524E-01  0.51100000000E-03 0.  1.
         11    1    4    4    0    0  0.36750500190E-01  0.73659873244E-01  0.69988823162E-01  0.10805125024E+00  0.51100000000E-03 0. -1.
</event>
<event>
 8    1  0.1041149E+005  0.1043930E+01  0.7957747E-01            NaN
         13   -1    0    0    0    0  0.00000000000E+00  0.00000000000E+00  0.74505805969E-08  0.10566000000E+00  0.10566000000E+00 0.  1.
     999900   -1    0    0    0    0 -0.00000000000E+00 -0.00000000000E+00 -0.74505805969E-08  0.93827000000E+00  0.93827000000E+00 0. -1.
     999902    2    1    2    0    0  0.14787979382E-01  0.75658346460E-02  0.15600055274E-01  0.10211421104E+01  0.10208878105E+01 0.  0.
     999903    2    3    3    0    0  0.51025749344E-01 -0.38707894149E-01  0.11271838749E+00  0.13385049858E+00  0.33295539127E-01 0.  0.
         14    1    1    2    0    0 -0.14787979382E-01 -0.75658346460E-02 -0.15600055274E-01  0.22787889605E-01  0.00000000000E+00 0. -1.
     999901    1    3    3    0    0 -0.36237769962E-01  0.46273728795E-01 -0.97118332216E-01  0.88729161182E+00  0.88000000000E+00 0. -1.
        -11    1    4    4    0    0  0.31969589520E-01 -0.35844446921E-02  0.52677112667E-01  0.61725539429E-01  0.51100000000E-03 0. -1.
         11    1    4    4    0    0  0.19056159825E-01 -0.35123449457E-01  0.60041274822E-01  0.72124959149E-01  0.51100000000E-03 0.  1.
</event>
<event>
 8    1  0.1041149E+005  0.1043930E+01  0.7957747E-01            NaN
         13   -1    0    0    0    0  0.00000000000E+00  0.00000000000E+00  0.74505805969E-08  0.10566000000E+00  0.10566000000E+00 0. -1.
     999900   -1    0    0    0    0 -0.00000000000E+00 -0.00000000000E+00 -0.74505805969E-08  0.93827000000E+00  0.93827000000E+00 0.  1.
     999902    2    1    2    0    0 -0.21267255744E-02  0.92637192391E-02 -0.21663364086E-01  0.10202732716E+01  0.10199989745E+01 0.  0.
     999903    2    3    3    0    0 -0.28180457368E-01  0.12478815320E+00 -0.27075484460E-01  0.13232395837E+00  0.20256523518E-01 0.  0.
         14    1    1    2    0    0  0.21267255744E-02 -0.92637192391E-02  0.21663364086E-01  0.23656728416E-01  0.00000000000E+00 0. -1.
     999901    1    3    3    0    0  0.26053731793E-01 -0.11552443396E+00  0.54121203733E-02  0.88794931321E+00  0.88000000000E+00 0. -1.
        -11    1    4    4    0    0 -0.10849734526E-01  0.55886005203E-01 -0.19601601600E-02  0.56965477841E-01  0.51100000000E-03 0. -1.
         11    1    4    4    0    0 -0.17330722842E-01  0.68902147996E-01 -0.25115324299E-01  0.75358480534E-01  0.51100000000E-03 0.  1.
</event>
<event>
 8    1  0.1041149E+005  0.1043930E+01  0.7957747E-01            NaN
         13   -1    0    0    0    0  0.00000000000E+00  0.00000000000E+00  0.74505805969E-08  0.10566000000E+00  0.10566000000E+00 0. -1.
     999900   -1    0    0    0    0 -0.00000000000E+00 -0.00000000000E+00 -0.74505805969E-08  0.93827000000E+00  0.93827000000E+00 0. -1.
     999902    2    1    2    0    0  0.13834751108E-01 -0.92128840611E-02  0.17859437305E-01  0.10195325192E+01  0.10192405607E+01 0.  0.
     999903    2    3    3    0    0 -0.41411839148E-01 -0.98379531516E-01  0.74333436063E-01  0.13150538596E+00  0.19358051964E-01 0.  0.
         14    1    1    2    0    0 -0.13834751108E-01  0.92128840611E-02 -0.17859437305E-01  0.24397480849E-01  0.00000000000E+00 0.  1.
     999901    1    3    3    0    0  0.55246590256E-01  0.89166647454E-01 -0.56473998758E-01  0.88802713319E+00  0.88000000000E+00 0. -1.
        -11    1    4    4    0    0 -0.39917908361E-01 -0.75008997708E-01  0.56072392541E-01  0.10180453561E+00  0.51100000000E-03 0. -1.
         11    1    4    4    0    0 -0.14939307876E-02 -0.23370533807E-01  0.18261043522E-01  0.29700850344E-01  0.51100000000E-03 0.  1.
</event>
<event>
 8    1  0.1041149E+005  0.1043930E+01  0.7957747E-01            NaN
         13   -1    0    0    0    0  0.00000000000E+00  0.00000000000E+00  0.74505805969E-08  0.10566000000E+00  0.10566000000E+00 0.  1.
     999900   -1    0    0    0    0 -0.00000000000E+00 -0.00000000000E+00 -0.74505805969E-08  0.93827000000E+00  0.93827000000E+00 0.  1.
     999902    2    1    2    0    0 -0.12051748166E-01 -0.13200191844E-01 -0.15012510825E-01  0.10205876526E+01  0.10203206807E+01 0.  0.
     999903    2    3    3    0    0 -0.11275093604E+00 -0.40250702762E-01 -0.55445924244E-01  0.13350991226E+00  0.20439019184E-01 0.  0.
         14    1    1    2    0    0  0.12051748166E-01  0.13200191844E-01  0.15012510825E-01  0.23342347351E-01  0.00000000000E+00 0.  1.
     999901    1    3    3    0    0  0.10069918787E+00  0.27050510919E-01  0.40433413419E-01  0.88707774039E+00  0.88000000000E+00 0. -1.
        -11    1    4    4    0    0 -0.63710398916E-01 -0.30549112844E-01 -0.39950663145E-01  0.81170067342E-01  0.51100000000E-03 0. -1.
         11    1    4    4    0    0 -0.49040537122E-01 -0.97015899183E-02 -0.15495261099E-01  0.52339844915E-01  0.51100000000E-03 0.  1.
</event>
<event>
 8    1  0.1041149E+005  0.1043930E+01  0.7957747E-01            NaN
         13   -1    0    0    0    0  0.00000000000E+00  0.00000000000E+00  0.74505805969E-08  0.10566000000E+00  0.10566000000E+00 0.  1.
     999900   -1    0    0    0    0 -0.00000000000E+00 -0.00000000000E+00 -0.74505805969E-08  0.93827000000E+00  0.93827000000E+00 0. -1.
     999902    2    1    2    0    0  0.14240800395E-01 -0.10140977381E-01 -0.15500612738E-01  0.10205653084E+01  0.10202978192E+01 0.  0.
     999903    2    3    3    0    0 -0.10781128243E+00 -0.14235214013E-01  0.65364672815E-01  0.12845955901E+00  0.20084917481E-01 0.  0.
         14    1    1    2    0    0 -0.14240800395E-01  0.10140977381E-01  0.15500612738E-01  0.23364691596E-01  0.00000000000E+00 0.  1.
     999901    1    3    3    0    0  0.12205208283E+00  0.40942366318E-02 -0.80865285553E-01  0.89210574940E+00  0.88000000000E+00 0. -1.
        -11    1    4    4    0    0 -0.59554194782E-01 -0.57143801767E-02  0.24503464581E-01  0.64653206837E-01  0.51100000000E-03 0.  1.
         11    1    4    4    0    0 -0.48257087653E-01 -0.85208338362E-02  0.40861208234E-01  0.63806352171E-01  0.51100000000E-03 0. -1.
</event>
<event>
 8    1  0.1041149E+005  0.1043930E+01  0.7957747E-01            NaN
         13   -1    0    0    0    0  0.00000000000E+00  0.00000000000E+00  0.74505805969E-08  0.10566000000E+00  0.10566000000E+00 0.  1.
     999900   -1    0    0    0    0 -0.00000000000E+00 -0.00000000000E+00 -0.74505805969E-08  0.93827000000E+00  0.93827000000E+00 0. -1.
     999902    2    1    2    0    0 -0.13923073890E-01 -0.18562007153E-01  0.58654563428E-02  0.10199966828E+01  0.10197158571E+01 0.  0.
     999903    2    3    3    0    0 -0.90302051534E-01 -0.92275376040E-01  0.25929165266E-01  0.13339081689E+00  0.21250479618E-01 0.  0.
         14    1    1    2    0    0  0.13923073890E-01  0.18562007153E-01 -0.58654563428E-02  0.23933317242E-01  0.00000000000E+00 0.  1.
     999901    1    3    3    0    0  0.76378977644E-01  0.73713368887E-01 -0.20063708923E-01  0.88660586587E+00  0.88000000000E+00 0. -1.
        -11    1    4    4    0    0 -0.59509073236E-01 -0.72505162172E-01  0.13649277605E-01  0.94788671471E-01  0.51100000000E-03 0. -1.
         11    1    4    4    0    0 -0.30792978298E-01 -0.19770213868E-01  0.12279887661E-01  0.38602145418E-01  0.51100000000E-03 0.  1.
</event>
<event>
 8    1  0.1041149E+005  0.1043930E+01  0.7957747E-01            NaN
         13   -1    0    0    0    0  0.00000000000E+00  0.00000000000E+00  0.74505805969E-08  0.10566000000E+00  0.10566000000E+00 0.  1.
     999900   -1    0    0    0    0 -0.00000000000E+00 -0.00000000000E+00 -0.74505805969E-08  0.93827000000E+00  0.93827000000E+00 0.  1.
     999902    2    1    2    0    0 -0.20614630361E-01  0.72277090811E-03 -0.10586855945E-01  0.10207445110E+01  0.10204811560E+01 0.  0.
     999903    2    3    3    0    0  0.56243923761E-01 -0.91855439554E-01 -0.70802354861E-01  0.13051764735E+00  0.20520284633E-01 0.  0.
         14    1    1    2    0    0  0.20614630361E-01 -0.72277090811E-03  0.10586855945E-01  0.23185489029E-01  0.00000000000E+00 0. -1.
     999901    1    3    3    0    0 -0.76858554123E-01  0.92578210462E-01  0.60215498916E-01  0.89022686362E+00  0.88000000000E+00 0.  1.
        -11    1    4    4    0    0  0.35712697182E-01 -0.62561450423E-01 -0.58117284082E-01  0.92559233192E-01  0.51100000000E-03 0.  1.
         11    1    4    4    0    0  0.20531226580E-01 -0.29293989131E-01 -0.12685070779E-01  0.37958414163E-01  0.51100000000E-03 0. -1.
</event>
<event>
 8    1  0.1041149E+005  0.1043930E+01  0.7957747E-01            NaN
         13   -1    0    0    0    0  0.00000000000E+00  0.00000000000E+00  0.74505805969E-08  0.10566000000E+00  0.10566000000E+00 0. -1.
     999900   -1    0    0    0    0 -0.00000000000E+00 -0.00000000000E+00 -0.74505805969E-08  0.93827000000E+00  0.93827000000E+00 0.  1.
     999902    2    1    2    0    0 -0.44642198562E-02 -0.18625330562E-01 -0.13552457862E-01  0.10204672356E+01  0.10201974700E+01 0.  0.
     999903    2    3    3    0    0  0.60243111848E-01 -0.11403087841E+00 -0.26526917429E-01  0.13285380968E+00  0.17725226140E-01 0.  0.
         14    1    1    2    0    0  0.44642198562E-02  0.18625330562E-01  0.13552457862E-01  0.23462764364E-01  0.00000000000E+00 0. -1.
     999901    1    3    3    0    0 -0.64707331705E-01  0.95405547849E-01  0.12974459566E-01  0.88761342596E+00  0.88000000000E+00 0.  1.
        -11    1    4    4    0    0  0.18823837117E-01 -0.20227140704E-01 -0.57534534188E-02  0.28228308701E-01  0.51100000000E-03 0.  1.
         11    1    4    4    0    0  0.41419274732E-01 -0.93803737708E-01 -0.20773464010E-01  0.10462550098E+00  0.51100000000E-03 0. -1.
</event>
<event>
 8    1  0.1041149E+005  0.1043930E+01  0.7957747E-01            NaN
         13   -1    0    0    0    0  0.00000000000E+00  0.00000000000E+00  0.74505805969E-08  0.10566000000E+00  0.10566000000E+00 0.  1.
     999900   -1    0    0    0    0 -0.00000000000E+00 -0.00000000000E+00 -0.74505805969E-08  0.93827000000E+00  0.93827000000E+00 0.  1.
     999902    2    1    2    0    0  0.10571667066E-01 -0.70416428633E-02  0.11452251125E-01  0.10268273998E+01  0.10266849614E+01 0.  0.
     999903    2    3    3    0    0 -0.98278300366E-01  0.73688864994E-01  0.53222695497E-01  0.13547421481E+00  0.20783031943E-01 0.  0.
         14    1    1    2    0    0 -0.10571667066E-01  0.70416428633E-02 -0.11452251125E-01  0.17102600229E-01  0.00000000000E+00 0. -1.
     999901    1    3    3    0    0  0.10884996743E+00 -0.80730507857E-01 -0.41770444372E-01  0.89135318496E+00  0.88000000000E+00 0.  1.
        -11    1    4    4    0    0 -0.44308085414E-01  0.46124366798E-01  0.28459081821E-01  0.70006029059E-01  0.51100000000E-03 0. -1.
         11    1    4    4    0    0 -0.53970214952E-01  0.27564498195E-01  0.24763613676E-01  0.65468185755E-01  0.51100000000E-03 0.  1.
</event>
