<event>
 8    1  0.1202249E+005  0.1043930E+01  0.7957747E-01            NaN
         13   -1    0    0    0    0  0.00000000000E+00  0.00000000000E+00  0.74505805969E-08  0.10566000000E+00  0.10566000000E+00 0.  1.
     999900   -1    0    0    0    0 -0.00000000000E+00 -0.00000000000E+00 -0.74505805969E-08  0.93827000000E+00  0.93827000000E+00 0. -1.
     999902    2    1    2    0    0 -0.16058165970E-01  0.11621692569E-02 -0.10543449599E-01  0.10246847496E+01  0.10245040051E+01 0.  0.
     999903    2    3    3    0    0 -0.92550578178E-01  0.32444413671E-02  0.95944817568E-01  0.13496840382E+00  0.20854881722E-01 0.  0.
         14    1    1    2    0    0  0.16058165970E-01 -0.11621692569E-02  0.10543449599E-01  0.19245250353E-01  0.00000000000E+00 0.  1.
     999901    1    3    3    0    0  0.76492412208E-01 -0.20822721102E-02 -0.10648826717E+00  0.88971634582E+00  0.88000000000E+00 0. -1.
        -11    1    4    4    0    0 -0.77850103290E-01  0.98181008940E-02  0.83715302562E-01  0.11474121618E+00  0.51100000000E-03 0.  1.
         11    1    4    4    0    0 -0.14700474887E-01 -0.65736595269E-02  0.12229515006E-01  0.20227187639E-01  0.51100000000E-03 0. -1.
</event>
<event>
 8    1  0.1202249E+005  0.1043930E+01  0.7957747E-01            NaN
         13   -1    0    0    0    0  0.00000000000E+00  0.00000000000E+00  0.74505805969E-08  0.10566000000E+00  0.10566000000E+00 0. -1.
     999900   -1    0    0    0    0 -0.00000000000E+00 -0.00000000000E+00 -0.74505805969E-08  0.93827000000E+00  0.93827000000E+00 0.  1.
     999902    2    1    2    0    0  0.12897861595E-01  0.18876677707E-01  0.83228711823E-02  0.10195998956E+01  0.10193095669E+01 0.  0.
     999903    2    3    3    0    0 -0.46033067881E-01 -0.30286867812E-01 -0.11331584106E+00  0.12792401000E+00  0.22084718690E-01 0.  0.
         14    1    1    2    0    0 -0.12897861595E-01 -0.18876677707E-01 -0.83228711823E-02  0.24330104391E-01  0.00000000000E+00 0. -1.
     999901    1    3    3    0    0  0.58930929476E-01  0.49163545520E-01  0.12163871224E+00  0.89167588561E+00  0.88000000000E+00 0.  1.
        -11    1    4    4    0    0 -0.16704579794E-01 -0.18495822100E-01 -0.69941989143E-01  0.74251473975E-01  0.51100000000E-03 0. -1.
         11    1    4    4    0    0 -0.29328488088E-01 -0.11791045713E-01 -0.43373851916E-01  0.53672536027E-01  0.51100000000E-03 0.  1.
</event>
<event>
 8    1  0.1202249E+005  0.1043930E+01  0.7957747E-01            NaN
         13   -1    0    0    0    0  0.00000000000E+00  0.00000000000E+00  0.74505805969E-08  0.10566000000E+00  0.10566000000E+00 0.  1.
     999900   -1    0    0    0    0 -0.00000000000E+00 -0.00000000000E+00 -0.74505805969E-08  0.93827000000E+00  0.93827000000E+00 0.  1.
     999902    2    1    2    0    0 -0.33389092362E-03 -0.20482715190E-01  0.14885737542E-01  0.10186073168E+01  0.10182925058E+01 0.  0.
     999903    2    3    3    0    0 -0.49831707872E-01 -0.70191049060E-01 -0.93999993815E-01  0.12912597640E+00  0.20676954970E-01 0.  0.
         14    1    1    2    0    0  0.33389092362E-03  0.20482715190E-01 -0.14885737542E-01  0.25322683247E-01  0.00000000000E+00 0. -1.
     999901    1    3    3    0    0  0.49497816949E-01  0.49708333871E-01  0.10888573136E+00  0.88948134035E+00  0.88000000000E+00 0. -1.
        -11    1    4    4    0    0 -0.45727097060E-01 -0.58238449350E-01 -0.69500367288E-01  0.10155415581E+00  0.51100000000E-03 0. -1.
         11    1    4    4    0    0 -0.41046108126E-02 -0.11952599710E-01 -0.24499626527E-01  0.27571820592E-01  0.51100000000E-03 0.  1.
</event>
<event>
 8    1  0.1202249E+005  0.1043930E+01  0.7957747E-01            NaN
         13   -1    0    0    0    0  0.00000000000E+00  0.00000000000E+00  0.74505805969E-08  0.10566000000E+00  0.10566000000E+00 0. -1.
     999900   -1    0    0    0    0 -0.00000000000E+00 -0.00000000000E+00 -0.74505805969E-08  0.93827000000E+00  0.93827000000E+00 0. -1.
     999902    2    1    2    0    0  0.14000924359E-01  0.15774462610E-01 -0.52785895994E-02  0.10221878046E+01  0.10219565474E+01 0.  0.
     999903    2    3    3    0    0  0.11737506819E+00  0.55138465744E-01 -0.30687183772E-01  0.13489904943E+00  0.20949779267E-01 0.  0.
         14    1    1    2    0    0 -0.14000924359E-01 -0.15774462610E-01  0.52785895994E-02  0.21742195421E-01  0.00000000000E+00 0.  1.
     999901    1    3    3    0    0 -0.10337414383E+00 -0.39364003134E-01  0.25408594172E-01  0.88728875515E+00  0.88000000000E+00 0.  1.
        -11    1    4    4    0    0  0.28740115271E-01  0.23624321323E-01 -0.65426014341E-02  0.37777897484E-01  0.51100000000E-03 0. -1.
         11    1    4    4    0    0  0.88634952922E-01  0.31514144421E-01 -0.24144582337E-01  0.97121151946E-01  0.51100000000E-03 0.  1.
</event>
<event>
 8    1  0.1202249E+005  0.1043930E+01  0.7957747E-01            NaN
         13   -1    0    0    0    0  0.00000000000E+00  0.00000000000E+00  0.74505805969E-08  0.10566000000E+00  0.10566000000E+00 0. -1.
     999900   -1    0    0    0    0 -0.00000000000E+00 -0.00000000000E+00 -0.74505805969E-08  0.93827000000E+00  0.93827000000E+00 0. -1.
     999902    2    1    2    0    0 -0.15959521220E-01  0.21242286296E-02  0.16336021038E-01  0.10209934735E+01  0.10207358075E+01 0.  0.
     999903    2    3    3    0    0  0.85096216826E-01 -0.94495340400E-01  0.17242052379E-01  0.12995563804E+00  0.20504731491E-01 0.  0.
         14    1    1    2    0    0  0.15959521220E-01 -0.21242286296E-02 -0.16336021038E-01  0.22936526507E-01  0.00000000000E+00 0.  1.
     999901    1    3    3    0    0 -0.10105573805E+00  0.96619569029E-01 -0.90603134143E-03  0.89103783545E+00  0.88000000000E+00 0. -1.
        -11    1    4    4    0    0  0.58582221963E-01 -0.62998176564E-01  0.20033548712E-02  0.86051853741E-01  0.51100000000E-03 0. -1.
         11    1    4    4    0    0  0.26513994863E-01 -0.31497163836E-01  0.15238697508E-01  0.43903784302E-01  0.51100000000E-03 0.  1.
</event>
<event>
 8    1  0.1202249E+005  0.1043930E+01  0.7957747E-01            NaN
         13   -1    0    0    0    0  0.00000000000E+00  0.00000000000E+00  0.74505805969E-08  0.10566000000E+00  0.10566000000E+00 0. -1.
     999900   -1    0    0    0    0 -0.00000000000E+00 -0.00000000000E+00 -0.74505805969E-08  0.93827000000E+00  0.93827000000E+00 0.  1.
     999902    2    1    2    0    0 -0.47856347301E-02  0.19395218597E-01  0.14272338492E-01  0.10193784939E+01  0.10190827922E+01 0.  0.
     999903    2    3    3    0    0 -0.92353773212E-01  0.73624614517E-01  0.56242628206E-01  0.13237764192E+00  0.20268289575E-01 0.  0.
         14    1    1    2    0    0  0.47856347301E-02 -0.19395218597E-01 -0.14272338492E-01  0.24551506068E-01  0.00000000000E+00 0. -1.
     999901    1    3    3    0    0  0.87568138482E-01 -0.54229395920E-01 -0.41970289715E-01  0.88700085202E+00  0.88000000000E+00 0.  1.
        -11    1    4    4    0    0 -0.35063846301E-01  0.36009961689E-01  0.15289995292E-01  0.52537945671E-01  0.51100000000E-03 0. -1.
         11    1    4    4    0    0 -0.57289926911E-01  0.37614652828E-01  0.40952632915E-01  0.79839696245E-01  0.51100000000E-03 0.  1.
</event>
<event>
 8    1  0.1202249E+005  0.1043930E+01  0.7957747E-01            NaN
         13   -1    0    0    0    0  0.00000000000E+00  0.00000000000E+00  0.74505805969E-08  0.10566000000E+00  0.10566000000E+00 0.  1.
     999900   -1    0    0    0    0 -0.00000000000E+00 -0.00000000000E+00 -0.74505805969E-08  0.93827000000E+00  0.93827000000E+00 0.  1.
     999902    2    1    2    0    0 -0.10184868336E-02  0.95272047502E-02  0.23065100951E-01  0.10189539349E+01  0.10186477888E+01 0.  0.
     999903    2    3    3    0    0 -0.53816363723E-01  0.64353060658E-01  0.99512501454E-01  0.13236626562E+00  0.24095080592E-01 0.  0.
         14    1    1    2    0    0  0.10184868336E-02 -0.95272047502E-02 -0.23065100951E-01  0.24976065095E-01  0.00000000000E+00 0. -1.
     999901    1    3    3    0    0  0.52797876890E-01 -0.54825855908E-01 -0.76447400503E-01  0.88658766928E+00  0.88000000000E+00 0.  1.
        -11    1    4    4    0    0 -0.33375136477E-01  0.54760401522E-01  0.66679933934E-01  0.92515274523E-01  0.51100000000E-03 0.  1.
         11    1    4    4    0    0 -0.20441227247E-01  0.95926591370E-02  0.32832567520E-01  0.39850991099E-01  0.51100000000E-03 0. -1.
</event>
<event>
 8    1  0.1202249E+005  0.1043930E+01  0.7957747E-01            NaN
         13   -1    0    0    0    0  0.00000000000E+00  0.00000000000E+00  0.74505805969E-08  0.10566000000E+00  0.10566000000E+00 0. -1.
     999900   -1    0    0    0    0 -0.00000000000E+00 -0.00000000000E+00 -0.74505805969E-08  0.93827000000E+00  0.93827000000E+00 0. -1.
     999902    2    1    2    0    0  0.41194760830E-02  0.22475088587E-01 -0.72136480173E-02  0.10199688563E+01  0.10196873694E+01 0.  0.
     999903    2    3    3    0    0  0.92259339220E-01  0.99337236696E-02  0.87501582043E-01  0.13042015267E+00  0.27247473703E-01 0.  0.
         14    1    1    2    0    0 -0.41194760830E-02 -0.22475088587E-01  0.72136480173E-02  0.23961143710E-01  0.00000000000E+00 0. -1.
     999901    1    3    3    0    0 -0.88139863137E-01  0.12541364917E-01 -0.94715230060E-01  0.88954870362E+00  0.88000000000E+00 0. -1.
        -11    1    4    4    0    0  0.71981560673E-01  0.88765355503E-02  0.81799575550E-01  0.10932323468E+00  0.51100000000E-03 0. -1.
         11    1    4    4    0    0  0.20277778547E-01  0.10571881193E-02  0.57020064930E-02  0.21096917988E-01  0.51100000000E-03 0.  1.
</event>
<event>
 8    1  0.1202249E+005  0.1043930E+01  0.7957747E-01            NaN
         13   -1    0    0    0    0  0.00000000000E+00  0.00000000000E+00  0.74505805969E-08  0.10566000000E+00  0.10566000000E+00 0. -1.
     999900   -1    0    0    0    0 -0.00000000000E+00 -0.00000000000E+00 -0.74505805969E-08  0.93827000000E+00  0.93827000000E+00 0. -1.
     999902    2    1    2    0    0  0.11137342747E-01  0.23737293123E-02 -0.20712459310E-01  0.10202935670E+01  0.10200197458E+01 0.  0.
     999903    2    3    3    0    0 -0.84729284427E-01  0.66525571611E-01 -0.72275384520E-01  0.13126904297E+00  0.20078025705E-01 0.  0.
         14    1    1    2    0    0 -0.11137342747E-01 -0.23737293123E-02  0.20712459310E-01  0.23636433000E-01  0.00000000000E+00 0. -1.
     999901    1    3    3    0    0  0.95866627174E-01 -0.64151842299E-01  0.51562925211E-01  0.88902452403E+00  0.88000000000E+00 0.  1.
        -11    1    4    4    0    0 -0.11213174396E-01  0.38469928398E-02 -0.14365376683E-01  0.18632224832E-01  0.51100000000E-03 0. -1.
         11    1    4    4    0    0 -0.73516110030E-01  0.62678578771E-01 -0.57910007837E-01  0.11263681813E+00  0.51100000000E-03 0.  1.
</event>
<event>
 7    1  0.1435370E+005  0.1043930E+01  0.7957747E-01            NaN
         13   -1    0    0    0    0  0.00000000000E+00  0.00000000000E+00  0.74505805969E-08  0.10566000000E+00  0.10566000000E+00 0. -1.
     999900   -1    0    0    0    0 -0.00000000000E+00 -0.00000000000E+00 -0.74505805969E-08  0.93827000000E+00  0.93827000000E+00 0. -1.
     999903    2    1    2    0    0  0.89761432874E-01 -0.42526333487E-01 -0.53090740412E-01  0.11444872580E+00  0.20353875538E-01 0.  0.
         14    1    1    2    0    0 -0.36529337810E-01 -0.23983978768E-01 -0.10431436176E-02  0.43711690736E-01  0.00000000000E+00 0.  1.
     999901    1    1    2    0    0 -0.53232095063E-01  0.66510312255E-01  0.54133884030E-01  0.88576958346E+00  0.88000000000E+00 0.  1.
        -11    1    3    3    0    0  0.48411550015E-01 -0.17103134088E-01 -0.17463963220E-01  0.54235103972E-01  0.51100000000E-03 0.  1.
         11    1    3    3    0    0  0.41349882858E-01 -0.25423199399E-01 -0.35626777192E-01  0.60213621833E-01  0.51100000000E-03 0. -1.
</event>
<event>
 8    1  0.1202249E+005  0.1043930E+01  0.7957747E-01            NaN
         13   -1    0    0    0    0  0.00000000000E+00  0.00000000000E+00  0.74505805969E-08  0.10566000000E+00  0.10566000000E+00 0. -1.
     999900   -1    0    0    0    0 -0.00000000000E+00 -0.00000000000E+00 -0.74505805969E-08  0.93827000000E+00  0.93827000000E+00 0.  1.
     999902    2    1    2    0    0  0.17480719359E-01 -0.96520675160E-02  0.12120205570E-01  0.10205711186E+01  0.10203037640E+01 0.  0.
     999903    2    3    3    0    0  0.87844447499E-01  0.24682987107E-01  0.94882860748E-01  0.13322698734E+00  0.20512827269E-01 0.  0.
         14    1    1    2    0    0 -0.17480719359E-01  0.96520675160E-02 -0.12120205570E-01  0.23358881388E-01  0.00000000000E+00 0.  1.
     999901    1    3    3    0    0 -0.70363728139E-01 -0.34335054623E-01 -0.82762655178E-01  0.88734413127E+00  0.88000000000E+00 0. -1.
        -11    1    4    4    0    0  0.73236844585E-01  0.15749923360E-01  0.67005862432E-01  0.10050742367E+00  0.51100000000E-03 0.  1.
         11    1    4    4    0    0  0.14607602913E-01  0.89330637475E-02  0.27876998316E-01  0.32719563673E-01  0.51100000000E-03 0. -1.
</event>
<event>
 8    1  0.1202249E+005  0.1043930E+01  0.7957747E-01            NaN
         13   -1    0    0    0    0  0.00000000000E+00  0.00000000000E+00  0.74505805969E-08  0.10566000000E+00  0.10566000000E+00 0.  1.
     999900   -1    0    0    0    0 -0.00000000000E+00 -0.00000000000E+00 -0.74505805969E-08  0.93827000000E+00  0.93827000000E+00 0.  1.
     999902    2    1    2    0    0  0.76127640570E-02 -0.25346577587E-02  0.21598088976E-01  0.10208896850E+01  0.10206296551E+01 0.  0.
     999903    2    3    3    0    0  0.10881386554E+00  0.38126588973E-01  0.63491253409E-01  0.13316786083E+00  0.20210041569E-01 0.  0.
         14    1    1    2    0    0 -0.76127640570E-02  0.25346577587E-02 -0.21598088976E-01  0.23040314971E-01  0.00000000000E+00 0. -1.
     999901    1    3    3    0    0 -0.10120110148E+00 -0.40661246732E-01 -0.41893164433E-01  0.88772182420E+00  0.88000000000E+00 0.  1.
        -11    1    4    4    0    0  0.35677997276E-02  0.55263921742E-02  0.58630858590E-02  0.88264999943E-02  0.51100000000E-03 0. -1.
         11    1    4    4    0    0  0.10524606581E+00  0.32600196799E-01  0.57628167550E-01  0.12434136084E+00  0.51100000000E-03 0.  1.
</event>
<event>
 8    1  0.1202249E+005  0.1043930E+01  0.7957747E-01            NaN
         13   -1    0    0    0    0  0.00000000000E+00  0.00000000000E+00  0.74505805969E-08  0.10566000000E+00  0.10566000000E+00 0. -1.
     999900   -1    0    0    0    0 -0.00000000000E+00 -0.00000000000E+00 -0.74505805969E-08  0.93827000000E+00  0.93827000000E+00 0. -1.
     999902    2    1    2    0    0 -0.62823896215E-02 -0.55974727818E-02 -0.22480624125E-01  0.10199262798E+01  0.10196437798E+01 0.  0.
     999903    2    3    3    0    0 -0.13738613691E-01  0.21449246903E-01  0.12334021605E+00  0.12748533627E+00  0.19770745261E-01 0.  0.
         14    1    1    2    0    0  0.62823896215E-02  0.55974727818E-02  0.22480624125E-01  0.24003720169E-01  0.00000000000E+00 0. -1.
     999901    1    3    3    0    0  0.74562240700E-02 -0.27046719685E-01 -0.14582084018E+00  0.89244094357E+00  0.88000000000E+00 0. -1.
        -11    1    4    4    0    0 -0.21730604423E-02 -0.35524198912E-02  0.25373287476E-01  0.25717828779E-01  0.51100000000E-03 0.  1.
         11    1    4    4    0    0 -0.11565553249E-01  0.25001666794E-01  0.97966928575E-01  0.10176750749E+00  0.51100000000E-03 0. -1.
</event>
<event>
 8    1  0.1202249E+005  0.1043930E+01  0.7957747E-01            NaN
         13   -1    0    0    0    0  0.00000000000E+00  0.00000000000E+00  0.74505805969E-08  0.10566000000E+00  0.10566000000E+00 0.  1.
     999900   -1    0    0    0    0 -0.00000000000E+00 -0.00000000000E+00 -0.74505805969E-08  0.93827000000E+00  0.93827000000E+00 0. -1.
     999902    2    1    2    0    0  0.11946526383E-01  0.23963122017E-02  0.19759665836E-01  0.10207156467E+01  0.10204516281E+01 0.  0.
     999903    2    3    3    0    0 -0.73674331227E-01  0.10462669674E+00  0.17507084285E-01  0.13066673968E+00  0.19815299808E-01 0.  0.
         14    1    1    2    0    0 -0.11946526383E-01 -0.23963122017E-02 -0.19759665836E-01  0.23214353292E-01  0.00000000000E+00 0. -1.
     999901    1    3    3    0    0  0.85620857610E-01 -0.10223038453E+00  0.22525815511E-02  0.89004890703E+00  0.88000000000E+00 0. -1.
        -11    1    4    4    0    0 -0.65178711171E-01  0.90482825858E-01  0.84423122870E-02  0.11183443085E+00  0.51100000000E-03 0. -1.
         11    1    4    4    0    0 -0.84956200559E-02  0.14143870878E-01  0.90647719983E-02  0.18832308832E-01  0.51100000000E-03 0.  1.
</event>
<event>
 8    1  0.1202249E+005  0.1043930E+01  0.7957747E-01            NaN
         13   -1    0    0    0    0  0.00000000000E+00  0.00000000000E+00  0.74505805969E-08  0.10566000000E+00  0.10566000000E+00 0.  1.
     999900   -1    0    0    0    0 -0.00000000000E+00 -0.00000000000E+00 -0.74505805969E-08  0.93827000000E+00  0.93827000000E+00 0. -1.
     999902    2    1    2    0    0  0.69574775454E-02  0.19396051559E-01 -0.11650562270E-01  0.10202583099E+01  0.10199836617E+01 0.  0.
     999903    2    3    3    0    0  0.34299055514E-01 -0.12203128364E+00  0.44676445581E-02  0.12840123078E+00  0.19971400094E-01 0.  0.
         14    1    1    2    0    0 -0.69574775454E-02 -0.19396051559E-01  0.11650562270E-01  0.23671690076E-01  0.00000000000E+00 0. -1.
     999901    1    3    3    0    0 -0.27341577968E-01  0.14142733520E+00 -0.16118206828E-01  0.89185707914E+00  0.88000000000E+00 0. -1.
        -11    1    4    4    0    0  0.95996986437E-02 -0.25779266186E-01 -0.69443335806E-02  0.28376216608E-01  0.51100000000E-03 0. -1.
         11    1    4    4    0    0  0.24699356870E-01 -0.96252017455E-01  0.11411978139E-01  0.10002501417E+00  0.51100000000E-03 0.  1.
</event>
<event>
 8    1  0.1202249E+005  0.1043930E+01  0.7957747E-01            NaN
         13   -1    0    0    0    0  0.00000000000E+00  0.00000000000E+00  0.74505805969E-08  0.10566000000E+00  0.10566000000E+00 0.  1.
     999900   -1    0    0    0    0 -0.00000000000E+00 -0.00000000000E+00 -0.74505805969E-08  0.93827000000E+00  0.93827000000E+00 0.  1.
     999902    2    1    2    0    0 -0.22207872180E-01  0.57335663919E-02  0.67487008590E-02  0.10200216681E+01  0.10197414354E+01 0.  0.
     999903    2    3    3    0    0 -0.92555473891E-01  0.39910807873E-01  0.84628594965E-01  0.13312700311E+00  0.20035257408E-01 0.  0.
         14    1    1    2    0    0  0.22207872180E-01 -0.57335663919E-02 -0.67487008590E-02  0.23908331887E-01  0.00000000000E+00 0. -1.
     999901    1    3    3    0    0  0.70347601712E-01 -0.34177241481E-01 -0.77879894106E-01  0.88689466500E+00  0.88000000000E+00 0.  1.
        -11    1    4    4    0    0 -0.37524070286E-01  0.11589409952E-01  0.21747778777E-01  0.44895403736E-01  0.51100000000E-03 0.  1.
         11    1    4    4    0    0 -0.55031403606E-01  0.28321397921E-01  0.62880816188E-01  0.88231599376E-01  0.51100000000E-03 0. -1.
</event>
<event>
 8    1  0.1202249E+005  0.1043930E+01  0.7957747E-01            NaN
         13   -1    0    0    0    0  0.00000000000E+00  0.00000000000E+00  0.74505805969E-08  0.10566000000E+00  0.10566000000E+00 0. -1.
     999900   -1    0    0    0    0 -0.00000000000E+00 -0.00000000000E+00 -0.74505805969E-08  0.93827000000E+00  0.93827000000E+00 0. -1.
     999902    2    1    2    0    0  0.23272748615E-03 -0.76131049134E-02 -0.22424233036E-01  0.10202475222E+01  0.10199726206E+01 0.  0.
     999903    2    3    3    0    0  0.42004054953E-01 -0.83931257430E-01  0.86548792943E-01  0.12926804734E+00  0.20266669576E-01 0.  0.
         14    1    1    2    0    0 -0.23272748615E-03  0.76131049134E-02  0.22424233036E-01  0.23682477821E-01  0.00000000000E+00 0. -1.
     999901    1    3    3    0    0 -0.41771327467E-01  0.76318152516E-01 -0.10897302598E+00  0.89097947484E+00  0.88000000000E+00 0.  1.
        -11    1    4    4    0    0  0.56485404133E-02 -0.28721802386E-01  0.19929299923E-01  0.35415901196E-01  0.51100000000E-03 0.  1.
         11    1    4    4    0    0  0.36355514539E-01 -0.55209455044E-01  0.66619493021E-01  0.93852146140E-01  0.51100000000E-03 0. -1.
</event>
<event>
 8    1  0.1202249E+005  0.1043930E+01  0.7957747E-01            NaN
         13   -1    0    0    0    0  0.00000000000E+00  0.00000000000E+00  0.74505805969E-08  0.10566000000E+00  0.10566000000E+00 0.  1.
     999900   -1    0    0    0    0 -0.00000000000E+00 -0.00000000000E+00 -0.74505805969E-08  0.93827000000E+00  0.93827000000E+00 0. -1.
     999902    2    1    2    0    0 -0.13026475874E-01 -0.17921647740E-01 -0.19553140008E-01  0.10143800454E+01  0.10139495435E+01 0.  0.
     999903    2    3    3    0    0  0.21821508629E-01  0.11599202725E+00  0.25881239458E-01  0.12240945330E+00  0.19593546813E-01 0.  0.
         14    1    1    2    0    0  0.13026475874E-01  0.17921647740E-01  0.19553140008E-01  0.29549954579E-01  0.00000000000E+00 0.  1.
     999901    1    3    3    0    0 -0.34847984503E-01 -0.13391367499E+00 -0.45434379466E-01  0.89197059212E+00  0.88000000000E+00 0. -1.
        -11    1    4    4    0    0  0.38218766184E-02  0.22125726291E-01  0.13046739467E-01  0.25973698938E-01  0.51100000000E-03 0. -1.
         11    1    4    4    0    0  0.17999632010E-01  0.93866300959E-01  0.12834499991E-01  0.96435754361E-01  0.51100000000E-03 0.  1.
</event>
<event>
 8    1  0.1202249E+005  0.1043930E+01  0.7957747E-01            NaN
         13   -1    0    0    0    0  0.00000000000E+00  0.00000000000E+00  0.74505805969E-08  0.10566000000E+00  0.10566000000E+00 0.  1.
     999900   -1    0    0    0    0 -0.00000000000E+00 -0.00000000000E+00 -0.74505805969E-08  0.93827000000E+00  0.93827000000E+00 0. -1.
     999902    2    1    2    0    0  0.75534922264E-02  0.59034697981E-02 -0.20500854338E-01  0.10212983578E+01  0.10210475721E+01 0.  0.
     999903    2    3    3    0    0  0.29118137383E-01 -0.11076861720E+00  0.57883756971E-01  0.12988287829E+00  0.20036972563E-01 0.  0.
         14    1    1    2    0    0 -0.75534922264E-02 -0.59034697981E-02  0.20500854338E-01  0.22631642208E-01  0.00000000000E+00 0.  1.
     999901    1    3    3    0    0 -0.21564645156E-01  0.11667208700E+00 -0.78384611309E-01  0.89141547950E+00  0.88000000000E+00 0. -1.
        -11    1    4    4    0    0  0.26849627912E-02 -0.48347124428E-01  0.22109387778E-01  0.53232880953E-01  0.51100000000E-03 0.  1.
         11    1    4    4    0    0  0.26433174592E-01 -0.62421492777E-01  0.35774369193E-01  0.76649997336E-01  0.51100000000E-03 0. -1.
</event>
<event>
 8    1  0.1202249E+005  0.1043930E+01  0.7957747E-01            NaN
         13   -1    0    0    0    0  0.00000000000E+00  0.00000000000E+00  0.74505805969E-08  0.10566000000E+00  0.10566000000E+00 0.  1.
     999900   -1    0    0    0    0 -0.00000000000E+00 -0.00000000000E+00 -0.74505805969E-08  0.93827000000E+00  0.93827000000E+00 0.  1.
     999902    2    1    2    0    0 -0.60135408169E-02 -0.49359032577E-02 -0.23249099684E-01  0.10194137513E+01  0.10191189086E+01 0.  0.
     999903    2    3    3    0    0  0.60771970430E-01  0.99550795402E-01 -0.54725417198E-01  0.13016208092E+00  0.18539222407E-01 0.  0.
         14    1    1    2    0    0  0.60135408169E-02  0.49359032577E-02  0.23249099684E-01  0.24516248698E-01  0.00000000000E+00 0.  1.
     999901    1    3    3    0    0 -0.66785511247E-01 -0.10448669866E+00  0.31476317514E-01  0.88925167038E+00  0.88000000000E+00 0. -1.
        -11    1    4    4    0    0  0.27501210860E-01  0.52334538680E-01 -0.18371521361E-01  0.61911181993E-01  0.51100000000E-03 0.  1.
         11    1    4    4    0    0  0.33270759570E-01  0.47216256722E-01 -0.36353895836E-01  0.68250898929E-01  0.51100000000E-03 0. -1.
</event>
<event>
 8    1  0.1202249E+005  0.1043930E+01  0.7957747E-01            NaN
         13   -1    0    0    0    0  0.00000000000E+00  0.00000000000E+00  0.74505805969E-08  0.10566000000E+00  0.10566000000E+00 0.  1.
     999900   -1    0    0    0    0 -0.00000000000E+00 -0.00000000000E+00 -0.74505805969E-08  0.93827000000E+00  0.93827000000E+00 0.  1.
     999902    2    1    2    0    0 -0.11499069183E-01  0.12012740929E-01  0.16432482022E-01  0.10205513559E+01  0.10202835434E+01 0.  0.
     999903    2    3    3    0    0 -0.91214600315E-01 -0.81222438004E-01 -0.40757230003E-01  0.13020421701E+00  0.19359715454E-01 0.  0.
         14    1    1    2    0    0  0.11499069183E-01 -0.12012740929E-01 -0.16432482022E-01  0.23378644146E-01  0.00000000000E+00 0. -1.
     999901    1    3    3    0    0  0.79715531132E-01  0.93235178933E-01  0.57189712025E-01  0.89034713885E+00  0.88000000000E+00 0. -1.
        -11    1    4    4    0    0 -0.59996526901E-01 -0.41332653738E-01 -0.20908879598E-01  0.75798508377E-01  0.51100000000E-03 0. -1.
         11    1    4    4    0    0 -0.31218073414E-01 -0.39889784266E-01 -0.19848350405E-01  0.54405708628E-01  0.51100000000E-03 0.  1.
</event>
<event>
 8    1  0.1202249E+005  0.1043930E+01  0.7957747E-01            NaN
         13   -1    0    0    0    0  0.00000000000E+00  0.00000000000E+00  0.74505805969E-08  0.10566000000E+00  0.10566000000E+00 0. -1.
     999900   -1    0    0    0    0 -0.00000000000E+00 -0.00000000000E+00 -0.74505805969E-08  0.93827000000E+00  0.93827000000E+00 0. -1.
     999902    2    1    2    0    0  0.19403193982E-01 -0.19807569026E-01 -0.94314018222E-02  0.10146422027E+01  0.10142194164E+01 0.  0.
     999903    2    3    3    0    0 -0.20202980836E-01  0.11252405324E+00 -0.41672134119E-01  0.12328381683E+00  0.19811858531E-01 0.  0.
         14    1    1    2    0    0 -0.19403193982E-01  0.19807569026E-01  0.94314018222E-02  0.29287797250E-01  0.00000000000E+00 0.  1.
     999901    1    3    3    0    0  0.39606174819E-01 -0.13233162226E+00  0.32240732296E-01  0.89135838592E+00  0.88000000000E+00 0. -1.
        -11    1    4    4    0    0 -0.13638569955E-01  0.82394548062E-01 -0.20876099374E-01  0.86086844447E-01  0.51100000000E-03 0.  1.
         11    1    4    4    0    0 -0.65644108816E-02  0.30129505173E-01 -0.20796034744E-01  0.37196972380E-01  0.51100000000E-03 0. -1.
</event>
<event>
 8    1  0.1202249E+005  0.1043930E+01  0.7957747E-01            NaN
         13   -1    0    0    0    0  0.00000000000E+00  0.00000000000E+00  0.74505805969E-08  0.10566000000E+00  0.10566000000E+00 0. -1.
     999900   -1    0    0    0    0 -0.00000000000E+00 -0.00000000000E+00 -0.74505805969E-08  0.93827000000E+00  0.93827000000E+00 0. -1.
     999902    2    1    2    0    0 -0.31617049488E-02  0.37006263392E-02  0.23722450193E-01  0.10197133599E+01  0.10194257652E+01 0.  0.
     999903    2    3    3    0    0  0.83586172923E-01 -0.94934448287E-01 -0.16054675269E-01  0.12907522242E+00  0.20086380202E-01 0.  0.
         14    1    1    2    0    0  0.31617049488E-02 -0.37006263392E-02 -0.23722450193E-01  0.24216640077E-01  0.00000000000E+00 0.  1.
     999901    1    3    3    0    0 -0.86747877872E-01  0.98635074627E-01  0.39777125461E-01  0.89063813750E+00  0.88000000000E+00 0.  1.
        -11    1    4    4    0    0  0.56828067021E-01 -0.54903899878E-01 -0.17361557596E-01  0.80904587177E-01  0.51100000000E-03 0. -1.
         11    1    4    4    0    0  0.26758105902E-01 -0.40030548410E-01  0.13068823268E-02  0.48170635245E-01  0.51100000000E-03 0.  1.
</event>
<event>
 8    1  0.1202249E+005  0.1043930E+01  0.7957747E-01            NaN
         13   -1    0    0    0    0  0.00000000000E+00  0.00000000000E+00  0.74505805969E-08  0.10566000000E+00  0.10566000000E+00 0.  1.
     999900   -1    0    0    0    0 -0.00000000000E+00 -0.00000000000E+00 -0.74505805969E-08  0.93827000000E+00  0.93827000000E+00 0.  1.
     999902    2    1    2    0    0  0.21250240765E-01  0.36023747944E-02 -0.10887839597E-01  0.10197826422E+01  0.10194967104E+01 0.  0.
     999903    2    3    3    0    0 -0.11245522635E+00 -0.93557609958E-02 -0.58193440675E-01  0.12833276415E+00  0.18684582395E-01 0.  0.
         14    1    1    2    0    0 -0.21250240765E-01 -0.36023747944E-02  0.10887839597E-01  0.24147357781E-01  0.00000000000E+00 0.  1.
     999901    1    3    3    0    0  0.13370546711E+00  0.12958135790E-01  0.47305601078E-01  0.89144987807E+00  0.88000000000E+00 0. -1.
        -11    1    4    4    0    0 -0.32059963633E-01  0.10183380811E-03 -0.25743307333E-01  0.41119710987E-01  0.51100000000E-03 0. -1.
         11    1    4    4    0    0 -0.80395262716E-01 -0.94575948039E-02 -0.32450133342E-01  0.87213053161E-01  0.51100000000E-03 0.  1.
</event>
<event>
 7    1  0.1202249E+005  0.1043930E+01  0.7957747E-01            NaN
         13   -1    0    0    0    0  0.00000000000E+00  0.00000000000E+00  0.74505805969E-08  0.10566000000E+00  0.10566000000E+00 0. -1.
     999900   -1    0    0    0    0 -0.00000000000E+00 -0.00000000000E+00 -0.74505805969E-08  0.93827000000E+00  0.93827000000E+00 0.  1.
     999903    2    1    2    0    0  0.18223151727E-01  0.11263030949E+00  0.17653887133E-01  0.11710789046E+00  0.19619592330E-01 0.  0.
         14    1    1    2    0    0 -0.28473465555E-01 -0.28523665162E-01  0.12624911249E-01  0.42234181642E-01  0.00000000000E+00 0.  1.
     999901    1    1    2    0    0  0.10250313828E-01 -0.84106644324E-01 -0.30278798381E-01  0.88458792790E+00  0.88000000000E+00 0.  1.
        -11    1    3    3    0    0  0.11774758225E-01  0.76013829263E-01  0.25221960901E-02  0.76963431347E-01  0.51100000000E-03 0.  1.
         11    1    3    3    0    0  0.64483935014E-02  0.36616480222E-01  0.15131691043E-01  0.40144459112E-01  0.51100000000E-03 0. -1.
</event>
<event>
 8    1  0.1202249E+005  0.1043930E+01  0.7957747E-01            NaN
         13   -1    0    0    0    0  0.00000000000E+00  0.00000000000E+00  0.74505805969E-08  0.10566000000E+00  0.10566000000E+00 0. -1.
     999900   -1    0    0    0    0 -0.00000000000E+00 -0.00000000000E+00 -0.74505805969E-08  0.93827000000E+00  0.93827000000E+00 0. -1.
     999902    2    1    2    0    0 -0.56084184470E-02 -0.21697777120E-01 -0.26518841558E-02  0.10213627587E+01  0.10211134141E+01 0.  0.
     999903    2    3    3    0    0  0.53470188278E-01  0.12692895703E-01  0.11673389539E+00  0.13067428091E+00  0.20707359093E-01 0.  0.
         14    1    1    2    0    0  0.56084184470E-02  0.21697777120E-01  0.26518841558E-02  0.22567241280E-01  0.00000000000E+00 0. -1.
     999901    1    3    3    0    0 -0.59078606725E-01 -0.34390672823E-01 -0.11938577955E+00  0.89068847781E+00  0.88000000000E+00 0. -1.
        -11    1    4    4    0    0  0.37534280178E-01  0.16388923537E-02  0.60820695054E-01  0.71490742229E-01  0.51100000000E-03 0. -1.
         11    1    4    4    0    0  0.15935908100E-01  0.11054003349E-01  0.55913200341E-01  0.59183538677E-01  0.51100000000E-03 0.  1.
</event>
<event>
 8    1  0.1202249E+005  0.1043930E+01  0.7957747E-01            NaN
         13   -1    0    0    0    0  0.00000000000E+00  0.00000000000E+00  0.74505805969E-08  0.10566000000E+00  0.10566000000E+00 0. -1.
     999900   -1    0    0    0    0 -0.00000000000E+00 -0.00000000000E+00 -0.74505805969E-08  0.93827000000E+00  0.93827000000E+00 0.  1.
     999902    2    1    2    0    0 -0.13245015996E-01  0.16697841394E-01 -0.83551627714E-02  0.10210377065E+01  0.10207810446E+01 0.  0.
     999903    2    3    3    0    0 -0.35585851281E-01  0.69916174602E-01  0.10416708272E+00  0.13199746016E+00  0.20443191661E-01 0.  0.
         14    1    1    2    0    0  0.13245015996E-01 -0.16697841394E-01  0.83551627714E-02  0.22892293483E-01  0.00000000000E+00 0. -1.
     999901    1    3    3    0    0  0.22340835285E-01 -0.53218333208E-01 -0.11252224549E+00  0.88904024636E+00  0.88000000000E+00 0.  1.
        -11    1    4    4    0    0 -0.75545787010E-02  0.30737466565E-01  0.52882473329E-01  0.61633437487E-01  0.51100000000E-03 0. -1.
         11    1    4    4    0    0 -0.28031272580E-01  0.39178708037E-01  0.51284609387E-01  0.70364022674E-01  0.51100000000E-03 0.  1.
</event>
<event>
 8    1  0.1202249E+005  0.1043930E+01  0.7957747E-01            NaN
         13   -1    0    0    0    0  0.00000000000E+00  0.00000000000E+00  0.74505805969E-08  0.10566000000E+00  0.10566000000E+00 0. -1.
     999900   -1    0    0    0    0 -0.00000000000E+00 -0.00000000000E+00 -0.74505805969E-08  0.93827000000E+00  0.93827000000E+00 0.  1.
     999902    2    1    2    0    0  0.29927742279E-02 -0.22931715312E-01  0.22311489208E-03  0.10208027424E+01  0.10205407237E+01 0.  0.
     999903    2    3    3    0    0 -0.10331149440E+00 -0.80240517382E-01  0.34307683104E-02  0.13254873290E+00  0.21109024504E-01 0.  0.
         14    1    1    2    0    0 -0.29927742279E-02  0.22931715312E-01 -0.22311489208E-03  0.23127257619E-01  0.00000000000E+00 0. -1.
     999901    1    3    3    0    0  0.10630426863E+00  0.57308802070E-01 -0.32076534184E-02  0.88825400948E+00  0.88000000000E+00 0.  1.
        -11    1    4    4    0    0 -0.55412014231E-01 -0.29728401247E-01  0.10324385837E-02  0.62893530766E-01  0.51100000000E-03 0. -1.
         11    1    4    4    0    0 -0.47899480174E-01 -0.50512116135E-01  0.23983297267E-02  0.69655202131E-01  0.51100000000E-03 0.  1.
</event>
<event>
 8    1  0.1202249E+005  0.1043930E+01  0.7957747E-01            NaN
         13   -1    0    0    0    0  0.00000000000E+00  0.00000000000E+00  0.74505805969E-08  0.10566000000E+00  0.10566000000E+00 0. -1.
     999900   -1    0    0    0    0 -0.00000000000E+00 -0.00000000000E+00 -0.74505805969E-08  0.93827000000E+00  0.93827000000E+00 0. -1.
     999902    2    1    2    0    0  0.15576536621E-01 -0.13010553704E-01  0.11594278894E-01  0.10205562903E+01  0.10202885922E+01 0.  0.
     999903    2    3    3    0    0 -0.17980171339E-03 -0.57910132821E-01  0.11787736704E+00  0.13288499462E+00  0.20241845844E-01 0.  0.
         14    1    1    2    0    0 -0.15576536621E-01  0.13010553704E-01 -0.11594278894E-01  0.23373709673E-01  0.00000000000E+00 0.  1.
     999901    1    3    3    0    0  0.15756338334E-01  0.44899579117E-01 -0.10628308814E+00  0.88767129571E+00  0.88000000000E+00 0. -1.
        -11    1    4    4    0    0  0.96784603369E-02 -0.23568681209E-01  0.44844337637E-01  0.51579366684E-01  0.51100000000E-03 0.  1.
         11    1    4    4    0    0 -0.98582620503E-02 -0.34341451611E-01  0.73033029399E-01  0.81305627934E-01  0.51100000000E-03 0. -1.
</event>
<event>
 8    1  0.1202249E+005  0.1043930E+01  0.7957747E-01            NaN
         13   -1    0    0    0    0  0.00000000000E+00  0.00000000000E+00  0.74505805969E-08  0.10566000000E+00  0.10566000000E+00 0. -1.
     999900   -1    0    0    0    0 -0.00000000000E+00 -0.00000000000E+00 -0.74505805969E-08  0.93827000000E+00  0.93827000000E+00 0. -1.
     999902    2    1    2    0    0 -0.11281049519E-01  0.13968979392E-01  0.84048526714E-02  0.10241048641E+01  0.10239129537E+01 0.  0.
     999903    2    3    3    0    0 -0.89511329108E-01  0.99990642212E-01  0.15004789582E-01  0.13643191632E+00  0.19445243944E-01 0.  0.
         14    1    1    2    0    0  0.11281049519E-01 -0.13968979392E-01 -0.84048526714E-02  0.19825135861E-01  0.00000000000E+00 0.  1.
     999901    1    3    3    0    0  0.78230279589E-01 -0.86021662821E-01 -0.65999369109E-02  0.88767294782E+00  0.88000000000E+00 0.  1.
        -11    1    4    4    0    0 -0.80422595739E-01  0.79318316990E-01  0.13996319644E-01  0.11382155947E+00  0.51100000000E-03 0.  1.
         11    1    4    4    0    0 -0.90887333693E-02  0.20672325223E-01  0.10084699379E-02  0.22610356852E-01  0.51100000000E-03 0. -1.
</event>
<event>
 7    1  0.1247210E+005  0.1043930E+01  0.7957747E-01            NaN
         13   -1    0    0    0    0  0.00000000000E+00  0.00000000000E+00  0.74505805969E-08  0.10566000000E+00  0.10566000000E+00 0. -1.
     999900   -1    0    0    0    0 -0.00000000000E+00 -0.00000000000E+00 -0.74505805969E-08  0.93827000000E+00  0.93827000000E+00 0. -1.
     999903    2    1    2    0    0  0.70015583027E-01 -0.52646853988E-01  0.34548658546E-01  0.96159399718E-01  0.19471703711E-01 0.  0.
         14    1    1    2    0    0 -0.16444667549E-01 -0.54431767905E-01 -0.17519658979E-01  0.59499436122E-01  0.00000000000E+00 0.  1.
     999901    1    1    2    0    0 -0.53570915478E-01  0.10707862189E+00 -0.17028999567E-01  0.88827116416E+00  0.88000000000E+00 0. -1.
        -11    1    3    3    0    0  0.46123281011E-01 -0.23330176123E-01  0.16574207205E-01  0.54282774751E-01  0.51100000000E-03 0. -1.
         11    1    3    3    0    0  0.23892302015E-01 -0.29316677864E-01  0.17974451341E-01  0.41876624967E-01  0.51100000000E-03 0.  1.
</event>
<event>
 8    1  0.1202249E+005  0.1043930E+01  0.7957747E-01            NaN
         13   -1    0    0    0    0  0.00000000000E+00  0.00000000000E+00  0.74505805969E-08  0.10566000000E+00  0.10566000000E+00 0. -1.
     999900   -1    0    0    0    0 -0.00000000000E+00 -0.00000000000E+00 -0.74505805969E-08  0.93827000000E+00  0.93827000000E+00 0.  1.
     999902    2    1    2    0    0 -0.19819660697E-01 -0.80475323660E-02  0.11235139966E-01  0.10197678375E+01  0.10194815507E+01 0.  0.
     999903    2    3    3    0    0 -0.10747056456E+00 -0.15243013858E-01 -0.71526551569E-01  0.13152015047E+00  0.19980757813E-01 0.  0.
         14    1    1    2    0    0  0.19819660697E-01  0.80475323660E-02 -0.11235139966E-01  0.24162162515E-01  0.00000000000E+00 0.  1.
     999901    1    3    3    0    0  0.87650903859E-01  0.71954814921E-02  0.82761691535E-01  0.88824768701E+00  0.88000000000E+00 0. -1.
        -11    1    4    4    0    0 -0.71028887804E-01 -0.18633729098E-01 -0.42849966729E-01  0.85021759171E-01  0.51100000000E-03 0.  1.
         11    1    4    4    0    0 -0.36441676753E-01  0.33907152403E-02 -0.28676584839E-01  0.46498391299E-01  0.51100000000E-03 0. -1.
</event>
<event>
 7    1  0.1202249E+005  0.1043930E+01  0.7957747E-01            NaN
         13   -1    0    0    0    0  0.00000000000E+00  0.00000000000E+00  0.74505805969E-08  0.10566000000E+00  0.10566000000E+00 0. -1.
     999900   -1    0    0    0    0 -0.00000000000E+00 -0.00000000000E+00 -0.74505805969E-08  0.93827000000E+00  0.93827000000E+00 0. -1.
     999903    2    1    2    0    0 -0.38008366551E-01 -0.55535712229E-02 -0.10779236919E+00  0.11614945305E+00  0.19900314194E-01 0.  0.
         14    1    1    2    0    0  0.16176386298E-01 -0.15688169527E-01  0.38399728076E-01  0.44523401185E-01  0.00000000000E+00 0. -1.
     999901    1    1    2    0    0  0.21831980254E-01  0.21241740750E-01  0.69392641117E-01  0.88325714577E+00  0.88000000000E+00 0.  1.
        -11    1    3    3    0    0 -0.32987172331E-01  0.65292356870E-03 -0.98541160842E-01  0.10391920587E+00  0.51100000000E-03 0.  1.
         11    1    3    3    0    0 -0.50211942198E-02 -0.62064947916E-02 -0.92512083524E-02  0.12230247175E-01  0.51100000000E-03 0. -1.
</event>
<event>
 8    1  0.1202249E+005  0.1043930E+01  0.7957747E-01            NaN
         13   -1    0    0    0    0  0.00000000000E+00  0.00000000000E+00  0.74505805969E-08  0.10566000000E+00  0.10566000000E+00 0.  1.
     999900   -1    0    0    0    0 -0.00000000000E+00 -0.00000000000E+00 -0.74505805969E-08  0.93827000000E+00  0.93827000000E+00 0. -1.
     999902    2    1    2    0    0 -0.20836744228E-01  0.91283015930E-02 -0.16149073505E-02  0.10211242173E+01  0.10208695134E+01 0.  0.
     999903    2    3    3    0    0  0.70630020267E-01 -0.10354221281E-01 -0.10671581876E+00  0.12994974542E+00  0.20071390116E-01 0.  0.
         14    1    1    2    0    0  0.20836744228E-01 -0.91283015930E-02  0.16149073505E-02  0.22805782726E-01  0.00000000000E+00 0.  1.
     999901    1    3    3    0    0 -0.91466764495E-01  0.19482522874E-01  0.10510091140E+00  0.89117447185E+00  0.88000000000E+00 0.  1.
        -11    1    4    4    0    0  0.24536887005E-01  0.52524982594E-02 -0.42787823474E-01  0.49605508973E-01  0.51100000000E-03 0. -1.
         11    1    4    4    0    0  0.46093133262E-01 -0.15606719540E-01 -0.63927995281E-01  0.80344236448E-01  0.51100000000E-03 0.  1.
</event>
<event>
 8    1  0.1202249E+005  0.1043930E+01  0.7957747E-01            NaN
         13   -1    0    0    0    0  0.00000000000E+00  0.00000000000E+00  0.74505805969E-08  0.10566000000E+00  0.10566000000E+00 0.  1.
     999900   -1    0    0    0    0 -0.00000000000E+00 -0.00000000000E+00 -0.74505805969E-08  0.93827000000E+00  0.93827000000E+00 0.  1.
     999902    2    1    2    0    0 -0.13675355226E-01  0.19707693542E-01 -0.17937687088E-02  0.10198753511E+01  0.10195916368E+01 0.  0.
     999903    2    3    3    0    0  0.38628693339E-01  0.45968718633E-02  0.12190431773E+00  0.12955784204E+00  0.20279659141E-01 0.  0.
         14    1    1    2    0    0  0.13675355226E-01 -0.19707693542E-01  0.17937687088E-02  0.24054648854E-01  0.00000000000E+00 0.  1.
     999901    1    3    3    0    0 -0.52304048565E-01  0.15110821679E-01 -0.12369808643E+00  0.89031750910E+00  0.88000000000E+00 0.  1.
        -11    1    4    4    0    0  0.37451596008E-01 -0.12746172345E-02  0.11024180404E+00  0.11643780817E+00  0.51100000000E-03 0.  1.
         11    1    4    4    0    0  0.11770973313E-02  0.58714890978E-02  0.11662513681E-01  0.13120033868E-01  0.51100000000E-03 0. -1.
</event>
<event>
 8    1  0.1202249E+005  0.1043930E+01  0.7957747E-01            NaN
         13   -1    0    0    0    0  0.00000000000E+00  0.00000000000E+00  0.74505805969E-08  0.10566000000E+00  0.10566000000E+00 0.  1.
     999900   -1    0    0    0    0 -0.00000000000E+00 -0.00000000000E+00 -0.74505805969E-08  0.93827000000E+00  0.93827000000E+00 0. -1.
     999902    2    1    2    0    0 -0.86400178794E-02  0.18688520831E-01 -0.10539316908E-01  0.10208001941E+01  0.10205381171E+01 0.  0.
     999903    2    3    3    0    0  0.56292568410E-02 -0.87238779648E-01  0.91904204515E-01  0.12843318426E+00  0.20159533810E-01 0.  0.
         14    1    1    2    0    0  0.86400178794E-02 -0.18688520831E-01  0.10539316908E-01  0.23129805894E-01  0.00000000000E+00 0.  1.
     999901    1    3    3    0    0 -0.14269274720E-01  0.10592730048E+00 -0.10244352142E+00  0.89236700985E+00  0.88000000000E+00 0. -1.
        -11    1    4    4    0    0 -0.15551657308E-02 -0.32251130245E-01  0.21435023221E-01  0.38759196122E-01  0.51100000000E-03 0.  1.
         11    1    4    4    0    0  0.71844225718E-02 -0.54987649403E-01  0.70469181294E-01  0.89673988133E-01  0.51100000000E-03 0. -1.
</event>
<event>
 8    1  0.1202249E+005  0.1043930E+01  0.7957747E-01            NaN
         13   -1    0    0    0    0  0.00000000000E+00  0.00000000000E+00  0.74505805969E-08  0.10566000000E+00  0.10566000000E+00 0.  1.
     999900   -1    0    0    0    0 -0.00000000000E+00 -0.00000000000E+00 -0.74505805969E-08  0.93827000000E+00  0.93827000000E+00 0.  1.
     999902    2    1    2    0    0 -0.60901017815E-02  0.16906232343E-01  0.13303042344E-01  0.10215719820E+01  0.10213272901E+01 0.  0.
     999903    2    3    3    0    0 -0.58471212191E-01  0.11796285234E+00 -0.13587188629E-01  0.13383367279E+00  0.19817242259E-01 0.  0.
         14    1    1    2    0    0  0.60901017815E-02 -0.16906232343E-01 -0.13303042344E-01  0.22358017966E-01  0.00000000000E+00 0. -1.
     999901    1    3    3    0    0  0.52381110410E-01 -0.10105662000E+00  0.26890230973E-01  0.88773830924E+00  0.88000000000E+00 0.  1.
        -11    1    4    4    0    0 -0.23420801089E-01  0.58374792834E-01  0.21275537857E-02  0.62935983095E-01  0.51100000000E-03 0. -1.
         11    1    4    4    0    0 -0.35050411102E-01  0.59588059508E-01 -0.15714742415E-01  0.70897689698E-01  0.51100000000E-03 0.  1.
</event>
<event>
 8    1  0.1202249E+005  0.1043930E+01  0.7957747E-01            NaN
         13   -1    0    0    0    0  0.00000000000E+00  0.00000000000E+00  0.74505805969E-08  0.10566000000E+00  0.10566000000E+00 0.  1.
     999900   -1    0    0    0    0 -0.00000000000E+00 -0.00000000000E+00 -0.74505805969E-08  0.93827000000E+00  0.93827000000E+00 0.  1.
     999902    2    1    2    0    0 -0.73594990607E-02  0.20843773900E-01  0.68852209868E-02  0.10207776480E+01  0.10205150539E+01 0.  0.
     999903    2    3    3    0    0 -0.80221608611E-01  0.84944164686E-01 -0.61814339288E-01  0.13278137731E+00  0.12604126984E-01 0.  0.
         14    1    1    2    0    0  0.73594990607E-02 -0.20843773900E-01 -0.68852209868E-02  0.23152352038E-01  0.00000000000E+00 0. -1.
     999901    1    3    3    0    0  0.72862109550E-01 -0.64100390785E-01  0.68699560275E-01  0.88799627065E+00  0.88000000000E+00 0. -1.
        -11    1    4    4    0    0 -0.52691785326E-01  0.54918316069E-01 -0.33425313508E-01  0.83126159450E-01  0.51100000000E-03 0. -1.
         11    1    4    4    0    0 -0.27529823284E-01  0.30025848617E-01 -0.28389025780E-01  0.49655217863E-01  0.51100000000E-03 0.  1.
</event>
<event>
 8    1  0.1281231E+005  0.1043930E+01  0.7957747E-01            NaN
         13   -1    0    0    0    0  0.00000000000E+00  0.00000000000E+00  0.74505805969E-08  0.10566000000E+00  0.10566000000E+00 0. -1.
     999900   -1    0    0    0    0 -0.00000000000E+00 -0.00000000000E+00 -0.74505805969E-08  0.93827000000E+00  0.93827000000E+00 0.  1.
     999902    2    1    2    0    0 -0.35906132181E-01 -0.33107173790E-02  0.80850189924E-02  0.10069762626E+01  0.10062979751E+01 0.  0.
     999903    2    3    3    0    0  0.10255171944E+00  0.32407960275E-01  0.35161072139E-01  0.11502362187E+00  0.20664015677E-01 0.  0.
         14    1    1    2    0    0  0.35906132181E-01  0.33107173790E-02 -0.80850189924E-02  0.36953737427E-01  0.00000000000E+00 0.  1.
     999901    1    3    3    0    0 -0.13845785162E+00 -0.35718677654E-01 -0.27076053147E-01  0.89195264071E+00  0.88000000000E+00 0.  1.
        -11    1    4    4    0    0  0.61123230415E-01  0.17680166299E-01  0.31216122560E-01  0.70875560001E-01  0.51100000000E-03 0.  1.
         11    1    4    4    0    0  0.41428489025E-01  0.14727793975E-01  0.39449495794E-02  0.44148061865E-01  0.51100000000E-03 0. -1.
</event>
<event>
 8    1  0.1202249E+005  0.1043930E+01  0.7957747E-01            NaN
         13   -1    0    0    0    0  0.00000000000E+00  0.00000000000E+00  0.74505805969E-08  0.10566000000E+00  0.10566000000E+00 0.  1.
     999900   -1    0    0    0    0 -0.00000000000E+00 -0.00000000000E+00 -0.74505805969E-08  0.93827000000E+00  0.93827000000E+00 0. -1.
     999902    2    1    2    0    0  0.16127442553E-01  0.17892174122E-01  0.14494117809E-02  0.10197985870E+01  0.10195130372E+01 0.  0.
     999903    2    3    3    0    0 -0.59705157079E-01  0.11514861082E+00 -0.24354582590E-02  0.13119041135E+00  0.19521378468E-01 0.  0.
         14    1    1    2    0    0 -0.16127442553E-01 -0.17892174122E-01 -0.14494117809E-02  0.24131412985E-01  0.00000000000E+00 0. -1.
     999901    1    3    3    0    0  0.75832599631E-01 -0.97256436698E-01  0.38848700399E-02  0.88860817567E+00  0.88000000000E+00 0. -1.
        -11    1    4    4    0    0 -0.17136348702E-01  0.44179163410E-01 -0.87539046346E-02  0.48190713772E-01  0.51100000000E-03 0.  1.
         11    1    4    4    0    0 -0.42568808376E-01  0.70969447410E-01  0.63184463756E-02  0.82999697577E-01  0.51100000000E-03 0. -1.
</event>
<event>
 8    1  0.1202249E+005  0.1043930E+01  0.7957747E-01            NaN
         13   -1    0    0    0    0  0.00000000000E+00  0.00000000000E+00  0.74505805969E-08  0.10566000000E+00  0.10566000000E+00 0.  1.
     999900   -1    0    0    0    0 -0.00000000000E+00 -0.00000000000E+00 -0.74505805969E-08  0.93827000000E+00  0.93827000000E+00 0. -1.
     999902    2    1    2    0    0  0.21011602085E-01  0.96752631712E-02 -0.39267490159E-02  0.10204668907E+01  0.10201971170E+01 0.  0.
     999903    2    3    3    0    0  0.10822763360E+00  0.54983887874E-01 -0.52506134716E-01  0.13366394510E+00  0.19305632276E-01 0.  0.
         14    1    1    2    0    0 -0.21011602085E-01 -0.96752631712E-02  0.39267490159E-02  0.23463109288E-01  0.00000000000E+00 0. -1.
     999901    1    3    3    0    0 -0.87216031514E-01 -0.45308624703E-01  0.48579385701E-01  0.88680294561E+00  0.88000000000E+00 0.  1.
        -11    1    4    4    0    0  0.34876538152E-01  0.23670002008E-01 -0.10152397330E-01  0.43358669272E-01  0.51100000000E-03 0.  1.
         11    1    4    4    0    0  0.73351095447E-01  0.31313885866E-01 -0.42353737387E-01  0.90305275831E-01  0.51100000000E-03 0. -1.
</event>
<event>
 8    1  0.1202249E+005  0.1043930E+01  0.7957747E-01            NaN
         13   -1    0    0    0    0  0.00000000000E+00  0.00000000000E+00  0.74505805969E-08  0.10566000000E+00  0.10566000000E+00 0.  1.
     999900   -1    0    0    0    0 -0.00000000000E+00 -0.00000000000E+00 -0.74505805969E-08  0.93827000000E+00  0.93827000000E+00 0.  1.
     999902    2    1    2    0    0  0.13056821101E-01  0.20085223278E-02 -0.19416896767E-01  0.10204453110E+01  0.10201750350E+01 0.  0.
     999903    2    3    3    0    0  0.11526841406E+00 -0.62570086982E-02 -0.63616966890E-01  0.13338884436E+00  0.20481891650E-01 0.  0.
         14    1    1    2    0    0 -0.13056821101E-01 -0.20085223278E-02  0.19416896767E-01  0.23484689039E-01  0.00000000000E+00 0.  1.
     999901    1    3    3    0    0 -0.10221159296E+00  0.82655310260E-02  0.44200070123E-01  0.88705646660E+00  0.88000000000E+00 0. -1.
        -11    1    4    4    0    0  0.79683481299E-01 -0.13753297510E-01 -0.43147833355E-01  0.91654825451E-01  0.51100000000E-03 0. -1.
         11    1    4    4    0    0  0.35584932762E-01  0.74962888117E-02 -0.20469133535E-01  0.41734018909E-01  0.51100000000E-03 0.  1.
</event>
<event>
 8    1  0.1202249E+005  0.1043930E+01  0.7957747E-01            NaN
         13   -1    0    0    0    0  0.00000000000E+00  0.00000000000E+00  0.74505805969E-08  0.10566000000E+00  0.10566000000E+00 0.  1.
     999900   -1    0    0    0    0 -0.00000000000E+00 -0.00000000000E+00 -0.74505805969E-08  0.93827000000E+00  0.93827000000E+00 0.  1.
     999902    2    1    2    0    0 -0.90422916290E-02  0.18129006231E-01  0.13049193695E-01  0.10198321710E+01  0.10195474249E+01 0.  0.
     999903    2    3    3    0    0 -0.11040479039E-01 -0.12019333222E+00  0.39681802904E-01  0.12862716771E+00  0.20049276889E-01 0.  0.
         14    1    1    2    0    0  0.90422916290E-02 -0.18129006231E-01 -0.13049193695E-01  0.24097828967E-01  0.00000000000E+00 0. -1.
     999901    1    3    3    0    0  0.19981874100E-02  0.13832233846E+00 -0.26632609209E-01  0.89120500332E+00  0.88000000000E+00 0. -1.
        -11    1    4    4    0    0 -0.70769296590E-02 -0.81342624273E-01  0.16799306249E-01  0.83361761429E-01  0.51100000000E-03 0.  1.
         11    1    4    4    0    0 -0.39635493800E-02 -0.38850707951E-01  0.22882496655E-01  0.45265406285E-01  0.51100000000E-03 0. -1.
</event>
<event>
 8    1  0.1202249E+005  0.1043930E+01  0.7957747E-01            NaN
         13   -1    0    0    0    0  0.00000000000E+00  0.00000000000E+00  0.74505805969E-08  0.10566000000E+00  0.10566000000E+00 0. -1.
     999900   -1    0    0    0    0 -0.00000000000E+00 -0.00000000000E+00 -0.74505805969E-08  0.93827000000E+00  0.93827000000E+00 0.  1.
     999902    2    1    2    0    0  0.22710222471E-01  0.60770321917E-02  0.24788997567E-02  0.10202904258E+01  0.10200165310E+01 0.  0.
     999903    2    3    3    0    0 -0.56235165295E-02  0.11344684952E+00  0.62442387635E-01  0.13128722089E+00  0.20867941740E-01 0.  0.
         14    1    1    2    0    0 -0.22710222471E-01 -0.60770321917E-02 -0.24788997567E-02  0.23639574213E-01  0.00000000000E+00 0.  1.
     999901    1    3    3    0    0  0.28333739001E-01 -0.10736981732E+00 -0.59963487878E-01  0.88900320490E+00  0.88000000000E+00 0. -1.
        -11    1    4    4    0    0  0.11398325495E-02  0.33747214325E-01  0.29284655545E-01  0.44699282594E-01  0.51100000000E-03 0.  1.
         11    1    4    4    0    0 -0.67633490789E-02  0.79699635190E-01  0.33157732089E-01  0.86587938297E-01  0.51100000000E-03 0. -1.
</event>
<event>
 8    1  0.1202249E+005  0.1043930E+01  0.7957747E-01            NaN
         13   -1    0    0    0    0  0.00000000000E+00  0.00000000000E+00  0.74505805969E-08  0.10566000000E+00  0.10566000000E+00 0. -1.
     999900   -1    0    0    0    0 -0.00000000000E+00 -0.00000000000E+00 -0.74505805969E-08  0.93827000000E+00  0.93827000000E+00 0. -1.
     999902    2    1    2    0    0 -0.16898402881E-01 -0.46305184386E-03 -0.16450503899E-01  0.10203420896E+01  0.10200694047E+01 0.  0.
     999903    2    3    3    0    0  0.29948449946E-01  0.12307344348E+00  0.19629833003E-01  0.12974808336E+00  0.20130887915E-01 0.  0.
         14    1    1    2    0    0  0.16898402881E-01  0.46305184386E-03  0.16450503899E-01  0.23587910367E-01  0.00000000000E+00 0. -1.
     999901    1    3    3    0    0 -0.46846852827E-01 -0.12353649532E+00 -0.36080336902E-01  0.89059400627E+00  0.88000000000E+00 0.  1.
        -11    1    4    4    0    0  0.16641769903E-02  0.45612491831E-03 -0.12475147236E-02  0.21897371946E-02  0.51100000000E-03 0.  1.
         11    1    4    4    0    0  0.28284272956E-01  0.12261731856E+00  0.20877347727E-01  0.12755834617E+00  0.51100000000E-03 0. -1.
</event>
<event>
 8    1  0.1202249E+005  0.1043930E+01  0.7957747E-01            NaN
         13   -1    0    0    0    0  0.00000000000E+00  0.00000000000E+00  0.74505805969E-08  0.10566000000E+00  0.10566000000E+00 0.  1.
     999900   -1    0    0    0    0 -0.00000000000E+00 -0.00000000000E+00 -0.74505805969E-08  0.93827000000E+00  0.93827000000E+00 0.  1.
     999902    2    1    2    0    0 -0.16677436675E-01  0.16363039753E-01 -0.44159316666E-02  0.10201521444E+01  0.10198749979E+01 0.  0.
     999903    2    3    3    0    0  0.43088503019E-01  0.55483663134E-01 -0.10904927278E+00  0.13107929768E+00  0.18840977141E-01 0.  0.
         14    1    1    2    0    0  0.16677436675E-01 -0.16363039753E-01  0.44159316666E-02  0.23777855590E-01  0.00000000000E+00 0. -1.
     999901    1    3    3    0    0 -0.59765939694E-01 -0.39120623381E-01  0.10463334111E+00  0.88907284673E+00  0.88000000000E+00 0. -1.
        -11    1    4    4    0    0  0.15025302201E-01  0.68624222275E-02 -0.22524230441E-01  0.27936617960E-01  0.51100000000E-03 0.  1.
         11    1    4    4    0    0  0.28063200818E-01  0.48621240906E-01 -0.86525042336E-01  0.10314267972E+00  0.51100000000E-03 0. -1.
</event>
<event>
 8    1  0.1202249E+005  0.1043930E+01  0.7957747E-01            NaN
         13   -1    0    0    0    0  0.00000000000E+00  0.00000000000E+00  0.74505805969E-08  0.10566000000E+00  0.10566000000E+00 0. -1.
     999900   -1    0    0    0    0 -0.00000000000E+00 -0.00000000000E+00 -0.74505805969E-08  0.93827000000E+00  0.93827000000E+00 0. -1.
     999902    2    1    2    0    0  0.69138446416E-02  0.12782930966E-01 -0.20955575487E-01  0.10184282213E+01  0.10181088848E+01 0.  0.
     999903    2    3    3    0    0 -0.23524042582E-01 -0.10403293143E+00  0.63508198294E-01  0.12618019540E+00  0.22625628356E-01 0.  0.
         14    1    1    2    0    0 -0.69138446416E-02 -0.12782930966E-01  0.20955575487E-01  0.25501778679E-01  0.00000000000E+00 0. -1.
     999901    1    3    3    0    0  0.30437887224E-01  0.11681586239E+00 -0.84463773781E-01  0.89224802592E+00  0.88000000000E+00 0. -1.
        -11    1    4    4    0    0 -0.51026844150E-02 -0.65463645251E-02  0.11413742968E-01  0.14121859873E-01  0.51100000000E-03 0. -1.
         11    1    4    4    0    0 -0.18421358167E-01 -0.97486566904E-01  0.52094455325E-01  0.11205833552E+00  0.51100000000E-03 0.  1.
</event>
<event>
 8    1  0.1202249E+005  0.1043930E+01  0.7957747E-01            NaN
         13   -1    0    0    0    0  0.00000000000E+00  0.00000000000E+00  0.74505805969E-08  0.10566000000E+00  0.10566000000E+00 0.  1.
     999900   -1    0    0    0    0 -0.00000000000E+00 -0.00000000000E+00 -0.74505805969E-08  0.93827000000E+00  0.93827000000E+00 0.  1.
     999902    2    1    2    0    0  0.15388587759E-01  0.49475658746E-02  0.17779739332E-01  0.10199007226E+01  0.10196176135E+01 0.  0.
     999903    2    3    3    0    0 -0.11228474398E+00 -0.62421969237E-02  0.61065756744E-01  0.12956406171E+00  0.20272905269E-01 0.  0.
         14    1    1    2    0    0 -0.15388587759E-01 -0.49475658746E-02 -0.17779739332E-01  0.24029277393E-01  0.00000000000E+00 0. -1.
     999901    1    3    3    0    0  0.12767333174E+00  0.11189762798E-01 -0.43286017412E-01  0.89033666089E+00  0.88000000000E+00 0.  1.
        -11    1    4    4    0    0 -0.31957934027E-01 -0.72088424667E-03  0.28081893706E-01  0.42552122115E-01  0.51100000000E-03 0. -1.
         11    1    4    4    0    0 -0.80326809951E-01 -0.55213126770E-02  0.32983863038E-01  0.87011939598E-01  0.51100000000E-03 0.  1.
</event>
<event>
 8    1  0.1202249E+005  0.1043930E+01  0.7957747E-01            NaN
         13   -1    0    0    0    0  0.00000000000E+00  0.00000000000E+00  0.74505805969E-08  0.10566000000E+00  0.10566000000E+00 0.  1.
     999900   -1    0    0    0    0 -0.00000000000E+00 -0.00000000000E+00 -0.74505805969E-08  0.93827000000E+00  0.93827000000E+00 0. -1.
     999902    2    1    2    0    0 -0.11672962196E-01  0.15604013396E-01 -0.14123991772E-01  0.10198627936E+01  0.10195787794E+01 0.  0.
     999903    2    3    3    0    0  0.96554803291E-01  0.47590590369E-01 -0.71604135198E-01  0.13079566609E+00  0.19815644314E-01 0.  0.
         14    1    1    2    0    0  0.11672962196E-01 -0.15604013396E-01  0.14123991772E-01  0.24067206403E-01  0.00000000000E+00 0.  1.
     999901    1    3    3    0    0 -0.10822776549E+00 -0.31986576973E-01  0.57480143426E-01  0.88906712751E+00  0.88000000000E+00 0. -1.
        -11    1    4    4    0    0  0.56010508888E-01  0.18614553265E-01 -0.45565692742E-01  0.74566562045E-01  0.51100000000E-03 0. -1.
         11    1    4    4    0    0  0.40544294403E-01  0.28976037104E-01 -0.26038442456E-01  0.56229104043E-01  0.51100000000E-03 0.  1.
</event>
<event>
 8    1  0.1366026E+005  0.1043930E+01  0.7957747E-01            NaN
         13   -1    0    0    0    0  0.00000000000E+00  0.00000000000E+00  0.74505805969E-08  0.10566000000E+00  0.10566000000E+00 0. -1.
     999900   -1    0    0    0    0 -0.00000000000E+00 -0.00000000000E+00 -0.74505805969E-08  0.93827000000E+00  0.93827000000E+00 0. -1.
     999902    2    1    2    0    0  0.78576283175E-02 -0.20372889526E-01 -0.11455119914E-01  0.10192720049E+01  0.10189737010E+01 0.  0.
     999903    2    3    3    0    0  0.91018937383E-01 -0.91257390651E-01 -0.22601399916E-01  0.13244357990E+00  0.20447989317E-01 0.  0.
         14    1    1    2    0    0 -0.78576283175E-02  0.20372889526E-01  0.11455119914E-01  0.24657995106E-01  0.00000000000E+00 0. -1.
     999901    1    3    3    0    0 -0.83161309065E-01  0.70884501125E-01  0.11146280003E-01  0.88682842500E+00  0.88000000000E+00 0.  1.
        -11    1    4    4    0    0  0.43220429868E-01 -0.43544007889E-01 -0.42127301328E-03  0.61355723229E-01  0.51100000000E-03 0. -1.
         11    1    4    4    0    0  0.47798507515E-01 -0.47713382762E-01 -0.22180126903E-01  0.71087856668E-01  0.51100000000E-03 0.  1.
</event>
<event>
 8    1  0.1202249E+005  0.1043930E+01  0.7957747E-01            NaN
         13   -1    0    0    0    0  0.00000000000E+00  0.00000000000E+00  0.74505805969E-08  0.10566000000E+00  0.10566000000E+00 0.  1.
     999900   -1    0    0    0    0 -0.00000000000E+00 -0.00000000000E+00 -0.74505805969E-08  0.93827000000E+00  0.93827000000E+00 0.  1.
     999902    2    1    2    0    0  0.10055185512E-01 -0.17818570064E-01  0.10307584807E-01  0.10210202968E+01  0.10207632400E+01 0.  0.
     999903    2    3    3    0    0  0.21996266679E-01  0.73473358288E-01  0.10455686251E+00  0.13121147919E+00  0.20053544510E-01 0.  0.
         14    1    1    2    0    0 -0.10055185512E-01  0.17818570064E-01 -0.10307584807E-01  0.22909703171E-01  0.00000000000E+00 0.  1.
     999901    1    3    3    0    0 -0.11941081167E-01 -0.91291928352E-01 -0.94249277702E-01  0.88980881764E+00  0.88000000000E+00 0.  1.
        -11    1    4    4    0    0  0.18669908665E-01  0.31617452058E-01  0.41054903239E-01  0.55081711712E-01  0.51100000000E-03 0. -1.
         11    1    4    4    0    0  0.33263580140E-02  0.41855906230E-01  0.63501959270E-01  0.76129767477E-01  0.51100000000E-03 0.  1.
</event>
<event>
 8    1  0.1202249E+005  0.1043930E+01  0.7957747E-01            NaN
         13   -1    0    0    0    0  0.00000000000E+00  0.00000000000E+00  0.74505805969E-08  0.10566000000E+00  0.10566000000E+00 0. -1.
     999900   -1    0    0    0    0 -0.00000000000E+00 -0.00000000000E+00 -0.74505805969E-08  0.93827000000E+00  0.93827000000E+00 0.  1.
     999902    2    1    2    0    0  0.16797476922E-01  0.12481415812E-01 -0.13006421411E-01  0.10192904389E+01  0.10189925863E+01 0.  0.
     999903    2    3    3    0    0 -0.12134707489E+00  0.15875229962E-01  0.31127858700E-01  0.12741417518E+00  0.16979191356E-01 0.  0.
         14    1    1    2    0    0 -0.16797476922E-01 -0.12481415812E-01  0.13006421411E-01  0.24639561066E-01  0.00000000000E+00 0.  1.
     999901    1    3    3    0    0  0.13814455181E+00 -0.33938141495E-02 -0.44134280111E-01  0.89187626376E+00  0.88000000000E+00 0.  1.
        -11    1    4    4    0    0 -0.45558390038E-01  0.14026169786E-01  0.99481854130E-02  0.48698335246E-01  0.51100000000E-03 0.  1.
         11    1    4    4    0    0 -0.75788684849E-01  0.18490601756E-02  0.21179673287E-01  0.78715839932E-01  0.51100000000E-03 0. -1.
</event>
<event>
 8    1  0.1202249E+005  0.1043930E+01  0.7957747E-01            NaN
         13   -1    0    0    0    0  0.00000000000E+00  0.00000000000E+00  0.74505805969E-08  0.10566000000E+00  0.10566000000E+00 0.  1.
     999900   -1    0    0    0    0 -0.00000000000E+00 -0.00000000000E+00 -0.74505805969E-08  0.93827000000E+00  0.93827000000E+00 0. -1.
     999902    2    1    2    0    0 -0.44618307537E-02 -0.10344717678E-01  0.20442707389E-01  0.10205885047E+01  0.10203215525E+01 0.  0.
     999903    2    3    3    0    0  0.10734022251E-01 -0.64289136884E-01  0.11512649052E+00  0.13373680734E+00  0.19573258881E-01 0.  0.
         14    1    1    2    0    0  0.44618307537E-02  0.10344717678E-01 -0.20442707389E-01  0.23341495301E-01  0.00000000000E+00 0. -1.
     999901    1    3    3    0    0 -0.15195853004E-01  0.53944419206E-01 -0.94683783135E-01  0.88685169735E+00  0.88000000000E+00 0. -1.
        -11    1    4    4    0    0  0.15977342189E-01 -0.49868330941E-01  0.83167361702E-01  0.98281214216E-01  0.51100000000E-03 0. -1.
         11    1    4    4    0    0 -0.52433199381E-02 -0.14420805944E-01  0.31959128821E-01  0.35455593128E-01  0.51100000000E-03 0.  1.
</event>
<event>
 8    1  0.1202249E+005  0.1043930E+01  0.7957747E-01            NaN
         13   -1    0    0    0    0  0.00000000000E+00  0.00000000000E+00  0.74505805969E-08  0.10566000000E+00  0.10566000000E+00 0. -1.
     999900   -1    0    0    0    0 -0.00000000000E+00 -0.00000000000E+00 -0.74505805969E-08  0.93827000000E+00  0.93827000000E+00 0. -1.
     999902    2    1    2    0    0  0.11645016312E-01 -0.54297455286E-02  0.18231278561E-01  0.10216260080E+01  0.10213825102E+01 0.  0.
     999903    2    3    3    0    0 -0.73969626098E-01  0.32983376510E-01 -0.98398771089E-01  0.12898498081E+00  0.19884627495E-01 0.  0.
         14    1    1    2    0    0 -0.11645016312E-01  0.54297455286E-02 -0.18231278561E-01  0.22303992005E-01  0.00000000000E+00 0.  1.
     999901    1    3    3    0    0  0.85614642411E-01 -0.38413122038E-01  0.11663004965E+00  0.89264102719E+00  0.88000000000E+00 0.  1.
        -11    1    4    4    0    0 -0.31405497768E-01  0.36866121480E-02 -0.34388214819E-01  0.46719448184E-01  0.51100000000E-03 0. -1.
         11    1    4    4    0    0 -0.42564128330E-01  0.29296764362E-01 -0.64010556270E-01  0.82265532622E-01  0.51100000000E-03 0.  1.
</event>
<event>
 8    1  0.1202249E+005  0.1043930E+01  0.7957747E-01            NaN
         13   -1    0    0    0    0  0.00000000000E+00  0.00000000000E+00  0.74505805969E-08  0.10566000000E+00  0.10566000000E+00 0. -1.
     999900   -1    0    0    0    0 -0.00000000000E+00 -0.00000000000E+00 -0.74505805969E-08  0.93827000000E+00  0.93827000000E+00 0. -1.
     999902    2    1    2    0    0 -0.14273025666E-01  0.46379634649E-02  0.11962585477E-01  0.10247379856E+01  0.10245582490E+01 0.  0.
     999903    2    3    3    0    0  0.32777921921E-01 -0.12819026612E+00 -0.68050702393E-02  0.13332935023E+00  0.14942227430E-01 0.  0.
         14    1    1    2    0    0  0.14273025666E-01 -0.46379634649E-02 -0.11962585477E-01  0.19192014435E-01  0.00000000000E+00 0.  1.
     999901    1    3    3    0    0 -0.47050947587E-01  0.13282822958E+00  0.18767655717E-01  0.89140863533E+00  0.88000000000E+00 0.  1.
        -11    1    4    4    0    0  0.27582418323E-01 -0.93404807876E-01 -0.10513427893E-01  0.97959385573E-01  0.51100000000E-03 0.  1.
         11    1    4    4    0    0  0.51955035976E-02 -0.34785458240E-01  0.37083576535E-02  0.35369964661E-01  0.51100000000E-03 0. -1.
</event>
<event>
 8    1  0.1202249E+005  0.1043930E+01  0.7957747E-01            NaN
         13   -1    0    0    0    0  0.00000000000E+00  0.00000000000E+00  0.74505805969E-08  0.10566000000E+00  0.10566000000E+00 0. -1.
     999900   -1    0    0    0    0 -0.00000000000E+00 -0.00000000000E+00 -0.74505805969E-08  0.93827000000E+00  0.93827000000E+00 0. -1.
     999902    2    1    2    0    0 -0.19755474625E-03 -0.20127046247E-01  0.12499129832E-01  0.10202368519E+01  0.10199616997E+01 0.  0.
     999903    2    3    3    0    0  0.39313323899E-01 -0.11293963052E+00  0.55740739115E-01  0.13341944001E+00  0.19819671968E-01 0.  0.
         14    1    1    2    0    0  0.19755474625E-03  0.20127046247E-01 -0.12499129832E-01  0.23693148062E-01  0.00000000000E+00 0. -1.
     999901    1    3    3    0    0 -0.39510878645E-01  0.92812584272E-01 -0.43241609282E-01  0.88681741193E+00  0.88000000000E+00 0.  1.
        -11    1    4    4    0    0  0.19740822563E-01 -0.75176408868E-01  0.27905329242E-01  0.82584266340E-01  0.51100000000E-03 0.  1.
         11    1    4    4    0    0  0.19572501335E-01 -0.37763221651E-01  0.27835409872E-01  0.50835173667E-01  0.51100000000E-03 0. -1.
</event>
<event>
 8    1  0.1202249E+005  0.1043930E+01  0.7957747E-01            NaN
         13   -1    0    0    0    0  0.00000000000E+00  0.00000000000E+00  0.74505805969E-08  0.10566000000E+00  0.10566000000E+00 0. -1.
     999900   -1    0    0    0    0 -0.00000000000E+00 -0.00000000000E+00 -0.74505805969E-08  0.93827000000E+00  0.93827000000E+00 0.  1.
     999902    2    1    2    0    0  0.52989355942E-02 -0.15984828304E-01  0.15523474652E-01  0.10210264693E+01  0.10207695525E+01 0.  0.
     999903    2    3    3    0    0  0.18176395763E-01 -0.48684020367E-02 -0.12652830003E+00  0.12947270724E+00  0.19992211207E-01 0.  0.
         14    1    1    2    0    0 -0.52989355942E-02  0.15984828304E-01 -0.15523474652E-01  0.22903530724E-01  0.00000000000E+00 0.  1.
     999901    1    3    3    0    0 -0.12877460169E-01 -0.11116426267E-01  0.14205177469E+00  0.89155376204E+00  0.88000000000E+00 0. -1.
        -11    1    4    4    0    0  0.52310158293E-02  0.43976207361E-02 -0.80011942794E-01  0.80304885938E-01  0.51100000000E-03 0.  1.
         11    1    4    4    0    0  0.12945379934E-01 -0.92660227728E-02 -0.46516357239E-01  0.49167821301E-01  0.51100000000E-03 0. -1.
</event>
<event>
 8    1  0.1202249E+005  0.1043930E+01  0.7957747E-01            NaN
         13   -1    0    0    0    0  0.00000000000E+00  0.00000000000E+00  0.74505805969E-08  0.10566000000E+00  0.10566000000E+00 0. -1.
     999900   -1    0    0    0    0 -0.00000000000E+00 -0.00000000000E+00 -0.74505805969E-08  0.93827000000E+00  0.93827000000E+00 0. -1.
     999902    2    1    2    0    0 -0.75685753834E-02  0.16935472301E-01  0.14838207429E-01  0.10201757171E+01  0.10198991263E+01 0.  0.
     999903    2    3    3    0    0  0.12194388149E+00  0.41351214222E-01 -0.45744475115E-02  0.13014961857E+00  0.18378370250E-01 0.  0.
         14    1    1    2    0    0  0.75685753834E-02 -0.16935472301E-01 -0.14838207429E-01  0.23754282879E-01  0.00000000000E+00 0.  1.
     999901    1    3    3    0    0 -0.12951245687E+00 -0.24415741921E-01  0.19412654940E-01  0.89002609856E+00  0.88000000000E+00 0.  1.
        -11    1    4    4    0    0  0.91083620301E-01  0.36325215364E-01 -0.93907130307E-02  0.98509866362E-01  0.51100000000E-03 0. -1.
         11    1    4    4    0    0  0.30860261186E-01  0.50259988582E-02  0.48162655193E-02  0.31639752204E-01  0.51100000000E-03 0.  1.
</event>
<event>
 8    1  0.1202249E+005  0.1043930E+01  0.7957747E-01            NaN
         13   -1    0    0    0    0  0.00000000000E+00  0.00000000000E+00  0.74505805969E-08  0.10566000000E+00  0.10566000000E+00 0.  1.
     999900   -1    0    0    0    0 -0.00000000000E+00 -0.00000000000E+00 -0.74505805969E-08  0.93827000000E+00  0.93827000000E+00 0.  1.
     999902    2    1    2    0    0  0.21652053197E-02  0.15708989185E-02  0.23867735866E-01  0.10199128259E+01  0.10196300053E+01 0.  0.
     999903    2    3    3    0    0  0.22618559089E-01  0.63222065262E-01  0.11288892984E+00  0.13303967882E+00  0.21142774402E-01 0.  0.
         14    1    1    2    0    0 -0.21652053197E-02 -0.15708989185E-02 -0.23867735866E-01  0.24017174123E-01  0.00000000000E+00 0. -1.
     999901    1    3    3    0    0 -0.20453353769E-01 -0.61651166344E-01 -0.89021193973E-01  0.88687314706E+00  0.88000000000E+00 0.  1.
        -11    1    4    4    0    0  0.26626128013E-01  0.52840278219E-01  0.97290394365E-01  0.11387154013E+00  0.51100000000E-03 0. -1.
         11    1    4    4    0    0 -0.40075689245E-02  0.10381787044E-01  0.15598535474E-01  0.19168138690E-01  0.51100000000E-03 0.  1.
</event>
<event>
 8    1  0.1202249E+005  0.1043930E+01  0.7957747E-01            NaN
         13   -1    0    0    0    0  0.00000000000E+00  0.00000000000E+00  0.74505805969E-08  0.10566000000E+00  0.10566000000E+00 0.  1.
     999900   -1    0    0    0    0 -0.00000000000E+00 -0.00000000000E+00 -0.74505805969E-08  0.93827000000E+00  0.93827000000E+00 0. -1.
     999902    2    1    2    0    0 -0.14836452640E-01 -0.15070599809E-01  0.48301894031E-02  0.10222372815E+01  0.10220070869E+01 0.  0.
     999903    2    3    3    0    0 -0.12383222374E+00 -0.17777026028E-01 -0.43787046254E-01  0.13417701416E+00  0.20873989052E-01 0.  0.
         14    1    1    2    0    0  0.14836452640E-01  0.15070599809E-01 -0.48301894031E-02  0.21692718483E-01  0.00000000000E+00 0.  1.
     999901    1    3    3    0    0  0.10899577110E+00  0.27064262194E-02  0.48617235657E-01  0.88806026736E+00  0.88000000000E+00 0.  1.
        -11    1    4    4    0    0 -0.10691969651E+00 -0.22363004931E-01 -0.36220347805E-01  0.11508301442E+00  0.51100000000E-03 0. -1.
         11    1    4    4    0    0 -0.16912527225E-01  0.45859789033E-02 -0.75666984487E-02  0.19093999739E-01  0.51100000000E-03 0.  1.
</event>
<event>
 8    1  0.1202249E+005  0.1043930E+01  0.7957747E-01            NaN
         13   -1    0    0    0    0  0.00000000000E+00  0.00000000000E+00  0.74505805969E-08  0.10566000000E+00  0.10566000000E+00 0. -1.
     999900   -1    0    0    0    0 -0.00000000000E+00 -0.00000000000E+00 -0.74505805969E-08  0.93827000000E+00  0.93827000000E+00 0.  1.
     999902    2    1    2    0    0  0.90142624132E-02  0.12860406368E-01 -0.18386037765E-01  0.10197495665E+01  0.10194628414E+01 0.  0.
     999903    2    3    3    0    0 -0.12232887586E-01  0.87784816315E-02  0.12534511638E+00  0.12782650472E+00  0.20037760072E-01 0.  0.
         14    1    1    2    0    0 -0.90142624132E-02 -0.12860406368E-01  0.18386037765E-01  0.24180433485E-01  0.00000000000E+00 0. -1.
     999901    1    3    3    0    0  0.21247150000E-01  0.40819247362E-02 -0.14373115415E+00  0.89192306180E+00  0.88000000000E+00 0.  1.
        -11    1    4    4    0    0 -0.56517927248E-02  0.14441514086E-01  0.63259413278E-01  0.65134588195E-01  0.51100000000E-03 0.  1.
         11    1    4    4    0    0 -0.65810948615E-02 -0.56630324542E-02  0.62085703106E-01  0.62691916523E-01  0.51100000000E-03 0. -1.
</event>
<event>
 8    1  0.1202249E+005  0.1043930E+01  0.7957747E-01            NaN
         13   -1    0    0    0    0  0.00000000000E+00  0.00000000000E+00  0.74505805969E-08  0.10566000000E+00  0.10566000000E+00 0. -1.
     999900   -1    0    0    0    0 -0.00000000000E+00 -0.00000000000E+00 -0.74505805969E-08  0.93827000000E+00  0.93827000000E+00 0. -1.
     999902    2    1    2    0    0  0.14373492349E-01 -0.13628994628E-01  0.14295977789E-01  0.10195021111E+01  0.10192094155E+01 0.  0.
     999903    2    3    3    0    0 -0.71122268755E-01 -0.92489034283E-01  0.57198983071E-01  0.13081257085E+00  0.15086631603E-01 0.  0.
         14    1    1    2    0    0 -0.14373492349E-01  0.13628994628E-01 -0.14295977789E-01  0.24427888935E-01  0.00000000000E+00 0. -1.
     999901    1    3    3    0    0  0.85495761104E-01  0.78860039655E-01 -0.42903005282E-01  0.88868954021E+00  0.88000000000E+00 0. -1.
        -11    1    4    4    0    0 -0.36369331756E-01 -0.50837421032E-01  0.38587563062E-01  0.73460416645E-01  0.51100000000E-03 0. -1.
         11    1    4    4    0    0 -0.34752936999E-01 -0.41651613252E-01  0.18611420009E-01  0.57352154208E-01  0.51100000000E-03 0.  1.
</event>
<event>
 8    1  0.1202249E+005  0.1043930E+01  0.7957747E-01            NaN
         13   -1    0    0    0    0  0.00000000000E+00  0.00000000000E+00  0.74505805969E-08  0.10566000000E+00  0.10566000000E+00 0. -1.
     999900   -1    0    0    0    0 -0.00000000000E+00 -0.00000000000E+00 -0.74505805969E-08  0.93827000000E+00  0.93827000000E+00 0.  1.
     999902    2    1    2    0    0 -0.13348000233E-01  0.17818539047E-01 -0.52454260642E-02  0.10210567856E+01  0.10208005561E+01 0.  0.
     999903    2    3    3    0    0  0.47036112725E-01 -0.11595437623E+00 -0.23039409065E-01  0.12872385454E+00  0.19524422935E-01 0.  0.
         14    1    1    2    0    0  0.13348000233E-01 -0.17818539047E-01  0.52454260642E-02  0.22873214435E-01  0.00000000000E+00 0.  1.
     999901    1    3    3    0    0 -0.60384112957E-01  0.13377291528E+00  0.17793983001E-01  0.89233293102E+00  0.88000000000E+00 0. -1.
        -11    1    4    4    0    0  0.25848145047E-01 -0.73247216536E-01 -0.53101645969E-02  0.77857178871E-01  0.51100000000E-03 0.  1.
         11    1    4    4    0    0  0.21187967678E-01 -0.42707159692E-01 -0.17729244468E-01  0.50866675670E-01  0.51100000000E-03 0. -1.
</event>
<event>
 8    1  0.1202249E+005  0.1043930E+01  0.7957747E-01            NaN
         13   -1    0    0    0    0  0.00000000000E+00  0.00000000000E+00  0.74505805969E-08  0.10566000000E+00  0.10566000000E+00 0.  1.
     999900   -1    0    0    0    0 -0.00000000000E+00 -0.00000000000E+00 -0.74505805969E-08  0.93827000000E+00  0.93827000000E+00 0. -1.
     999902    2    1    2    0    0 -0.10192534064E-01  0.36620883145E-03  0.21685827014E-01  0.10199655064E+01  0.10196839399E+01 0.  0.
     999903    2    3    3    0    0 -0.54368382515E-01 -0.11721176400E+00  0.95783573423E-02  0.13096456372E+00  0.19116835079E-01 0.  0.
         14    1    1    2    0    0  0.10192534064E-01 -0.36620883145E-03 -0.21685827014E-01  0.23964493587E-01  0.00000000000E+00 0. -1.
     999901    1    3    3    0    0  0.44175848450E-01  0.11757797284E+00  0.12107469672E-01  0.88900094269E+00  0.88000000000E+00 0. -1.
        -11    1    4    4    0    0 -0.48876477339E-02 -0.28736322474E-01  0.41364905703E-02  0.29445492099E-01  0.51100000000E-03 0. -1.
         11    1    4    4    0    0 -0.49480734781E-01 -0.88475441530E-01  0.54418667720E-02  0.10151907162E+00  0.51100000000E-03 0.  1.
</event>
<event>
 8    1  0.1202249E+005  0.1043930E+01  0.7957747E-01            NaN
         13   -1    0    0    0    0  0.00000000000E+00  0.00000000000E+00  0.74505805969E-08  0.10566000000E+00  0.10566000000E+00 0.  1.
     999900   -1    0    0    0    0 -0.00000000000E+00 -0.00000000000E+00 -0.74505805969E-08  0.93827000000E+00  0.93827000000E+00 0. -1.
     999902    2    1    2    0    0  0.86133914676E-02 -0.17472163905E-01  0.13356273930E-01  0.10203110018E+01  0.10200375891E+01 0.  0.
     999903    2    3    3    0    0  0.42360887123E-01 -0.53276890451E-01 -0.10945984743E+00  0.13042074361E+00  0.19880652682E-01 0.  0.
         14    1    1    2    0    0 -0.86133914676E-02  0.17472163905E-01 -0.13356273930E-01  0.23618998230E-01  0.00000000000E+00 0. -1.
     999901    1    3    3    0    0 -0.33747495655E-01  0.35804726546E-01  0.12281612136E+00  0.88989025816E+00  0.88000000000E+00 0.  1.
        -11    1    4    4    0    0  0.78909418521E-02 -0.24176522626E-01 -0.33328424022E-01  0.41926318446E-01  0.51100000000E-03 0. -1.
         11    1    4    4    0    0  0.34469945271E-01 -0.29100367825E-01 -0.76131423403E-01  0.88494425163E-01  0.51100000000E-03 0.  1.
</event>
<event>
 8    1  0.1202249E+005  0.1043930E+01  0.7957747E-01            NaN
         13   -1    0    0    0    0  0.00000000000E+00  0.00000000000E+00  0.74505805969E-08  0.10566000000E+00  0.10566000000E+00 0.  1.
     999900   -1    0    0    0    0 -0.00000000000E+00 -0.00000000000E+00 -0.74505805969E-08  0.93827000000E+00  0.93827000000E+00 0. -1.
     999902    2    1    2    0    0  0.26812578504E-02 -0.15142600693E-01 -0.19068110306E-01  0.10194334629E+01  0.10191390999E+01 0.  0.
     999903    2    3    3    0    0  0.22862975258E-02 -0.17439024121E-01 -0.12985568795E+00  0.13248401850E+00  0.19497916493E-01 0.  0.
         14    1    1    2    0    0 -0.26812578504E-02  0.15142600693E-01  0.19068110306E-01  0.24496537103E-01  0.00000000000E+00 0.  1.
     999901    1    3    3    0    0  0.39496032463E-03  0.22964234278E-02  0.11078757764E+00  0.88694944440E+00  0.88000000000E+00 0.  1.
        -11    1    4    4    0    0 -0.57970160779E-02 -0.61602328427E-02 -0.87519611494E-01  0.87928933697E-01  0.51100000000E-03 0. -1.
         11    1    4    4    0    0  0.80833136036E-02 -0.11278791278E-01 -0.42336076452E-01  0.44555084804E-01  0.51100000000E-03 0.  1.
</event>
<event>
 8    1  0.1202249E+005  0.1043930E+01  0.7957747E-01            NaN
         13   -1    0    0    0    0  0.00000000000E+00  0.00000000000E+00  0.74505805969E-08  0.10566000000E+00  0.10566000000E+00 0. -1.
     999900   -1    0    0    0    0 -0.00000000000E+00 -0.00000000000E+00 -0.74505805969E-08  0.93827000000E+00  0.93827000000E+00 0.  1.
     999902    2    1    2    0    0 -0.21030946557E-01  0.87738236216E-02  0.36812073003E-02  0.10208468464E+01  0.10205858375E+01 0.  0.
     999903    2    3    3    0    0  0.77980436378E-01  0.63120649559E-01 -0.79644543724E-01  0.12972395237E+00  0.20491110622E-01 0.  0.
         14    1    1    2    0    0  0.21030946557E-01 -0.87738236216E-02 -0.36812073003E-02  0.23083153624E-01  0.00000000000E+00 0.  1.
     999901    1    3    3    0    0 -0.99011382936E-01 -0.54346825938E-01  0.83325751024E-01  0.89112289401E+00  0.88000000000E+00 0. -1.
        -11    1    4    4    0    0  0.42317026741E-01  0.27769982829E-01 -0.51258208645E-01  0.72038654715E-01  0.51100000000E-03 0. -1.
         11    1    4    4    0    0  0.35663409637E-01  0.35350666730E-01 -0.28386335079E-01  0.57685297654E-01  0.51100000000E-03 0.  1.
</event>
<event>
 8    1  0.1202249E+005  0.1043930E+01  0.7957747E-01            NaN
         13   -1    0    0    0    0  0.00000000000E+00  0.00000000000E+00  0.74505805969E-08  0.10566000000E+00  0.10566000000E+00 0. -1.
     999900   -1    0    0    0    0 -0.00000000000E+00 -0.00000000000E+00 -0.74505805969E-08  0.93827000000E+00  0.93827000000E+00 0. -1.
     999902    2    1    2    0    0  0.17132048856E-03 -0.24290424846E-02 -0.24416958399E-01  0.10193919183E+01  0.10190965438E+01 0.  0.
     999903    2    3    3    0    0  0.12748585990E+00  0.12004340345E-01  0.45234462347E-02  0.12964203121E+00  0.19744518950E-01 0.  0.
         14    1    1    2    0    0 -0.17132048856E-03  0.24290424846E-02  0.24416958399E-01  0.24538081742E-01  0.00000000000E+00 0. -1.
     999901    1    3    3    0    0 -0.12731453941E+00 -0.14433382829E-01 -0.28940404634E-01  0.88974988705E+00  0.88000000000E+00 0. -1.
        -11    1    4    4    0    0  0.30852372889E-01  0.47012924328E-02 -0.71789129484E-02  0.32027628316E-01  0.51100000000E-03 0. -1.
         11    1    4    4    0    0  0.96633487010E-01  0.73030479117E-02  0.11702359183E-01  0.97614402892E-01  0.51100000000E-03 0.  1.
</event>
<event>
 8    1  0.1202249E+005  0.1043930E+01  0.7957747E-01            NaN
         13   -1    0    0    0    0  0.00000000000E+00  0.00000000000E+00  0.74505805969E-08  0.10566000000E+00  0.10566000000E+00 0.  1.
     999900   -1    0    0    0    0 -0.00000000000E+00 -0.00000000000E+00 -0.74505805969E-08  0.93827000000E+00  0.93827000000E+00 0.  1.
     999902    2    1    2    0    0  0.28252326652E-02 -0.59729144699E-02  0.22365952353E-01  0.10206084762E+01  0.10203419859E+01 0.  0.
     999903    2    3    3    0    0  0.78017810382E-01 -0.89767933543E-01  0.55607427721E-01  0.13281315935E+00  0.20052148259E-01 0.  0.
         14    1    1    2    0    0 -0.28252326652E-02  0.59729144699E-02 -0.22365952353E-01  0.23321523782E-01  0.00000000000E+00 0. -1.
     999901    1    3    3    0    0 -0.75192577717E-01  0.83795019073E-01 -0.33241475368E-01  0.88779531687E+00  0.88000000000E+00 0. -1.
        -11    1    4    4    0    0  0.63368808935E-01 -0.64923601190E-01  0.34472197027E-01  0.97052941358E-01  0.51100000000E-03 0. -1.
         11    1    4    4    0    0  0.14649001447E-01 -0.24844332353E-01  0.21135230694E-01  0.35760217994E-01  0.51100000000E-03 0.  1.
</event>
<event>
 8    1  0.1202249E+005  0.1043930E+01  0.7957747E-01            NaN
         13   -1    0    0    0    0  0.00000000000E+00  0.00000000000E+00  0.74505805969E-08  0.10566000000E+00  0.10566000000E+00 0. -1.
     999900   -1    0    0    0    0 -0.00000000000E+00 -0.00000000000E+00 -0.74505805969E-08  0.93827000000E+00  0.93827000000E+00 0. -1.
     999902    2    1    2    0    0 -0.27538105668E-02  0.20309494178E-01 -0.48519811698E-02  0.10228681685E+01  0.10226513039E+01 0.  0.
     999903    2    3    3    0    0  0.43612039550E-01  0.11606911934E+00 -0.49725442369E-01  0.13532474677E+00  0.21589743199E-01 0.  0.
         14    1    1    2    0    0  0.27538105668E-02 -0.20309494178E-01  0.48519811698E-02  0.21061831537E-01  0.00000000000E+00 0. -1.
     999901    1    3    3    0    0 -0.46365850117E-01 -0.95759625163E-01  0.44873461199E-01  0.88754342169E+00  0.88000000000E+00 0. -1.
        -11    1    4    4    0    0  0.14856048465E-01  0.47326813622E-01 -0.30984760248E-01  0.58487998361E-01  0.51100000000E-03 0. -1.
         11    1    4    4    0    0  0.28755991085E-01  0.68742305720E-01 -0.18740682121E-01  0.76836748411E-01  0.51100000000E-03 0.  1.
</event>
<event>
 8    1  0.1202249E+005  0.1043930E+01  0.7957747E-01            NaN
         13   -1    0    0    0    0  0.00000000000E+00  0.00000000000E+00  0.74505805969E-08  0.10566000000E+00  0.10566000000E+00 0.  1.
     999900   -1    0    0    0    0 -0.00000000000E+00 -0.00000000000E+00 -0.74505805969E-08  0.93827000000E+00  0.93827000000E+00 0.  1.
     999902    2    1    2    0    0  0.10991225612E-01  0.17554954344E-01  0.82464902688E-02  0.10216367709E+01  0.10213935106E+01 0.  0.
     999903    2    3    3    0    0 -0.10728442203E+00 -0.37043981622E-01  0.60909935069E-01  0.13048941436E+00  0.20862964414E-01 0.  0.
         14    1    1    2    0    0 -0.10991225612E-01 -0.17554954344E-01 -0.82464902688E-02  0.22293229112E-01  0.00000000000E+00 0.  1.
     999901    1    3    3    0    0  0.11827564764E+00  0.54598935967E-01 -0.52663444801E-01  0.89114735653E+00  0.88000000000E+00 0.  1.
        -11    1    4    4    0    0 -0.23440878792E-01 -0.85104426884E-02  0.23752612306E-01  0.34443433999E-01  0.51100000000E-03 0. -1.
         11    1    4    4    0    0 -0.83843543238E-01 -0.28533538934E-01  0.37157322763E-01  0.96045980357E-01  0.51100000000E-03 0.  1.
</event>
<event>
 8    1  0.1202249E+005  0.1043930E+01  0.7957747E-01            NaN
         13   -1    0    0    0    0  0.00000000000E+00  0.00000000000E+00  0.74505805969E-08  0.10566000000E+00  0.10566000000E+00 0. -1.
     999900   -1    0    0    0    0 -0.00000000000E+00 -0.00000000000E+00 -0.74505805969E-08  0.93827000000E+00  0.93827000000E+00 0. -1.
     999902    2    1    2    0    0  0.75458356781E-02 -0.15664096261E-01  0.14242502496E-01  0.10214544038E+01  0.10212071027E+01 0.  0.
     999903    2    3    3    0    0 -0.35936872081E-01 -0.95362401591E-03  0.12664025338E+00  0.13311865742E+00  0.19759934342E-01 0.  0.
         14    1    1    2    0    0 -0.75458356781E-02  0.15664096261E-01 -0.14242502496E-01  0.22475596213E-01  0.00000000000E+00 0.  1.
     999901    1    3    3    0    0  0.43482707759E-01 -0.14710472245E-01 -0.11239775088E+00  0.88833574637E+00  0.88000000000E+00 0. -1.
        -11    1    4    4    0    0 -0.26590145334E-01 -0.76524412188E-02  0.10525523921E+00  0.10883254195E+00  0.51100000000E-03 0.  1.
         11    1    4    4    0    0 -0.93467267464E-02  0.66988172029E-02  0.21385014164E-01  0.24286115470E-01  0.51100000000E-03 0. -1.
</event>
<event>
 8    1  0.1202249E+005  0.1043930E+01  0.7957747E-01            NaN
         13   -1    0    0    0    0  0.00000000000E+00  0.00000000000E+00  0.74505805969E-08  0.10566000000E+00  0.10566000000E+00 0. -1.
     999900   -1    0    0    0    0 -0.00000000000E+00 -0.00000000000E+00 -0.74505805969E-08  0.93827000000E+00  0.93827000000E+00 0.  1.
     999902    2    1    2    0    0  0.12389716340E-01  0.13154758284E-01  0.29056296270E-01  0.10097127370E+01  0.10091327911E+01 0.  0.
     999903    2    3    3    0    0 -0.62264028082E-01  0.44639558612E-01  0.94891205091E-01  0.12354192418E+00  0.19717171236E-01 0.  0.
         14    1    1    2    0    0 -0.12389716340E-01 -0.13154758284E-01 -0.29056296270E-01  0.34217263033E-01  0.00000000000E+00 0.  1.
     999901    1    3    3    0    0  0.74653744422E-01 -0.31484800328E-01 -0.65834908821E-01  0.88617081278E+00  0.88000000000E+00 0. -1.
        -11    1    4    4    0    0 -0.30600011251E-01  0.10147359616E-01  0.36738274935E-01  0.48880380133E-01  0.51100000000E-03 0. -1.
         11    1    4    4    0    0 -0.31664016831E-01  0.34492198996E-01  0.58152930156E-01  0.74661544052E-01  0.51100000000E-03 0.  1.
</event>
<event>
 8    1  0.1202249E+005  0.1043930E+01  0.7957747E-01            NaN
         13   -1    0    0    0    0  0.00000000000E+00  0.00000000000E+00  0.74505805969E-08  0.10566000000E+00  0.10566000000E+00 0.  1.
     999900   -1    0    0    0    0 -0.00000000000E+00 -0.00000000000E+00 -0.74505805969E-08  0.93827000000E+00  0.93827000000E+00 0.  1.
     999902    2    1    2    0    0  0.13029366036E-01  0.17227261920E-01 -0.19438561963E-02  0.10222431028E+01  0.10220130331E+01 0.  0.
     999903    2    3    3    0    0  0.10755828588E+00  0.28225377943E-01  0.71786588250E-01  0.13404669791E+00  0.21207219251E-01 0.  0.
         14    1    1    2    0    0 -0.13029366036E-01 -0.17227261920E-01  0.19438561963E-02  0.21686897184E-01  0.00000000000E+00 0.  1.
     999901    1    3    3    0    0 -0.94528919841E-01 -0.10998116023E-01 -0.73730444446E-01  0.88819640490E+00  0.88000000000E+00 0.  1.
        -11    1    4    4    0    0  0.48073099676E-01  0.23547408962E-01  0.33772092521E-01  0.63295487481E-01  0.51100000000E-03 0. -1.
         11    1    4    4    0    0  0.59485186201E-01  0.46779689805E-02  0.38014495729E-01  0.70751210433E-01  0.51100000000E-03 0.  1.
</event>
<event>
 8    1  0.1202249E+005  0.1043930E+01  0.7957747E-01            NaN
         13   -1    0    0    0    0  0.00000000000E+00  0.00000000000E+00  0.74505805969E-08  0.10566000000E+00  0.10566000000E+00 0.  1.
     999900   -1    0    0    0    0 -0.00000000000E+00 -0.00000000000E+00 -0.74505805969E-08  0.93827000000E+00  0.93827000000E+00 0.  1.
     999902    2    1    2    0    0  0.12651838878E-01 -0.48770929507E-02 -0.20447968311E-01  0.10193948320E+01  0.10190995285E+01 0.  0.
     999903    2    3    3    0    0 -0.54675020802E-01 -0.10502991929E+00 -0.51303580026E-01  0.13062289078E+00  0.20239575767E-01 0.  0.
         14    1    1    2    0    0 -0.12651838878E-01  0.48770929507E-02  0.20447968311E-01  0.24535168039E-01  0.00000000000E+00 0.  1.
     999901    1    3    3    0    0  0.67326859680E-01  0.10015282633E+00  0.30855611715E-01  0.88877194118E+00  0.88000000000E+00 0.  1.
        -11    1    4    4    0    0 -0.24582970425E-01 -0.64197872914E-01 -0.36214548558E-01  0.77700990791E-01  0.51100000000E-03 0.  1.
         11    1    4    4    0    0 -0.30092050377E-01 -0.40832046371E-01 -0.15089031469E-01  0.52921899989E-01  0.51100000000E-03 0. -1.
</event>
<event>
 8    1  0.1202249E+005  0.1043930E+01  0.7957747E-01            NaN
         13   -1    0    0    0    0  0.00000000000E+00  0.00000000000E+00  0.74505805969E-08  0.10566000000E+00  0.10566000000E+00 0. -1.
     999900   -1    0    0    0    0 -0.00000000000E+00 -0.00000000000E+00 -0.74505805969E-08  0.93827000000E+00  0.93827000000E+00 0.  1.
     999902    2    1    2    0    0  0.18824076757E-01  0.11623230561E-01  0.10125043258E-01  0.10195997338E+01  0.10193094011E+01 0.  0.
     999903    2    3    3    0    0  0.10833162698E+00 -0.11303832788E-01 -0.70258006386E-01  0.13111862172E+00  0.19808772309E-01 0.  0.
         14    1    1    2    0    0 -0.18824076757E-01 -0.11623230561E-01 -0.10125043258E-01  0.24330266242E-01  0.00000000000E+00 0.  1.
     999901    1    3    3    0    0 -0.89507550222E-01  0.22927063349E-01  0.80383049644E-01  0.88848111204E+00  0.88000000000E+00 0. -1.
        -11    1    4    4    0    0  0.61712460152E-01 -0.61034808273E-02 -0.51443228520E-01  0.80575102220E-01  0.51100000000E-03 0. -1.
         11    1    4    4    0    0  0.46619166827E-01 -0.52003519605E-02 -0.18814777867E-01  0.50543519498E-01  0.51100000000E-03 0.  1.
</event>
<event>
 8    1  0.1202249E+005  0.1043930E+01  0.7957747E-01            NaN
         13   -1    0    0    0    0  0.00000000000E+00  0.00000000000E+00  0.74505805969E-08  0.10566000000E+00  0.10566000000E+00 0.  1.
     999900   -1    0    0    0    0 -0.00000000000E+00 -0.00000000000E+00 -0.74505805969E-08  0.93827000000E+00  0.93827000000E+00 0. -1.
     999902    2    1    2    0    0 -0.36403083966E-02 -0.73233227371E-02  0.22234321858E-01  0.10202393274E+01  0.10199642333E+01 0.  0.
     999903    2    3    3    0    0 -0.12865845397E+00 -0.14457329352E-01 -0.20986622545E-02  0.13104164131E+00  0.20136912015E-01 0.  0.
         14    1    1    2    0    0  0.36403083966E-02  0.73233227371E-02 -0.22234321858E-01  0.23690672629E-01  0.00000000000E+00 0. -1.
     999901    1    3    3    0    0  0.12501814557E+00  0.71340066147E-02  0.24332984113E-01  0.88919768606E+00  0.88000000000E+00 0. -1.
        -11    1    4    4    0    0 -0.31959091969E-01  0.34359172596E-02  0.45845246796E-02  0.32472574189E-01  0.51100000000E-03 0.  1.
         11    1    4    4    0    0 -0.96699361999E-01 -0.17893246611E-01 -0.66831869341E-02  0.98569067125E-01  0.51100000000E-03 0. -1.
</event>
<event>
 8    1  0.1202249E+005  0.1043930E+01  0.7957747E-01            NaN
         13   -1    0    0    0    0  0.00000000000E+00  0.00000000000E+00  0.74505805969E-08  0.10566000000E+00  0.10566000000E+00 0.  1.
     999900   -1    0    0    0    0 -0.00000000000E+00 -0.00000000000E+00 -0.74505805969E-08  0.93827000000E+00  0.93827000000E+00 0.  1.
     999902    2    1    2    0    0  0.85003909267E-02  0.11919304766E-01  0.18247747399E-01  0.10205354118E+01  0.10202672297E+01 0.  0.
     999903    2    3    3    0    0  0.11923638560E-01 -0.10947174395E+00  0.67697095651E-01  0.13082043307E+00  0.20120960952E-01 0.  0.
         14    1    1    2    0    0 -0.85003909267E-02 -0.11919304766E-01 -0.18247747399E-01  0.23394588202E-01  0.00000000000E+00 0. -1.
     999901    1    3    3    0    0 -0.34232476333E-02  0.12139104871E+00 -0.49449348252E-01  0.88971497873E+00  0.88000000000E+00 0.  1.
        -11    1    4    4    0    0 -0.18650282970E-02 -0.71750722368E-01  0.43317681415E-01  0.83835118745E-01  0.51100000000E-03 0. -1.
         11    1    4    4    0    0  0.13788666857E-01 -0.37721021579E-01  0.24379414236E-01  0.46985314324E-01  0.51100000000E-03 0.  1.
</event>
<event>
 8    1  0.1202249E+005  0.1043930E+01  0.7957747E-01            NaN
         13   -1    0    0    0    0  0.00000000000E+00  0.00000000000E+00  0.74505805969E-08  0.10566000000E+00  0.10566000000E+00 0. -1.
     999900   -1    0    0    0    0 -0.00000000000E+00 -0.00000000000E+00 -0.74505805969E-08  0.93827000000E+00  0.93827000000E+00 0. -1.
     999902    2    1    2    0    0  0.21911545214E-01 -0.90631067538E-02 -0.36607041204E-02  0.10199371579E+01  0.10196549169E+01 0.  0.
     999903    2    3    3    0    0  0.10553334404E-01 -0.31631446942E-01  0.12425748761E+00  0.13032971486E+00  0.20832427738E-01 0.  0.
         14    1    1    2    0    0 -0.21911545214E-01  0.90631067538E-02  0.36607041204E-02  0.23992842107E-01  0.00000000000E+00 0. -1.
     999901    1    3    3    0    0  0.11358210810E-01  0.22568340188E-01 -0.12791819173E+00  0.88960744304E+00  0.88000000000E+00 0. -1.
        -11    1    4    4    0    0  0.11664047856E-01 -0.34236550231E-01  0.11034281110E+00  0.11612057727E+00  0.51100000000E-03 0. -1.
         11    1    4    4    0    0 -0.11107134524E-02  0.26051032891E-02  0.13914676511E-01  0.14209137585E-01  0.51100000000E-03 0.  1.
</event>
<event>
 8    1  0.1230641E+005  0.1043930E+01  0.7957747E-01            NaN
         13   -1    0    0    0    0  0.00000000000E+00  0.00000000000E+00  0.74505805969E-08  0.10566000000E+00  0.10566000000E+00 0. -1.
     999900   -1    0    0    0    0 -0.00000000000E+00 -0.00000000000E+00 -0.74505805969E-08  0.93827000000E+00  0.93827000000E+00 0. -1.
     999902    2    1    2    0    0  0.23429675372E-01 -0.23115138489E-02  0.45360144414E-02  0.10199535905E+01  0.10196717406E+01 0.  0.
     999903    2    3    3    0    0  0.13602504575E-01  0.12377580094E+00  0.33307214006E-01  0.13044677989E+00  0.20037835448E-01 0.  0.
         14    1    1    2    0    0 -0.23429675372E-01  0.23115138489E-02 -0.45360144414E-02  0.23976409475E-01  0.00000000000E+00 0.  1.
     999901    1    3    3    0    0  0.98271707976E-02 -0.12608731479E+00 -0.28771199565E-01  0.88950681063E+00  0.88000000000E+00 0. -1.
        -11    1    4    4    0    0  0.16710507726E-01  0.60723234134E-01  0.17417128585E-01  0.65346535649E-01  0.51100000000E-03 0. -1.
         11    1    4    4    0    0 -0.31080031511E-02  0.63052566809E-01  0.15890085421E-01  0.65100244243E-01  0.51100000000E-03 0.  1.
</event>
<event>
 8    1  0.1202249E+005  0.1043930E+01  0.7957747E-01            NaN
         13   -1    0    0    0    0  0.00000000000E+00  0.00000000000E+00  0.74505805969E-08  0.10566000000E+00  0.10566000000E+00 0.  1.
     999900   -1    0    0    0    0 -0.00000000000E+00 -0.00000000000E+00 -0.74505805969E-08  0.93827000000E+00  0.93827000000E+00 0.  1.
     999902    2    1    2    0    0  0.10148860463E-01  0.20462130276E-01 -0.54974153338E-02  0.10204370283E+01  0.10201665594E+01 0.  0.
     999903    2    3    3    0    0  0.43390073475E-01  0.44230959815E-01  0.11338761224E+00  0.13150306827E+00  0.24438291124E-01 0.  0.
         14    1    1    2    0    0 -0.10148860463E-01 -0.20462130276E-01  0.54974153338E-02  0.23492971704E-01  0.00000000000E+00 0. -1.
     999901    1    3    3    0    0 -0.33241213012E-01 -0.23768829539E-01 -0.11888502758E+00  0.88893396002E+00  0.88000000000E+00 0.  1.
        -11    1    4    4    0    0  0.84203037143E-02 -0.10819658860E-03  0.66322070875E-02  0.10731286642E-01  0.51100000000E-03 0. -1.
         11    1    4    4    0    0  0.34969769760E-01  0.44339156403E-01  0.10675540515E+00  0.12077178163E+00  0.51100000000E-03 0.  1.
</event>
<event>
 8    1  0.1202249E+005  0.1043930E+01  0.7957747E-01            NaN
         13   -1    0    0    0    0  0.00000000000E+00  0.00000000000E+00  0.74505805969E-08  0.10566000000E+00  0.10566000000E+00 0. -1.
     999900   -1    0    0    0    0 -0.00000000000E+00 -0.00000000000E+00 -0.74505805969E-08  0.93827000000E+00  0.93827000000E+00 0.  1.
     999902    2    1    2    0    0 -0.96107823622E-02  0.10583205472E-02  0.21927144305E-01  0.10199657175E+01  0.10196841560E+01 0.  0.
     999903    2    3    3    0    0 -0.72002495105E-01 -0.10092704733E+00 -0.33677728057E-01  0.13014234010E+00  0.20789688192E-01 0.  0.
         14    1    1    2    0    0  0.96107823622E-02 -0.10583205472E-02 -0.21927144305E-01  0.23964282534E-01  0.00000000000E+00 0.  1.
     999901    1    3    3    0    0  0.62391712743E-01  0.10198536788E+00  0.55604872361E-01  0.88982337737E+00  0.88000000000E+00 0. -1.
        -11    1    4    4    0    0 -0.29155759664E-02 -0.14396167673E-01 -0.68217452048E-02  0.16203319275E-01  0.51100000000E-03 0.  1.
         11    1    4    4    0    0 -0.69086919139E-01 -0.86530879657E-01 -0.26855982852E-01  0.11393902082E+00  0.51100000000E-03 0. -1.
</event>
<event>
 8    1  0.1202249E+005  0.1043930E+01  0.7957747E-01            NaN
         13   -1    0    0    0    0  0.00000000000E+00  0.00000000000E+00  0.74505805969E-08  0.10566000000E+00  0.10566000000E+00 0. -1.
     999900   -1    0    0    0    0 -0.00000000000E+00 -0.00000000000E+00 -0.74505805969E-08  0.93827000000E+00  0.93827000000E+00 0.  1.
     999902    2    1    2    0    0  0.48646304015E-02 -0.11834882427E-01 -0.19803189798E-01  0.10203525659E+01  0.10200801260E+01 0.  0.
     999903    2    3    3    0    0  0.61389542488E-01  0.10830494606E+00  0.27782486884E-01  0.12912137219E+00  0.20045570836E-01 0.  0.
         14    1    1    2    0    0 -0.48646304015E-02  0.11834882427E-01  0.19803189798E-01  0.23577434067E-01  0.00000000000E+00 0. -1.
     999901    1    3    3    0    0 -0.56524912087E-01 -0.12013982849E+00 -0.47585676682E-01  0.89123119374E+00  0.88000000000E+00 0. -1.
        -11    1    4    4    0    0  0.67752165086E-02  0.27154051134E-01  0.25891405414E-02  0.28110688740E-01  0.51100000000E-03 0.  1.
         11    1    4    4    0    0  0.54614325980E-01  0.81150894929E-01  0.25193346343E-01  0.10101068345E+00  0.51100000000E-03 0. -1.
</event>
<event>
 8    1  0.1202249E+005  0.1043930E+01  0.7957747E-01            NaN
         13   -1    0    0    0    0  0.00000000000E+00  0.00000000000E+00  0.74505805969E-08  0.10566000000E+00  0.10566000000E+00 0.  1.
     999900   -1    0    0    0    0 -0.00000000000E+00 -0.00000000000E+00 -0.74505805969E-08  0.93827000000E+00  0.93827000000E+00 0. -1.
     999902    2    1    2    0    0  0.12361244945E-01  0.53029887003E-02  0.20672700510E-01  0.10192666139E+01  0.10189681779E+01 0.  0.
     999903    2    3    3    0    0  0.10505461312E+00 -0.12917119713E-01  0.77065949970E-01  0.13241587597E+00  0.19785849556E-01 0.  0.
         14    1    1    2    0    0 -0.12361244945E-01 -0.53029887003E-02 -0.20672700510E-01  0.24663386064E-01  0.00000000000E+00 0. -1.
     999901    1    3    3    0    0 -0.92693368179E-01  0.18220108413E-01 -0.56393249460E-01  0.88685073797E+00  0.88000000000E+00 0. -1.
        -11    1    4    4    0    0  0.25771283127E-01 -0.13772987140E-02  0.29666863878E-01  0.39324800306E-01  0.51100000000E-03 0. -1.
         11    1    4    4    0    0  0.79283329997E-01 -0.11539820999E-01  0.47399086092E-01  0.93091075660E-01  0.51100000000E-03 0.  1.
</event>
<event>
 8    1  0.1202249E+005  0.1043930E+01  0.7957747E-01            NaN
         13   -1    0    0    0    0  0.00000000000E+00  0.00000000000E+00  0.74505805969E-08  0.10566000000E+00  0.10566000000E+00 0. -1.
     999900   -1    0    0    0    0 -0.00000000000E+00 -0.00000000000E+00 -0.74505805969E-08  0.93827000000E+00  0.93827000000E+00 0.  1.
     999902    2    1    2    0    0 -0.99615459473E-02 -0.12840519399E-01 -0.16370419186E-01  0.10208626646E+01  0.10206020175E+01 0.  0.
     999903    2    3    3    0    0  0.27882491344E-01  0.26485433204E-01 -0.12529686711E+00  0.13246879210E+00  0.19229260970E-01 0.  0.
         14    1    1    2    0    0  0.99615459473E-02  0.12840519399E-01  0.16370419186E-01  0.23067335356E-01  0.00000000000E+00 0. -1.
     999901    1    3    3    0    0 -0.37844037291E-01 -0.39325952604E-01  0.10892644793E+00  0.88839387254E+00  0.88000000000E+00 0. -1.
        -11    1    4    4    0    0  0.19841327742E-01  0.28297522960E-01 -0.96123611163E-01  0.10214909611E+00  0.51100000000E-03 0. -1.
         11    1    4    4    0    0  0.80411636017E-02 -0.18120897559E-02 -0.29173255951E-01  0.30319695994E-01  0.51100000000E-03 0.  1.
</event>
<event>
 8    1  0.1202249E+005  0.1043930E+01  0.7957747E-01            NaN
         13   -1    0    0    0    0  0.00000000000E+00  0.00000000000E+00  0.74505805969E-08  0.10566000000E+00  0.10566000000E+00 0. -1.
     999900   -1    0    0    0    0 -0.00000000000E+00 -0.00000000000E+00 -0.74505805969E-08  0.93827000000E+00  0.93827000000E+00 0. -1.
     999902    2    1    2    0    0  0.19372707377E-01  0.12878068461E-01 -0.64362836847E-02  0.10197934678E+01  0.10195077954E+01 0.  0.
     999903    2    3    3    0    0 -0.10636179635E-01 -0.85417713090E-01 -0.94731688884E-01  0.12942350395E+00  0.19158195863E-01 0.  0.
         14    1    1    2    0    0 -0.19372707377E-01 -0.12878068461E-01  0.64362836847E-02  0.24136532189E-01  0.00000000000E+00 0. -1.
     999901    1    3    3    0    0  0.30008887012E-01  0.98295781551E-01  0.88295405199E-01  0.89036996386E+00  0.88000000000E+00 0.  1.
        -11    1    4    4    0    0 -0.21027725452E-02 -0.39776192943E-02 -0.12835941064E-01  0.13611231084E-01  0.51100000000E-03 0.  1.
         11    1    4    4    0    0 -0.85334070898E-02 -0.81440093795E-01 -0.81895747820E-01  0.11581227286E+00  0.51100000000E-03 0. -1.
</event>
<event>
 8    1  0.1407130E+005  0.1043930E+01  0.7957747E-01            NaN
         13   -1    0    0    0    0  0.00000000000E+00  0.00000000000E+00  0.74505805969E-08  0.10566000000E+00  0.10566000000E+00 0. -1.
     999900   -1    0    0    0    0 -0.00000000000E+00 -0.00000000000E+00 -0.74505805969E-08  0.93827000000E+00  0.93827000000E+00 0.  1.
     999902    2    1    2    0    0 -0.15541348303E-01  0.17589253042E-01  0.90088527299E-02  0.10187889030E+01  0.10184786469E+01 0.  0.
     999903    2    3    3    0    0 -0.13448693792E-02  0.78945784588E-01 -0.10093038648E+00  0.12971477771E+00  0.20118028352E-01 0.  0.
         14    1    1    2    0    0  0.15541348303E-01 -0.17589253042E-01 -0.90088527299E-02  0.25141096976E-01  0.00000000000E+00 0.  1.
     999901    1    3    3    0    0 -0.14196478923E-01 -0.61356531545E-01  0.10993923921E+00  0.88907412531E+00  0.88000000000E+00 0. -1.
        -11    1    4    4    0    0  0.70348135593E-02  0.48762514097E-01 -0.52179224212E-01  0.71764921398E-01  0.51100000000E-03 0.  1.
         11    1    4    4    0    0 -0.83796829385E-02  0.30183270491E-01 -0.48751162268E-01  0.57949856317E-01  0.51100000000E-03 0. -1.
</event>
<event>
 8    1  0.1202249E+005  0.1043930E+01  0.7957747E-01            NaN
         13   -1    0    0    0    0  0.00000000000E+00  0.00000000000E+00  0.74505805969E-08  0.10566000000E+00  0.10566000000E+00 0. -1.
     999900   -1    0    0    0    0 -0.00000000000E+00 -0.00000000000E+00 -0.74505805969E-08  0.93827000000E+00  0.93827000000E+00 0. -1.
     999902    2    1    2    0    0  0.88220437175E-03  0.30175693604E-02  0.24080032612E-01  0.10196456021E+01  0.10193563763E+01 0.  0.
     999903    2    3    3    0    0 -0.43629422920E-01 -0.12667112175E-01  0.12288272738E+00  0.13285968281E+00  0.22080497146E-01 0.  0.
         14    1    1    2    0    0 -0.88220437175E-03 -0.30175693604E-02 -0.24080032612E-01  0.24284397872E-01  0.00000000000E+00 0.  1.
     999901    1    3    3    0    0  0.44511627292E-01  0.15684681536E-01 -0.98802694768E-01  0.88678591931E+00  0.88000000000E+00 0. -1.
        -11    1    4    4    0    0 -0.42802043995E-01 -0.65584559301E-02  0.96657956794E-01  0.10591529657E+00  0.51100000000E-03 0.  1.
         11    1    4    4    0    0 -0.82737892571E-03 -0.61086562451E-02  0.26224770585E-01  0.26944386248E-01  0.51100000000E-03 0. -1.
</event>
<event>
 8    1  0.1202249E+005  0.1043930E+01  0.7957747E-01            NaN
         13   -1    0    0    0    0  0.00000000000E+00  0.00000000000E+00  0.74505805969E-08  0.10566000000E+00  0.10566000000E+00 0. -1.
     999900   -1    0    0    0    0 -0.00000000000E+00 -0.00000000000E+00 -0.74505805969E-08  0.93827000000E+00  0.93827000000E+00 0.  1.
     999902    2    1    2    0    0 -0.18230850369E-01  0.11728807602E-01  0.89923991723E-02  0.10204610402E+01  0.10201911303E+01 0.  0.
     999903    2    3    3    0    0 -0.95936565448E-02  0.24147036404E-01  0.12834967339E+00  0.13227470136E+00  0.18650478520E-01 0.  0.
         14    1    1    2    0    0  0.18230850369E-01 -0.11728807602E-01 -0.89923991723E-02  0.23468959837E-01  0.00000000000E+00 0.  1.
     999901    1    3    3    0    0 -0.86371938244E-02 -0.12418228802E-01 -0.11935727421E+00  0.88818633880E+00  0.88000000000E+00 0.  1.
        -11    1    4    4    0    0 -0.13693981191E-01  0.14823826121E-01  0.63603216524E-01  0.66730062303E-01  0.51100000000E-03 0. -1.
         11    1    4    4    0    0  0.41003246464E-02  0.93232102832E-02  0.64746456863E-01  0.65544639060E-01  0.51100000000E-03 0.  1.
</event>
<event>
 8    1  0.1202249E+005  0.1043930E+01  0.7957747E-01            NaN
         13   -1    0    0    0    0  0.00000000000E+00  0.00000000000E+00  0.74505805969E-08  0.10566000000E+00  0.10566000000E+00 0.  1.
     999900   -1    0    0    0    0 -0.00000000000E+00 -0.00000000000E+00 -0.74505805969E-08  0.93827000000E+00  0.93827000000E+00 0.  1.
     999902    2    1    2    0    0  0.40099259848E-02 -0.23483962326E-01 -0.18082934850E-02  0.10200376180E+01  0.10197577635E+01 0.  0.
     999903    2    3    3    0    0  0.10189536609E-01  0.10450832483E+00 -0.70799032477E-01  0.12808474074E+00  0.19167190611E-01 0.  0.
         14    1    1    2    0    0 -0.40099259848E-02  0.23483962326E-01  0.18082934850E-02  0.23892382013E-01  0.00000000000E+00 0.  1.
     999901    1    3    3    0    0 -0.61796106246E-02 -0.12799228716E+00  0.68990738992E-01  0.89195287725E+00  0.88000000000E+00 0. -1.
        -11    1    4    4    0    0  0.83071031022E-02  0.31015920932E-01 -0.30291089896E-01  0.44145289231E-01  0.51100000000E-03 0. -1.
         11    1    4    4    0    0  0.18824335073E-02  0.73492403899E-01 -0.40507942581E-01  0.83939451510E-01  0.51100000000E-03 0.  1.
</event>
<event>
 8    1  0.1202249E+005  0.1043930E+01  0.7957747E-01            NaN
         13   -1    0    0    0    0  0.00000000000E+00  0.00000000000E+00  0.74505805969E-08  0.10566000000E+00  0.10566000000E+00 0.  1.
     999900   -1    0    0    0    0 -0.00000000000E+00 -0.00000000000E+00 -0.74505805969E-08  0.93827000000E+00  0.93827000000E+00 0. -1.
     999902    2    1    2    0    0 -0.14753609314E-01 -0.57140166084E-02  0.17821760860E-01  0.10200986313E+01  0.10198202211E+01 0.  0.
     999903    2    3    3    0    0 -0.39992622860E-01  0.11895152285E+00 -0.26492166914E-01  0.12985022287E+00  0.20257610883E-01 0.  0.
         14    1    1    2    0    0  0.14753609314E-01  0.57140166084E-02 -0.17821760860E-01  0.23831368693E-01  0.00000000000E+00 0. -1.
     999901    1    3    3    0    0  0.25239013546E-01 -0.12466553946E+00  0.44313927774E-01  0.89024840844E+00  0.88000000000E+00 0.  1.
        -11    1    4    4    0    0 -0.13099612105E-01  0.24571887573E-01  0.12132164165E-02  0.27876701943E-01  0.51100000000E-03 0. -1.
         11    1    4    4    0    0 -0.26893010756E-01  0.94379635281E-01 -0.27705383331E-01  0.10197352092E+00  0.51100000000E-03 0.  1.
</event>
<event>
 8    1  0.1202249E+005  0.1043930E+01  0.7957747E-01            NaN
         13   -1    0    0    0    0  0.00000000000E+00  0.00000000000E+00  0.74505805969E-08  0.10566000000E+00  0.10566000000E+00 0. -1.
     999900   -1    0    0    0    0 -0.00000000000E+00 -0.00000000000E+00 -0.74505805969E-08  0.93827000000E+00  0.93827000000E+00 0. -1.
     999902    2    1    2    0    0 -0.23173218147E-02 -0.42696920878E-02  0.23150219757E-01  0.10202755517E+01  0.10200013080E+01 0.  0.
     999903    2    3    3    0    0  0.32105243299E-01 -0.10740110947E+00  0.68103493116E-01  0.13244572618E+00  0.18385854553E-01 0.  0.
         14    1    1    2    0    0  0.23173218147E-02  0.42696920878E-02 -0.23150219757E-01  0.23654448329E-01  0.00000000000E+00 0.  1.
     999901    1    3    3    0    0 -0.34422565114E-01  0.10313141738E+00 -0.44953273359E-01  0.88782982549E+00  0.88000000000E+00 0. -1.
        -11    1    4    4    0    0  0.36453081996E-02 -0.35771826696E-01  0.27888860102E-01  0.45507817964E-01  0.51100000000E-03 0.  1.
         11    1    4    4    0    0  0.28459935100E-01 -0.71629282771E-01  0.40214633014E-01  0.86937908220E-01  0.51100000000E-03 0. -1.
</event>
<event>
 8    1  0.1202249E+005  0.1043930E+01  0.7957747E-01            NaN
         13   -1    0    0    0    0  0.00000000000E+00  0.00000000000E+00  0.74505805969E-08  0.10566000000E+00  0.10566000000E+00 0.  1.
     999900   -1    0    0    0    0 -0.00000000000E+00 -0.00000000000E+00 -0.74505805969E-08  0.93827000000E+00  0.93827000000E+00 0.  1.
     999902    2    1    2    0    0 -0.24752407491E-01 -0.26399196336E-01  0.12205179755E-01  0.10057388275E+01  0.10050134444E+01 0.  0.
     999903    2    3    3    0    0 -0.13064181767E-01  0.10711320951E+00  0.34652780433E-01  0.11530855403E+00  0.21244645113E-01 0.  0.
         14    1    1    2    0    0  0.24752407491E-01  0.26399196336E-01 -0.12205179755E-01  0.38191172496E-01  0.00000000000E+00 0. -1.
     999901    1    3    3    0    0 -0.11688225724E-01 -0.13351240584E+00 -0.22447600678E-01  0.89043027347E+00  0.88000000000E+00 0. -1.
        -11    1    4    4    0    0 -0.54934376200E-02  0.97301996996E-01  0.29026587314E-01  0.10168903760E+00  0.51100000000E-03 0.  1.
         11    1    4    4    0    0 -0.75707441471E-02  0.98112125097E-02  0.56261931190E-02  0.13619516433E-01  0.51100000000E-03 0. -1.
</event>
<event>
 8    1  0.1202249E+005  0.1043930E+01  0.7957747E-01            NaN
         13   -1    0    0    0    0  0.00000000000E+00  0.00000000000E+00  0.74505805969E-08  0.10566000000E+00  0.10566000000E+00 0.  1.
     999900   -1    0    0    0    0 -0.00000000000E+00 -0.00000000000E+00 -0.74505805969E-08  0.93827000000E+00  0.93827000000E+00 0. -1.
     999902    2    1    2    0    0  0.21057040777E-01 -0.38531661134E-02 -0.89442124504E-02  0.10207298967E+01  0.10204662059E+01 0.  0.
     999903    2    3    3    0    0  0.10331864446E-01  0.12851160400E+00 -0.44520524263E-02  0.13075481771E+00  0.21331239948E-01 0.  0.
         14    1    1    2    0    0 -0.21057040777E-01  0.38531661134E-02  0.89442124504E-02  0.23200103270E-01  0.00000000000E+00 0. -1.
     999901    1    3    3    0    0  0.10725176330E-01 -0.13236477011E+00 -0.44921600241E-02  0.88997507902E+00  0.88000000000E+00 0.  1.
        -11    1    4    4    0    0 -0.45246766520E-02  0.12969670547E-01 -0.37898822626E-02  0.14258659876E-01  0.51100000000E-03 0.  1.
         11    1    4    4    0    0  0.14856541098E-01  0.11554193345E+00 -0.66217016372E-03  0.11649615783E+00  0.51100000000E-03 0. -1.
</event>
<event>
 8    1  0.1202249E+005  0.1043930E+01  0.7957747E-01            NaN
         13   -1    0    0    0    0  0.00000000000E+00  0.00000000000E+00  0.74505805969E-08  0.10566000000E+00  0.10566000000E+00 0.  1.
     999900   -1    0    0    0    0 -0.00000000000E+00 -0.00000000000E+00 -0.74505805969E-08  0.93827000000E+00  0.93827000000E+00 0. -1.
     999902    2    1    2    0    0  0.14160962001E-01  0.17830637743E-01 -0.83683151937E-02  0.10196711215E+01  0.10193825106E+01 0.  0.
     999903    2    3    3    0    0  0.39738594698E-01  0.94335867433E-01  0.80128475585E-01  0.13156136057E+00  0.20233813375E-01 0.  0.
         14    1    1    2    0    0 -0.14160962001E-01 -0.17830637743E-01  0.83683151937E-02  0.24258878505E-01  0.00000000000E+00 0. -1.
     999901    1    3    3    0    0 -0.25577632696E-01 -0.76505229690E-01 -0.88496790778E-01  0.88810976092E+00  0.88000000000E+00 0. -1.
        -11    1    4    4    0    0  0.57728803602E-02  0.19937307469E-01  0.71808872695E-02  0.21969265799E-01  0.51100000000E-03 0. -1.
         11    1    4    4    0    0  0.33965714338E-01  0.74398559964E-01  0.72947588315E-01  0.10959209478E+00  0.51100000000E-03 0.  1.
</event>
<event>
 8    1  0.1202249E+005  0.1043930E+01  0.7957747E-01            NaN
         13   -1    0    0    0    0  0.00000000000E+00  0.00000000000E+00  0.74505805969E-08  0.10566000000E+00  0.10566000000E+00 0.  1.
     999900   -1    0    0    0    0 -0.00000000000E+00 -0.00000000000E+00 -0.74505805969E-08  0.93827000000E+00  0.93827000000E+00 0.  1.
     999902    2    1    2    0    0 -0.21102448675E-01  0.50144615532E-02  0.56767458419E-02  0.10215093932E+01  0.10212633142E+01 0.  0.
     999903    2    3    3    0    0  0.65127603507E-01  0.87450577022E-01 -0.68610468711E-01  0.13035849395E+00  0.19918141690E-01 0.  0.
         14    1    1    2    0    0  0.21102448675E-01 -0.50144615532E-02 -0.56767458419E-02  0.22420606774E-01  0.00000000000E+00 0. -1.
     999901    1    3    3    0    0 -0.86230052182E-01 -0.82436115469E-01  0.74287214553E-01  0.89115089928E+00  0.88000000000E+00 0. -1.
        -11    1    4    4    0    0  0.50019101759E-01  0.58123755077E-01 -0.39029032600E-01  0.86045383093E-01  0.51100000000E-03 0.  1.
         11    1    4    4    0    0  0.15108501748E-01  0.29326821945E-01 -0.29581436111E-01  0.44313110857E-01  0.51100000000E-03 0. -1.
</event>
<event>
 8    1  0.1202249E+005  0.1043930E+01  0.7957747E-01            NaN
         13   -1    0    0    0    0  0.00000000000E+00  0.00000000000E+00  0.74505805969E-08  0.10566000000E+00  0.10566000000E+00 0. -1.
     999900   -1    0    0    0    0 -0.00000000000E+00 -0.00000000000E+00 -0.74505805969E-08  0.93827000000E+00  0.93827000000E+00 0. -1.
     999902    2    1    2    0    0 -0.24763070188E-02 -0.15661020589E-01  0.22212882228E-01  0.10166387597E+01  0.10162723827E+01 0.  0.
     999903    2    3    3    0    0  0.59210988608E-01  0.62710276697E-01 -0.88096490432E-01  0.12416156646E+00  0.14716758648E-01 0.  0.
         14    1    1    2    0    0  0.24763070188E-02  0.15661020589E-01 -0.22212882228E-01  0.27291240339E-01  0.00000000000E+00 0.  1.
     999901    1    3    3    0    0 -0.61687295627E-01 -0.78371297286E-01  0.11030937266E+00  0.89247719320E+00  0.88000000000E+00 0.  1.
        -11    1    4    4    0    0  0.33287390355E-01  0.35131882798E-01 -0.59622745616E-01  0.76794742407E-01  0.51100000000E-03 0. -1.
         11    1    4    4    0    0  0.25923598254E-01  0.27578393899E-01 -0.28473744816E-01  0.47366824057E-01  0.51100000000E-03 0.  1.
</event>
<event>
 8    1  0.1202249E+005  0.1043930E+01  0.7957747E-01            NaN
         13   -1    0    0    0    0  0.00000000000E+00  0.00000000000E+00  0.74505805969E-08  0.10566000000E+00  0.10566000000E+00 0.  1.
     999900   -1    0    0    0    0 -0.00000000000E+00 -0.00000000000E+00 -0.74505805969E-08  0.93827000000E+00  0.93827000000E+00 0.  1.
     999902    2    1    2    0    0  0.15203331957E-02  0.24697876628E-01 -0.97884348161E-02  0.10173196641E+01  0.10169715772E+01 0.  0.
     999903    2    3    3    0    0 -0.98913879608E-01 -0.53968644284E-02  0.76707932486E-01  0.12688474442E+00  0.20063642156E-01 0.  0.
         14    1    1    2    0    0 -0.15203331957E-02 -0.24697876628E-01  0.97884348161E-02  0.26610335945E-01  0.00000000000E+00 0.  1.
     999901    1    3    3    0    0  0.10043421280E+00  0.30094741056E-01 -0.86496367302E-01  0.89043491963E+00  0.88000000000E+00 0.  1.
        -11    1    4    4    0    0 -0.64828134746E-01  0.35875954669E-02  0.57543747353E-01  0.86758872033E-01  0.51100000000E-03 0.  1.
         11    1    4    4    0    0 -0.34085744862E-01 -0.89844598953E-02  0.19164185133E-01  0.40125872392E-01  0.51100000000E-03 0. -1.
</event>
<event>
 8    1  0.1202249E+005  0.1043930E+01  0.7957747E-01            NaN
         13   -1    0    0    0    0  0.00000000000E+00  0.00000000000E+00  0.74505805969E-08  0.10566000000E+00  0.10566000000E+00 0. -1.
     999900   -1    0    0    0    0 -0.00000000000E+00 -0.00000000000E+00 -0.74505805969E-08  0.93827000000E+00  0.93827000000E+00 0.  1.
     999902    2    1    2    0    0  0.81084819673E-02 -0.18036387169E-01  0.11985786020E-01  0.10208060339E+01  0.10205440907E+01 0.  0.
     999903    2    3    3    0    0 -0.19731314750E-01 -0.12406107770E+00  0.40823993933E-01  0.13353610230E+00  0.19616736586E-01 0.  0.
         14    1    1    2    0    0 -0.81084819673E-02  0.18036387169E-01 -0.11985786020E-01  0.23123966105E-01  0.00000000000E+00 0.  1.
     999901    1    3    3    0    0  0.27839796717E-01  0.10602469053E+00 -0.28838207913E-01  0.88726993160E+00  0.88000000000E+00 0. -1.
        -11    1    4    4    0    0  0.32234038281E-02 -0.26336006465E-01  0.11766912181E-01  0.29029242360E-01  0.51100000000E-03 0.  1.
         11    1    4    4    0    0 -0.22954718578E-01 -0.97725071234E-01  0.29057081752E-01  0.10450685994E+00  0.51100000000E-03 0. -1.
</event>
<event>
 8    1  0.1202249E+005  0.1043930E+01  0.7957747E-01            NaN
         13   -1    0    0    0    0  0.00000000000E+00  0.00000000000E+00  0.74505805969E-08  0.10566000000E+00  0.10566000000E+00 0.  1.
     999900   -1    0    0    0    0 -0.00000000000E+00 -0.00000000000E+00 -0.74505805969E-08  0.93827000000E+00  0.93827000000E+00 0. -1.
     999902    2    1    2    0    0 -0.97409084782E-02  0.11374911839E-02  0.22321996151E-01  0.10195486404E+01  0.10192570723E+01 0.  0.
     999903    2    3    3    0    0  0.91788261509E-01  0.12828738110E-01 -0.85050070271E-01  0.12715096096E+00  0.18552383860E-01 0.  0.
         14    1    1    2    0    0  0.97409084782E-02 -0.11374911839E-02 -0.22321996151E-01  0.24381359608E-01  0.00000000000E+00 0. -1.
     999901    1    3    3    0    0 -0.10152916999E+00 -0.11691246926E-01  0.10737206642E+00  0.89239767943E+00  0.88000000000E+00 0.  1.
        -11    1    4    4    0    0  0.83402383599E-01  0.14201635673E-01 -0.82722859945E-01  0.11832572300E+00  0.51100000000E-03 0. -1.
         11    1    4    4    0    0  0.83858779100E-02 -0.13728975634E-02 -0.23272103262E-02  0.88252379539E-02  0.51100000000E-03 0.  1.
</event>
<event>
 8    1  0.1202249E+005  0.1043930E+01  0.7957747E-01            NaN
         13   -1    0    0    0    0  0.00000000000E+00  0.00000000000E+00  0.74505805969E-08  0.10566000000E+00  0.10566000000E+00 0.  1.
     999900   -1    0    0    0    0 -0.00000000000E+00 -0.00000000000E+00 -0.74505805969E-08  0.93827000000E+00  0.93827000000E+00 0.  1.
     999902    2    1    2    0    0 -0.15669072691E-01 -0.11606135430E-01 -0.11849575761E-01  0.10211125798E+01  0.10208576130E+01 0.  0.
     999903    2    3    3    0    0 -0.89063911224E-01 -0.80553019737E-02  0.94375494632E-01  0.13168401251E+00  0.20896817730E-01 0.  0.
         14    1    1    2    0    0  0.15669072691E-01  0.11606135430E-01  0.11849575761E-01  0.22817420195E-01  0.00000000000E+00 0. -1.
     999901    1    3    3    0    0  0.73394838533E-01 -0.35508334567E-02 -0.10622507039E+00  0.88942856730E+00  0.88000000000E+00 0.  1.
        -11    1    4    4    0    0 -0.58000695660E-01  0.34786909589E-02  0.67104976821E-01  0.88766666170E-01  0.51100000000E-03 0. -1.
         11    1    4    4    0    0 -0.31063215564E-01 -0.11533992933E-01  0.27270517811E-01  0.42917346340E-01  0.51100000000E-03 0.  1.
</event>
<event>
 8    1  0.1202249E+005  0.1043930E+01  0.7957747E-01            NaN
         13   -1    0    0    0    0  0.00000000000E+00  0.00000000000E+00  0.74505805969E-08  0.10566000000E+00  0.10566000000E+00 0. -1.
     999900   -1    0    0    0    0 -0.00000000000E+00 -0.00000000000E+00 -0.74505805969E-08  0.93827000000E+00  0.93827000000E+00 0. -1.
     999902    2    1    2    0    0 -0.18535125524E-01 -0.75243778222E-02 -0.12149708842E-01  0.10205252448E+01  0.10202568269E+01 0.  0.
     999903    2    3    3    0    0  0.42254601414E-01 -0.12106156863E+00 -0.22219424073E-01  0.13109425607E+00  0.15831816962E-01 0.  0.
         14    1    1    2    0    0  0.18535125524E-01  0.75243778222E-02  0.12149708842E-01  0.23404755174E-01  0.00000000000E+00 0. -1.
     999901    1    3    3    0    0 -0.60789726938E-01  0.11353719081E+00  0.10069715231E-01  0.88943098876E+00  0.88000000000E+00 0.  1.
        -11    1    4    4    0    0  0.28204426853E-01 -0.84934670520E-01 -0.22678444762E-01  0.92325299503E-01  0.51100000000E-03 0. -1.
         11    1    4    4    0    0  0.14050174561E-01 -0.36126898109E-01  0.45902068883E-03  0.38768956565E-01  0.51100000000E-03 0.  1.
</event>
<event>
 8    1  0.1202249E+005  0.1043930E+01  0.7957747E-01            NaN
         13   -1    0    0    0    0  0.00000000000E+00  0.00000000000E+00  0.74505805969E-08  0.10566000000E+00  0.10566000000E+00 0. -1.
     999900   -1    0    0    0    0 -0.00000000000E+00 -0.00000000000E+00 -0.74505805969E-08  0.93827000000E+00  0.93827000000E+00 0. -1.
     999902    2    1    2    0    0 -0.81952558718E-03  0.27492103750E-02 -0.24539325012E-01  0.10192235585E+01  0.10189240668E+01 0.  0.
     999903    2    3    3    0    0  0.34065967914E-01 -0.10780694510E+00  0.57166715898E-01  0.12786754752E+00  0.17298806901E-01 0.  0.
         14    1    1    2    0    0  0.81952558718E-03 -0.27492103750E-02  0.24539325012E-01  0.24706441507E-01  0.00000000000E+00 0. -1.
     999901    1    3    3    0    0 -0.34885493501E-01  0.11055615548E+00 -0.81706040911E-01  0.89135601097E+00  0.88000000000E+00 0.  1.
        -11    1    4    4    0    0  0.26385587651E-01 -0.63530758778E-01  0.27892298139E-01  0.74233401937E-01  0.51100000000E-03 0. -1.
         11    1    4    4    0    0  0.76803802626E-02 -0.44276186327E-01  0.29274417759E-01  0.53634145586E-01  0.51100000000E-03 0.  1.
</event>
<event>
 8    1  0.1202249E+005  0.1043930E+01  0.7957747E-01            NaN
         13   -1    0    0    0    0  0.00000000000E+00  0.00000000000E+00  0.74505805969E-08  0.10566000000E+00  0.10566000000E+00 0.  1.
     999900   -1    0    0    0    0 -0.00000000000E+00 -0.00000000000E+00 -0.74505805969E-08  0.93827000000E+00  0.93827000000E+00 0.  1.
     999902    2    1    2    0    0  0.16479512336E-01 -0.20012191796E-01  0.81658684644E-02  0.10167501627E+01  0.10163868111E+01 0.  0.
     999903    2    3    3    0    0  0.25202761900E-01 -0.10317303834E+00 -0.70887540873E-01  0.12925860613E+00  0.20072089027E-01 0.  0.
         14    1    1    2    0    0 -0.16479512336E-01  0.20012191796E-01 -0.81658684644E-02  0.27179837289E-01  0.00000000000E+00 0. -1.
     999901    1    3    3    0    0 -0.87232495645E-02  0.83160846548E-01  0.79053409338E-01  0.88749155658E+00  0.88000000000E+00 0. -1.
        -11    1    4    4    0    0  0.16546458277E-01 -0.34042536219E-01 -0.31345080131E-01  0.49147275847E-01  0.51100000000E-03 0.  1.
         11    1    4    4    0    0  0.86563036233E-02 -0.69130502125E-01 -0.39542460742E-01  0.80111330279E-01  0.51100000000E-03 0. -1.
</event>
<event>
 8    1  0.1202249E+005  0.1043930E+01  0.7957747E-01            NaN
         13   -1    0    0    0    0  0.00000000000E+00  0.00000000000E+00  0.74505805969E-08  0.10566000000E+00  0.10566000000E+00 0.  1.
     999900   -1    0    0    0    0 -0.00000000000E+00 -0.00000000000E+00 -0.74505805969E-08  0.93827000000E+00  0.93827000000E+00 0. -1.
     999902    2    1    2    0    0 -0.44489851254E-02 -0.55455225095E-02 -0.24984571546E-01  0.10179535664E+01  0.10176220753E+01 0.  0.
     999903    2    3    3    0    0  0.11222167374E+00  0.55198075335E-01 -0.19906763067E-01  0.12816279802E+00  0.19720344883E-01 0.  0.
         14    1    1    2    0    0  0.44489851254E-02  0.55455225095E-02  0.24984571546E-01  0.25976433625E-01  0.00000000000E+00 0.  1.
     999901    1    3    3    0    0 -0.11667065886E+00 -0.60743597844E-01 -0.50778084795E-02  0.88979076836E+00  0.88000000000E+00 0. -1.
        -11    1    4    4    0    0  0.87061343784E-01  0.34923971683E-01 -0.19666187593E-01  0.95845612497E-01  0.51100000000E-03 0.  1.
         11    1    4    4    0    0  0.25160329953E-01  0.20274103652E-01 -0.24057547347E-03  0.32317185518E-01  0.51100000000E-03 0. -1.
</event>
<event>
 8    1  0.1202249E+005  0.1043930E+01  0.7957747E-01            NaN
         13   -1    0    0    0    0  0.00000000000E+00  0.00000000000E+00  0.74505805969E-08  0.10566000000E+00  0.10566000000E+00 0. -1.
     999900   -1    0    0    0    0 -0.00000000000E+00 -0.00000000000E+00 -0.74505805969E-08  0.93827000000E+00  0.93827000000E+00 0. -1.
     999902    2    1    2    0    0 -0.19324474638E-01 -0.10587147741E-01  0.91302630478E-02  0.10200786956E+01  0.10197998140E+01 0.  0.
     999903    2    3    3    0    0  0.14703443182E-01 -0.12671763202E+00  0.25884861243E-01  0.13163910559E+00  0.19628514290E-01 0.  0.
         14    1    1    2    0    0  0.19324474638E-01  0.10587147741E-01 -0.91302630478E-02  0.23851304381E-01  0.00000000000E+00 0. -1.
     999901    1    3    3    0    0 -0.34027917820E-01  0.11613048428E+00 -0.16754598195E-01  0.88843959003E+00  0.88000000000E+00 0.  1.
        -11    1    4    4    0    0  0.80893776160E-02 -0.11171036975E+00  0.26935798886E-01  0.11519740935E+00  0.51100000000E-03 0. -1.
         11    1    4    4    0    0  0.66140655660E-02 -0.15007262271E-01 -0.10509376429E-02  0.16441696236E-01  0.51100000000E-03 0.  1.
</event>
<event>
 8    1  0.1202249E+005  0.1043930E+01  0.7957747E-01            NaN
         13   -1    0    0    0    0  0.00000000000E+00  0.00000000000E+00  0.74505805969E-08  0.10566000000E+00  0.10566000000E+00 0.  1.
     999900   -1    0    0    0    0 -0.00000000000E+00 -0.00000000000E+00 -0.74505805969E-08  0.93827000000E+00  0.93827000000E+00 0.  1.
     999902    2    1    2    0    0  0.21161077188E-01 -0.66760853586E-02 -0.54282264408E-02  0.10210864682E+01  0.10208309109E+01 0.  0.
     999903    2    3    3    0    0  0.76342386693E-01  0.10295695509E+00  0.25448954719E-01  0.13203203746E+00  0.18881605152E-01 0.  0.
         14    1    1    2    0    0 -0.21161077188E-01  0.66760853586E-02  0.54282264408E-02  0.22843531815E-01  0.00000000000E+00 0.  1.
     999901    1    3    3    0    0 -0.55181309505E-01 -0.10963304044E+00 -0.30877181160E-01  0.88905443073E+00  0.88000000000E+00 0. -1.
        -11    1    4    4    0    0  0.13782457215E-01  0.17763783417E-01 -0.27000801772E-02  0.22650820783E-01  0.51100000000E-03 0. -1.
         11    1    4    4    0    0  0.62559929478E-01  0.85193171668E-01  0.28149034897E-01  0.10938121668E+00  0.51100000000E-03 0.  1.
</event>
<event>
 8    1  0.1202249E+005  0.1043930E+01  0.7957747E-01            NaN
         13   -1    0    0    0    0  0.00000000000E+00  0.00000000000E+00  0.74505805969E-08  0.10566000000E+00  0.10566000000E+00 0. -1.
     999900   -1    0    0    0    0 -0.00000000000E+00 -0.00000000000E+00 -0.74505805969E-08  0.93827000000E+00  0.93827000000E+00 0. -1.
     999902    2    1    2    0    0  0.75600783947E-03 -0.16913351887E-01 -0.13149051380E-01  0.10224933358E+01  0.10222686003E+01 0.  0.
     999903    2    3    3    0    0  0.42701760068E-01  0.55304256146E-01  0.10812714139E+00  0.13025864472E+00  0.19845270408E-01 0.  0.
         14    1    1    2    0    0 -0.75600783947E-03  0.16913351887E-01  0.13149051380E-01  0.21436664202E-01  0.00000000000E+00 0.  1.
     999901    1    3    3    0    0 -0.41945752229E-01 -0.72217608034E-01 -0.12127619277E+00  0.89223469108E+00  0.88000000000E+00 0. -1.
        -11    1    4    4    0    0  0.29014367164E-01  0.49834093316E-01  0.89986675476E-01  0.10687905895E+00  0.51100000000E-03 0.  1.
         11    1    4    4    0    0  0.13687392904E-01  0.54701628302E-02  0.18140465911E-01  0.23379585761E-01  0.51100000000E-03 0. -1.
</event>
<event>
 8    1  0.1202249E+005  0.1043930E+01  0.7957747E-01            NaN
         13   -1    0    0    0    0  0.00000000000E+00  0.00000000000E+00  0.74505805969E-08  0.10566000000E+00  0.10566000000E+00 0.  1.
     999900   -1    0    0    0    0 -0.00000000000E+00 -0.00000000000E+00 -0.74505805969E-08  0.93827000000E+00  0.93827000000E+00 0.  1.
     999902    2    1    2    0    0 -0.11645543866E-01 -0.18947090223E-01 -0.87550888224E-02  0.10200289017E+01  0.10197488405E+01 0.  0.
     999903    2    3    3    0    0 -0.51919823764E-01 -0.48978449298E-01  0.10826182223E+00  0.13086251815E+00  0.17601701898E-01 0.  0.
         14    1    1    2    0    0  0.11645543866E-01  0.18947090223E-01  0.87550888224E-02  0.23901098304E-01  0.00000000000E+00 0.  1.
     999901    1    3    3    0    0  0.40274279898E-01  0.30031359075E-01 -0.11701691105E+00  0.88916638354E+00  0.88000000000E+00 0.  1.
        -11    1    4    4    0    0 -0.20735128303E-01 -0.10479350205E-01  0.43533048271E-01  0.49347236389E-01  0.51100000000E-03 0.  1.
         11    1    4    4    0    0 -0.31184695461E-01 -0.38499099094E-01  0.64728773958E-01  0.81515281765E-01  0.51100000000E-03 0. -1.
</event>
<event>
 8    1  0.1202249E+005  0.1043930E+01  0.7957747E-01            NaN
         13   -1    0    0    0    0  0.00000000000E+00  0.00000000000E+00  0.74505805969E-08  0.10566000000E+00  0.10566000000E+00 0.  1.
     999900   -1    0    0    0    0 -0.00000000000E+00 -0.00000000000E+00 -0.74505805969E-08  0.93827000000E+00  0.93827000000E+00 0. -1.
     999902    2    1    2    0    0  0.71261507214E-02  0.13591780161E-01 -0.17948514538E-01  0.10203150114E+01  0.10200416927E+01 0.  0.
     999903    2    3    3    0    0  0.43775677220E-01  0.11807187774E+00  0.33661590844E-01  0.13187656021E+00  0.20026138060E-01 0.  0.
         14    1    1    2    0    0 -0.71261507214E-02 -0.13591780161E-01  0.17948514538E-01  0.23614988591E-01  0.00000000000E+00 0.  1.
     999901    1    3    3    0    0 -0.36649526499E-01 -0.10448009758E+00 -0.51610105382E-01  0.88843845119E+00  0.88000000000E+00 0.  1.
        -11    1    4    4    0    0  0.22329364573E-01  0.73331178511E-01  0.29305284735E-01  0.82067795745E-01  0.51100000000E-03 0.  1.
         11    1    4    4    0    0  0.21446312646E-01  0.44740699233E-01  0.43563061095E-02  0.49808764469E-01  0.51100000000E-03 0. -1.
</event>
<event>
 8    1  0.1202249E+005  0.1043930E+01  0.7957747E-01            NaN
         13   -1    0    0    0    0  0.00000000000E+00  0.00000000000E+00  0.74505805969E-08  0.10566000000E+00  0.10566000000E+00 0. -1.
     999900   -1    0    0    0    0 -0.00000000000E+00 -0.00000000000E+00 -0.74505805969E-08  0.93827000000E+00  0.93827000000E+00 0. -1.
     999902    2    1    2    0    0  0.18288476601E-01  0.60029615569E-02  0.13303362365E-01  0.10205316374E+01  0.10202633677E+01 0.  0.
     999903    2    3    3    0    0  0.74328937751E-01  0.10537600381E+00 -0.21788942233E-01  0.13247364114E+00  0.21109581430E-01 0.  0.
         14    1    1    2    0    0 -0.18288476601E-01 -0.60029615569E-02 -0.13303362365E-01  0.23398362636E-01  0.00000000000E+00 0.  1.
     999901    1    3    3    0    0 -0.56040461150E-01 -0.99373042250E-01  0.35092304597E-01  0.88805799622E+00  0.88000000000E+00 0.  1.
        -11    1    4    4    0    0  0.86573221588E-02  0.12550107131E-01 -0.98069679584E-02  0.18135384129E-01  0.51100000000E-03 0. -1.
         11    1    4    4    0    0  0.65671615593E-01  0.92825896676E-01 -0.11981974274E-01  0.11433825701E+00  0.51100000000E-03 0.  1.
</event>
<event>
 8    1  0.1202249E+005  0.1043930E+01  0.7957747E-01            NaN
         13   -1    0    0    0    0  0.00000000000E+00  0.00000000000E+00  0.74505805969E-08  0.10566000000E+00  0.10566000000E+00 0. -1.
     999900   -1    0    0    0    0 -0.00000000000E+00 -0.00000000000E+00 -0.74505805969E-08  0.93827000000E+00  0.93827000000E+00 0.  1.
     999902    2    1    2    0    0  0.30293800038E-02 -0.21261327250E-01  0.10408326154E-01  0.10200646604E+01  0.10197854466E+01 0.  0.
     999903    2    3    3    0    0 -0.72115619725E-02 -0.12997760488E+00 -0.17454402505E-01  0.13287784946E+00  0.20141556887E-01 0.  0.
         14    1    1    2    0    0 -0.30293800038E-02  0.21261327250E-01 -0.10408326154E-01  0.23865339573E-01  0.00000000000E+00 0. -1.
     999901    1    3    3    0    0  0.10240941976E-01  0.10871627763E+00  0.27862728659E-01  0.88718681097E+00  0.88000000000E+00 0. -1.
        -11    1    4    4    0    0 -0.19548800568E-02 -0.23697853543E-02 -0.30364293334E-02  0.43495359245E-02  0.51100000000E-03 0. -1.
         11    1    4    4    0    0 -0.52566819156E-02 -0.12760781952E+00 -0.14417973171E-01  0.12852831353E+00  0.51100000000E-03 0.  1.
</event>
<event>
 8    1  0.1202249E+005  0.1043930E+01  0.7957747E-01            NaN
         13   -1    0    0    0    0  0.00000000000E+00  0.00000000000E+00  0.74505805969E-08  0.10566000000E+00  0.10566000000E+00 0.  1.
     999900   -1    0    0    0    0 -0.00000000000E+00 -0.00000000000E+00 -0.74505805969E-08  0.93827000000E+00  0.93827000000E+00 0. -1.
     999902    2    1    2    0    0 -0.26185552175E-02 -0.72004411267E-02  0.18617176067E-01  0.10237978757E+01  0.10235999159E+01 0.  0.
     999903    2    3    3    0    0 -0.12569713460E+00  0.41534220562E-01  0.15361212831E-02  0.13373317784E+00  0.18903493375E-01 0.  0.
         14    1    1    2    0    0  0.26185552175E-02  0.72004411267E-02 -0.18617176067E-01  0.20132124294E-01  0.00000000000E+00 0. -1.
     999901    1    3    3    0    0  0.12307857939E+00 -0.48734661688E-01  0.17081054784E-01  0.89006469787E+00  0.88000000000E+00 0.  1.
        -11    1    4    4    0    0 -0.84246181468E-02  0.53201334925E-02 -0.42832697339E-02  0.10857510392E-01  0.51100000000E-03 0. -1.
         11    1    4    4    0    0 -0.11727251646E+00  0.36214087069E-01  0.58193910170E-02  0.12287566745E+00  0.51100000000E-03 0.  1.
</event>
<event>
 8    1  0.1202249E+005  0.1043930E+01  0.7957747E-01            NaN
         13   -1    0    0    0    0  0.00000000000E+00  0.00000000000E+00  0.74505805969E-08  0.10566000000E+00  0.10566000000E+00 0. -1.
     999900   -1    0    0    0    0 -0.00000000000E+00 -0.00000000000E+00 -0.74505805969E-08  0.93827000000E+00  0.93827000000E+00 0. -1.
     999902    2    1    2    0    0  0.23221022519E-02  0.10530426031E-01 -0.22056140529E-01  0.10193789233E+01  0.10190832321E+01 0.  0.
     999903    2    3    3    0    0  0.11948230363E+00  0.22265743184E-01  0.39594031511E-01  0.12939860097E+00  0.20112841723E-01 0.  0.
         14    1    1    2    0    0 -0.23221022519E-02 -0.10530426031E-01  0.22056140529E-01  0.24551076683E-01  0.00000000000E+00 0. -1.
     999901    1    3    3    0    0 -0.11716020137E+00 -0.11735317154E-01 -0.61650172040E-01  0.88998032235E+00  0.88000000000E+00 0. -1.
        -11    1    4    4    0    0  0.92248000322E-01  0.20036137645E-01  0.38782736154E-01  0.10205636736E+00  0.51100000000E-03 0. -1.
         11    1    4    4    0    0  0.27234303303E-01  0.22296055388E-02  0.81129535712E-03  0.27342233604E-01  0.51100000000E-03 0.  1.
</event>
<event>
 8    1  0.1202249E+005  0.1043930E+01  0.7957747E-01            NaN
         13   -1    0    0    0    0  0.00000000000E+00  0.00000000000E+00  0.74505805969E-08  0.10566000000E+00  0.10566000000E+00 0.  1.
     999900   -1    0    0    0    0 -0.00000000000E+00 -0.00000000000E+00 -0.74505805969E-08  0.93827000000E+00  0.93827000000E+00 0. -1.
     999902    2    1    2    0    0  0.17919766955E-01 -0.64042390443E-02  0.13015401421E-01  0.10208750006E+01  0.10206146353E+01 0.  0.
     999903    2    3    3    0    0  0.12475084675E+00  0.20380803744E-01 -0.34631662367E-01  0.13273055238E+00  0.20973711401E-01 0.  0.
         14    1    1    2    0    0 -0.17919766955E-01  0.64042390443E-02 -0.13015401421E-01  0.23054999449E-01  0.00000000000E+00 0. -1.
     999901    1    3    3    0    0 -0.10683107980E+00 -0.26785042788E-01  0.47647063788E-01  0.88814444817E+00  0.88000000000E+00 0.  1.
        -11    1    4    4    0    0  0.46384300306E-01  0.76159207099E-02 -0.23494003783E-01  0.52552211160E-01  0.51100000000E-03 0.  1.
         11    1    4    4    0    0  0.78366546448E-01  0.12764883034E-01 -0.11137658584E-01  0.80178341220E-01  0.51100000000E-03 0. -1.
</event>
<event>
 8    1  0.1202249E+005  0.1043930E+01  0.7957747E-01            NaN
         13   -1    0    0    0    0  0.00000000000E+00  0.00000000000E+00  0.74505805969E-08  0.10566000000E+00  0.10566000000E+00 0. -1.
     999900   -1    0    0    0    0 -0.00000000000E+00 -0.00000000000E+00 -0.74505805969E-08  0.93827000000E+00  0.93827000000E+00 0. -1.
     999902    2    1    2    0    0  0.69476851494E-02 -0.22736807912E-01 -0.87475866580E-04  0.10201552147E+01  0.10198781406E+01 0.  0.
     999903    2    3    3    0    0  0.12533214308E+00 -0.28806655055E-01  0.31837348591E-02  0.13220114849E+00  0.30480125142E-01 0.  0.
         14    1    1    2    0    0 -0.69476851494E-02  0.22736807912E-01  0.87475866580E-04  0.23774785278E-01  0.00000000000E+00 0. -1.
     999901    1    3    3    0    0 -0.11838445793E+00  0.60698471430E-02 -0.32712107257E-02  0.88795406624E+00  0.88000000000E+00 0.  1.
        -11    1    4    4    0    0  0.53150694308E-01 -0.20386078778E-01 -0.11452952738E-01  0.58069094713E-01  0.51100000000E-03 0.  1.
         11    1    4    4    0    0  0.72181448774E-01 -0.84205762769E-02  0.14636687597E-01  0.74132053774E-01  0.51100000000E-03 0. -1.
</event>
<event>
 8    1  0.1202249E+005  0.1043930E+01  0.7957747E-01            NaN
         13   -1    0    0    0    0  0.00000000000E+00  0.00000000000E+00  0.74505805969E-08  0.10566000000E+00  0.10566000000E+00 0.  1.
     999900   -1    0    0    0    0 -0.00000000000E+00 -0.00000000000E+00 -0.74505805969E-08  0.93827000000E+00  0.93827000000E+00 0. -1.
     999902    2    1    2    0    0  0.11877274930E-01 -0.14836555686E-01  0.42962950143E-02  0.10244453600E+01  0.10242600473E+01 0.  0.
     999903    2    3    3    0    0  0.42730794053E-01 -0.56405537241E-01 -0.11337579255E+00  0.13510479530E+00  0.19792169763E-01 0.  0.
         14    1    1    2    0    0 -0.11877274930E-01  0.14836555686E-01 -0.42962950143E-02  0.19484639982E-01  0.00000000000E+00 0. -1.
     999901    1    3    3    0    0 -0.30853519123E-01  0.41568981555E-01  0.11767208756E+00  0.88934056472E+00  0.88000000000E+00 0.  1.
        -11    1    4    4    0    0  0.29578768664E-01 -0.24995634207E-01 -0.51013756241E-01  0.64049588070E-01  0.51100000000E-03 0. -1.
         11    1    4    4    0    0  0.13152025389E-01 -0.31409903034E-01 -0.62362036308E-01  0.71055207226E-01  0.51100000000E-03 0.  1.
</event>
<event>
 8    1  0.1202249E+005  0.1043930E+01  0.7957747E-01            NaN
         13   -1    0    0    0    0  0.00000000000E+00  0.00000000000E+00  0.74505805969E-08  0.10566000000E+00  0.10566000000E+00 0.  1.
     999900   -1    0    0    0    0 -0.00000000000E+00 -0.00000000000E+00 -0.74505805969E-08  0.93827000000E+00  0.93827000000E+00 0. -1.
     999902    2    1    2    0    0 -0.46752513523E-02  0.14276475554E-01  0.16992096074E-01  0.10212494564E+01  0.10209975735E+01 0.  0.
     999903    2    3    3    0    0 -0.72768060977E-01 -0.68301845384E-01  0.85134725815E-01  0.13214922143E+00  0.15973803702E-01 0.  0.
         14    1    1    2    0    0  0.46752513523E-02 -0.14276475554E-01 -0.16992096074E-01  0.22680543610E-01  0.00000000000E+00 0. -1.
     999901    1    3    3    0    0  0.68092809624E-01  0.82578320938E-01 -0.68142629741E-01  0.88910023496E+00  0.88000000000E+00 0.  1.
        -11    1    4    4    0    0 -0.35151945603E-01 -0.37174078568E-01  0.53167486571E-01  0.73787628681E-01  0.51100000000E-03 0. -1.
         11    1    4    4    0    0 -0.37616115373E-01 -0.31127766817E-01  0.31967239245E-01  0.58361592753E-01  0.51100000000E-03 0.  1.
</event>
<event>
 8    1  0.1202249E+005  0.1043930E+01  0.7957747E-01            NaN
         13   -1    0    0    0    0  0.00000000000E+00  0.00000000000E+00  0.74505805969E-08  0.10566000000E+00  0.10566000000E+00 0. -1.
     999900   -1    0    0    0    0 -0.00000000000E+00 -0.00000000000E+00 -0.74505805969E-08  0.93827000000E+00  0.93827000000E+00 0.  1.
     999902    2    1    2    0    0 -0.20696407475E-01  0.44922637877E-02  0.41377423492E-02  0.10223512459E+01  0.10221234893E+01 0.  0.
     999903    2    3    3    0    0  0.64674589483E-01  0.18787339433E-02  0.11280075231E+00  0.13156356784E+00  0.19965733032E-01 0.  0.
         14    1    1    2    0    0  0.20696407475E-01 -0.44922637877E-02 -0.41377423492E-02  0.21578754089E-01  0.00000000000E+00 0. -1.
     999901    1    3    3    0    0 -0.85370996958E-01  0.26135298444E-02 -0.10866300996E+00  0.89078767807E+00  0.88000000000E+00 0.  1.
        -11    1    4    4    0    0  0.45883244462E-01  0.80065128589E-02  0.66229494174E-01  0.80969027351E-01  0.51100000000E-03 0.  1.
         11    1    4    4    0    0  0.18791345021E-01 -0.61277789156E-02  0.46571258139E-01  0.50594540494E-01  0.51100000000E-03 0. -1.
</event>
<event>
 8    1  0.1202249E+005  0.1043930E+01  0.7957747E-01            NaN
         13   -1    0    0    0    0  0.00000000000E+00  0.00000000000E+00  0.74505805969E-08  0.10566000000E+00  0.10566000000E+00 0.  1.
     999900   -1    0    0    0    0 -0.00000000000E+00 -0.00000000000E+00 -0.74505805969E-08  0.93827000000E+00  0.93827000000E+00 0. -1.
     999902    2    1    2    0    0 -0.37373909148E-02  0.11475164494E-01  0.19894780794E-01  0.10206609262E+01  0.10203956471E+01 0.  0.
     999903    2    3    3    0    0  0.32122708101E-01  0.18178970726E-02  0.12773637946E+00  0.13330022172E+00  0.20425311419E-01 0.  0.
         14    1    1    2    0    0  0.37373909148E-02 -0.11475164494E-01 -0.19894780794E-01  0.23269073765E-01  0.00000000000E+00 0.  1.
     999901    1    3    3    0    0 -0.35860099015E-01  0.96572674213E-02 -0.10784159867E+00  0.88736070452E+00  0.88000000000E+00 0. -1.
        -11    1    4    4    0    0  0.80205096366E-02 -0.83583606106E-02  0.31375540175E-01  0.33449610001E-01  0.51100000000E-03 0.  1.
         11    1    4    4    0    0  0.24102198464E-01  0.10176257683E-01  0.96360839288E-01  0.99850611718E-01  0.51100000000E-03 0. -1.
</event>
<event>
 8    1  0.1202249E+005  0.1043930E+01  0.7957747E-01            NaN
         13   -1    0    0    0    0  0.00000000000E+00  0.00000000000E+00  0.74505805969E-08  0.10566000000E+00  0.10566000000E+00 0.  1.
     999900   -1    0    0    0    0 -0.00000000000E+00 -0.00000000000E+00 -0.74505805969E-08  0.93827000000E+00  0.93827000000E+00 0. -1.
     999902    2    1    2    0    0 -0.37928367958E-02 -0.20588663173E-01  0.10389751220E-01  0.10205585304E+01  0.10202908842E+01 0.  0.
     999903    2    3    3    0    0 -0.10819624976E+00 -0.47752968842E-01 -0.53886376063E-01  0.13164380292E+00  0.20966039824E-01 0.  0.
         14    1    1    2    0    0  0.37928367958E-02  0.20588663173E-01 -0.10389751220E-01  0.23371469629E-01  0.00000000000E+00 0. -1.
     999901    1    3    3    0    0  0.10440341297E+00  0.27164305668E-01  0.64276127283E-01  0.88891472745E+00  0.88000000000E+00 0. -1.
        -11    1    4    4    0    0 -0.33068870875E-01 -0.19408659927E-01 -0.27249293828E-01  0.47042868070E-01  0.51100000000E-03 0.  1.
         11    1    4    4    0    0 -0.75127378888E-01 -0.28344308915E-01 -0.26637082235E-01  0.84600934849E-01  0.51100000000E-03 0. -1.
</event>
<event>
 8    1  0.1202249E+005  0.1043930E+01  0.7957747E-01            NaN
         13   -1    0    0    0    0  0.00000000000E+00  0.00000000000E+00  0.74505805969E-08  0.10566000000E+00  0.10566000000E+00 0. -1.
     999900   -1    0    0    0    0 -0.00000000000E+00 -0.00000000000E+00 -0.74505805969E-08  0.93827000000E+00  0.93827000000E+00 0. -1.
     999902    2    1    2    0    0 -0.10815976087E-01  0.38435731106E-02 -0.24616039099E-01  0.10167692236E+01  0.10164063884E+01 0.  0.
     999903    2    3    3    0    0 -0.68512835248E-01  0.24075681486E-01 -0.10703506207E+00  0.13080581516E+00  0.19493838426E-01 0.  0.
         14    1    1    2    0    0  0.10815976087E-01 -0.38435731106E-02  0.24616039099E-01  0.27160776386E-01  0.00000000000E+00 0. -1.
     999901    1    3    3    0    0  0.57696859161E-01 -0.20232108375E-01  0.82419022966E-01  0.88596340845E+00  0.88000000000E+00 0.  1.
        -11    1    4    4    0    0 -0.24545755032E-01  0.17441361956E-01 -0.51528420342E-01  0.59683619368E-01  0.51100000000E-03 0.  1.
         11    1    4    4    0    0 -0.43967080215E-01  0.66343195294E-02 -0.55506641724E-01  0.71122195795E-01  0.51100000000E-03 0. -1.
</event>
<event>
 8    1  0.1202249E+005  0.1043930E+01  0.7957747E-01            NaN
         13   -1    0    0    0    0  0.00000000000E+00  0.00000000000E+00  0.74505805969E-08  0.10566000000E+00  0.10566000000E+00 0.  1.
     999900   -1    0    0    0    0 -0.00000000000E+00 -0.00000000000E+00 -0.74505805969E-08  0.93827000000E+00  0.93827000000E+00 0.  1.
     999902    2    1    2    0    0  0.16937915458E-01 -0.13640005611E-01  0.96254250886E-02  0.10201478314E+01  0.10198705832E+01 0.  0.
     999903    2    3    3    0    0  0.12747981320E+00 -0.28238135309E-01  0.16933511189E-01  0.13308186734E+00  0.19378971971E-01 0.  0.
         14    1    1    2    0    0 -0.16937915458E-01  0.13640005611E-01 -0.96254250886E-02  0.23782168556E-01  0.00000000000E+00 0. -1.
     999901    1    3    3    0    0 -0.11054189774E+00  0.14598129699E-01 -0.73080861007E-02  0.88706596410E+00  0.88000000000E+00 0.  1.
        -11    1    4    4    0    0  0.99407159701E-01 -0.30015062282E-01  0.14397357460E-01  0.10483430920E+00  0.51100000000E-03 0. -1.
         11    1    4    4    0    0  0.28072653499E-01  0.17769269731E-02  0.25361537292E-02  0.28247558136E-01  0.51100000000E-03 0.  1.
</event>
<event>
 8    1  0.1202249E+005  0.1043930E+01  0.7957747E-01            NaN
         13   -1    0    0    0    0  0.00000000000E+00  0.00000000000E+00  0.74505805969E-08  0.10566000000E+00  0.10566000000E+00 0.  1.
     999900   -1    0    0    0    0 -0.00000000000E+00 -0.00000000000E+00 -0.74505805969E-08  0.93827000000E+00  0.93827000000E+00 0.  1.
     999902    2    1    2    0    0  0.12132570349E-01  0.19974899933E-01 -0.29926924654E-02  0.10203683341E+01  0.10200962627E+01 0.  0.
     999903    2    3    3    0    0 -0.29855374251E-01 -0.11923191579E+00 -0.29378228324E-01  0.12804679929E+00  0.20623030664E-01 0.  0.
         14    1    1    2    0    0 -0.12132570349E-01 -0.19974899933E-01  0.29926924654E-02  0.23561665875E-01  0.00000000000E+00 0.  1.
     999901    1    3    3    0    0  0.41987944600E-01  0.13920681572E+00  0.26385535859E-01  0.89232153484E+00  0.88000000000E+00 0. -1.
        -11    1    4    4    0    0 -0.22789902209E-01 -0.54482243225E-01 -0.86303740344E-02  0.59686170479E-01  0.51100000000E-03 0.  1.
         11    1    4    4    0    0 -0.70654720424E-02 -0.64749672564E-01 -0.20747854290E-01  0.68360628807E-01  0.51100000000E-03 0. -1.
</event>
<event>
 8    1  0.1202249E+005  0.1043930E+01  0.7957747E-01            NaN
         13   -1    0    0    0    0  0.00000000000E+00  0.00000000000E+00  0.74505805969E-08  0.10566000000E+00  0.10566000000E+00 0. -1.
     999900   -1    0    0    0    0 -0.00000000000E+00 -0.00000000000E+00 -0.74505805969E-08  0.93827000000E+00  0.93827000000E+00 0. -1.
     999902    2    1    2    0    0 -0.18034630015E-01 -0.51841293832E-02  0.19208769692E-01  0.10170766965E+01  0.10167221383E+01 0.  0.
     999903    2    3    3    0    0  0.10183230240E+00  0.54153701328E-01 -0.43561714057E-01  0.12475994034E+00  0.19104413211E-01 0.  0.
         14    1    1    2    0    0  0.18034630015E-01  0.51841293832E-02 -0.19208769692E-01  0.26853303527E-01  0.00000000000E+00 0.  1.
     999901    1    3    3    0    0 -0.11986693241E+00 -0.59337830711E-01  0.62770483748E-01  0.89231675613E+00  0.88000000000E+00 0.  1.
        -11    1    4    4    0    0  0.83264640946E-01  0.40220955101E-01 -0.27316598297E-01  0.96421902722E-01  0.51100000000E-03 0. -1.
         11    1    4    4    0    0  0.18567661450E-01  0.13932746227E-01 -0.16245115760E-01  0.28338037621E-01  0.51100000000E-03 0.  1.
</event>
<event>
 8    1  0.1202249E+005  0.1043930E+01  0.7957747E-01            NaN
         13   -1    0    0    0    0  0.00000000000E+00  0.00000000000E+00  0.74505805969E-08  0.10566000000E+00  0.10566000000E+00 0.  1.
     999900   -1    0    0    0    0 -0.00000000000E+00 -0.00000000000E+00 -0.74505805969E-08  0.93827000000E+00  0.93827000000E+00 0.  1.
     999902    2    1    2    0    0  0.24755062240E-01 -0.85301981207E-02  0.57192087362E-02  0.10171291281E+01  0.10167759716E+01 0.  0.
     999903    2    3    3    0    0 -0.11532008275E-01 -0.50331215089E-02  0.12607153772E+00  0.12818949903E+00  0.19498602759E-01 0.  0.
         14    1    1    2    0    0 -0.24755062240E-01  0.85301981207E-02 -0.57192087362E-02  0.26800871908E-01  0.00000000000E+00 0. -1.
     999901    1    3    3    0    0  0.36287070515E-01 -0.34970766117E-02 -0.12035232899E+00  0.88893962907E+00  0.88000000000E+00 0.  1.
        -11    1    4    4    0    0 -0.52478977422E-02 -0.11651409907E-01  0.93102929570E-01  0.93977190845E-01  0.51100000000E-03 0. -1.
         11    1    4    4    0    0 -0.62841105327E-02  0.66182883979E-02  0.32968608153E-01  0.34212308181E-01  0.51100000000E-03 0.  1.
</event>
<event>
 7    1  0.1202249E+005  0.1043930E+01  0.7957747E-01            NaN
         13   -1    0    0    0    0  0.00000000000E+00  0.00000000000E+00  0.74505805969E-08  0.10566000000E+00  0.10566000000E+00 0. -1.
     999900   -1    0    0    0    0 -0.00000000000E+00 -0.00000000000E+00 -0.74505805969E-08  0.93827000000E+00  0.93827000000E+00 0. -1.
     999903    2    1    2    0    0  0.10113790440E+00  0.23261788094E-01  0.52922833521E-01  0.11873700556E+00  0.22970931400E-01 0.  0.
         14    1    1    2    0    0 -0.36753646004E-01  0.13326118857E-01  0.82878326492E-02  0.39963784960E-01  0.00000000000E+00 0. -1.
     999901    1    1    2    0    0 -0.64384258397E-01 -0.36587906951E-01 -0.61210666170E-01  0.88522920948E+00  0.88000000000E+00 0. -1.
        -11    1    3    3    0    0  0.60830731740E-01  0.44458673891E-02  0.37765445080E-01  0.71740041985E-01  0.51100000000E-03 0.  1.
         11    1    3    3    0    0  0.40307172660E-01  0.18815920705E-01  0.15157388440E-01  0.46996963574E-01  0.51100000000E-03 0. -1.
</event>
<event>
 8    1  0.1202249E+005  0.1043930E+01  0.7957747E-01            NaN
         13   -1    0    0    0    0  0.00000000000E+00  0.00000000000E+00  0.74505805969E-08  0.10566000000E+00  0.10566000000E+00 0.  1.
     999900   -1    0    0    0    0 -0.00000000000E+00 -0.00000000000E+00 -0.74505805969E-08  0.93827000000E+00  0.93827000000E+00 0. -1.
     999902    2    1    2    0    0  0.12324069039E-01  0.24639884009E-01  0.40490906812E-02  0.10160839644E+01  0.10157023290E+01 0.  0.
     999903    2    3    3    0    0 -0.62086826454E-01 -0.48512522172E-01  0.95032015741E-01  0.12526066627E+00  0.21234680858E-01 0.  0.
         14    1    1    2    0    0 -0.12324069039E-01 -0.24639884009E-01 -0.40490906812E-02  0.27846035570E-01  0.00000000000E+00 0. -1.
     999901    1    3    3    0    0  0.74410895493E-01  0.73152406181E-01 -0.90982925060E-01  0.89082329816E+00  0.88000000000E+00 0. -1.
        -11    1    4    4    0    0 -0.51928617918E-01 -0.36327798664E-01  0.86525180575E-01  0.10725277763E+00  0.51100000000E-03 0.  1.
         11    1    4    4    0    0 -0.10158208537E-01 -0.12184723508E-01  0.85068351657E-02  0.18007888637E-01  0.51100000000E-03 0. -1.
</event>
<event>
 8    1  0.1202249E+005  0.1043930E+01  0.7957747E-01            NaN
         13   -1    0    0    0    0  0.00000000000E+00  0.00000000000E+00  0.74505805969E-08  0.10566000000E+00  0.10566000000E+00 0.  1.
     999900   -1    0    0    0    0 -0.00000000000E+00 -0.00000000000E+00 -0.74505805969E-08  0.93827000000E+00  0.93827000000E+00 0. -1.
     999902    2    1    2    0    0  0.38651056355E-02 -0.19548172068E-01 -0.14560052524E-01  0.10192507536E+01  0.10189519290E+01 0.  0.
     999903    2    3    3    0    0  0.16678911345E-01  0.49909248340E-01 -0.11766606120E+00  0.13042041216E+00  0.19876186659E-01 0.  0.
         14    1    1    2    0    0 -0.38651056355E-02  0.19548172068E-01  0.14560052524E-01  0.24679246388E-01  0.00000000000E+00 0. -1.
     999901    1    3    3    0    0 -0.12813805710E-01 -0.69457420409E-01  0.10310600867E+00  0.88883034145E+00  0.88000000000E+00 0.  1.
        -11    1    4    4    0    0  0.17609789841E-03  0.28793461347E-01 -0.51030888125E-01  0.58596135458E-01  0.51100000000E-03 0. -1.
         11    1    4    4    0    0  0.16502813447E-01  0.21115786993E-01 -0.66635173072E-01  0.71824276699E-01  0.51100000000E-03 0.  1.
</event>
<event>
 8    1  0.1202249E+005  0.1043930E+01  0.7957747E-01            NaN
         13   -1    0    0    0    0  0.00000000000E+00  0.00000000000E+00  0.74505805969E-08  0.10566000000E+00  0.10566000000E+00 0.  1.
     999900   -1    0    0    0    0 -0.00000000000E+00 -0.00000000000E+00 -0.74505805969E-08  0.93827000000E+00  0.93827000000E+00 0. -1.
     999902    2    1    2    0    0 -0.68406967843E-02 -0.76669161788E-02 -0.22784680401E-01  0.10189356327E+01  0.10186290322E+01 0.  0.
     999903    2    3    3    0    0  0.10320494768E+00 -0.49571956981E-01  0.53497291272E-01  0.12782115323E+00  0.19174120424E-01 0.  0.
         14    1    1    2    0    0  0.68406967843E-02  0.76669161788E-02  0.22784680401E-01  0.24994367309E-01  0.00000000000E+00 0.  1.
     999901    1    3    3    0    0 -0.11004564446E+00  0.41905040802E-01 -0.76281971673E-01  0.89111447947E+00  0.88000000000E+00 0. -1.
        -11    1    4    4    0    0  0.54366652891E-01 -0.35526735972E-01  0.25289200913E-01  0.69697106964E-01  0.51100000000E-03 0.  1.
         11    1    4    4    0    0  0.48838294790E-01 -0.14045221008E-01  0.28208090359E-01  0.58124046262E-01  0.51100000000E-03 0. -1.
</event>
<event>
 8    1  0.1202249E+005  0.1043930E+01  0.7957747E-01            NaN
         13   -1    0    0    0    0  0.00000000000E+00  0.00000000000E+00  0.74505805969E-08  0.10566000000E+00  0.10566000000E+00 0. -1.
     999900   -1    0    0    0    0 -0.00000000000E+00 -0.00000000000E+00 -0.74505805969E-08  0.93827000000E+00  0.93827000000E+00 0. -1.
     999902    2    1    2    0    0 -0.18684767770E-02  0.16339534676E-01  0.19574105271E-01  0.10183640618E+01  0.10180430959E+01 0.  0.
     999903    2    3    3    0    0  0.17690369774E-01 -0.27435184084E-01 -0.11964549129E+00  0.12613042057E+00  0.22982621652E-01 0.  0.
         14    1    1    2    0    0  0.18684767770E-02 -0.16339534676E-01 -0.19574105271E-01  0.25565938200E-01  0.00000000000E+00 0.  1.
     999901    1    3    3    0    0 -0.19558846552E-01  0.43774718760E-01  0.13921959656E+00  0.89223364123E+00  0.88000000000E+00 0.  1.
        -11    1    4    4    0    0  0.34315189140E-03 -0.80747487516E-02 -0.66228428236E-01  0.66721699231E-01  0.51100000000E-03 0. -1.
         11    1    4    4    0    0  0.17347217883E-01 -0.19360435332E-01 -0.53417063054E-01  0.59408721336E-01  0.51100000000E-03 0.  1.
</event>
<event>
 8    1  0.1202249E+005  0.1043930E+01  0.7957747E-01            NaN
         13   -1    0    0    0    0  0.00000000000E+00  0.00000000000E+00  0.74505805969E-08  0.10566000000E+00  0.10566000000E+00 0. -1.
     999900   -1    0    0    0    0 -0.00000000000E+00 -0.00000000000E+00 -0.74505805969E-08  0.93827000000E+00  0.93827000000E+00 0. -1.
     999902    2    1    2    0    0 -0.20445613227E-01 -0.14166051822E-01  0.14574111669E-02  0.10190136565E+01  0.10187089908E+01 0.  0.
     999903    2    3    3    0    0 -0.10716558508E+00 -0.63313555078E-01  0.42010885130E-01  0.13245829174E+00  0.16947439335E-01 0.  0.
         14    1    1    2    0    0  0.20445613227E-01  0.14166051822E-01 -0.14574111669E-02  0.24916343466E-01  0.00000000000E+00 0. -1.
     999901    1    3    3    0    0  0.86719971849E-01  0.49147503257E-01 -0.40553473963E-01  0.88655536479E+00  0.88000000000E+00 0. -1.
        -11    1    4    4    0    0 -0.58841766262E-01 -0.25295834435E-01  0.23806473738E-01  0.68331852085E-01  0.51100000000E-03 0. -1.
         11    1    4    4    0    0 -0.48323818814E-01 -0.38017720643E-01  0.18204411392E-01  0.64126439655E-01  0.51100000000E-03 0.  1.
</event>
<event>
 8    1  0.1202249E+005  0.1043930E+01  0.7957747E-01            NaN
         13   -1    0    0    0    0  0.00000000000E+00  0.00000000000E+00  0.74505805969E-08  0.10566000000E+00  0.10566000000E+00 0.  1.
     999900   -1    0    0    0    0 -0.00000000000E+00 -0.00000000000E+00 -0.74505805969E-08  0.93827000000E+00  0.93827000000E+00 0.  1.
     999902    2    1    2    0    0  0.14641185842E-01 -0.10981548791E-01 -0.14705627652E-01  0.10204520482E+01  0.10201819291E+01 0.  0.
     999903    2    3    3    0    0 -0.11161360278E+00  0.45785183543E-01 -0.41233021093E-01  0.12923578030E+00  0.21162360988E-01 0.  0.
         14    1    1    2    0    0 -0.14641185842E-01  0.10981548791E-01  0.14705627652E-01  0.23477951813E-01  0.00000000000E+00 0.  1.
     999901    1    3    3    0    0  0.12625478862E+00 -0.56766732334E-01  0.26527393441E-01  0.89121626789E+00  0.88000000000E+00 0. -1.
        -11    1    4    4    0    0 -0.64210524466E-01  0.17434476942E-01 -0.29414323669E-01  0.72748993095E-01  0.51100000000E-03 0. -1.
         11    1    4    4    0    0 -0.47403078315E-01  0.28350706602E-01 -0.11818697424E-01  0.56486787201E-01  0.51100000000E-03 0.  1.
</event>
<event>
 8    1  0.1202249E+005  0.1043930E+01  0.7957747E-01            NaN
         13   -1    0    0    0    0  0.00000000000E+00  0.00000000000E+00  0.74505805969E-08  0.10566000000E+00  0.10566000000E+00 0.  1.
     999900   -1    0    0    0    0 -0.00000000000E+00 -0.00000000000E+00 -0.74505805969E-08  0.93827000000E+00  0.93827000000E+00 0. -1.
     999902    2    1    2    0    0 -0.32274769570E-02  0.20045869229E-01 -0.13885086477E-01  0.10193322540E+01  0.10190354238E+01 0.  0.
     999903    2    3    3    0    0  0.20510563114E-01 -0.76016744271E-01  0.95570885912E-01  0.12704747317E+00  0.28426002091E-01 0.  0.
         14    1    1    2    0    0  0.32274769570E-02 -0.20045869229E-01  0.13885086477E-01  0.24597745977E-01  0.00000000000E+00 0.  1.
     999901    1    3    3    0    0 -0.23738040070E-01  0.96062613500E-01 -0.10945597239E+00  0.89228478086E+00  0.88000000000E+00 0. -1.
        -11    1    4    4    0    0 -0.22787626669E-02 -0.44390907212E-01  0.45786822489E-01  0.63815669213E-01  0.51100000000E-03 0. -1.
         11    1    4    4    0    0  0.22789325780E-01 -0.31625837059E-01  0.49784063422E-01  0.63231803952E-01  0.51100000000E-03 0.  1.
</event>
<event>
 8    1  0.1202249E+005  0.1043930E+01  0.7957747E-01            NaN
         13   -1    0    0    0    0  0.00000000000E+00  0.00000000000E+00  0.74505805969E-08  0.10566000000E+00  0.10566000000E+00 0. -1.
     999900   -1    0    0    0    0 -0.00000000000E+00 -0.00000000000E+00 -0.74505805969E-08  0.93827000000E+00  0.93827000000E+00 0.  1.
     999902    2    1    2    0    0  0.20311507820E-01  0.74040112757E-02 -0.12013849610E-01  0.10191972421E+01  0.10188971042E+01 0.  0.
     999903    2    3    3    0    0 -0.59679155012E-01 -0.61259066897E-01  0.91543748099E-01  0.12687594315E+00  0.20074170322E-01 0.  0.
         14    1    1    2    0    0 -0.20311507820E-01 -0.74040112757E-02  0.12013849610E-01  0.24732757941E-01  0.00000000000E+00 0. -1.
     999901    1    3    3    0    0  0.79990662832E-01  0.68663078173E-01 -0.10355759771E+00  0.89232129891E+00  0.88000000000E+00 0.  1.
        -11    1    4    4    0    0 -0.30871804964E-01 -0.35405603461E-01  0.36055657548E-01  0.59219056564E-01  0.51100000000E-03 0. -1.
         11    1    4    4    0    0 -0.28807350047E-01 -0.25853463437E-01  0.55488090551E-01  0.67656886585E-01  0.51100000000E-03 0.  1.
</event>
<event>
 8    1  0.1202249E+005  0.1043930E+01  0.7957747E-01            NaN
         13   -1    0    0    0    0  0.00000000000E+00  0.00000000000E+00  0.74505805969E-08  0.10566000000E+00  0.10566000000E+00 0.  1.
     999900   -1    0    0    0    0 -0.00000000000E+00 -0.00000000000E+00 -0.74505805969E-08  0.93827000000E+00  0.93827000000E+00 0.  1.
     999902    2    1    2    0    0 -0.37061965135E-02 -0.11116879267E-01 -0.20691031221E-01  0.10201510246E+01  0.10198738517E+01 0.  0.
     999903    2    3    3    0    0 -0.85780706662E-01  0.95061549959E-01 -0.11189571922E-01  0.12992613068E+00  0.18988549151E-01 0.  0.
         14    1    1    2    0    0  0.37061965135E-02  0.11116879267E-01  0.20691031221E-01  0.23778975382E-01  0.00000000000E+00 0.  1.
     999901    1    3    3    0    0  0.82074510148E-01 -0.10617842923E+00 -0.95014592990E-02  0.89022489393E+00  0.88000000000E+00 0. -1.
        -11    1    4    4    0    0 -0.57999184264E-01  0.50390764454E-01 -0.70222213157E-02  0.77153789477E-01  0.51100000000E-03 0. -1.
         11    1    4    4    0    0 -0.27781522397E-01  0.44670785506E-01 -0.41673506067E-02  0.52772341207E-01  0.51100000000E-03 0.  1.
</event>
<event>
 8    1  0.1202249E+005  0.1043930E+01  0.7957747E-01            NaN
         13   -1    0    0    0    0  0.00000000000E+00  0.00000000000E+00  0.74505805969E-08  0.10566000000E+00  0.10566000000E+00 0.  1.
     999900   -1    0    0    0    0 -0.00000000000E+00 -0.00000000000E+00 -0.74505805969E-08  0.93827000000E+00  0.93827000000E+00 0. -1.
     999902    2    1    2    0    0  0.16342805554E-01 -0.64096226203E-02  0.16417679794E-01  0.10198943855E+01  0.10196111253E+01 0.  0.
     999903    2    3    3    0    0 -0.62573557225E-01  0.87284564424E-01 -0.65787053925E-01  0.12761415414E+00  0.20576457947E-01 0.  0.
         14    1    1    2    0    0 -0.16342805554E-01  0.64096226203E-02 -0.16417679794E-01  0.24035614520E-01  0.00000000000E+00 0. -1.
     999901    1    3    3    0    0  0.78916362779E-01 -0.93694187044E-01  0.82204733719E-01  0.89228023134E+00  0.88000000000E+00 0.  1.
        -11    1    4    4    0    0 -0.24369621338E-01  0.36347836004E-01 -0.38690766123E-01  0.58414725288E-01  0.51100000000E-03 0. -1.
         11    1    4    4    0    0 -0.38203935887E-01  0.50936728420E-01 -0.27096287802E-01  0.69199428849E-01  0.51100000000E-03 0.  1.
</event>
<event>
 8    1  0.1202249E+005  0.1043930E+01  0.7957747E-01            NaN
         13   -1    0    0    0    0  0.00000000000E+00  0.00000000000E+00  0.74505805969E-08  0.10566000000E+00  0.10566000000E+00 0. -1.
     999900   -1    0    0    0    0 -0.00000000000E+00 -0.00000000000E+00 -0.74505805969E-08  0.93827000000E+00  0.93827000000E+00 0.  1.
     999902    2    1    2    0    0 -0.12176382346E-01 -0.14982955817E-01 -0.97402607100E-02  0.10223053398E+01  0.10220766027E+01 0.  0.
     999903    2    3    3    0    0 -0.12123780663E+00  0.50575820231E-01 -0.80665230717E-03  0.13310786071E+00  0.21460022052E-01 0.  0.
         14    1    1    2    0    0  0.12176382346E-01  0.14982955817E-01  0.97402607100E-02  0.21624660246E-01  0.00000000000E+00 0. -1.
     999901    1    3    3    0    0  0.10906142428E+00 -0.65558776048E-01 -0.89336084028E-02  0.88919747905E+00  0.88000000000E+00 0.  1.
        -11    1    4    4    0    0 -0.14582358096E-01  0.97647677011E-02  0.63884596309E-02  0.18683398871E-01  0.51100000000E-03 0. -1.
         11    1    4    4    0    0 -0.10665544853E+00  0.40811052530E-01 -0.71951119381E-02  0.11442446184E+00  0.51100000000E-03 0.  1.
</event>
<event>
 8    1  0.1202249E+005  0.1043930E+01  0.7957747E-01            NaN
         13   -1    0    0    0    0  0.00000000000E+00  0.00000000000E+00  0.74505805969E-08  0.10566000000E+00  0.10566000000E+00 0.  1.
     999900   -1    0    0    0    0 -0.00000000000E+00 -0.00000000000E+00 -0.74505805969E-08  0.93827000000E+00  0.93827000000E+00 0.  1.
     999902    2    1    2    0    0 -0.32317113831E-02 -0.60234820997E-03 -0.23416984272E-01  0.10202833949E+01  0.10200093352E+01 0.  0.
     999903    2    3    3    0    0  0.54364007746E-01 -0.50003324498E-02 -0.11985419508E+00  0.13313248056E+00  0.19462287638E-01 0.  0.
         14    1    1    2    0    0  0.32317113831E-02  0.60234820997E-03  0.23416984272E-01  0.23646605131E-01  0.00000000000E+00 0.  1.
     999901    1    3    3    0    0 -0.57595719129E-01  0.43979842398E-02  0.96437210806E-01  0.88715091431E+00  0.88000000000E+00 0. -1.
        -11    1    4    4    0    0  0.35850282150E-01  0.34690356096E-02 -0.60849336314E-01  0.70711949408E-01  0.51100000000E-03 0. -1.
         11    1    4    4    0    0  0.18513725596E-01 -0.84693680593E-02 -0.59004858764E-01  0.62420531154E-01  0.51100000000E-03 0.  1.
</event>
<event>
 8    1  0.1202249E+005  0.1043930E+01  0.7957747E-01            NaN
         13   -1    0    0    0    0  0.00000000000E+00  0.00000000000E+00  0.74505805969E-08  0.10566000000E+00  0.10566000000E+00 0. -1.
     999900   -1    0    0    0    0 -0.00000000000E+00 -0.00000000000E+00 -0.74505805969E-08  0.93827000000E+00  0.93827000000E+00 0. -1.
     999902    2    1    2    0    0  0.23925809934E-01  0.18211090436E-02  0.11847965901E-02  0.10199057505E+01  0.10196227613E+01 0.  0.
     999903    2    3    3    0    0  0.31052780758E-01  0.86097466173E-01  0.91949446266E-01  0.13120359587E+00  0.19561033367E-01 0.  0.
         14    1    1    2    0    0 -0.23925809934E-01 -0.18211090436E-02 -0.11847965901E-02  0.24024249460E-01  0.00000000000E+00 0. -1.
     999901    1    3    3    0    0 -0.71269708241E-02 -0.84276357129E-01 -0.90764649676E-01  0.88870215467E+00  0.88000000000E+00 0. -1.
        -11    1    4    4    0    0  0.26290710384E-01  0.66971591305E-01  0.82095284027E-01  0.10916177112E+00  0.51100000000E-03 0.  1.
         11    1    4    4    0    0  0.47620703742E-02  0.19125874868E-01  0.98541622395E-02  0.22041824747E-01  0.51100000000E-03 0. -1.
</event>
<event>
 8    1  0.1202249E+005  0.1043930E+01  0.7957747E-01            NaN
         13   -1    0    0    0    0  0.00000000000E+00  0.00000000000E+00  0.74505805969E-08  0.10566000000E+00  0.10566000000E+00 0.  1.
     999900   -1    0    0    0    0 -0.00000000000E+00 -0.00000000000E+00 -0.74505805969E-08  0.93827000000E+00  0.93827000000E+00 0.  1.
     999902    2    1    2    0    0  0.73228633792E-02  0.17743465846E-01  0.12744123653E-01  0.10208894359E+01  0.10206294002E+01 0.  0.
     999903    2    3    3    0    0  0.54489466139E-01  0.97879630028E-01 -0.67604625473E-01  0.13234995181E+00  0.19914830266E-01 0.  0.
         14    1    1    2    0    0 -0.73228633792E-02 -0.17743465846E-01 -0.12744123653E-01  0.23040564141E-01  0.00000000000E+00 0. -1.
     999901    1    3    3    0    0 -0.47166602760E-01 -0.80136164182E-01  0.80348749125E-01  0.88853948405E+00  0.88000000000E+00 0. -1.
        -11    1    4    4    0    0  0.11741262017E-01  0.13791573806E-01 -0.39358747066E-02  0.18542302244E-01  0.51100000000E-03 0.  1.
         11    1    4    4    0    0  0.42748204122E-01  0.84088056222E-01 -0.63668750766E-01  0.11380764957E+00  0.51100000000E-03 0. -1.
</event>
<event>
 8    1  0.1202249E+005  0.1043930E+01  0.7957747E-01            NaN
         13   -1    0    0    0    0  0.00000000000E+00  0.00000000000E+00  0.74505805969E-08  0.10566000000E+00  0.10566000000E+00 0.  1.
     999900   -1    0    0    0    0 -0.00000000000E+00 -0.00000000000E+00 -0.74505805969E-08  0.93827000000E+00  0.93827000000E+00 0.  1.
     999902    2    1    2    0    0 -0.86466347901E-02  0.21686246297E-01  0.45883219852E-02  0.10201369281E+01  0.10198594226E+01 0.  0.
     999903    2    3    3    0    0 -0.10397728608E+00  0.80418922693E-01  0.60706388794E-02  0.13304073399E+00  0.19608801468E-01 0.  0.
         14    1    1    2    0    0  0.86466347901E-02 -0.21686246297E-01 -0.45883219852E-02  0.23793071897E-01  0.00000000000E+00 0. -1.
     999901    1    3    3    0    0  0.95330651293E-01 -0.58732676396E-01 -0.14823168942E-02  0.88709619412E+00  0.88000000000E+00 0.  1.
        -11    1    4    4    0    0 -0.10436408001E-01  0.14421398078E-01 -0.35400864679E-02  0.18157330962E-01  0.51100000000E-03 0.  1.
         11    1    4    4    0    0 -0.93540878082E-01  0.65997524615E-01  0.96107253473E-02  0.11488340302E+00  0.51100000000E-03 0. -1.
</event>
<event>
 8    1  0.1202249E+005  0.1043930E+01  0.7957747E-01            NaN
         13   -1    0    0    0    0  0.00000000000E+00  0.00000000000E+00  0.74505805969E-08  0.10566000000E+00  0.10566000000E+00 0. -1.
     999900   -1    0    0    0    0 -0.00000000000E+00 -0.00000000000E+00 -0.74505805969E-08  0.93827000000E+00  0.93827000000E+00 0. -1.
     999902    2    1    2    0    0 -0.23275199394E-01  0.19729520359E-02 -0.62107209747E-02  0.10197597600E+01  0.10194732795E+01 0.  0.
     999903    2    3    3    0    0 -0.79111298622E-01  0.98059613679E-01  0.33510290367E-01  0.13188134757E+00  0.19886298587E-01 0.  0.
         14    1    1    2    0    0  0.23275199394E-01 -0.19729520359E-02  0.62107209747E-02  0.24170239999E-01  0.00000000000E+00 0.  1.
     999901    1    3    3    0    0  0.55836099228E-01 -0.96086661643E-01 -0.39721011342E-01  0.88787841243E+00  0.88000000000E+00 0. -1.
        -11    1    4    4    0    0 -0.48152588928E-01  0.54044760388E-01  0.28642523651E-01  0.77847050220E-01  0.51100000000E-03 0. -1.
         11    1    4    4    0    0 -0.30958709694E-01  0.44014853291E-01  0.48677667156E-02  0.54034297348E-01  0.51100000000E-03 0.  1.
</event>
<event>
 8    1  0.1202249E+005  0.1043930E+01  0.7957747E-01            NaN
         13   -1    0    0    0    0  0.00000000000E+00  0.00000000000E+00  0.74505805969E-08  0.10566000000E+00  0.10566000000E+00 0.  1.
     999900   -1    0    0    0    0 -0.00000000000E+00 -0.00000000000E+00 -0.74505805969E-08  0.93827000000E+00  0.93827000000E+00 0. -1.
     999902    2    1    2    0    0  0.14521184901E-01  0.18397257224E-01  0.23563100963E-02  0.10203741922E+01  0.10201022576E+01 0.  0.
     999903    2    3    3    0    0 -0.67453456603E-01 -0.61985398004E-01 -0.87597456357E-01  0.12836920722E+00  0.20326845033E-01 0.  0.
         14    1    1    2    0    0 -0.14521184901E-01 -0.18397257224E-01 -0.23563100963E-02  0.23555807810E-01  0.00000000000E+00 0.  1.
     999901    1    3    3    0    0  0.81974641504E-01  0.80382655228E-01  0.89953766453E-01  0.89200498497E+00  0.88000000000E+00 0.  1.
        -11    1    4    4    0    0 -0.31905014615E-01 -0.29502915897E-01 -0.27790289297E-01  0.51584041178E-01  0.51100000000E-03 0. -1.
         11    1    4    4    0    0 -0.35548441988E-01 -0.32482482106E-01 -0.59807167060E-01  0.76785166043E-01  0.51100000000E-03 0.  1.
</event>
<event>
 8    1  0.1202249E+005  0.1043930E+01  0.7957747E-01            NaN
         13   -1    0    0    0    0  0.00000000000E+00  0.00000000000E+00  0.74505805969E-08  0.10566000000E+00  0.10566000000E+00 0.  1.
     999900   -1    0    0    0    0 -0.00000000000E+00 -0.00000000000E+00 -0.74505805969E-08  0.93827000000E+00  0.93827000000E+00 0.  1.
     999902    2    1    2    0    0  0.34928033494E-02 -0.23540572380E-01 -0.12328645006E-02  0.10200998053E+01  0.10198214229E+01 0.  0.
     999903    2    3    3    0    0  0.10094417100E+00 -0.82908695415E-01 -0.11300757959E-01  0.13267504482E+00  0.20282577575E-01 0.  0.
         14    1    1    2    0    0 -0.34928033494E-02  0.23540572380E-01  0.12328645006E-02  0.23830194672E-01  0.00000000000E+00 0. -1.
     999901    1    3    3    0    0 -0.97451367648E-01  0.59368123035E-01  0.10067893458E-01  0.88742476051E+00  0.88000000000E+00 0. -1.
        -11    1    4    4    0    0  0.14567855541E-01 -0.17214289268E-01 -0.85374177932E-02  0.24118515577E-01  0.51100000000E-03 0. -1.
         11    1    4    4    0    0  0.86376315456E-01 -0.65694406147E-01 -0.27633401655E-02  0.10855652924E+00  0.51100000000E-03 0.  1.
</event>
<event>
 8    1  0.1202249E+005  0.1043930E+01  0.7957747E-01            NaN
         13   -1    0    0    0    0  0.00000000000E+00  0.00000000000E+00  0.74505805969E-08  0.10566000000E+00  0.10566000000E+00 0. -1.
     999900   -1    0    0    0    0 -0.00000000000E+00 -0.00000000000E+00 -0.74505805969E-08  0.93827000000E+00  0.93827000000E+00 0.  1.
     999902    2    1    2    0    0  0.22456345580E-02  0.59024115736E-02  0.21189053048E-01  0.10218198823E+01  0.10215806451E+01 0.  0.
     999903    2    3    3    0    0  0.52835178653E-01  0.95561231693E-01 -0.69926061718E-01  0.13114599687E+00  0.19649765431E-01 0.  0.
         14    1    1    2    0    0 -0.22456345580E-02 -0.59024115736E-02 -0.21189053048E-01  0.22110117730E-01  0.00000000000E+00 0.  1.
     999901    1    3    3    0    0 -0.50589544095E-01 -0.89658820119E-01  0.91115114766E-01  0.89067388540E+00  0.88000000000E+00 0. -1.
        -11    1    4    4    0    0  0.22625738317E-01  0.58223725201E-01 -0.33641640307E-01  0.70950315674E-01  0.51100000000E-03 0.  1.
         11    1    4    4    0    0  0.30209440336E-01  0.37337506492E-01 -0.36284421411E-01  0.60195681195E-01  0.51100000000E-03 0. -1.
</event>
<event>
 8    1  0.1202249E+005  0.1043930E+01  0.7957747E-01            NaN
         13   -1    0    0    0    0  0.00000000000E+00  0.00000000000E+00  0.74505805969E-08  0.10566000000E+00  0.10566000000E+00 0. -1.
     999900   -1    0    0    0    0 -0.00000000000E+00 -0.00000000000E+00 -0.74505805969E-08  0.93827000000E+00  0.93827000000E+00 0. -1.
     999902    2    1    2    0    0 -0.34048773121E-02  0.17048541278E-01  0.15736321816E-01  0.10204805272E+01  0.10202110706E+01 0.  0.
     999903    2    3    3    0    0 -0.69063412444E-01 -0.50126029455E-01  0.98266420515E-01  0.13164157478E+00  0.19769700109E-01 0.  0.
         14    1    1    2    0    0  0.34048773121E-02 -0.17048541278E-01 -0.15736321816E-01  0.23449472777E-01  0.00000000000E+00 0.  1.
     999901    1    3    3    0    0  0.65658535131E-01  0.67174570733E-01 -0.82530098700E-01  0.88883895244E+00  0.88000000000E+00 0. -1.
        -11    1    4    4    0    0 -0.49215176024E-01 -0.43240106949E-01  0.64963303198E-01  0.92262301529E-01  0.51100000000E-03 0. -1.
         11    1    4    4    0    0 -0.19848236419E-01 -0.68859225059E-02  0.33303117317E-01  0.39379273251E-01  0.51100000000E-03 0.  1.
</event>
<event>
 8    1  0.1202249E+005  0.1043930E+01  0.7957747E-01            NaN
         13   -1    0    0    0    0  0.00000000000E+00  0.00000000000E+00  0.74505805969E-08  0.10566000000E+00  0.10566000000E+00 0.  1.
     999900   -1    0    0    0    0 -0.00000000000E+00 -0.00000000000E+00 -0.74505805969E-08  0.93827000000E+00  0.93827000000E+00 0.  1.
     999902    2    1    2    0    0  0.22134387408E-01  0.65552400336E-02 -0.54455151194E-02  0.10202117388E+01  0.10199359961E+01 0.  0.
     999903    2    3    3    0    0  0.57587640144E-01  0.25534032239E-01  0.11330914833E+00  0.13132490814E+00  0.20951021543E-01 0.  0.
         14    1    1    2    0    0 -0.22134387408E-01 -0.65552400336E-02  0.54455151194E-02  0.23718261166E-01  0.00000000000E+00 0. -1.
     999901    1    3    3    0    0 -0.35453252736E-01 -0.18978792206E-01 -0.11875466345E+00  0.88888683069E+00  0.88000000000E+00 0.  1.
        -11    1    4    4    0    0  0.16794869177E-01  0.18494769026E-01  0.42349831077E-01  0.49172079733E-01  0.51100000000E-03 0.  1.
         11    1    4    4    0    0  0.40792770967E-01  0.70392632133E-02  0.70959317254E-01  0.82152828411E-01  0.51100000000E-03 0. -1.
</event>
<event>
 8    1  0.1202249E+005  0.1043930E+01  0.7957747E-01            NaN
         13   -1    0    0    0    0  0.00000000000E+00  0.00000000000E+00  0.74505805969E-08  0.10566000000E+00  0.10566000000E+00 0.  1.
     999900   -1    0    0    0    0 -0.00000000000E+00 -0.00000000000E+00 -0.74505805969E-08  0.93827000000E+00  0.93827000000E+00 0. -1.
     999902    2    1    2    0    0  0.23223726656E-01  0.24552807873E-02  0.71470262515E-03  0.10205659104E+01  0.10202984351E+01 0.  0.
     999903    2    3    3    0    0  0.11357449205E+00  0.56636003747E-01 -0.36459755257E-01  0.13350291834E+00  0.19670111500E-01 0.  0.
         14    1    1    2    0    0 -0.23223726656E-01 -0.24552807873E-02 -0.71470262515E-03  0.23364089612E-01  0.00000000000E+00 0.  1.
     999901    1    3    3    0    0 -0.90350765394E-01 -0.54180722960E-01  0.37174457882E-01  0.88706299205E+00  0.88000000000E+00 0. -1.
        -11    1    4    4    0    0  0.56133018474E-01  0.38757509587E-01 -0.21248965219E-01  0.71448162721E-01  0.51100000000E-03 0.  1.
         11    1    4    4    0    0  0.57441473575E-01  0.17878494160E-01 -0.15210790038E-01  0.62054755616E-01  0.51100000000E-03 0. -1.
</event>
<event>
 8    1  0.1202249E+005  0.1043930E+01  0.7957747E-01            NaN
         13   -1    0    0    0    0  0.00000000000E+00  0.00000000000E+00  0.74505805969E-08  0.10566000000E+00  0.10566000000E+00 0.  1.
     999900   -1    0    0    0    0 -0.00000000000E+00 -0.00000000000E+00 -0.74505805969E-08  0.93827000000E+00  0.93827000000E+00 0. -1.
     999902    2    1    2    0    0 -0.17329238429E-01  0.10670844689E-01  0.17452875026E-01  0.10171200713E+01  0.10167666729E+01 0.  0.
     999903    2    3    3    0    0  0.21884236352E-01 -0.88917530873E-01 -0.82734160132E-01  0.12499172673E+00  0.19817754684E-01 0.  0.
         14    1    1    2    0    0  0.17329238429E-01 -0.10670844689E-01 -0.17452875026E-01  0.26809928712E-01  0.00000000000E+00 0. -1.
     999901    1    3    3    0    0 -0.39213474781E-01  0.99588375562E-01  0.10018703516E+00  0.89212834456E+00  0.88000000000E+00 0.  1.
        -11    1    4    4    0    0  0.11566996678E-01 -0.14741788539E-01 -0.14887966089E-01  0.23938011546E-01  0.51100000000E-03 0. -1.
         11    1    4    4    0    0  0.10317239674E-01 -0.74175742333E-01 -0.67846194043E-01  0.10105371518E+00  0.51100000000E-03 0.  1.
</event>
<event>
 8    1  0.1202249E+005  0.1043930E+01  0.7957747E-01            NaN
         13   -1    0    0    0    0  0.00000000000E+00  0.00000000000E+00  0.74505805969E-08  0.10566000000E+00  0.10566000000E+00 0.  1.
     999900   -1    0    0    0    0 -0.00000000000E+00 -0.00000000000E+00 -0.74505805969E-08  0.93827000000E+00  0.93827000000E+00 0. -1.
     999902    2    1    2    0    0  0.17619856712E-01 -0.15804667817E-01 -0.24119811662E-03  0.10202592363E+01  0.10199846098E+01 0.  0.
     999903    2    3    3    0    0 -0.10399240778E-01 -0.12558490338E+00 -0.34435599205E-01  0.13233692724E+00  0.21155133036E-01 0.  0.
         14    1    1    2    0    0 -0.17619856712E-01  0.15804667817E-01  0.24119811662E-03  0.23670763652E-01  0.00000000000E+00 0.  1.
     999901    1    3    3    0    0  0.28019097489E-01  0.10978023556E+00  0.34194401088E-01  0.88792230911E+00  0.88000000000E+00 0. -1.
        -11    1    4    4    0    0  0.40431581473E-02 -0.76246952734E-01 -0.21448682372E-01  0.79311109092E-01  0.51100000000E-03 0. -1.
         11    1    4    4    0    0 -0.14442398925E-01 -0.49337950645E-01 -0.12986916833E-01  0.53025818149E-01  0.51100000000E-03 0.  1.
</event>
<event>
 8    1  0.1202249E+005  0.1043930E+01  0.7957747E-01            NaN
         13   -1    0    0    0    0  0.00000000000E+00  0.00000000000E+00  0.74505805969E-08  0.10566000000E+00  0.10566000000E+00 0.  1.
     999900   -1    0    0    0    0 -0.00000000000E+00 -0.00000000000E+00 -0.74505805969E-08  0.93827000000E+00  0.93827000000E+00 0. -1.
     999902    2    1    2    0    0 -0.15102221638E-01 -0.27664208549E-02  0.17796957191E-01  0.10204254926E+01  0.10201547550E+01 0.  0.
     999903    2    3    3    0    0 -0.62912105330E-01 -0.57197024163E-01  0.10106124133E+00  0.13353123929E+00  0.19692252199E-01 0.  0.
         14    1    1    2    0    0  0.15102221638E-01  0.27664208549E-02 -0.17796957191E-01  0.23504507397E-01  0.00000000000E+00 0. -1.
     999901    1    3    3    0    0  0.47809883692E-01  0.54430603308E-01 -0.83264284135E-01  0.88689425332E+00  0.88000000000E+00 0. -1.
        -11    1    4    4    0    0 -0.38694826582E-01 -0.30542508778E-01  0.44138461673E-01  0.66170985836E-01  0.51100000000E-03 0.  1.
         11    1    4    4    0    0 -0.24217278748E-01 -0.26654515385E-01  0.56922779653E-01  0.67360253449E-01  0.51100000000E-03 0. -1.
</event>
<event>
 8    1  0.1202249E+005  0.1043930E+01  0.7957747E-01            NaN
         13   -1    0    0    0    0  0.00000000000E+00  0.00000000000E+00  0.74505805969E-08  0.10566000000E+00  0.10566000000E+00 0.  1.
     999900   -1    0    0    0    0 -0.00000000000E+00 -0.00000000000E+00 -0.74505805969E-08  0.93827000000E+00  0.93827000000E+00 0.  1.
     999902    2    1    2    0    0  0.44825932587E-02  0.18473288522E-01  0.13679086273E-01  0.10205104903E+01  0.10202417299E+01 0.  0.
     999903    2    3    3    0    0  0.16470292879E-01 -0.20723239495E-01  0.12801317646E+00  0.13216801307E+00  0.19500952029E-01 0.  0.
         14    1    1    2    0    0 -0.44825932587E-02 -0.18473288522E-01 -0.13679086273E-01  0.23419509653E-01  0.00000000000E+00 0. -1.
     999901    1    3    3    0    0 -0.11987699620E-01  0.39196528017E-01 -0.11433409019E+00  0.88834247727E+00  0.88000000000E+00 0.  1.
        -11    1    4    4    0    0  0.58832887420E-02 -0.43270410817E-02  0.80040089828E-01  0.80374208995E-01  0.51100000000E-03 0.  1.
         11    1    4    4    0    0  0.10587004136E-01 -0.16396198413E-01  0.47973086630E-01  0.51793804077E-01  0.51100000000E-03 0. -1.
</event>
<event>
 8    1  0.1202249E+005  0.1043930E+01  0.7957747E-01            NaN
         13   -1    0    0    0    0  0.00000000000E+00  0.00000000000E+00  0.74505805969E-08  0.10566000000E+00  0.10566000000E+00 0. -1.
     999900   -1    0    0    0    0 -0.00000000000E+00 -0.00000000000E+00 -0.74505805969E-08  0.93827000000E+00  0.93827000000E+00 0. -1.
     999902    2    1    2    0    0 -0.20253780433E-01 -0.10783764425E-01  0.70182270383E-02  0.10199349858E+01  0.10196526931E+01 0.  0.
     999903    2    3    3    0    0 -0.80610382002E-01  0.53732758800E-03  0.10338507909E+00  0.13254687640E+00  0.19541685117E-01 0.  0.
         14    1    1    2    0    0  0.20253780433E-01  0.10783764425E-01 -0.70182270383E-02  0.23995014227E-01  0.00000000000E+00 0.  1.
     999901    1    3    3    0    0  0.60356601569E-01 -0.11321092013E-01 -0.96366852056E-01  0.88738810937E+00  0.88000000000E+00 0. -1.
        -11    1    4    4    0    0 -0.28810860404E-01  0.95523567090E-02  0.36909166734E-01  0.47789757333E-01  0.51100000000E-03 0.  1.
         11    1    4    4    0    0 -0.51799521598E-01 -0.90150291210E-02  0.66475912360E-01  0.84757119069E-01  0.51100000000E-03 0. -1.
</event>
<event>
 8    1  0.1202249E+005  0.1043930E+01  0.7957747E-01            NaN
         13   -1    0    0    0    0  0.00000000000E+00  0.00000000000E+00  0.74505805969E-08  0.10566000000E+00  0.10566000000E+00 0. -1.
     999900   -1    0    0    0    0 -0.00000000000E+00 -0.00000000000E+00 -0.74505805969E-08  0.93827000000E+00  0.93827000000E+00 0. -1.
     999902    2    1    2    0    0  0.15917863316E-01  0.15289463393E-01 -0.52854421507E-02  0.10212345828E+01  0.10209823657E+01 0.  0.
     999903    2    3    3    0    0  0.11603393998E+00  0.63052177643E-01 -0.13320581923E-01  0.13423454382E+00  0.20050499196E-01 0.  0.
         14    1    1    2    0    0 -0.15917863316E-01 -0.15289463393E-01  0.52854421507E-02  0.22695417205E-01  0.00000000000E+00 0. -1.
     999901    1    3    3    0    0 -0.10011607666E+00 -0.47762714250E-01  0.80351397725E-02  0.88700003898E+00  0.88000000000E+00 0.  1.
        -11    1    4    4    0    0  0.37191822557E-01  0.14540239808E-01 -0.11822356649E-01  0.41649483509E-01  0.51100000000E-03 0.  1.
         11    1    4    4    0    0  0.78842117421E-01  0.48511937835E-01 -0.14982252742E-02  0.92585060306E-01  0.51100000000E-03 0. -1.
</event>
<event>
 8    1  0.1202249E+005  0.1043930E+01  0.7957747E-01            NaN
         13   -1    0    0    0    0  0.00000000000E+00  0.00000000000E+00  0.74505805969E-08  0.10566000000E+00  0.10566000000E+00 0. -1.
     999900   -1    0    0    0    0 -0.00000000000E+00 -0.00000000000E+00 -0.74505805969E-08  0.93827000000E+00  0.93827000000E+00 0. -1.
     999902    2    1    2    0    0 -0.26678953511E-02 -0.16365767923E-03  0.23524591650E-01  0.10202540446E+01  0.10199792962E+01 0.  0.
     999903    2    3    3    0    0 -0.14897205970E-01 -0.10774392605E+00 -0.67702971139E-01  0.12893730050E+00  0.14507060844E-01 0.  0.
         14    1    1    2    0    0  0.26678953511E-02  0.16365767923E-03 -0.23524591650E-01  0.23675955350E-01  0.00000000000E+00 0.  1.
     999901    1    3    3    0    0  0.12229310618E-01  0.10758026837E+00  0.91227562790E-01  0.89131674414E+00  0.88000000000E+00 0.  1.
        -11    1    4    4    0    0 -0.15945407205E-01 -0.82758364248E-01 -0.47223804014E-01  0.96610308200E-01  0.51100000000E-03 0. -1.
         11    1    4    4    0    0  0.10482012359E-02 -0.24985561800E-01 -0.20479167126E-01  0.32326992305E-01  0.51100000000E-03 0.  1.
</event>
<event>
 8    1  0.1202249E+005  0.1043930E+01  0.7957747E-01            NaN
         13   -1    0    0    0    0  0.00000000000E+00  0.00000000000E+00  0.74505805969E-08  0.10566000000E+00  0.10566000000E+00 0.  1.
     999900   -1    0    0    0    0 -0.00000000000E+00 -0.00000000000E+00 -0.74505805969E-08  0.93827000000E+00  0.93827000000E+00 0.  1.
     999902    2    1    2    0    0 -0.22987570914E-01  0.70534974864E-02 -0.11501239194E-02  0.10198571309E+01  0.10195729814E+01 0.  0.
     999903    2    3    3    0    0  0.53792249475E-01  0.10716068722E+00  0.45548764799E-01  0.12963391365E+00  0.18794749388E-01 0.  0.
         14    1    1    2    0    0  0.22987570914E-01 -0.70534974864E-02  0.11501239194E-02  0.24072869134E-01  0.00000000000E+00 0.  1.
     999901    1    3    3    0    0 -0.76779820389E-01 -0.10010718974E+00 -0.46698888718E-01  0.89022321721E+00  0.88000000000E+00 0. -1.
        -11    1    4    4    0    0  0.26729327539E-01  0.50312892598E-01  0.11752961701E-01  0.58174198250E-01  0.51100000000E-03 0.  1.
         11    1    4    4    0    0  0.27062921936E-01  0.56847794626E-01  0.33795803098E-01  0.71459715403E-01  0.51100000000E-03 0. -1.
</event>
<event>
 8    1  0.1202249E+005  0.1043930E+01  0.7957747E-01            NaN
         13   -1    0    0    0    0  0.00000000000E+00  0.00000000000E+00  0.74505805969E-08  0.10566000000E+00  0.10566000000E+00 0.  1.
     999900   -1    0    0    0    0 -0.00000000000E+00 -0.00000000000E+00 -0.74505805969E-08  0.93827000000E+00  0.93827000000E+00 0.  1.
     999902    2    1    2    0    0  0.16188823099E-01  0.16451225948E-01  0.65676898249E-02  0.10199330131E+01  0.10196506735E+01 0.  0.
     999903    2    3    3    0    0  0.74916762430E-02  0.71734183906E-01 -0.10729869643E+00  0.13083380624E+00  0.20063804328E-01 0.  0.
         14    1    1    2    0    0 -0.16188823099E-01 -0.16451225948E-01 -0.65676898249E-02  0.23996986856E-01  0.00000000000E+00 0.  1.
     999901    1    3    3    0    0  0.86971468559E-02 -0.55282957958E-01  0.11386638626E+00  0.88909920691E+00  0.88000000000E+00 0. -1.
        -11    1    4    4    0    0  0.12419678306E-01  0.66302807189E-01 -0.95218658107E-01  0.11669260741E+00  0.51100000000E-03 0. -1.
         11    1    4    4    0    0 -0.49280020633E-02  0.54313767169E-02 -0.12080038328E-01  0.14141198831E-01  0.51100000000E-03 0.  1.
</event>
<event>
 8    1  0.1202249E+005  0.1043930E+01  0.7957747E-01            NaN
         13   -1    0    0    0    0  0.00000000000E+00  0.00000000000E+00  0.74505805969E-08  0.10566000000E+00  0.10566000000E+00 0. -1.
     999900   -1    0    0    0    0 -0.00000000000E+00 -0.00000000000E+00 -0.74505805969E-08  0.93827000000E+00  0.93827000000E+00 0. -1.
     999902    2    1    2    0    0 -0.26835120585E-02  0.23337305035E-01  0.38951884561E-03  0.10204356865E+01  0.10201651864E+01 0.  0.
     999903    2    3    3    0    0 -0.71004787596E-01  0.88456791857E-01  0.65685226115E-01  0.13298322372E+00  0.22443372603E-01 0.  0.
         14    1    1    2    0    0  0.26835120585E-02 -0.23337305035E-01 -0.38951884561E-03  0.23494313529E-01  0.00000000000E+00 0. -1.
     999901    1    3    3    0    0  0.68321275538E-01 -0.65119486822E-01 -0.65295707269E-01  0.88745246275E+00  0.88000000000E+00 0.  1.
        -11    1    4    4    0    0 -0.18598060885E-01  0.15704364181E-01  0.23695294596E-01  0.33974152381E-01  0.51100000000E-03 0.  1.
         11    1    4    4    0    0 -0.52406726711E-01  0.72752427676E-01  0.41989931519E-01  0.99009071338E-01  0.51100000000E-03 0. -1.
</event>
<event>
 8    1  0.1223932E+005  0.1043930E+01  0.7957747E-01            NaN
         13   -1    0    0    0    0  0.00000000000E+00  0.00000000000E+00  0.74505805969E-08  0.10566000000E+00  0.10566000000E+00 0. -1.
     999900   -1    0    0    0    0 -0.00000000000E+00 -0.00000000000E+00 -0.74505805969E-08  0.93827000000E+00  0.93827000000E+00 0. -1.
     999902    2    1    2    0    0  0.84740043499E-02 -0.15960568027E-01 -0.17157467743E-01  0.10190115895E+01  0.10187068727E+01 0.  0.
     999903    2    3    3    0    0  0.89576341257E-01 -0.38482602862E-01  0.82790576802E-01  0.12936309561E+00  0.19382963219E-01 0.  0.
         14    1    1    2    0    0 -0.84740043499E-02  0.15960568027E-01  0.17157467743E-01  0.24918410479E-01  0.00000000000E+00 0. -1.
     999901    1    3    3    0    0 -0.81102336907E-01  0.22522034836E-01 -0.99948044545E-01  0.88964849391E+00  0.88000000000E+00 0. -1.
        -11    1    4    4    0    0  0.31834624876E-01 -0.22409670081E-01  0.39196642396E-01  0.55247394058E-01  0.51100000000E-03 0.  1.
         11    1    4    4    0    0  0.57741716382E-01 -0.16072932781E-01  0.43593934407E-01  0.74115701555E-01  0.51100000000E-03 0. -1.
</event>
<event>
 8    1  0.1202249E+005  0.1043930E+01  0.7957747E-01            NaN
         13   -1    0    0    0    0  0.00000000000E+00  0.00000000000E+00  0.74505805969E-08  0.10566000000E+00  0.10566000000E+00 0. -1.
     999900   -1    0    0    0    0 -0.00000000000E+00 -0.00000000000E+00 -0.74505805969E-08  0.93827000000E+00  0.93827000000E+00 0. -1.
     999902    2    1    2    0    0 -0.53237130453E-02  0.18045968805E-01 -0.11661785411E-01  0.10217941433E+01  0.10215543428E+01 0.  0.
     999903    2    3    3    0    0  0.70084356802E-01  0.86518066941E-01 -0.71326283776E-01  0.13391202415E+00  0.21161249492E-01 0.  0.
         14    1    1    2    0    0  0.53237130453E-02 -0.18045968805E-01  0.11661785411E-01  0.22135856651E-01  0.00000000000E+00 0. -1.
     999901    1    3    3    0    0 -0.75408069847E-01 -0.68472098136E-01  0.59664498366E-01  0.88788211920E+00  0.88000000000E+00 0.  1.
        -11    1    4    4    0    0  0.46968630985E-01  0.47203675337E-01 -0.51485411174E-01  0.84173914883E-01  0.51100000000E-03 0.  1.
         11    1    4    4    0    0  0.23115725817E-01  0.39314391604E-01 -0.19840872603E-01  0.49738109271E-01  0.51100000000E-03 0. -1.
</event>
<event>
 8    1  0.1202249E+005  0.1043930E+01  0.7957747E-01            NaN
         13   -1    0    0    0    0  0.00000000000E+00  0.00000000000E+00  0.74505805969E-08  0.10566000000E+00  0.10566000000E+00 0.  1.
     999900   -1    0    0    0    0 -0.00000000000E+00 -0.00000000000E+00 -0.74505805969E-08  0.93827000000E+00  0.93827000000E+00 0. -1.
     999902    2    1    2    0    0 -0.10669887177E-01 -0.12958192452E-01 -0.15248998412E-01  0.10212519667E+01  0.10210001402E+01 0.  0.
     999903    2    3    3    0    0 -0.64809138881E-01  0.28366115208E-01  0.10737309029E+00  0.13014314411E+00  0.20084732162E-01 0.  0.
         14    1    1    2    0    0  0.10669887177E-01  0.12958192452E-01  0.15248998412E-01  0.22678033349E-01  0.00000000000E+00 0.  1.
     999901    1    3    3    0    0  0.54139251704E-01 -0.41324307659E-01 -0.12262208870E+00  0.89110882254E+00  0.88000000000E+00 0. -1.
        -11    1    4    4    0    0 -0.43989713587E-01  0.87071003777E-02  0.67983301575E-01  0.81442611160E-01  0.51100000000E-03 0.  1.
         11    1    4    4    0    0 -0.20819425294E-01  0.19659014830E-01  0.39389788711E-01  0.48700532948E-01  0.51100000000E-03 0. -1.
</event>
<event>
 8    1  0.1202249E+005  0.1043930E+01  0.7957747E-01            NaN
         13   -1    0    0    0    0  0.00000000000E+00  0.00000000000E+00  0.74505805969E-08  0.10566000000E+00  0.10566000000E+00 0. -1.
     999900   -1    0    0    0    0 -0.00000000000E+00 -0.00000000000E+00 -0.74505805969E-08  0.93827000000E+00  0.93827000000E+00 0.  1.
     999902    2    1    2    0    0 -0.10717785388E-02  0.22579507807E-01 -0.67138984896E-02  0.10203490900E+01  0.10200765688E+01 0.  0.
     999903    2    3    3    0    0 -0.39299001495E-01  0.44416162038E-02  0.12223926912E+00  0.12994512378E+00  0.19471949199E-01 0.  0.
         14    1    1    2    0    0  0.10717785388E-02 -0.22579507807E-01  0.67138984896E-02  0.23580909969E-01  0.00000000000E+00 0. -1.
     999901    1    3    3    0    0  0.38227222956E-01  0.18137891603E-01 -0.12895316761E+00  0.89040396626E+00  0.88000000000E+00 0.  1.
        -11    1    4    4    0    0 -0.17852508809E-01 -0.67235436761E-02  0.41824815575E-01  0.45972757468E-01  0.51100000000E-03 0.  1.
         11    1    4    4    0    0 -0.21446492686E-01  0.11165159880E-01  0.80414453544E-01  0.83972366308E-01  0.51100000000E-03 0. -1.
</event>
<event>
 8    1  0.1202249E+005  0.1043930E+01  0.7957747E-01            NaN
         13   -1    0    0    0    0  0.00000000000E+00  0.00000000000E+00  0.74505805969E-08  0.10566000000E+00  0.10566000000E+00 0.  1.
     999900   -1    0    0    0    0 -0.00000000000E+00 -0.00000000000E+00 -0.74505805969E-08  0.93827000000E+00  0.93827000000E+00 0.  1.
     999902    2    1    2    0    0 -0.13917190335E-01 -0.17209926805E-01  0.21474533974E-02  0.10216930640E+01  0.10214510442E+01 0.  0.
     999903    2    3    3    0    0  0.37254966638E-01 -0.75929257657E-01 -0.99927641098E-01  0.13237541860E+00  0.19609520318E-01 0.  0.
         14    1    1    2    0    0  0.13917190335E-01  0.17209926805E-01 -0.21474533974E-02  0.22236936020E-01  0.00000000000E+00 0. -1.
     999901    1    3    3    0    0 -0.51172156972E-01  0.58719330852E-01  0.10207509450E+00  0.88931764538E+00  0.88000000000E+00 0. -1.
        -11    1    4    4    0    0  0.17854952343E-01 -0.19705481802E-01 -0.39209327901E-01  0.47378664520E-01  0.51100000000E-03 0.  1.
         11    1    4    4    0    0  0.19400014295E-01 -0.56223775855E-01 -0.60718313197E-01  0.84996754082E-01  0.51100000000E-03 0. -1.
</event>
<event>
 8    1  0.1202249E+005  0.1043930E+01  0.7957747E-01            NaN
         13   -1    0    0    0    0  0.00000000000E+00  0.00000000000E+00  0.74505805969E-08  0.10566000000E+00  0.10566000000E+00 0.  1.
     999900   -1    0    0    0    0 -0.00000000000E+00 -0.00000000000E+00 -0.74505805969E-08  0.93827000000E+00  0.93827000000E+00 0.  1.
     999902    2    1    2    0    0 -0.26856826195E-02  0.42731881808E-02  0.22022242748E-01  0.10213368107E+01  0.10210868859E+01 0.  0.
     999903    2    3    3    0    0  0.64971680859E-01 -0.25954470798E-01  0.11202702497E+00  0.13364762463E+00  0.20412725858E-01 0.  0.
         14    1    1    2    0    0  0.26856826195E-02 -0.42731881808E-02 -0.22022242748E-01  0.22593189328E-01  0.00000000000E+00 0. -1.
     999901    1    3    3    0    0 -0.67657363478E-01  0.30227658979E-01 -0.90004782220E-01  0.88768918605E+00  0.88000000000E+00 0.  1.
        -11    1    4    4    0    0  0.25938159238E-01 -0.17623104636E-01  0.35746055883E-01  0.47554216994E-01  0.51100000000E-03 0.  1.
         11    1    4    4    0    0  0.39033521621E-01 -0.83313661625E-02  0.76280969085E-01  0.86093407632E-01  0.51100000000E-03 0. -1.
</event>
<event>
 8    1  0.1202249E+005  0.1043930E+01  0.7957747E-01            NaN
         13   -1    0    0    0    0  0.00000000000E+00  0.00000000000E+00  0.74505805969E-08  0.10566000000E+00  0.10566000000E+00 0. -1.
     999900   -1    0    0    0    0 -0.00000000000E+00 -0.00000000000E+00 -0.74505805969E-08  0.93827000000E+00  0.93827000000E+00 0.  1.
     999902    2    1    2    0    0 -0.22410372204E-02 -0.16646180123E-01 -0.16202609831E-01  0.10205924310E+01  0.10203255697E+01 0.  0.
     999903    2    3    3    0    0 -0.19288433339E-01 -0.88322616596E-01  0.92446346614E-01  0.13085498604E+00  0.20094081396E-01 0.  0.
         14    1    1    2    0    0  0.22410372204E-02  0.16646180123E-01  0.16202609831E-01  0.23337568979E-01  0.00000000000E+00 0. -1.
     999901    1    3    3    0    0  0.17047396119E-01  0.71676436473E-01 -0.10864895644E+00  0.88973744498E+00  0.88000000000E+00 0.  1.
        -11    1    4    4    0    0 -0.45149735185E-02 -0.55212214136E-01  0.46525842759E-01  0.72344237788E-01  0.51100000000E-03 0.  1.
         11    1    4    4    0    0 -0.14773459821E-01 -0.33110402460E-01  0.45920503855E-01  0.58510748256E-01  0.51100000000E-03 0. -1.
</event>
<event>
 8    1  0.1202249E+005  0.1043930E+01  0.7957747E-01            NaN
         13   -1    0    0    0    0  0.00000000000E+00  0.00000000000E+00  0.74505805969E-08  0.10566000000E+00  0.10566000000E+00 0. -1.
     999900   -1    0    0    0    0 -0.00000000000E+00 -0.00000000000E+00 -0.74505805969E-08  0.93827000000E+00  0.93827000000E+00 0. -1.
     999902    2    1    2    0    0 -0.21682287193E-01  0.77368829147E-02 -0.30335614048E-02  0.10207096764E+01  0.10204455203E+01 0.  0.
     999903    2    3    3    0    0 -0.42360747212E-01  0.50146106168E-01  0.11263966099E+00  0.13188661449E+00  0.19932912162E-01 0.  0.
         14    1    1    2    0    0  0.21682287193E-01 -0.77368829147E-02  0.30335614048E-02  0.23220323640E-01  0.00000000000E+00 0. -1.
     999901    1    3    3    0    0  0.20678460019E-01 -0.42409223254E-01 -0.11567322239E+00  0.88882306187E+00  0.88000000000E+00 0. -1.
        -11    1    4    4    0    0 -0.27667732902E-01  0.36132323152E-01  0.58885304557E-01  0.74423036985E-01  0.51100000000E-03 0.  1.
         11    1    4    4    0    0 -0.14693014310E-01  0.14013783016E-01  0.53754356430E-01  0.57463577510E-01  0.51100000000E-03 0. -1.
</event>
<event>
 8    1  0.1202249E+005  0.1043930E+01  0.7957747E-01            NaN
         13   -1    0    0    0    0  0.00000000000E+00  0.00000000000E+00  0.74505805969E-08  0.10566000000E+00  0.10566000000E+00 0.  1.
     999900   -1    0    0    0    0 -0.00000000000E+00 -0.00000000000E+00 -0.74505805969E-08  0.93827000000E+00  0.93827000000E+00 0. -1.
     999902    2    1    2    0    0 -0.27650633548E-02 -0.33599411318E-02  0.24656202495E-01  0.10188927657E+01  0.10185850995E+01 0.  0.
     999903    2    3    3    0    0 -0.76635335560E-01 -0.91460731828E-01 -0.44072594590E-01  0.12875670083E+00  0.19946285168E-01 0.  0.
         14    1    1    2    0    0  0.27650633548E-02  0.33599411318E-02 -0.24656202495E-01  0.25037234297E-01  0.00000000000E+00 0. -1.
     999901    1    3    3    0    0  0.73870272205E-01  0.88100790696E-01  0.68728797085E-01  0.89013606487E+00  0.88000000000E+00 0.  1.
        -11    1    4    4    0    0 -0.45313623977E-01 -0.64945019299E-01 -0.22172643516E-01  0.82237870177E-01  0.51100000000E-03 0.  1.
         11    1    4    4    0    0 -0.31321711583E-01 -0.26515712529E-01 -0.21899951074E-01  0.46518830654E-01  0.51100000000E-03 0. -1.
</event>
<event>
 8    1  0.1202249E+005  0.1043930E+01  0.7957747E-01            NaN
         13   -1    0    0    0    0  0.00000000000E+00  0.00000000000E+00  0.74505805969E-08  0.10566000000E+00  0.10566000000E+00 0. -1.
     999900   -1    0    0    0    0 -0.00000000000E+00 -0.00000000000E+00 -0.74505805969E-08  0.93827000000E+00  0.93827000000E+00 0. -1.
     999902    2    1    2    0    0  0.10052677958E-01  0.20997290807E-01  0.33418542989E-02  0.10204116976E+01  0.10201406384E+01 0.  0.
     999903    2    3    3    0    0 -0.11103337588E+00  0.66125581953E-01 -0.62469348322E-02  0.13092288941E+00  0.20019381371E-01 0.  0.
         14    1    1    2    0    0 -0.10052677958E-01 -0.20997290807E-01 -0.33418542989E-02  0.23518302352E-01  0.00000000000E+00 0.  1.
     999901    1    3    3    0    0  0.12108605384E+00 -0.45128291146E-01  0.95887891311E-02  0.88948880823E+00  0.88000000000E+00 0.  1.
        -11    1    4    4    0    0 -0.78307657817E-01  0.56615766908E-01 -0.28939798385E-02  0.96675077324E-01  0.51100000000E-03 0.  1.
         11    1    4    4    0    0 -0.32725718061E-01  0.95098150447E-02 -0.33529549937E-02  0.34247812090E-01  0.51100000000E-03 0. -1.
</event>
<event>
 8    1  0.1202249E+005  0.1043930E+01  0.7957747E-01            NaN
         13   -1    0    0    0    0  0.00000000000E+00  0.00000000000E+00  0.74505805969E-08  0.10566000000E+00  0.10566000000E+00 0. -1.
     999900   -1    0    0    0    0 -0.00000000000E+00 -0.00000000000E+00 -0.74505805969E-08  0.93827000000E+00  0.93827000000E+00 0. -1.
     999902    2    1    2    0    0 -0.20601037013E-01  0.11596017202E-01 -0.30777460142E-02  0.10200900574E+01  0.10198114445E+01 0.  0.
     999903    2    3    3    0    0  0.12616303194E+00  0.71630090617E-02 -0.85023237916E-02  0.12790803030E+00  0.17881705159E-01 0.  0.
         14    1    1    2    0    0  0.20601037013E-01 -0.11596017202E-01  0.30777460142E-02  0.23839942564E-01  0.00000000000E+00 0. -1.
     999901    1    3    3    0    0 -0.14676406895E+00  0.44330081399E-02  0.54245777774E-02  0.89218202713E+00  0.88000000000E+00 0. -1.
        -11    1    4    4    0    0  0.45957078671E-01 -0.26848553562E-03 -0.11222468910E-01  0.47310993372E-01  0.51100000000E-03 0.  1.
         11    1    4    4    0    0  0.80205953267E-01  0.74314945974E-02  0.27201451186E-02  0.80597036930E-01  0.51100000000E-03 0. -1.
</event>
<event>
 8    1  0.1202249E+005  0.1043930E+01  0.7957747E-01            NaN
         13   -1    0    0    0    0  0.00000000000E+00  0.00000000000E+00  0.74505805969E-08  0.10566000000E+00  0.10566000000E+00 0.  1.
     999900   -1    0    0    0    0 -0.00000000000E+00 -0.00000000000E+00 -0.74505805969E-08  0.93827000000E+00  0.93827000000E+00 0. -1.
     999902    2    1    2    0    0 -0.16035995906E-01 -0.37914144670E-02 -0.17583723358E-01  0.10198319645E+01  0.10195472135E+01 0.  0.
     999903    2    3    3    0    0 -0.25525000253E-01  0.98092584016E-01 -0.81481285746E-01  0.13160153896E+00  0.20151537261E-01 0.  0.
         14    1    1    2    0    0  0.16035995906E-01  0.37914144670E-02  0.17583723358E-01  0.24098035511E-01  0.00000000000E+00 0.  1.
     999901    1    3    3    0    0  0.94890043473E-02 -0.10188399848E+00  0.63897562388E-01  0.88823042553E+00  0.88000000000E+00 0. -1.
        -11    1    4    4    0    0 -0.20275159194E-01  0.92555293992E-01 -0.69990329136E-01  0.11779843726E+00  0.51100000000E-03 0.  1.
         11    1    4    4    0    0 -0.52498410589E-02  0.55372900235E-02 -0.11490956610E-01  0.13803101708E-01  0.51100000000E-03 0. -1.
</event>
<event>
 8    1  0.1204046E+005  0.1043930E+01  0.7957747E-01            NaN
         13   -1    0    0    0    0  0.00000000000E+00  0.00000000000E+00  0.74505805969E-08  0.10566000000E+00  0.10566000000E+00 0. -1.
     999900   -1    0    0    0    0 -0.00000000000E+00 -0.00000000000E+00 -0.74505805969E-08  0.93827000000E+00  0.93827000000E+00 0.  1.
     999902    2    1    2    0    0 -0.63793428347E-02 -0.20305038972E-01 -0.25320663158E-01  0.10108524154E+01  0.10103110803E+01 0.  0.
     999903    2    3    3    0    0 -0.23855091727E-01  0.11239555202E+00 -0.30417520442E-01  0.12071712980E+00  0.21108632404E-01 0.  0.
         14    1    1    2    0    0  0.63793428347E-02  0.20305038972E-01  0.25320663158E-01  0.33077584637E-01  0.00000000000E+00 0. -1.
     999901    1    3    3    0    0  0.17475748892E-01 -0.13270059099E+00  0.50968572838E-02  0.89013528556E+00  0.88000000000E+00 0. -1.
        -11    1    4    4    0    0 -0.11219521326E-01  0.69592671998E-01 -0.85301189622E-02  0.71007335573E-01  0.51100000000E-03 0.  1.
         11    1    4    4    0    0 -0.12635570401E-01  0.42802880023E-01 -0.21887401480E-01  0.49709794227E-01  0.51100000000E-03 0. -1.
</event>
<event>
 8    1  0.1202249E+005  0.1043930E+01  0.7957747E-01            NaN
         13   -1    0    0    0    0  0.00000000000E+00  0.00000000000E+00  0.74505805969E-08  0.10566000000E+00  0.10566000000E+00 0.  1.
     999900   -1    0    0    0    0 -0.00000000000E+00 -0.00000000000E+00 -0.74505805969E-08  0.93827000000E+00  0.93827000000E+00 0.  1.
     999902    2    1    2    0    0 -0.15482167499E-01  0.34415157813E-02 -0.17687435658E-01  0.10201731711E+01  0.10198965203E+01 0.  0.
     999903    2    3    3    0    0  0.47619847941E-01  0.80940083518E-01 -0.90151131952E-01  0.13155689862E+00  0.19001156410E-01 0.  0.
         14    1    1    2    0    0  0.15482167499E-01 -0.34415157813E-02  0.17687435658E-01  0.23756828944E-01  0.00000000000E+00 0.  1.
     999901    1    3    3    0    0 -0.63102015440E-01 -0.77498567736E-01  0.72463696295E-01  0.88861627243E+00  0.88000000000E+00 0. -1.
        -11    1    4    4    0    0  0.20718123696E-02  0.17944607262E-01 -0.16635560956E-01  0.24562254490E-01  0.51100000000E-03 0.  1.
         11    1    4    4    0    0  0.45548035571E-01  0.62995476256E-01 -0.73515570996E-01  0.10699464413E+00  0.51100000000E-03 0. -1.
</event>
<event>
 8    1  0.1202249E+005  0.1043930E+01  0.7957747E-01            NaN
         13   -1    0    0    0    0  0.00000000000E+00  0.00000000000E+00  0.74505805969E-08  0.10566000000E+00  0.10566000000E+00 0. -1.
     999900   -1    0    0    0    0 -0.00000000000E+00 -0.00000000000E+00 -0.74505805969E-08  0.93827000000E+00  0.93827000000E+00 0.  1.
     999902    2    1    2    0    0 -0.11301904685E-01 -0.90886643648E-02 -0.17553881831E-01  0.10211599399E+01  0.10209060423E+01 0.  0.
     999903    2    3    3    0    0  0.92109196411E-01 -0.19867454223E-01  0.85654963745E-01  0.12904890200E+00  0.20929082469E-01 0.  0.
         14    1    1    2    0    0  0.11301904685E-01  0.90886643648E-02  0.17553881831E-01  0.22770060096E-01  0.00000000000E+00 0. -1.
     999901    1    3    3    0    0 -0.10341110110E+00  0.10778789858E-01 -0.10320884558E+00  0.89211103790E+00  0.88000000000E+00 0.  1.
        -11    1    4    4    0    0  0.20524624624E-01  0.99374940418E-03  0.10122123924E-01  0.22912142361E-01  0.51100000000E-03 0. -1.
         11    1    4    4    0    0  0.71584571787E-01 -0.20861203627E-01  0.75532839821E-01  0.10613675964E+00  0.51100000000E-03 0.  1.
</event>
<event>
 8    1  0.1202249E+005  0.1043930E+01  0.7957747E-01            NaN
         13   -1    0    0    0    0  0.00000000000E+00  0.00000000000E+00  0.74505805969E-08  0.10566000000E+00  0.10566000000E+00 0. -1.
     999900   -1    0    0    0    0 -0.00000000000E+00 -0.00000000000E+00 -0.74505805969E-08  0.93827000000E+00  0.93827000000E+00 0. -1.
     999902    2    1    2    0    0 -0.17230938841E-02  0.17754225453E-01 -0.20371623920E-01  0.10168526176E+01  0.10164920370E+01 0.  0.
     999903    2    3    3    0    0  0.11265366402E+00 -0.43608156602E-02  0.53067741004E-01  0.12614253119E+00  0.19644040057E-01 0.  0.
         14    1    1    2    0    0  0.17230938841E-02 -0.17754225453E-01  0.20371623920E-01  0.27077382353E-01  0.00000000000E+00 0.  1.
     999901    1    3    3    0    0 -0.11437675790E+00  0.22115041113E-01 -0.73439364924E-01  0.89071008645E+00  0.88000000000E+00 0.  1.
        -11    1    4    4    0    0  0.96180247928E-01 -0.44012158744E-02  0.37064678252E-01  0.10317006488E+00  0.51100000000E-03 0. -1.
         11    1    4    4    0    0  0.16473416092E-01  0.40400214160E-04  0.16003062753E-01  0.22972466310E-01  0.51100000000E-03 0.  1.
</event>
<event>
 8    1  0.1202249E+005  0.1043930E+01  0.7957747E-01            NaN
         13   -1    0    0    0    0  0.00000000000E+00  0.00000000000E+00  0.74505805969E-08  0.10566000000E+00  0.10566000000E+00 0. -1.
     999900   -1    0    0    0    0 -0.00000000000E+00 -0.00000000000E+00 -0.74505805969E-08  0.93827000000E+00  0.93827000000E+00 0.  1.
     999902    2    1    2    0    0 -0.51658167150E-02  0.22192438996E-01  0.10677433139E-01  0.10187665823E+01  0.10184557681E+01 0.  0.
     999903    2    3    3    0    0  0.27149685563E-01 -0.86274611237E-01  0.88366824858E-01  0.12812353695E+00  0.20652627332E-01 0.  0.
         14    1    1    2    0    0  0.51658167150E-02 -0.22192438996E-01 -0.10677433139E-01  0.25163417680E-01  0.00000000000E+00 0. -1.
     999901    1    3    3    0    0 -0.32315502278E-01  0.10846705023E+00 -0.77689391719E-01  0.89064304537E+00  0.88000000000E+00 0.  1.
        -11    1    4    4    0    0  0.13347571077E-01 -0.70637914197E-01  0.67344770085E-01  0.98506100088E-01  0.51100000000E-03 0.  1.
         11    1    4    4    0    0  0.13802114486E-01 -0.15636697040E-01  0.21022054773E-01  0.29617436866E-01  0.51100000000E-03 0. -1.
</event>
<event>
 8    1  0.1202249E+005  0.1043930E+01  0.7957747E-01            NaN
         13   -1    0    0    0    0  0.00000000000E+00  0.00000000000E+00  0.74505805969E-08  0.10566000000E+00  0.10566000000E+00 0.  1.
     999900   -1    0    0    0    0 -0.00000000000E+00 -0.00000000000E+00 -0.74505805969E-08  0.93827000000E+00  0.93827000000E+00 0. -1.
     999902    2    1    2    0    0  0.15940337474E-01 -0.15993172319E-01  0.10975751861E-01  0.10188233664E+01  0.10185139709E+01 0.  0.
     999903    2    3    3    0    0 -0.11173568941E+00 -0.22301409200E-01 -0.53457322412E-01  0.12725588007E+00  0.18819047620E-01 0.  0.
         14    1    1    2    0    0 -0.15940337474E-01  0.15993172319E-01 -0.10975751861E-01  0.25106633556E-01  0.00000000000E+00 0.  1.
     999901    1    3    3    0    0  0.12767602688E+00  0.63082368806E-02  0.64433074274E-01  0.89156748637E+00  0.88000000000E+00 0. -1.
        -11    1    4    4    0    0 -0.94955556092E-01 -0.17205391574E-01 -0.37477448311E-01  0.10352489259E+00  0.51100000000E-03 0.  1.
         11    1    4    4    0    0 -0.16780133318E-01 -0.50960176256E-02 -0.15979874101E-01  0.23730987487E-01  0.51100000000E-03 0. -1.
</event>
<event>
 8    1  0.1202249E+005  0.1043930E+01  0.7957747E-01            NaN
         13   -1    0    0    0    0  0.00000000000E+00  0.00000000000E+00  0.74505805969E-08  0.10566000000E+00  0.10566000000E+00 0. -1.
     999900   -1    0    0    0    0 -0.00000000000E+00 -0.00000000000E+00 -0.74505805969E-08  0.93827000000E+00  0.93827000000E+00 0. -1.
     999902    2    1    2    0    0 -0.18714245411E-01 -0.13776405618E-01 -0.22973763160E-03  0.10206906990E+01  0.10204261060E+01 0.  0.
     999903    2    3    3    0    0  0.57156213492E-01  0.48588136034E-01 -0.10324157827E+00  0.12925528241E+00  0.20505239409E-01 0.  0.
         14    1    1    2    0    0  0.18714245411E-01  0.13776405618E-01  0.22973763160E-03  0.23239301032E-01  0.00000000000E+00 0.  1.
     999901    1    3    3    0    0 -0.75870458903E-01 -0.62364541652E-01  0.10301184063E+00  0.89143541656E+00  0.88000000000E+00 0. -1.
        -11    1    4    4    0    0  0.33767541740E-01  0.19764098946E-01 -0.40228583057E-01  0.56120107788E-01  0.51100000000E-03 0. -1.
         11    1    4    4    0    0  0.23388671751E-01  0.28824037088E-01 -0.63012995209E-01  0.73135174619E-01  0.51100000000E-03 0.  1.
</event>
<event>
 8    1  0.1202249E+005  0.1043930E+01  0.7957747E-01            NaN
         13   -1    0    0    0    0  0.00000000000E+00  0.00000000000E+00  0.74505805969E-08  0.10566000000E+00  0.10566000000E+00 0.  1.
     999900   -1    0    0    0    0 -0.00000000000E+00 -0.00000000000E+00 -0.74505805969E-08  0.93827000000E+00  0.93827000000E+00 0.  1.
     999902    2    1    2    0    0  0.16720061979E-02  0.21921155069E-01 -0.10188969383E-01  0.10196988683E+01  0.10194109252E+01 0.  0.
     999903    2    3    3    0    0  0.10462117289E+00 -0.67766109429E-02  0.72994865427E-01  0.12933846768E+00  0.20215750546E-01 0.  0.
         14    1    1    2    0    0 -0.16720061979E-02 -0.21921155069E-01  0.10188969383E-01  0.24231131656E-01  0.00000000000E+00 0.  1.
     999901    1    3    3    0    0 -0.10294916669E+00  0.28697766011E-01 -0.83183834809E-01  0.89036040066E+00  0.88000000000E+00 0.  1.
        -11    1    4    4    0    0  0.59220878966E-01  0.50279222899E-02  0.35050923391E-01  0.69001600414E-01  0.51100000000E-03 0. -1.
         11    1    4    4    0    0  0.45400293925E-01 -0.11804533233E-01  0.37943942035E-01  0.60336867266E-01  0.51100000000E-03 0.  1.
</event>
<event>
 8    1  0.1202249E+005  0.1043930E+01  0.7957747E-01            NaN
         13   -1    0    0    0    0  0.00000000000E+00  0.00000000000E+00  0.74505805969E-08  0.10566000000E+00  0.10566000000E+00 0. -1.
     999900   -1    0    0    0    0 -0.00000000000E+00 -0.00000000000E+00 -0.74505805969E-08  0.93827000000E+00  0.93827000000E+00 0.  1.
     999902    2    1    2    0    0 -0.12662424653E-01 -0.37068997734E-02  0.19328668325E-01  0.10205275317E+01  0.10202591668E+01 0.  0.
     999903    2    3    3    0    0 -0.12217655580E+00 -0.35052348246E-01  0.33819940920E-01  0.13306717818E+00  0.20181863132E-01 0.  0.
         14    1    1    2    0    0  0.12662424653E-01  0.37068997734E-02 -0.19328668325E-01  0.23402468315E-01  0.00000000000E+00 0.  1.
     999901    1    3    3    0    0  0.10951413115E+00  0.31345448473E-01 -0.14491272595E-01  0.88746035350E+00  0.88000000000E+00 0.  1.
        -11    1    4    4    0    0 -0.15474488424E-01 -0.47864123738E-03 -0.12684432652E-02  0.15542167119E-01  0.51100000000E-03 0.  1.
         11    1    4    4    0    0 -0.10670206738E+00 -0.34573707009E-01  0.35088384185E-01  0.11752501106E+00  0.51100000000E-03 0. -1.
</event>
<event>
 8    1  0.1202249E+005  0.1043930E+01  0.7957747E-01            NaN
         13   -1    0    0    0    0  0.00000000000E+00  0.00000000000E+00  0.74505805969E-08  0.10566000000E+00  0.10566000000E+00 0.  1.
     999900   -1    0    0    0    0 -0.00000000000E+00 -0.00000000000E+00 -0.74505805969E-08  0.93827000000E+00  0.93827000000E+00 0.  1.
     999902    2    1    2    0    0 -0.57401124243E-02 -0.23204016783E-01 -0.61460762374E-02  0.10192490450E+01  0.10189501785E+01 0.  0.
     999903    2    3    3    0    0  0.10509653095E+00 -0.75285561076E-01 -0.46822252901E-02  0.13076753614E+00  0.19105725580E-01 0.  0.
         14    1    1    2    0    0  0.57401124243E-02  0.23204016783E-01  0.61460762374E-02  0.24680954978E-01  0.00000000000E+00 0.  1.
     999901    1    3    3    0    0 -0.11083664337E+00  0.52081544293E-01 -0.14638509472E-02  0.88848150888E+00  0.88000000000E+00 0.  1.
        -11    1    4    4    0    0  0.63774737463E-01 -0.51815466640E-01  0.47744905423E-02  0.82311096473E-01  0.51100000000E-03 0. -1.
         11    1    4    4    0    0  0.41321793484E-01 -0.23470094436E-01 -0.94567158324E-02  0.48456439664E-01  0.51100000000E-03 0.  1.
</event>
<event>
 8    1  0.1202249E+005  0.1043930E+01  0.7957747E-01            NaN
         13   -1    0    0    0    0  0.00000000000E+00  0.00000000000E+00  0.74505805969E-08  0.10566000000E+00  0.10566000000E+00 0. -1.
     999900   -1    0    0    0    0 -0.00000000000E+00 -0.00000000000E+00 -0.74505805969E-08  0.93827000000E+00  0.93827000000E+00 0. -1.
     999902    2    1    2    0    0 -0.15115786588E-01  0.65966854610E-02 -0.16910949773E-01  0.10203083259E+01  0.10200348506E+01 0.  0.
     999903    2    3    3    0    0  0.99013844984E-01 -0.79332148159E-01  0.56397678648E-02  0.12850236492E+00  0.19588761501E-01 0.  0.
         14    1    1    2    0    0  0.15115786588E-01 -0.65966854610E-02  0.16910949773E-01  0.23621674062E-01  0.00000000000E+00 0.  1.
     999901    1    3    3    0    0 -0.11412963157E+00  0.85928833620E-01 -0.22550717638E-01  0.89180596102E+00  0.88000000000E+00 0. -1.
        -11    1    4    4    0    0  0.34649700660E-01 -0.17405392893E-01  0.56130323259E-02  0.39183117672E-01  0.51100000000E-03 0.  1.
         11    1    4    4    0    0  0.64364144325E-01 -0.61926755265E-01  0.26735538880E-04  0.89319247243E-01  0.51100000000E-03 0. -1.
</event>
<event>
 8    1  0.1202249E+005  0.1043930E+01  0.7957747E-01            NaN
         13   -1    0    0    0    0  0.00000000000E+00  0.00000000000E+00  0.74505805969E-08  0.10566000000E+00  0.10566000000E+00 0. -1.
     999900   -1    0    0    0    0 -0.00000000000E+00 -0.00000000000E+00 -0.74505805969E-08  0.93827000000E+00  0.93827000000E+00 0.  1.
     999902    2    1    2    0    0  0.21838270826E-01 -0.44960028174E-02 -0.47003120316E-02  0.10211436653E+01  0.10208894006E+01 0.  0.
     999903    2    3    3    0    0 -0.92375266021E-02 -0.83850935163E-01  0.98258912382E-01  0.13105180920E+00  0.20086104825E-01 0.  0.
         14    1    1    2    0    0 -0.21838270826E-01  0.44960028174E-02  0.47003120316E-02  0.22786334659E-01  0.00000000000E+00 0.  1.
     999901    1    3    3    0    0  0.31075797428E-01  0.79354932346E-01 -0.10295922441E+00  0.89009185614E+00  0.88000000000E+00 0. -1.
        -11    1    4    4    0    0  0.63741758550E-02 -0.21073945529E-01  0.24505556755E-01  0.32947302331E-01  0.51100000000E-03 0. -1.
         11    1    4    4    0    0 -0.15611702457E-01 -0.62776989634E-01  0.73753355627E-01  0.98104506871E-01  0.51100000000E-03 0.  1.
</event>
<event>
 8    1  0.1202249E+005  0.1043930E+01  0.7957747E-01            NaN
         13   -1    0    0    0    0  0.00000000000E+00  0.00000000000E+00  0.74505805969E-08  0.10566000000E+00  0.10566000000E+00 0. -1.
     999900   -1    0    0    0    0 -0.00000000000E+00 -0.00000000000E+00 -0.74505805969E-08  0.93827000000E+00  0.93827000000E+00 0. -1.
     999902    2    1    2    0    0 -0.33094015864E-02 -0.15901684578E-01 -0.12498109908E-01  0.10234356480E+01  0.10232304272E+01 0.  0.
     999903    2    3    3    0    0 -0.50939835143E-01  0.23520902663E-01  0.11779736332E+00  0.13169593885E+00  0.17874614380E-01 0.  0.
         14    1    1    2    0    0  0.33094015864E-02  0.15901684578E-01  0.12498109908E-01  0.20494351967E-01  0.00000000000E+00 0. -1.
     999901    1    3    3    0    0  0.47630433557E-01 -0.39422587240E-01 -0.13029547323E+00  0.89173970918E+00  0.88000000000E+00 0.  1.
        -11    1    4    4    0    0 -0.26310036988E-01  0.36251108260E-02  0.63623374398E-01  0.68946025017E-01  0.51100000000E-03 0. -1.
         11    1    4    4    0    0 -0.24629798155E-01  0.19895791837E-01  0.54173988920E-01  0.62749913836E-01  0.51100000000E-03 0.  1.
</event>
<event>
 8    1  0.1202249E+005  0.1043930E+01  0.7957747E-01            NaN
         13   -1    0    0    0    0  0.00000000000E+00  0.00000000000E+00  0.74505805969E-08  0.10566000000E+00  0.10566000000E+00 0. -1.
     999900   -1    0    0    0    0 -0.00000000000E+00 -0.00000000000E+00 -0.74505805969E-08  0.93827000000E+00  0.93827000000E+00 0.  1.
     999902    2    1    2    0    0 -0.13625201530E-01 -0.63258680337E-02  0.17050535547E-01  0.10212059272E+01  0.10209530656E+01 0.  0.
     999903    2    3    3    0    0  0.57476266739E-01 -0.10632345152E+00  0.49436873803E-01  0.13210311513E+00  0.19975759158E-01 0.  0.
         14    1    1    2    0    0  0.13625201530E-01  0.63258680337E-02 -0.17050535547E-01  0.22724072821E-01  0.00000000000E+00 0.  1.
     999901    1    3    3    0    0 -0.71101468270E-01  0.99997583484E-01 -0.32386338256E-01  0.88910281205E+00  0.88000000000E+00 0.  1.
        -11    1    4    4    0    0  0.34691923539E-01 -0.56353309940E-01  0.36894686406E-01  0.75767434338E-01  0.51100000000E-03 0. -1.
         11    1    4    4    0    0  0.22784343200E-01 -0.49970141578E-01  0.12542187397E-01  0.56335680790E-01  0.51100000000E-03 0.  1.
</event>
<event>
 8    1  0.1202249E+005  0.1043930E+01  0.7957747E-01            NaN
         13   -1    0    0    0    0  0.00000000000E+00  0.00000000000E+00  0.74505805969E-08  0.10566000000E+00  0.10566000000E+00 0.  1.
     999900   -1    0    0    0    0 -0.00000000000E+00 -0.00000000000E+00 -0.74505805969E-08  0.93827000000E+00  0.93827000000E+00 0.  1.
     999902    2    1    2    0    0 -0.70471193255E-02  0.51497147977E-02 -0.22877062153E-01  0.10194444650E+01  0.10191503695E+01 0.  0.
     999903    2    3    3    0    0 -0.22740289358E-02 -0.84502114434E-01 -0.99884537886E-01  0.13153096456E+00  0.13330235504E-01 0.  0.
         14    1    1    2    0    0  0.70471193255E-02 -0.51497147977E-02  0.22877062153E-01  0.24485535037E-01  0.00000000000E+00 0.  1.
     999901    1    3    3    0    0 -0.47730903897E-02  0.89651829231E-01  0.77007475733E-01  0.88791350040E+00  0.88000000000E+00 0. -1.
        -11    1    4    4    0    0 -0.41050265117E-02 -0.83107122444E-01 -0.96802574413E-01  0.12765047817E+00  0.51100000000E-03 0. -1.
         11    1    4    4    0    0  0.18309975759E-02 -0.13949919895E-02 -0.30819634727E-02  0.38804863897E-02  0.51100000000E-03 0.  1.
</event>
<event>
 8    1  0.1202249E+005  0.1043930E+01  0.7957747E-01            NaN
         13   -1    0    0    0    0  0.00000000000E+00  0.00000000000E+00  0.74505805969E-08  0.10566000000E+00  0.10566000000E+00 0.  1.
     999900   -1    0    0    0    0 -0.00000000000E+00 -0.00000000000E+00 -0.74505805969E-08  0.93827000000E+00  0.93827000000E+00 0. -1.
     999902    2    1    2    0    0  0.68534199104E-02 -0.17830345760E-01  0.13946352027E-01  0.10202785449E+01  0.10200043715E+01 0.  0.
     999903    2    3    3    0    0  0.99764827099E-01  0.47979048084E-01  0.67500742959E-01  0.13132889575E+00  0.20878668003E-01 0.  0.
         14    1    1    2    0    0 -0.68534199104E-02  0.17830345760E-01 -0.13946352027E-01  0.23651455119E-01  0.00000000000E+00 0. -1.
     999901    1    3    3    0    0 -0.92911407188E-01 -0.65809393844E-01 -0.53554390932E-01  0.88894964913E+00  0.88000000000E+00 0.  1.
        -11    1    4    4    0    0  0.76881744121E-01  0.28537804926E-01  0.55312332934E-01  0.98918775694E-01  0.51100000000E-03 0.  1.
         11    1    4    4    0    0  0.22883082977E-01  0.19441243158E-01  0.12188410025E-01  0.32410120055E-01  0.51100000000E-03 0. -1.
</event>
<event>
 8    1  0.1202249E+005  0.1043930E+01  0.7957747E-01            NaN
         13   -1    0    0    0    0  0.00000000000E+00  0.00000000000E+00  0.74505805969E-08  0.10566000000E+00  0.10566000000E+00 0.  1.
     999900   -1    0    0    0    0 -0.00000000000E+00 -0.00000000000E+00 -0.74505805969E-08  0.93827000000E+00  0.93827000000E+00 0.  1.
     999902    2    1    2    0    0 -0.20792180392E-01  0.88211740447E-03  0.12190186340E-01  0.10198116763E+01  0.10195264398E+01 0.  0.
     999903    2    3    3    0    0  0.55254709351E-01 -0.96470788123E-01  0.63652143186E-01  0.12969423983E+00  0.20231278903E-01 0.  0.
         14    1    1    2    0    0  0.20792180392E-01 -0.88211740447E-03 -0.12190186340E-01  0.24118323730E-01  0.00000000000E+00 0.  1.
     999901    1    3    3    0    0 -0.76046889743E-01  0.97352905527E-01 -0.51461956847E-01  0.89011743644E+00  0.88000000000E+00 0. -1.
        -11    1    4    4    0    0  0.34365135570E-01 -0.72489403439E-01  0.52997805499E-01  0.96149387218E-01  0.51100000000E-03 0.  1.
         11    1    4    4    0    0  0.20889573782E-01 -0.23981384684E-01  0.10654337687E-01  0.33544852611E-01  0.51100000000E-03 0. -1.
</event>
<event>
 8    1  0.1202249E+005  0.1043930E+01  0.7957747E-01            NaN
         13   -1    0    0    0    0  0.00000000000E+00  0.00000000000E+00  0.74505805969E-08  0.10566000000E+00  0.10566000000E+00 0.  1.
     999900   -1    0    0    0    0 -0.00000000000E+00 -0.00000000000E+00 -0.74505805969E-08  0.93827000000E+00  0.93827000000E+00 0. -1.
     999902    2    1    2    0    0 -0.21785038360E-01  0.87712687632E-02 -0.41455955629E-02  0.10200823793E+01  0.10198035848E+01 0.  0.
     999903    2    3    3    0    0  0.47863105621E-01  0.11172853995E+00  0.41799251920E-01  0.13015991486E+00  0.20500791565E-01 0.  0.
         14    1    1    2    0    0  0.21785038360E-01 -0.87712687632E-02  0.41455955629E-02  0.23847620733E-01  0.00000000000E+00 0. -1.
     999901    1    3    3    0    0 -0.69648143981E-01 -0.10295727119E+00 -0.45944847482E-01  0.88992246441E+00  0.88000000000E+00 0. -1.
        -11    1    4    4    0    0  0.55368521534E-02  0.22640891229E-01  0.74844379742E-03  0.23325693484E-01  0.51100000000E-03 0. -1.
         11    1    4    4    0    0  0.42326253468E-01  0.89087648725E-01  0.41050808122E-01  0.10683422137E+00  0.51100000000E-03 0.  1.
</event>
<event>
 8    1  0.1202249E+005  0.1043930E+01  0.7957747E-01            NaN
         13   -1    0    0    0    0  0.00000000000E+00  0.00000000000E+00  0.74505805969E-08  0.10566000000E+00  0.10566000000E+00 0. -1.
     999900   -1    0    0    0    0 -0.00000000000E+00 -0.00000000000E+00 -0.74505805969E-08  0.93827000000E+00  0.93827000000E+00 0. -1.
     999902    2    1    2    0    0 -0.20815545250E-01  0.97013431591E-02 -0.11324287998E-01  0.10183244834E+01  0.10180025103E+01 0.  0.
     999903    2    3    3    0    0  0.80383539778E-01  0.11992262275E-01  0.94904434221E-01  0.12617480728E+00  0.17547151800E-01 0.  0.
         14    1    1    2    0    0  0.20815545250E-01 -0.97013431591E-02  0.11324287998E-01  0.25605516628E-01  0.00000000000E+00 0. -1.
     999901    1    3    3    0    0 -0.10119908503E+00 -0.22909191163E-02 -0.10622872222E+00  0.89214967609E+00  0.88000000000E+00 0. -1.
        -11    1    4    4    0    0  0.29345672084E-01 -0.14239813215E-03  0.45278014118E-01  0.53958766024E-01  0.51100000000E-03 0. -1.
         11    1    4    4    0    0  0.51037867693E-01  0.12134660408E-01  0.49626420103E-01  0.72216041259E-01  0.51100000000E-03 0.  1.
</event>
<event>
 8    1  0.1202249E+005  0.1043930E+01  0.7957747E-01            NaN
         13   -1    0    0    0    0  0.00000000000E+00  0.00000000000E+00  0.74505805969E-08  0.10566000000E+00  0.10566000000E+00 0. -1.
     999900   -1    0    0    0    0 -0.00000000000E+00 -0.00000000000E+00 -0.74505805969E-08  0.93827000000E+00  0.93827000000E+00 0.  1.
     999902    2    1    2    0    0 -0.23107197002E-01  0.76392208368E-03  0.11487716859E-01  0.10181134594E+01  0.10177860887E+01 0.  0.
     999903    2    3    3    0    0 -0.90439819258E-01  0.40367676222E-01  0.84356953162E-01  0.13165304575E+00  0.20187092834E-01 0.  0.
         14    1    1    2    0    0  0.23107197002E-01 -0.76392208368E-03 -0.11487716859E-01  0.25816540606E-01  0.00000000000E+00 0.  1.
     999901    1    3    3    0    0  0.67332622256E-01 -0.39603754138E-01 -0.72869236303E-01  0.88646041365E+00  0.88000000000E+00 0.  1.
        -11    1    4    4    0    0 -0.55324932763E-01  0.27506445531E-01  0.64458277179E-01  0.89289323823E-01  0.51100000000E-03 0.  1.
         11    1    4    4    0    0 -0.35114886495E-01  0.12861230691E-01  0.19898675983E-01  0.42363721925E-01  0.51100000000E-03 0. -1.
</event>
<event>
 8    1  0.1202249E+005  0.1043930E+01  0.7957747E-01            NaN
         13   -1    0    0    0    0  0.00000000000E+00  0.00000000000E+00  0.74505805969E-08  0.10566000000E+00  0.10566000000E+00 0. -1.
     999900   -1    0    0    0    0 -0.00000000000E+00 -0.00000000000E+00 -0.74505805969E-08  0.93827000000E+00  0.93827000000E+00 0.  1.
     999902    2    1    2    0    0  0.56259621913E-02 -0.15208500969E-01 -0.17891252092E-01  0.10197836368E+01  0.10194977288E+01 0.  0.
     999903    2    3    3    0    0 -0.84525326592E-01  0.35257065811E-01  0.86770968711E-01  0.12757950731E+00  0.18966764312E-01 0.  0.
         14    1    1    2    0    0 -0.56259621913E-02  0.15208500969E-01  0.17891252092E-01  0.24146363157E-01  0.00000000000E+00 0.  1.
     999901    1    3    3    0    0  0.90151288783E-01 -0.50465566780E-01 -0.10466222080E+00  0.89220412954E+00  0.88000000000E+00 0.  1.
        -11    1    4    4    0    0 -0.38835678376E-01  0.79349888654E-02  0.44536394696E-01  0.59623196297E-01  0.51100000000E-03 0. -1.
         11    1    4    4    0    0 -0.45689648216E-01  0.27322076946E-01  0.42234574015E-01  0.67956311009E-01  0.51100000000E-03 0.  1.
</event>
<event>
 8    1  0.1202249E+005  0.1043930E+01  0.7957747E-01            NaN
         13   -1    0    0    0    0  0.00000000000E+00  0.00000000000E+00  0.74505805969E-08  0.10566000000E+00  0.10566000000E+00 0.  1.
     999900   -1    0    0    0    0 -0.00000000000E+00 -0.00000000000E+00 -0.74505805969E-08  0.93827000000E+00  0.93827000000E+00 0. -1.
     999902    2    1    2    0    0 -0.11435241255E-01 -0.20571238588E-01 -0.37417235575E-02  0.10200984853E+01  0.10198200716E+01 0.  0.
     999903    2    3    3    0    0 -0.82141725170E-01  0.96919320290E-01  0.14296116602E-01  0.12929614918E+00  0.19300196444E-01 0.  0.
         14    1    1    2    0    0  0.11435241255E-01  0.20571238588E-01  0.37417235575E-02  0.23831514739E-01  0.00000000000E+00 0.  1.
     999901    1    3    3    0    0  0.70706483915E-01 -0.11749055888E+00 -0.18037840160E-01  0.89080233608E+00  0.88000000000E+00 0. -1.
        -11    1    4    4    0    0 -0.36485561263E-01  0.56777471861E-01  0.37788953338E-02  0.67597475268E-01  0.51100000000E-03 0.  1.
         11    1    4    4    0    0 -0.45656163907E-01  0.40141848429E-01  0.10517221269E-01  0.61698673910E-01  0.51100000000E-03 0. -1.
</event>
<event>
 8    1  0.1202249E+005  0.1043930E+01  0.7957747E-01            NaN
         13   -1    0    0    0    0  0.00000000000E+00  0.00000000000E+00  0.74505805969E-08  0.10566000000E+00  0.10566000000E+00 0. -1.
     999900   -1    0    0    0    0 -0.00000000000E+00 -0.00000000000E+00 -0.74505805969E-08  0.93827000000E+00  0.93827000000E+00 0. -1.
     999902    2    1    2    0    0 -0.93065320410E-02 -0.67309854689E-02 -0.20949514453E-01  0.10200385819E+01  0.10197587502E+01 0.  0.
     999903    2    3    3    0    0 -0.79911919082E-03  0.12152678562E+00 -0.43167322961E-01  0.13042289916E+00  0.19424640051E-01 0.  0.
         14    1    1    2    0    0  0.93065320410E-02  0.67309854689E-02  0.20949514453E-01  0.23891418121E-01  0.00000000000E+00 0. -1.
     999901    1    3    3    0    0 -0.85074128502E-02 -0.12825777108E+00  0.22217808508E-01  0.88961568271E+00  0.88000000000E+00 0.  1.
        -11    1    4    4    0    0 -0.34236223820E-02  0.93126714209E-01 -0.41010987807E-01  0.10181585501E+00  0.51100000000E-03 0.  1.
         11    1    4    4    0    0  0.26245031912E-02  0.28400071407E-01 -0.21563351544E-02  0.28607044154E-01  0.51100000000E-03 0. -1.
</event>
<event>
 8    1  0.1202249E+005  0.1043930E+01  0.7957747E-01            NaN
         13   -1    0    0    0    0  0.00000000000E+00  0.00000000000E+00  0.74505805969E-08  0.10566000000E+00  0.10566000000E+00 0. -1.
     999900   -1    0    0    0    0 -0.00000000000E+00 -0.00000000000E+00 -0.74505805969E-08  0.93827000000E+00  0.93827000000E+00 0. -1.
     999902    2    1    2    0    0 -0.14540145085E-01 -0.16598545036E-01  0.65635360165E-02  0.10209081078E+01  0.10206484983E+01 0.  0.
     999903    2    3    3    0    0 -0.77287973508E-01 -0.71981438791E-01 -0.78190936423E-01  0.13288340345E+00  0.19733676686E-01 0.  0.
         14    1    1    2    0    0  0.14540145085E-01  0.16598545036E-01 -0.65635360165E-02  0.23021892222E-01  0.00000000000E+00 0.  1.
     999901    1    3    3    0    0  0.62747828422E-01  0.55382893755E-01  0.84754472439E-01  0.88802470432E+00  0.88000000000E+00 0.  1.
        -11    1    4    4    0    0 -0.28176703529E-01 -0.39640320079E-01 -0.35701527718E-01  0.60333587662E-01  0.51100000000E-03 0.  1.
         11    1    4    4    0    0 -0.49111269978E-01 -0.32341118712E-01 -0.42489408705E-01  0.72549815792E-01  0.51100000000E-03 0. -1.
</event>
<event>
 8    1  0.1202249E+005  0.1043930E+01  0.7957747E-01            NaN
         13   -1    0    0    0    0  0.00000000000E+00  0.00000000000E+00  0.74505805969E-08  0.10566000000E+00  0.10566000000E+00 0.  1.
     999900   -1    0    0    0    0 -0.00000000000E+00 -0.00000000000E+00 -0.74505805969E-08  0.93827000000E+00  0.93827000000E+00 0. -1.
     999902    2    1    2    0    0  0.67511887165E-02 -0.13087860492E-01 -0.19032565377E-01  0.10198653125E+01  0.10195813584E+01 0.  0.
     999903    2    3    3    0    0  0.75327793211E-01 -0.24577825842E-03  0.10253913049E+00  0.12877196887E+00  0.19839603057E-01 0.  0.
         14    1    1    2    0    0 -0.67511887165E-02  0.13087860492E-01  0.19032565377E-01  0.24064687535E-01  0.00000000000E+00 0.  1.
     999901    1    3    3    0    0 -0.68576604494E-01 -0.12842082233E-01 -0.12157169586E+00  0.89109334359E+00  0.88000000000E+00 0. -1.
        -11    1    4    4    0    0  0.58469216885E-01  0.81806386370E-02  0.77325769062E-01  0.97288785858E-01  0.51100000000E-03 0. -1.
         11    1    4    4    0    0  0.16858576325E-01 -0.84264168954E-02  0.25213361424E-01  0.31483183014E-01  0.51100000000E-03 0.  1.
</event>
<event>
 8    1  0.1202249E+005  0.1043930E+01  0.7957747E-01            NaN
         13   -1    0    0    0    0  0.00000000000E+00  0.00000000000E+00  0.74505805969E-08  0.10566000000E+00  0.10566000000E+00 0. -1.
     999900   -1    0    0    0    0 -0.00000000000E+00 -0.00000000000E+00 -0.74505805969E-08  0.93827000000E+00  0.93827000000E+00 0.  1.
     999902    2    1    2    0    0 -0.18076777721E-01  0.14649281235E-01 -0.97330167595E-02  0.10187089186E+01  0.10183966604E+01 0.  0.
     999903    2    3    3    0    0 -0.72865715345E-01 -0.86871536171E-01  0.57656667301E-01  0.12862483626E+00  0.19078284770E-01 0.  0.
         14    1    1    2    0    0  0.18076777721E-01 -0.14649281235E-01  0.97330167595E-02  0.25221081434E-01  0.00000000000E+00 0. -1.
     999901    1    3    3    0    0  0.54788937623E-01  0.10152081741E+00 -0.67389684060E-01  0.89008408230E+00  0.88000000000E+00 0.  1.
        -11    1    4    4    0    0 -0.32074912317E-01 -0.24768941058E-01  0.17259920156E-01  0.44050725374E-01  0.51100000000E-03 0. -1.
         11    1    4    4    0    0 -0.40790803028E-01 -0.62102595113E-01  0.40396747145E-01  0.84574110887E-01  0.51100000000E-03 0.  1.
</event>
<event>
 8    1  0.1202249E+005  0.1043930E+01  0.7957747E-01            NaN
         13   -1    0    0    0    0  0.00000000000E+00  0.00000000000E+00  0.74505805969E-08  0.10566000000E+00  0.10566000000E+00 0. -1.
     999900   -1    0    0    0    0 -0.00000000000E+00 -0.00000000000E+00 -0.74505805969E-08  0.93827000000E+00  0.93827000000E+00 0.  1.
     999902    2    1    2    0    0 -0.89234488087E-02  0.20481802734E-01  0.92129261454E-02  0.10197636972E+01  0.10194773112E+01 0.  0.
     999903    2    3    3    0    0  0.66203972932E-01  0.90929082135E-01  0.65881062304E-01  0.13194714729E+00  0.20461458843E-01 0.  0.
         14    1    1    2    0    0  0.89234488087E-02 -0.20481802734E-01 -0.92129261454E-02  0.24166302780E-01  0.00000000000E+00 0. -1.
     999901    1    3    3    0    0 -0.75127421741E-01 -0.70447279401E-01 -0.56668136159E-01  0.88781654993E+00  0.88000000000E+00 0.  1.
        -11    1    4    4    0    0  0.39462041844E-01  0.37036638928E-01  0.32852005630E-01  0.63312564033E-01  0.51100000000E-03 0.  1.
         11    1    4    4    0    0  0.26741931088E-01  0.53892443207E-01  0.33029056674E-01  0.68634583258E-01  0.51100000000E-03 0. -1.
</event>
<event>
 8    1  0.1202249E+005  0.1043930E+01  0.7957747E-01            NaN
         13   -1    0    0    0    0  0.00000000000E+00  0.00000000000E+00  0.74505805969E-08  0.10566000000E+00  0.10566000000E+00 0. -1.
     999900   -1    0    0    0    0 -0.00000000000E+00 -0.00000000000E+00 -0.74505805969E-08  0.93827000000E+00  0.93827000000E+00 0.  1.
     999902    2    1    2    0    0 -0.18275358351E-01  0.15148140392E-01  0.48404095117E-02  0.10197043020E+01  0.10194164895E+01 0.  0.
     999903    2    3    3    0    0 -0.24356722512E-01 -0.70505671428E-01 -0.10320072869E+00  0.12894819282E+00  0.20321082493E-01 0.  0.
         14    1    1    2    0    0  0.18275358351E-01 -0.15148140392E-01 -0.48404095117E-02  0.24225698018E-01  0.00000000000E+00 0.  1.
     999901    1    3    3    0    0  0.60813641611E-02  0.85653811820E-01  0.10804113820E+00  0.89075610916E+00  0.88000000000E+00 0. -1.
        -11    1    4    4    0    0  0.32903080856E-02 -0.60610728389E-02 -0.12663158264E-01  0.14428424359E-01  0.51100000000E-03 0.  1.
         11    1    4    4    0    0 -0.27647030598E-01 -0.64444598589E-01 -0.90537570427E-01  0.11451976846E+00  0.51100000000E-03 0. -1.
</event>
<event>
 8    1  0.1202249E+005  0.1043930E+01  0.7957747E-01            NaN
         13   -1    0    0    0    0  0.00000000000E+00  0.00000000000E+00  0.74505805969E-08  0.10566000000E+00  0.10566000000E+00 0. -1.
     999900   -1    0    0    0    0 -0.00000000000E+00 -0.00000000000E+00 -0.74505805969E-08  0.93827000000E+00  0.93827000000E+00 0.  1.
     999902    2    1    2    0    0  0.15623659580E-02 -0.39090795165E-02  0.23026979493E-01  0.10205213761E+01  0.10202528683E+01 0.  0.
     999903    2    3    3    0    0 -0.48462001940E-01 -0.11911814406E+00 -0.14572473205E-01  0.13080834099E+00  0.18993873232E-01 0.  0.
         14    1    1    2    0    0 -0.15623659580E-02  0.39090795165E-02 -0.23026979493E-01  0.23408623937E-01  0.00000000000E+00 0.  1.
     999901    1    3    3    0    0  0.50024367898E-01  0.11520906455E+00  0.37599452698E-01  0.88971303507E+00  0.88000000000E+00 0. -1.
        -11    1    4    4    0    0 -0.18098709683E-01 -0.52900835354E-01  0.25604417499E-02  0.55972123922E-01  0.51100000000E-03 0. -1.
         11    1    4    4    0    0 -0.30363292256E-01 -0.66217308708E-01 -0.17132914955E-01  0.74836217068E-01  0.51100000000E-03 0.  1.
</event>
<event>
 7    1  0.1202249E+005  0.1043930E+01  0.7957747E-01            NaN
         13   -1    0    0    0    0  0.00000000000E+00  0.00000000000E+00  0.74505805969E-08  0.10566000000E+00  0.10566000000E+00 0.  1.
     999900   -1    0    0    0    0 -0.00000000000E+00 -0.00000000000E+00 -0.74505805969E-08  0.93827000000E+00  0.93827000000E+00 0.  1.
     999903    2    1    2    0    0 -0.89724890894E-01 -0.70039049941E-01 -0.68917719680E-02  0.11576365873E+00  0.19942507359E-01 0.  0.
         14    1    1    2    0    0  0.29074672779E-01  0.15905624306E-02 -0.31110333861E-01  0.42611258595E-01  0.00000000000E+00 0. -1.
     999901    1    1    2    0    0  0.60650218115E-01  0.68448487510E-01  0.38002105830E-01  0.88555508267E+00  0.88000000000E+00 0. -1.
        -11    1    3    3    0    0 -0.35887822123E-01 -0.16509327096E-01  0.24496550020E-03  0.39507148556E-01  0.51100000000E-03 0. -1.
         11    1    3    3    0    0 -0.53837068771E-01 -0.53529722845E-01 -0.71367374682E-02  0.76256510177E-01  0.51100000000E-03 0.  1.
</event>
<event>
 8    1  0.1202249E+005  0.1043930E+01  0.7957747E-01            NaN
         13   -1    0    0    0    0  0.00000000000E+00  0.00000000000E+00  0.74505805969E-08  0.10566000000E+00  0.10566000000E+00 0. -1.
     999900   -1    0    0    0    0 -0.00000000000E+00 -0.00000000000E+00 -0.74505805969E-08  0.93827000000E+00  0.93827000000E+00 0.  1.
     999902    2    1    2    0    0  0.10710970646E-05  0.16122045798E-01  0.92055020011E-02  0.10253649353E+01  0.10251968537E+01 0.  0.
     999903    2    3    3    0    0  0.12968455630E+00  0.17718760699E-01 -0.26588183163E-01  0.13513937747E+00  0.20583518590E-01 0.  0.
         14    1    1    2    0    0 -0.10710970646E-05 -0.16122045798E-01 -0.92055020011E-02  0.18565064744E-01  0.00000000000E+00 0.  1.
     999901    1    3    3    0    0 -0.12968348520E+00 -0.15967149007E-02  0.35793685164E-01  0.89022555778E+00  0.88000000000E+00 0.  1.
        -11    1    4    4    0    0  0.28775227224E-01  0.23961044781E-02 -0.14630863369E-01  0.32374037474E-01  0.51100000000E-03 0.  1.
         11    1    4    4    0    0  0.10090932907E+00  0.15322656221E-01 -0.11957319794E-01  0.10276534000E+00  0.51100000000E-03 0. -1.
</event>
<event>
 8    1  0.1202249E+005  0.1043930E+01  0.7957747E-01            NaN
         13   -1    0    0    0    0  0.00000000000E+00  0.00000000000E+00  0.74505805969E-08  0.10566000000E+00  0.10566000000E+00 0. -1.
     999900   -1    0    0    0    0 -0.00000000000E+00 -0.00000000000E+00 -0.74505805969E-08  0.93827000000E+00  0.93827000000E+00 0. -1.
     999902    2    1    2    0    0 -0.92825833479E-02 -0.32775792345E-02 -0.24172290867E-01  0.10178300283E+01  0.10174953356E+01 0.  0.
     999903    2    3    3    0    0  0.38410063460E-01  0.58921246495E-01  0.10188872726E+00  0.12539814695E+00  0.19908195587E-01 0.  0.
         14    1    1    2    0    0  0.92825833479E-02  0.32775792345E-02  0.24172290867E-01  0.26099971743E-01  0.00000000000E+00 0. -1.
     999901    1    3    3    0    0 -0.47692646808E-01 -0.62198825730E-01 -0.12606101813E+00  0.89243188131E+00  0.88000000000E+00 0. -1.
        -11    1    4    4    0    0  0.16182179246E-02  0.17631114930E-01  0.22263370494E-01  0.28449844106E-01  0.51100000000E-03 0.  1.
         11    1    4    4    0    0  0.36791845535E-01  0.41290131566E-01  0.79625356769E-01  0.96948302843E-01  0.51100000000E-03 0. -1.
</event>
<event>
 8    1  0.1202249E+005  0.1043930E+01  0.7957747E-01            NaN
         13   -1    0    0    0    0  0.00000000000E+00  0.00000000000E+00  0.74505805969E-08  0.10566000000E+00  0.10566000000E+00 0.  1.
     999900   -1    0    0    0    0 -0.00000000000E+00 -0.00000000000E+00 -0.74505805969E-08  0.93827000000E+00  0.93827000000E+00 0. -1.
     999902    2    1    2    0    0  0.14280129784E-01  0.17361840932E-01 -0.66112064812E-02  0.10204978921E+01  0.10202288391E+01 0.  0.
     999903    2    3    3    0    0  0.84841643580E-01 -0.80911974337E-01 -0.54526957624E-01  0.13092912628E+00  0.20600847675E-01 0.  0.
         14    1    1    2    0    0 -0.14280129784E-01 -0.17361840932E-01  0.66112064812E-02  0.23432107851E-01  0.00000000000E+00 0.  1.
     999901    1    3    3    0    0 -0.70561513796E-01  0.98273815269E-01  0.47915751143E-01  0.88956876587E+00  0.88000000000E+00 0.  1.
        -11    1    4    4    0    0  0.57155242612E-01 -0.41735695161E-01 -0.28016333984E-01  0.76116792494E-01  0.51100000000E-03 0.  1.
         11    1    4    4    0    0  0.27686400969E-01 -0.39176279176E-01 -0.26510623640E-01  0.54812333789E-01  0.51100000000E-03 0. -1.
</event>
<event>
 8    1  0.1202249E+005  0.1043930E+01  0.7957747E-01            NaN
         13   -1    0    0    0    0  0.00000000000E+00  0.00000000000E+00  0.74505805969E-08  0.10566000000E+00  0.10566000000E+00 0. -1.
     999900   -1    0    0    0    0 -0.00000000000E+00 -0.00000000000E+00 -0.74505805969E-08  0.93827000000E+00  0.93827000000E+00 0.  1.
     999902    2    1    2    0    0 -0.63578403700E-02 -0.19316867717E-01  0.13270387824E-03  0.10235933060E+01  0.10233912619E+01 0.  0.
     999903    2    3    3    0    0  0.11493757881E+00  0.55379985920E-01 -0.26454407846E-01  0.13174181995E+00  0.19454602707E-01 0.  0.
         14    1    1    2    0    0  0.63578403700E-02  0.19316867717E-01 -0.13270387824E-03  0.20336694001E-01  0.00000000000E+00 0. -1.
     999901    1    3    3    0    0 -0.12129541918E+00 -0.74696853637E-01  0.26587111724E-01  0.89185148605E+00  0.88000000000E+00 0.  1.
        -11    1    4    4    0    0  0.56174499364E-01  0.34271988249E-01 -0.61977976760E-02  0.66097029997E-01  0.51100000000E-03 0. -1.
         11    1    4    4    0    0  0.58763079445E-01  0.21107997671E-01 -0.20256610170E-01  0.65644789954E-01  0.51100000000E-03 0.  1.
</event>
<event>
 8    1  0.1202249E+005  0.1043930E+01  0.7957747E-01            NaN
         13   -1    0    0    0    0  0.00000000000E+00  0.00000000000E+00  0.74505805969E-08  0.10566000000E+00  0.10566000000E+00 0.  1.
     999900   -1    0    0    0    0 -0.00000000000E+00 -0.00000000000E+00 -0.74505805969E-08  0.93827000000E+00  0.93827000000E+00 0. -1.
     999902    2    1    2    0    0  0.11091076457E-01  0.14594757687E-01  0.14900998727E-01  0.10203067341E+01  0.10200332215E+01 0.  0.
     999903    2    3    3    0    0  0.50904414867E-02  0.11093760282E+00 -0.67093428541E-01  0.13123922399E+00  0.19726668367E-01 0.  0.
         14    1    1    2    0    0 -0.11091076457E-01 -0.14594757687E-01 -0.14900998727E-01  0.23623265904E-01  0.00000000000E+00 0. -1.
     999901    1    3    3    0    0  0.60006349700E-02 -0.96342845135E-01  0.81994427268E-01  0.88906751011E+00  0.88000000000E+00 0.  1.
        -11    1    4    4    0    0 -0.13717803982E-02  0.82928034320E-01 -0.41482072850E-01  0.92735991646E-01  0.51100000000E-03 0. -1.
         11    1    4    4    0    0  0.64622218849E-02  0.28009568502E-01 -0.25611355692E-01  0.38503232341E-01  0.51100000000E-03 0.  1.
</event>
<event>
 8    1  0.1202249E+005  0.1043930E+01  0.7957747E-01            NaN
         13   -1    0    0    0    0  0.00000000000E+00  0.00000000000E+00  0.74505805969E-08  0.10566000000E+00  0.10566000000E+00 0.  1.
     999900   -1    0    0    0    0 -0.00000000000E+00 -0.00000000000E+00 -0.74505805969E-08  0.93827000000E+00  0.93827000000E+00 0.  1.
     999902    2    1    2    0    0 -0.12011281483E-01 -0.53512492088E-02 -0.16614299194E-01  0.10227417559E+01  0.10225222528E+01 0.  0.
     999903    2    3    3    0    0 -0.21009282192E-01 -0.60973677555E-01  0.11285974525E+00  0.13148514484E+00  0.19794997398E-01 0.  0.
         14    1    1    2    0    0  0.12011281483E-01  0.53512492088E-02  0.16614299194E-01  0.21188244115E-01  0.00000000000E+00 0.  1.
     999901    1    3    3    0    0  0.89980007089E-02  0.55622428346E-01 -0.12947404445E+00  0.89125661105E+00  0.88000000000E+00 0.  1.
        -11    1    4    4    0    0 -0.74246616675E-02 -0.70820407889E-02  0.88633291398E-02  0.13568368622E-01  0.51100000000E-03 0. -1.
         11    1    4    4    0    0 -0.13584620524E-01 -0.53891636766E-01  0.10399641611E+00  0.11791677622E+00  0.51100000000E-03 0.  1.
</event>
<event>
 8    1  0.1202249E+005  0.1043930E+01  0.7957747E-01            NaN
         13   -1    0    0    0    0  0.00000000000E+00  0.00000000000E+00  0.74505805969E-08  0.10566000000E+00  0.10566000000E+00 0.  1.
     999900   -1    0    0    0    0 -0.00000000000E+00 -0.00000000000E+00 -0.74505805969E-08  0.93827000000E+00  0.93827000000E+00 0. -1.
     999902    2    1    2    0    0 -0.66761930036E-02 -0.16361182834E-01  0.15826128922E-01  0.10202081490E+01  0.10199323218E+01 0.  0.
     999903    2    3    3    0    0  0.50444809549E-01 -0.97495605606E-01  0.72116360307E-01  0.13284452929E+00  0.19920532507E-01 0.  0.
         14    1    1    2    0    0  0.66761930036E-02  0.16361182834E-01 -0.15826128922E-01  0.23721850969E-01  0.00000000000E+00 0. -1.
     999901    1    3    3    0    0 -0.57121002553E-01  0.81134422772E-01 -0.56290231385E-01  0.88736361974E+00  0.88000000000E+00 0. -1.
        -11    1    4    4    0    0  0.12175799254E-01 -0.39672239263E-01  0.34423376458E-01  0.53920002071E-01  0.51100000000E-03 0. -1.
         11    1    4    4    0    0  0.38269010295E-01 -0.57823366343E-01  0.37692983849E-01  0.78924527219E-01  0.51100000000E-03 0.  1.
</event>
<event>
 8    1  0.1202249E+005  0.1043930E+01  0.7957747E-01            NaN
         13   -1    0    0    0    0  0.00000000000E+00  0.00000000000E+00  0.74505805969E-08  0.10566000000E+00  0.10566000000E+00 0.  1.
     999900   -1    0    0    0    0 -0.00000000000E+00 -0.00000000000E+00 -0.74505805969E-08  0.93827000000E+00  0.93827000000E+00 0. -1.
     999902    2    1    2    0    0 -0.20125807754E-01 -0.48248987896E-02  0.20735676139E-02  0.10231303012E+01  0.10229188559E+01 0.  0.
     999903    2    3    3    0    0 -0.13232370955E+00  0.20052860224E-01 -0.10019318790E-01  0.13557550858E+00  0.19200272568E-01 0.  0.
         14    1    1    2    0    0  0.20125807754E-01  0.48248987896E-02 -0.20735676139E-02  0.20799698765E-01  0.00000000000E+00 0. -1.
     999901    1    3    3    0    0  0.11219790179E+00 -0.24877759014E-01  0.12092886404E-01  0.88755479265E+00  0.88000000000E+00 0.  1.
        -11    1    4    4    0    0 -0.53905947553E-01  0.17070689592E-02 -0.10938759354E-01  0.55033470209E-01  0.51100000000E-03 0. -1.
         11    1    4    4    0    0 -0.78417761994E-01  0.18345791265E-01  0.91944056366E-03  0.80542038372E-01  0.51100000000E-03 0.  1.
</event>
<event>
 8    1  0.1202249E+005  0.1043930E+01  0.7957747E-01            NaN
         13   -1    0    0    0    0  0.00000000000E+00  0.00000000000E+00  0.74505805969E-08  0.10566000000E+00  0.10566000000E+00 0. -1.
     999900   -1    0    0    0    0 -0.00000000000E+00 -0.00000000000E+00 -0.74505805969E-08  0.93827000000E+00  0.93827000000E+00 0.  1.
     999902    2    1    2    0    0 -0.17699765048E-01  0.16953328405E-01 -0.54833986108E-02  0.10188149709E+01  0.10185053658E+01 0.  0.
     999903    2    3    3    0    0 -0.11000139924E+00 -0.56350154320E-01 -0.36479940401E-01  0.13041541109E+00  0.20043594268E-01 0.  0.
         14    1    1    2    0    0  0.17699765048E-01 -0.16953328405E-01  0.54833986108E-02  0.25115029108E-01  0.00000000000E+00 0.  1.
     999901    1    3    3    0    0  0.92301634193E-01  0.73303482726E-01  0.30996541791E-01  0.88839955980E+00  0.88000000000E+00 0. -1.
        -11    1    4    4    0    0 -0.31533475690E-01 -0.13761902988E-01 -0.12436963587E-02  0.34431932339E-01  0.51100000000E-03 0.  1.
         11    1    4    4    0    0 -0.78467923550E-01 -0.42588251333E-01 -0.35236244043E-01  0.95983478751E-01  0.51100000000E-03 0. -1.
</event>
<event>
 8    1  0.1202249E+005  0.1043930E+01  0.7957747E-01            NaN
         13   -1    0    0    0    0  0.00000000000E+00  0.00000000000E+00  0.74505805969E-08  0.10566000000E+00  0.10566000000E+00 0.  1.
     999900   -1    0    0    0    0 -0.00000000000E+00 -0.00000000000E+00 -0.74505805969E-08  0.93827000000E+00  0.93827000000E+00 0.  1.
     999902    2    1    2    0    0 -0.19201161703E-01 -0.12576080975E-01 -0.86025089297E-02  0.10194178483E+01  0.10191231053E+01 0.  0.
     999903    2    3    3    0    0  0.88528245947E-01 -0.55952843300E-01 -0.73303569254E-01  0.12943279445E+00  0.20284575668E-01 0.  0.
         14    1    1    2    0    0  0.19201161703E-01  0.12576080975E-01  0.86025089297E-02  0.24512151748E-01  0.00000000000E+00 0.  1.
     999901    1    3    3    0    0 -0.10772940765E+00  0.43376762325E-01  0.64701060324E-01  0.88998505380E+00  0.88000000000E+00 0. -1.
        -11    1    4    4    0    0  0.37674435741E-01 -0.13816260271E-01 -0.21725988537E-01  0.45634765861E-01  0.51100000000E-03 0.  1.
         11    1    4    4    0    0  0.50853810206E-01 -0.42136583029E-01 -0.51577580718E-01  0.83798028590E-01  0.51100000000E-03 0. -1.
</event>
<event>
 8    1  0.1202249E+005  0.1043930E+01  0.7957747E-01            NaN
         13   -1    0    0    0    0  0.00000000000E+00  0.00000000000E+00  0.74505805969E-08  0.10566000000E+00  0.10566000000E+00 0. -1.
     999900   -1    0    0    0    0 -0.00000000000E+00 -0.00000000000E+00 -0.74505805969E-08  0.93827000000E+00  0.93827000000E+00 0. -1.
     999902    2    1    2    0    0  0.11590111108E-01 -0.84122584726E-03  0.20588772795E-01  0.10202881747E+01  0.10200142272E+01 0.  0.
     999903    2    3    3    0    0 -0.41926558630E-01  0.11081551617E+00  0.52213040967E-01  0.13105740811E+00  0.20296000372E-01 0.  0.
         14    1    1    2    0    0 -0.11590111108E-01  0.84122584726E-03 -0.20588772795E-01  0.23641825260E-01  0.00000000000E+00 0.  1.
     999901    1    3    3    0    0  0.53516669739E-01 -0.11165674202E+00 -0.31624268172E-01  0.88923076663E+00  0.88000000000E+00 0. -1.
        -11    1    4    4    0    0 -0.18339960410E-01  0.23889476062E-01  0.12190117052E-01  0.32494942516E-01  0.51100000000E-03 0.  1.
         11    1    4    4    0    0 -0.23586598220E-01  0.86926040110E-01  0.40022923915E-01  0.98562465597E-01  0.51100000000E-03 0. -1.
</event>
<event>
 8    1  0.1202249E+005  0.1043930E+01  0.7957747E-01            NaN
         13   -1    0    0    0    0  0.00000000000E+00  0.00000000000E+00  0.74505805969E-08  0.10566000000E+00  0.10566000000E+00 0.  1.
     999900   -1    0    0    0    0 -0.00000000000E+00 -0.00000000000E+00 -0.74505805969E-08  0.93827000000E+00  0.93827000000E+00 0. -1.
     999902    2    1    2    0    0  0.39420146600E-02  0.22995109488E-01 -0.49326303131E-02  0.10200837135E+01  0.10198049505E+01 0.  0.
     999903    2    3    3    0    0 -0.12181546596E+00 -0.28151793909E-01 -0.26825702667E-01  0.12940405372E+00  0.19855970095E-01 0.  0.
         14    1    1    2    0    0 -0.39420146600E-02 -0.22995109488E-01  0.49326303131E-02  0.23846286540E-01  0.00000000000E+00 0.  1.
     999901    1    3    3    0    0  0.12575748062E+00  0.51146903396E-01  0.21893072354E-01  0.89067965974E+00  0.88000000000E+00 0.  1.
        -11    1    4    4    0    0 -0.89241589355E-01 -0.11653186046E-01 -0.21093495679E-01  0.92439465038E-01  0.51100000000E-03 0.  1.
         11    1    4    4    0    0 -0.32573876604E-01 -0.16498607862E-01 -0.57322069878E-02  0.36964588681E-01  0.51100000000E-03 0. -1.
</event>
<event>
 8    1  0.1202249E+005  0.1043930E+01  0.7957747E-01            NaN
         13   -1    0    0    0    0  0.00000000000E+00  0.00000000000E+00  0.74505805969E-08  0.10566000000E+00  0.10566000000E+00 0. -1.
     999900   -1    0    0    0    0 -0.00000000000E+00 -0.00000000000E+00 -0.74505805969E-08  0.93827000000E+00  0.93827000000E+00 0. -1.
     999902    2    1    2    0    0 -0.16243961615E-01 -0.11413597918E-01 -0.12547683682E-01  0.10204442411E+01  0.10201739402E+01 0.  0.
     999903    2    3    3    0    0  0.12206847139E+00 -0.31238155011E-01  0.18835841959E-01  0.12886795838E+00  0.19381117590E-01 0.  0.
         14    1    1    2    0    0  0.16243961615E-01  0.11413597918E-01  0.12547683682E-01  0.23485758922E-01  0.00000000000E+00 0. -1.
     999901    1    3    3    0    0 -0.13831243300E+00  0.19824557093E-01 -0.31383525641E-01  0.89157628270E+00  0.88000000000E+00 0. -1.
        -11    1    4    4    0    0  0.35644045780E-01 -0.18052157476E-01  0.35463712593E-02  0.40115037819E-01  0.51100000000E-03 0.  1.
         11    1    4    4    0    0  0.86424425610E-01 -0.13185997534E-01  0.15289470700E-01  0.88752920561E-01  0.51100000000E-03 0. -1.
</event>
<event>
 8    1  0.1410632E+005  0.1043930E+01  0.7957747E-01            NaN
         13   -1    0    0    0    0  0.00000000000E+00  0.00000000000E+00  0.74505805969E-08  0.10566000000E+00  0.10566000000E+00 0.  1.
     999900   -1    0    0    0    0 -0.00000000000E+00 -0.00000000000E+00 -0.74505805969E-08  0.93827000000E+00  0.93827000000E+00 0. -1.
     999902    2    1    2    0    0  0.22433917124E-01  0.10842016072E-02  0.41686586288E-02  0.10210863172E+01  0.10208307564E+01 0.  0.
     999903    2    3    3    0    0 -0.89867885930E-01 -0.90512002478E-01  0.66827543340E-02  0.12922989360E+00  0.19673502006E-01 0.  0.
         14    1    1    2    0    0 -0.22433917124E-01 -0.10842016072E-02 -0.41686586288E-02  0.22843682834E-01  0.00000000000E+00 0. -1.
     999901    1    3    3    0    0  0.11230180305E+00  0.91596204085E-01 -0.25140957053E-02  0.89185642356E+00  0.88000000000E+00 0. -1.
        -11    1    4    4    0    0 -0.25624737185E-01 -0.38721610942E-01 -0.42422792198E-04  0.46435473837E-01  0.51100000000E-03 0. -1.
         11    1    4    4    0    0 -0.64243148746E-01 -0.51790391535E-01  0.67251771262E-02  0.82794419767E-01  0.51100000000E-03 0.  1.
</event>
<event>
 8    1  0.1202249E+005  0.1043930E+01  0.7957747E-01            NaN
         13   -1    0    0    0    0  0.00000000000E+00  0.00000000000E+00  0.74505805969E-08  0.10566000000E+00  0.10566000000E+00 0.  1.
     999900   -1    0    0    0    0 -0.00000000000E+00 -0.00000000000E+00 -0.74505805969E-08  0.93827000000E+00  0.93827000000E+00 0.  1.
     999902    2    1    2    0    0 -0.21792263850E-02 -0.12250141740E-01 -0.19528371939E-01  0.10207746051E+01  0.10205119412E+01 0.  0.
     999903    2    3    3    0    0  0.10369212316E+00  0.75396616708E-01 -0.11172269776E-01  0.13006672859E+00  0.18863405258E-01 0.  0.
         14    1    1    2    0    0  0.21792263850E-02  0.12250141740E-01  0.19528371939E-01  0.23155394855E-01  0.00000000000E+00 0.  1.
     999901    1    3    3    0    0 -0.10587134954E+00 -0.87646758448E-01 -0.83561021629E-02  0.89070787656E+00  0.88000000000E+00 0. -1.
        -11    1    4    4    0    0  0.60103831157E-01  0.54173850100E-01 -0.10355505890E-01  0.81576799261E-01  0.51100000000E-03 0.  1.
         11    1    4    4    0    0  0.43588291998E-01  0.21222766608E-01 -0.81676388658E-03  0.48489929326E-01  0.51100000000E-03 0. -1.
</event>
<event>
 8    1  0.1202249E+005  0.1043930E+01  0.7957747E-01            NaN
         13   -1    0    0    0    0  0.00000000000E+00  0.00000000000E+00  0.74505805969E-08  0.10566000000E+00  0.10566000000E+00 0.  1.
     999900   -1    0    0    0    0 -0.00000000000E+00 -0.00000000000E+00 -0.74505805969E-08  0.93827000000E+00  0.93827000000E+00 0.  1.
     999902    2    1    2    0    0 -0.52597689841E-02  0.16091672621E-01  0.23908239706E-01  0.10146347611E+01  0.10142117567E+01 0.  0.
     999903    2    3    3    0    0  0.21767117651E-01  0.71131904857E-01  0.10335210965E+00  0.12893096847E+00  0.20198533691E-01 0.  0.
         14    1    1    2    0    0  0.52597689841E-02 -0.16091672621E-01 -0.23908239706E-01  0.29295238919E-01  0.00000000000E+00 0. -1.
     999901    1    3    3    0    0 -0.27026886635E-01 -0.55040232236E-01 -0.79443869945E-01  0.88570379261E+00  0.88000000000E+00 0. -1.
        -11    1    4    4    0    0  0.29385247653E-02  0.34729692432E-01  0.59100646406E-01  0.68614386179E-01  0.51100000000E-03 0.  1.
         11    1    4    4    0    0  0.18828592886E-01  0.36402212425E-01  0.44251463245E-01  0.60316582295E-01  0.51100000000E-03 0. -1.
</event>
<event>
 8    1  0.1202249E+005  0.1043930E+01  0.7957747E-01            NaN
         13   -1    0    0    0    0  0.00000000000E+00  0.00000000000E+00  0.74505805969E-08  0.10566000000E+00  0.10566000000E+00 0. -1.
     999900   -1    0    0    0    0 -0.00000000000E+00 -0.00000000000E+00 -0.74505805969E-08  0.93827000000E+00  0.93827000000E+00 0. -1.
     999902    2    1    2    0    0  0.12162723425E-01 -0.23704300431E-02  0.18005724353E-01  0.10220723494E+01  0.10218386030E+01 0.  0.
     999903    2    3    3    0    0 -0.12330599809E-01 -0.89634358482E-01 -0.90010917405E-01  0.13084706309E+00  0.28855272554E-01 0.  0.
         14    1    1    2    0    0 -0.12162723425E-01  0.23704300431E-02 -0.18005724353E-01  0.21857650587E-01  0.00000000000E+00 0.  1.
     999901    1    3    3    0    0  0.24493323233E-01  0.87263928439E-01  0.10801664176E+00  0.89122528633E+00  0.88000000000E+00 0.  1.
        -11    1    4    4    0    0 -0.13948320033E-01 -0.52791900779E-01 -0.35854848568E-01  0.65325123088E-01  0.51100000000E-03 0.  1.
         11    1    4    4    0    0  0.16177202243E-02 -0.36842457703E-01 -0.54156068837E-01  0.65521939999E-01  0.51100000000E-03 0. -1.
</event>
<event>
 8    1  0.1202249E+005  0.1043930E+01  0.7957747E-01            NaN
         13   -1    0    0    0    0  0.00000000000E+00  0.00000000000E+00  0.74505805969E-08  0.10566000000E+00  0.10566000000E+00 0. -1.
     999900   -1    0    0    0    0 -0.00000000000E+00 -0.00000000000E+00 -0.74505805969E-08  0.93827000000E+00  0.93827000000E+00 0.  1.
     999902    2    1    2    0    0 -0.32974458718E-02  0.21414798843E-01  0.87341481172E-02  0.10205686622E+01  0.10203012507E+01 0.  0.
     999903    2    3    3    0    0 -0.12657459077E+00  0.10293349981E-01  0.28645538053E-01  0.13168317775E+00  0.19819494725E-01 0.  0.
         14    1    1    2    0    0  0.32974458718E-02 -0.21414798843E-01 -0.87341481172E-02  0.23361337763E-01  0.00000000000E+00 0. -1.
     999901    1    3    3    0    0  0.12327714489E+00  0.11121448862E-01 -0.19911389936E-01  0.88888548448E+00  0.88000000000E+00 0. -1.
        -11    1    4    4    0    0 -0.12198148521E+00  0.11143952534E-01  0.23517455115E-01  0.12472771235E+00  0.51100000000E-03 0. -1.
         11    1    4    4    0    0 -0.45931055603E-02 -0.85060255253E-03  0.51280829384E-02  0.69554654060E-02  0.51100000000E-03 0.  1.
</event>
<event>
 8    1  0.1202249E+005  0.1043930E+01  0.7957747E-01            NaN
         13   -1    0    0    0    0  0.00000000000E+00  0.00000000000E+00  0.74505805969E-08  0.10566000000E+00  0.10566000000E+00 0.  1.
     999900   -1    0    0    0    0 -0.00000000000E+00 -0.00000000000E+00 -0.74505805969E-08  0.93827000000E+00  0.93827000000E+00 0. -1.
     999902    2    1    2    0    0  0.18595821390E-01  0.95850781075E-02  0.11662585273E-01  0.10199780859E+01  0.10196968184E+01 0.  0.
     999903    2    3    3    0    0 -0.17892494674E-01  0.61066964207E-01 -0.11057555453E+00  0.12929074194E+00  0.20972057779E-01 0.  0.
         14    1    1    2    0    0 -0.18595821390E-01 -0.95850781075E-02 -0.11662585273E-01  0.23951914135E-01  0.00000000000E+00 0. -1.
     999901    1    3    3    0    0  0.36488316064E-01 -0.51481886100E-01  0.12223813981E+00  0.89068734393E+00  0.88000000000E+00 0.  1.
        -11    1    4    4    0    0 -0.11068522641E-01  0.48938846383E-01 -0.68092003767E-01  0.84583124657E-01  0.51100000000E-03 0. -1.
         11    1    4    4    0    0 -0.68239720336E-02  0.12128117825E-01 -0.42483550767E-01  0.44707617283E-01  0.51100000000E-03 0.  1.
</event>
<event>
 8    1  0.1202249E+005  0.1043930E+01  0.7957747E-01            NaN
         13   -1    0    0    0    0  0.00000000000E+00  0.00000000000E+00  0.74505805969E-08  0.10566000000E+00  0.10566000000E+00 0.  1.
     999900   -1    0    0    0    0 -0.00000000000E+00 -0.00000000000E+00 -0.74505805969E-08  0.93827000000E+00  0.93827000000E+00 0.  1.
     999902    2    1    2    0    0  0.15194253124E-01 -0.12815066394E-01 -0.13313695413E-01  0.10200062515E+01  0.10197256530E+01 0.  0.
     999903    2    3    3    0    0 -0.45381590720E-01 -0.12033206016E+00  0.14172915378E-01  0.13097034081E+00  0.20324004603E-01 0.  0.
         14    1    1    2    0    0 -0.15194253124E-01  0.12815066394E-01  0.13313695413E-01  0.23923748457E-01  0.00000000000E+00 0.  1.
     999901    1    3    3    0    0  0.60575843845E-01  0.10751699376E+00 -0.27486610791E-01  0.88903591074E+00  0.88000000000E+00 0. -1.
        -11    1    4    4    0    0 -0.13371288289E-01 -0.59355460898E-01  0.10079702145E-02  0.60853424011E-01  0.51100000000E-03 0. -1.
         11    1    4    4    0    0 -0.32010302431E-01 -0.60976599258E-01  0.13164945164E-01  0.70116916796E-01  0.51100000000E-03 0.  1.
</event>
<event>
 8    1  0.1202249E+005  0.1043930E+01  0.7957747E-01            NaN
         13   -1    0    0    0    0  0.00000000000E+00  0.00000000000E+00  0.74505805969E-08  0.10566000000E+00  0.10566000000E+00 0.  1.
     999900   -1    0    0    0    0 -0.00000000000E+00 -0.00000000000E+00 -0.74505805969E-08  0.93827000000E+00  0.93827000000E+00 0. -1.
     999902    2    1    2    0    0  0.11127909063E-01 -0.30961222890E-02 -0.20418680709E-01  0.10204706979E+01  0.10202010127E+01 0.  0.
     999903    2    3    3    0    0 -0.20038927552E-01  0.97818160626E-01  0.78614372556E-01  0.12863965457E+00  0.19949686456E-01 0.  0.
         14    1    1    2    0    0 -0.11127909063E-01  0.30961222890E-02  0.20418680709E-01  0.23459302104E-01  0.00000000000E+00 0. -1.
     999901    1    3    3    0    0  0.31166836615E-01 -0.10091428292E+00 -0.99033053265E-01  0.89183104333E+00  0.88000000000E+00 0. -1.
        -11    1    4    4    0    0 -0.22246784943E-01  0.61148506171E-01  0.51184240074E-01  0.82789774732E-01  0.51100000000E-03 0.  1.
         11    1    4    4    0    0  0.22078573912E-02  0.36669654456E-01  0.27430132482E-01  0.45849879838E-01  0.51100000000E-03 0. -1.
</event>
<event>
 8    1  0.1202249E+005  0.1043930E+01  0.7957747E-01            NaN
         13   -1    0    0    0    0  0.00000000000E+00  0.00000000000E+00  0.74505805969E-08  0.10566000000E+00  0.10566000000E+00 0. -1.
     999900   -1    0    0    0    0 -0.00000000000E+00 -0.00000000000E+00 -0.74505805969E-08  0.93827000000E+00  0.93827000000E+00 0.  1.
     999902    2    1    2    0    0 -0.86429912219E-02 -0.20861902090E-01  0.12362830158E-02  0.10213147695E+01  0.10210643514E+01 0.  0.
     999903    2    3    3    0    0  0.52564045030E-01 -0.92279262250E-01 -0.77224431485E-01  0.13283132881E+00  0.20052631323E-01 0.  0.
         14    1    1    2    0    0  0.86429912219E-02  0.20861902090E-01 -0.12362830158E-02  0.22615230527E-01  0.00000000000E+00 0.  1.
     999901    1    3    3    0    0 -0.61207036252E-01  0.71417360160E-01  0.78460714501E-01  0.88848344067E+00  0.88000000000E+00 0. -1.
        -11    1    4    4    0    0  0.23070313914E-01 -0.59361740765E-01 -0.41725228721E-01  0.76140078037E-01  0.51100000000E-03 0. -1.
         11    1    4    4    0    0  0.29493731116E-01 -0.32917521486E-01 -0.35499202764E-01  0.56691250769E-01  0.51100000000E-03 0.  1.
</event>
<event>
 8    1  0.1202249E+005  0.1043930E+01  0.7957747E-01            NaN
         13   -1    0    0    0    0  0.00000000000E+00  0.00000000000E+00  0.74505805969E-08  0.10566000000E+00  0.10566000000E+00 0. -1.
     999900   -1    0    0    0    0 -0.00000000000E+00 -0.00000000000E+00 -0.74505805969E-08  0.93827000000E+00  0.93827000000E+00 0.  1.
     999902    2    1    2    0    0  0.15943591424E-01  0.15447779290E-01 -0.33398720101E-02  0.10214803511E+01  0.10212336270E+01 0.  0.
     999903    2    3    3    0    0  0.75048454384E-01  0.63847210409E-01 -0.88775470003E-01  0.13404858965E+00  0.19473148946E-01 0.  0.
         14    1    1    2    0    0 -0.15943591424E-01 -0.15447779290E-01  0.33398720101E-02  0.22449648940E-01  0.00000000000E+00 0. -1.
     999901    1    3    3    0    0 -0.59104862961E-01 -0.48399431119E-01  0.85435597993E-01  0.88743176141E+00  0.88000000000E+00 0. -1.
        -11    1    4    4    0    0  0.49426442643E-01  0.29977717132E-01 -0.54861335003E-01  0.79697327157E-01  0.51100000000E-03 0.  1.
         11    1    4    4    0    0  0.25622011742E-01  0.33869493276E-01 -0.33914135000E-01  0.54351262491E-01  0.51100000000E-03 0. -1.
</event>
<event>
 8    1  0.1202249E+005  0.1043930E+01  0.7957747E-01            NaN
         13   -1    0    0    0    0  0.00000000000E+00  0.00000000000E+00  0.74505805969E-08  0.10566000000E+00  0.10566000000E+00 0. -1.
     999900   -1    0    0    0    0 -0.00000000000E+00 -0.00000000000E+00 -0.74505805969E-08  0.93827000000E+00  0.93827000000E+00 0. -1.
     999902    2    1    2    0    0 -0.23768262359E-01  0.25167771119E-03  0.59209438266E-02  0.10194340572E+01  0.10191397087E+01 0.  0.
     999903    2    3    3    0    0 -0.96694035161E-01  0.82039045040E-01  0.32976952652E-01  0.13222530534E+00  0.17773874597E-01 0.  0.
         14    1    1    2    0    0  0.23768262359E-01 -0.25167771119E-03 -0.59209438266E-02  0.24495942787E-01  0.00000000000E+00 0.  1.
     999901    1    3    3    0    0  0.72925772802E-01 -0.81787367329E-01 -0.27056008825E-01  0.88720875188E+00  0.88000000000E+00 0.  1.
        -11    1    4    4    0    0 -0.48309306140E-01  0.51950629568E-01  0.15386638609E-01  0.72592470277E-01  0.51100000000E-03 0.  1.
         11    1    4    4    0    0 -0.48384729021E-01  0.30088415472E-01  0.17590314042E-01  0.59632835059E-01  0.51100000000E-03 0. -1.
</event>
<event>
 8    1  0.1202249E+005  0.1043930E+01  0.7957747E-01            NaN
         13   -1    0    0    0    0  0.00000000000E+00  0.00000000000E+00  0.74505805969E-08  0.10566000000E+00  0.10566000000E+00 0.  1.
     999900   -1    0    0    0    0 -0.00000000000E+00 -0.00000000000E+00 -0.74505805969E-08  0.93827000000E+00  0.93827000000E+00 0. -1.
     999902    2    1    2    0    0  0.50914141395E-02 -0.22116905498E-01  0.14337664238E-01  0.10170851006E+01  0.10167307674E+01 0.  0.
     999903    2    3    3    0    0  0.62104452118E-01  0.57535369259E-01 -0.90562997043E-01  0.12545786903E+00  0.19254578171E-01 0.  0.
         14    1    1    2    0    0 -0.50914141395E-02  0.22116905498E-01 -0.14337664238E-01  0.26844899377E-01  0.00000000000E+00 0. -1.
     999901    1    3    3    0    0 -0.57013037978E-01 -0.79652274757E-01  0.10490066128E+00  0.89162723159E+00  0.88000000000E+00 0.  1.
        -11    1    4    4    0    0  0.33342706341E-01  0.18967373672E-01 -0.45758806972E-01  0.59712870193E-01  0.51100000000E-03 0.  1.
         11    1    4    4    0    0  0.28761745777E-01  0.38567995587E-01 -0.44804190072E-01  0.65744998842E-01  0.51100000000E-03 0. -1.
</event>
<event>
 8    1  0.1202249E+005  0.1043930E+01  0.7957747E-01            NaN
         13   -1    0    0    0    0  0.00000000000E+00  0.00000000000E+00  0.74505805969E-08  0.10566000000E+00  0.10566000000E+00 0.  1.
     999900   -1    0    0    0    0 -0.00000000000E+00 -0.00000000000E+00 -0.74505805969E-08  0.93827000000E+00  0.93827000000E+00 0. -1.
     999902    2    1    2    0    0 -0.19079677068E-01 -0.66870410101E-02  0.40611846254E-02  0.10233085593E+01  0.10231007594E+01 0.  0.
     999903    2    3    3    0    0  0.93854777160E-01 -0.90575991577E-01 -0.58534943835E-02  0.13207915686E+00  0.19947702476E-01 0.  0.
         14    1    1    2    0    0  0.19079677068E-01  0.66870410101E-02 -0.40611846254E-02  0.20621440664E-01  0.00000000000E+00 0. -1.
     999901    1    3    3    0    0 -0.11293445423E+00  0.83888950567E-01  0.99146790089E-02  0.89122940248E+00  0.88000000000E+00 0. -1.
        -11    1    4    4    0    0  0.28722210518E-01 -0.15963615475E-01 -0.17058431765E-04  0.32864324245E-01  0.51100000000E-03 0.  1.
         11    1    4    4    0    0  0.65132566642E-01 -0.74612376103E-01 -0.58364359518E-02  0.99214832614E-01  0.51100000000E-03 0. -1.
</event>
<event>
 8    1  0.1202249E+005  0.1043930E+01  0.7957747E-01            NaN
         13   -1    0    0    0    0  0.00000000000E+00  0.00000000000E+00  0.74505805969E-08  0.10566000000E+00  0.10566000000E+00 0.  1.
     999900   -1    0    0    0    0 -0.00000000000E+00 -0.00000000000E+00 -0.74505805969E-08  0.93827000000E+00  0.93827000000E+00 0. -1.
     999902    2    1    2    0    0  0.15808702113E-02 -0.41823156438E-02 -0.23448483233E-01  0.10200590494E+01  0.10197797027E+01 0.  0.
     999903    2    3    3    0    0 -0.41607599373E-01  0.10463902318E+00 -0.60536279201E-01  0.13153058490E+00  0.30905277318E-01 0.  0.
         14    1    1    2    0    0 -0.15808702113E-02  0.41823156438E-02  0.23448483233E-01  0.23870950561E-01  0.00000000000E+00 0.  1.
     999901    1    3    3    0    0  0.43188469584E-01 -0.10882133883E+00  0.37087795968E-01  0.88852846454E+00  0.88000000000E+00 0.  1.
        -11    1    4    4    0    0 -0.15704096108E-01  0.60429496304E-01 -0.48055937156E-01  0.78790715666E-01  0.51100000000E-03 0.  1.
         11    1    4    4    0    0 -0.25903503264E-01  0.44209526877E-01 -0.12480342045E-01  0.52739869233E-01  0.51100000000E-03 0. -1.
</event>
<event>
 8    1  0.1202249E+005  0.1043930E+01  0.7957747E-01            NaN
         13   -1    0    0    0    0  0.00000000000E+00  0.00000000000E+00  0.74505805969E-08  0.10566000000E+00  0.10566000000E+00 0.  1.
     999900   -1    0    0    0    0 -0.00000000000E+00 -0.00000000000E+00 -0.74505805969E-08  0.93827000000E+00  0.93827000000E+00 0. -1.
     999902    2    1    2    0    0 -0.15443714230E-01 -0.17244261745E-01  0.28973239269E-02  0.10206004617E+01  0.10203337861E+01 0.  0.
     999903    2    3    3    0    0 -0.82043813864E-01  0.90857075685E-01  0.41155527826E-01  0.13066497942E+00  0.19833400605E-01 0.  0.
         14    1    1    2    0    0  0.15443714230E-01  0.17244261745E-01 -0.28973239269E-02  0.23329538321E-01  0.00000000000E+00 0.  1.
     999901    1    3    3    0    0  0.66600099634E-01 -0.10810133743E+00 -0.38258203899E-01  0.88993548226E+00  0.88000000000E+00 0. -1.
        -11    1    4    4    0    0 -0.56764827337E-01  0.71701576209E-01  0.37076603166E-01  0.98682811456E-01  0.51100000000E-03 0.  1.
         11    1    4    4    0    0 -0.25278986527E-01  0.19155499476E-01  0.40789246600E-02  0.31982167959E-01  0.51100000000E-03 0. -1.
</event>
<event>
 8    1  0.1202249E+005  0.1043930E+01  0.7957747E-01            NaN
         13   -1    0    0    0    0  0.00000000000E+00  0.00000000000E+00  0.74505805969E-08  0.10566000000E+00  0.10566000000E+00 0. -1.
     999900   -1    0    0    0    0 -0.00000000000E+00 -0.00000000000E+00 -0.74505805969E-08  0.93827000000E+00  0.93827000000E+00 0.  1.
     999902    2    1    2    0    0  0.45396151486E-02 -0.14881477480E-01 -0.17773774183E-01  0.10203085367E+01  0.10200350664E+01 0.  0.
     999903    2    3    3    0    0 -0.11632602718E+00  0.36735723524E-01 -0.41145941619E-01  0.13024163075E+00  0.19713850079E-01 0.  0.
         14    1    1    2    0    0 -0.45396151486E-02  0.14881477480E-01  0.17773774183E-01  0.23621463257E-01  0.00000000000E+00 0. -1.
     999901    1    3    3    0    0  0.12086564233E+00 -0.51617201003E-01  0.23372167435E-01  0.89006690599E+00  0.88000000000E+00 0. -1.
        -11    1    4    4    0    0 -0.87749683275E-01  0.19615619095E-01 -0.25689264261E-01  0.93514591624E-01  0.51100000000E-03 0.  1.
         11    1    4    4    0    0 -0.28576343910E-01  0.17120104429E-01 -0.15456677358E-01  0.36727039125E-01  0.51100000000E-03 0. -1.
</event>
<event>
 8    1  0.1202249E+005  0.1043930E+01  0.7957747E-01            NaN
         13   -1    0    0    0    0  0.00000000000E+00  0.00000000000E+00  0.74505805969E-08  0.10566000000E+00  0.10566000000E+00 0. -1.
     999900   -1    0    0    0    0 -0.00000000000E+00 -0.00000000000E+00 -0.74505805969E-08  0.93827000000E+00  0.93827000000E+00 0. -1.
     999902    2    1    2    0    0  0.52515731667E-02  0.72565004491E-02 -0.21978397011E-01  0.10201963582E+01  0.10199202535E+01 0.  0.
     999903    2    3    3    0    0 -0.94711709618E-01 -0.71360730772E-01  0.45085746493E-01  0.12852886056E+00  0.20598097589E-01 0.  0.
         14    1    1    2    0    0 -0.52515731667E-02 -0.72565004491E-02  0.21978397011E-01  0.23733641833E-01  0.00000000000E+00 0. -1.
     999901    1    3    3    0    0  0.99963282785E-01  0.78617231221E-01 -0.67064143504E-01  0.89166749761E+00  0.88000000000E+00 0. -1.
        -11    1    4    4    0    0 -0.46204967853E-01 -0.41792035950E-01  0.32779162730E-01  0.70400340577E-01  0.51100000000E-03 0. -1.
         11    1    4    4    0    0 -0.48506741765E-01 -0.29568694821E-01  0.12306583763E-01  0.58128519980E-01  0.51100000000E-03 0.  1.
</event>
<event>
 8    1  0.1202249E+005  0.1043930E+01  0.7957747E-01            NaN
         13   -1    0    0    0    0  0.00000000000E+00  0.00000000000E+00  0.74505805969E-08  0.10566000000E+00  0.10566000000E+00 0.  1.
     999900   -1    0    0    0    0 -0.00000000000E+00 -0.00000000000E+00 -0.74505805969E-08  0.93827000000E+00  0.93827000000E+00 0.  1.
     999902    2    1    2    0    0  0.19949906270E-01 -0.46844370830E-02 -0.11504829637E-01  0.10204288550E+01  0.10201581957E+01 0.  0.
     999903    2    3    3    0    0  0.79023971730E-01  0.77278423251E-01  0.67912909369E-01  0.13109492844E+00  0.18893760727E-01 0.  0.
         14    1    1    2    0    0 -0.19949906270E-01  0.46844370830E-02  0.11504829637E-01  0.23501144992E-01  0.00000000000E+00 0.  1.
     999901    1    3    3    0    0 -0.59074065460E-01 -0.81962860334E-01 -0.79417739006E-01  0.88933392657E+00  0.88000000000E+00 0.  1.
        -11    1    4    4    0    0  0.60000782514E-01  0.68741071320E-01  0.54085405692E-01  0.10607035881E+00  0.51100000000E-03 0.  1.
         11    1    4    4    0    0  0.19023189216E-01  0.85373519315E-02  0.13827503677E-01  0.25024569624E-01  0.51100000000E-03 0. -1.
</event>
<event>
 8    1  0.1202249E+005  0.1043930E+01  0.7957747E-01            NaN
         13   -1    0    0    0    0  0.00000000000E+00  0.00000000000E+00  0.74505805969E-08  0.10566000000E+00  0.10566000000E+00 0. -1.
     999900   -1    0    0    0    0 -0.00000000000E+00 -0.00000000000E+00 -0.74505805969E-08  0.93827000000E+00  0.93827000000E+00 0.  1.
     999902    2    1    2    0    0  0.71268925440E-02  0.23719539585E-01  0.48095243392E-02  0.10187002422E+01  0.10183877664E+01 0.  0.
     999903    2    3    3    0    0  0.56328851747E-01 -0.44284002132E-01  0.10539782652E+00  0.12900179832E+00  0.19968719288E-01 0.  0.
         14    1    1    2    0    0 -0.71268925440E-02 -0.23719539585E-01 -0.48095243392E-02  0.25229757823E-01  0.00000000000E+00 0.  1.
     999901    1    3    3    0    0 -0.49201959203E-01  0.68003541717E-01 -0.10058830218E+00  0.88969844386E+00  0.88000000000E+00 0.  1.
        -11    1    4    4    0    0  0.34600645620E-01 -0.23305974013E-01  0.44351495470E-01  0.60890798759E-01  0.51100000000E-03 0. -1.
         11    1    4    4    0    0  0.21728206127E-01 -0.20978028119E-01  0.61046331047E-01  0.68110999556E-01  0.51100000000E-03 0.  1.
</event>
<event>
 8    1  0.1202249E+005  0.1043930E+01  0.7957747E-01            NaN
         13   -1    0    0    0    0  0.00000000000E+00  0.00000000000E+00  0.74505805969E-08  0.10566000000E+00  0.10566000000E+00 0. -1.
     999900   -1    0    0    0    0 -0.00000000000E+00 -0.00000000000E+00 -0.74505805969E-08  0.93827000000E+00  0.93827000000E+00 0.  1.
     999902    2    1    2    0    0  0.17797268255E-01 -0.13701440803E-01  0.43473385190E-02  0.10210526840E+01  0.10207963616E+01 0.  0.
     999903    2    3    3    0    0 -0.95387666962E-01  0.82851560083E-01 -0.99143221521E-02  0.12845159359E+00  0.20936334364E-01 0.  0.
         14    1    1    2    0    0 -0.17797268255E-01  0.13701440803E-01 -0.43473385190E-02  0.22877316049E-01  0.00000000000E+00 0.  1.
     999901    1    3    3    0    0  0.11318493522E+00 -0.96553000886E-01  0.14261660671E-01  0.89260109036E+00  0.88000000000E+00 0. -1.
        -11    1    4    4    0    0 -0.82168782434E-02  0.16138988163E-01  0.96509596380E-03  0.18143223479E-01  0.51100000000E-03 0.  1.
         11    1    4    4    0    0 -0.87170788718E-01  0.66712571920E-01 -0.10879418116E-01  0.11030837012E+00  0.51100000000E-03 0. -1.
</event>
<event>
 8    1  0.1202249E+005  0.1043930E+01  0.7957747E-01            NaN
         13   -1    0    0    0    0  0.00000000000E+00  0.00000000000E+00  0.74505805969E-08  0.10566000000E+00  0.10566000000E+00 0. -1.
     999900   -1    0    0    0    0 -0.00000000000E+00 -0.00000000000E+00 -0.74505805969E-08  0.93827000000E+00  0.93827000000E+00 0.  1.
     999902    2    1    2    0    0  0.12557817403E-01  0.19145876557E-01 -0.67210104590E-02  0.10200671555E+01  0.10197880007E+01 0.  0.
     999903    2    3    3    0    0 -0.15113784451E-02  0.10805499905E+00  0.73062417327E-01  0.13188464626E+00  0.19423594126E-01 0.  0.
         14    1    1    2    0    0 -0.12557817403E-01 -0.19145876557E-01  0.67210104590E-02  0.23862844521E-01  0.00000000000E+00 0.  1.
     999901    1    3    3    0    0  0.14069195849E-01 -0.88909122492E-01 -0.79783427786E-01  0.88818250922E+00  0.88000000000E+00 0. -1.
        -11    1    4    4    0    0  0.24003161093E-02  0.40330740489E-01  0.38233447928E-01  0.55627221819E-01  0.51100000000E-03 0. -1.
         11    1    4    4    0    0 -0.39116945544E-02  0.67724258560E-01  0.34828969400E-01  0.76257424440E-01  0.51100000000E-03 0.  1.
</event>
<event>
 8    1  0.1202249E+005  0.1043930E+01  0.7957747E-01            NaN
         13   -1    0    0    0    0  0.00000000000E+00  0.00000000000E+00  0.74505805969E-08  0.10566000000E+00  0.10566000000E+00 0. -1.
     999900   -1    0    0    0    0 -0.00000000000E+00 -0.00000000000E+00 -0.74505805969E-08  0.93827000000E+00  0.93827000000E+00 0. -1.
     999902    2    1    2    0    0  0.69010818466E-03 -0.12044427229E-01 -0.20280213791E-01  0.10203327216E+01  0.10200598175E+01 0.  0.
     999903    2    3    3    0    0 -0.69097926811E-01 -0.11053953015E+00 -0.11129965394E-02  0.13188517821E+00  0.19973739182E-01 0.  0.
         14    1    1    2    0    0 -0.69010818466E-03  0.12044427229E-01  0.20280213791E-01  0.23597278402E-01  0.00000000000E+00 0. -1.
     999901    1    3    3    0    0  0.69788034996E-01  0.98495102917E-01 -0.19167217252E-01  0.88844754338E+00  0.88000000000E+00 0. -1.
        -11    1    4    4    0    0 -0.51995138336E-01 -0.72556676525E-01  0.66378104103E-02  0.89511381215E-01  0.51100000000E-03 0. -1.
         11    1    4    4    0    0 -0.17102788475E-01 -0.37982853620E-01 -0.77508069497E-02  0.42373796999E-01  0.51100000000E-03 0.  1.
</event>
<event>
 8    1  0.1202249E+005  0.1043930E+01  0.7957747E-01            NaN
         13   -1    0    0    0    0  0.00000000000E+00  0.00000000000E+00  0.74505805969E-08  0.10566000000E+00  0.10566000000E+00 0. -1.
     999900   -1    0    0    0    0 -0.00000000000E+00 -0.00000000000E+00 -0.74505805969E-08  0.93827000000E+00  0.93827000000E+00 0. -1.
     999902    2    1    2    0    0  0.25180375760E-02  0.71955879305E-02 -0.21719543907E-01  0.10209114078E+01  0.10206518736E+01 0.  0.
     999903    2    3    3    0    0 -0.27441216098E-01  0.10778260871E+00  0.65764558854E-01  0.13036731914E+00  0.17336366863E-01 0.  0.
         14    1    1    2    0    0 -0.25180375760E-02 -0.71955879305E-02  0.21719543907E-01  0.23018592190E-01  0.00000000000E+00 0. -1.
     999901    1    3    3    0    0  0.29959253674E-01 -0.10058702078E+00 -0.87484102761E-01  0.89054408867E+00  0.88000000000E+00 0. -1.
        -11    1    4    4    0    0 -0.27372270949E-01  0.85125409325E-01  0.47450486900E-01  0.10122937497E+00  0.51100000000E-03 0. -1.
         11    1    4    4    0    0 -0.68945148964E-04  0.22657199389E-01  0.18314071954E-01  0.29137944164E-01  0.51100000000E-03 0.  1.
</event>
<event>
 8    1  0.1202249E+005  0.1043930E+01  0.7957747E-01            NaN
         13   -1    0    0    0    0  0.00000000000E+00  0.00000000000E+00  0.74505805969E-08  0.10566000000E+00  0.10566000000E+00 0.  1.
     999900   -1    0    0    0    0 -0.00000000000E+00 -0.00000000000E+00 -0.74505805969E-08  0.93827000000E+00  0.93827000000E+00 0. -1.
     999902    2    1    2    0    0 -0.97900722807E-02  0.19873191686E-01 -0.11769485857E-01  0.10188439469E+01  0.10185350647E+01 0.  0.
     999903    2    3    3    0    0  0.11221994193E+00  0.41745117437E-01  0.42366649894E-01  0.12850943341E+00  0.19590080566E-01 0.  0.
         14    1    1    2    0    0  0.97900722807E-02 -0.19873191686E-01  0.11769485857E-01  0.25086053105E-01  0.00000000000E+00 0.  1.
     999901    1    3    3    0    0 -0.12201001421E+00 -0.21871925751E-01 -0.54136135751E-01  0.89033451348E+00  0.88000000000E+00 0. -1.
        -11    1    4    4    0    0  0.55475730463E-01  0.24352095159E-01  0.11714981294E-01  0.61709667936E-01  0.51100000000E-03 0.  1.
         11    1    4    4    0    0  0.56744211465E-01  0.17393022278E-01  0.30651668601E-01  0.66799765477E-01  0.51100000000E-03 0. -1.
</event>
<event>
 8    1  0.1202249E+005  0.1043930E+01  0.7957747E-01            NaN
         13   -1    0    0    0    0  0.00000000000E+00  0.00000000000E+00  0.74505805969E-08  0.10566000000E+00  0.10566000000E+00 0. -1.
     999900   -1    0    0    0    0 -0.00000000000E+00 -0.00000000000E+00 -0.74505805969E-08  0.93827000000E+00  0.93827000000E+00 0. -1.
     999902    2    1    2    0    0  0.92058893870E-02 -0.47980096004E-02 -0.20758858629E-01  0.10207200989E+01  0.10204561827E+01 0.  0.
     999903    2    3    3    0    0 -0.15803645044E-01 -0.88508531315E-01 -0.96083727927E-01  0.13319164070E+00  0.20601336542E-01 0.  0.
         14    1    1    2    0    0 -0.92058893870E-02  0.47980096004E-02  0.20758858629E-01  0.23209901058E-01  0.00000000000E+00 0. -1.
     999901    1    3    3    0    0  0.25009534431E-01  0.83710521714E-01  0.75324869298E-01  0.88752845824E+00  0.88000000000E+00 0. -1.
        -11    1    4    4    0    0 -0.61490976662E-02 -0.20591181923E-01 -0.36339852581E-01  0.42221489572E-01  0.51100000000E-03 0.  1.
         11    1    4    4    0    0 -0.96545473774E-02 -0.67917349392E-01 -0.59743875346E-01  0.90970151126E-01  0.51100000000E-03 0. -1.
</event>
<event>
 8    1  0.1202249E+005  0.1043930E+01  0.7957747E-01            NaN
         13   -1    0    0    0    0  0.00000000000E+00  0.00000000000E+00  0.74505805969E-08  0.10566000000E+00  0.10566000000E+00 0. -1.
     999900   -1    0    0    0    0 -0.00000000000E+00 -0.00000000000E+00 -0.74505805969E-08  0.93827000000E+00  0.93827000000E+00 0.  1.
     999902    2    1    2    0    0  0.24991809820E-02  0.12727782042E-02 -0.21451106308E-01  0.10222963264E+01  0.10220673966E+01 0.  0.
     999903    2    3    3    0    0  0.93225758620E-01 -0.68708925986E-01  0.58286640734E-01  0.13129303850E+00  0.20701953789E-01 0.  0.
         14    1    1    2    0    0 -0.24991809820E-02 -0.12727782042E-02  0.21451106308E-01  0.21633673561E-01  0.00000000000E+00 0. -1.
     999901    1    3    3    0    0 -0.90726577638E-01  0.69981704190E-01 -0.79737747041E-01  0.89100328794E+00  0.88000000000E+00 0.  1.
        -11    1    4    4    0    0  0.58244787046E-01 -0.44715516727E-01  0.25696304864E-01  0.77797775411E-01  0.51100000000E-03 0. -1.
         11    1    4    4    0    0  0.34980971573E-01 -0.23993409259E-01  0.32590335869E-01  0.53495263091E-01  0.51100000000E-03 0.  1.
</event>
<event>
 8    1  0.1202249E+005  0.1043930E+01  0.7957747E-01            NaN
         13   -1    0    0    0    0  0.00000000000E+00  0.00000000000E+00  0.74505805969E-08  0.10566000000E+00  0.10566000000E+00 0.  1.
     999900   -1    0    0    0    0 -0.00000000000E+00 -0.00000000000E+00 -0.74505805969E-08  0.93827000000E+00  0.93827000000E+00 0.  1.
     999902    2    1    2    0    0 -0.20927837865E-01  0.10990445846E-01  0.82668721087E-02  0.10188879260E+01  0.10185801393E+01 0.  0.
     999903    2    3    3    0    0 -0.57914431695E-01 -0.51080305083E-01 -0.10162699322E+00  0.12911410758E+00  0.19471211029E-01 0.  0.
         14    1    1    2    0    0  0.20927837865E-01 -0.10990445846E-01 -0.82668721087E-02  0.25042074036E-01  0.00000000000E+00 0. -1.
     999901    1    3    3    0    0  0.36986593830E-01  0.62070750929E-01  0.10989386533E+00  0.88977381838E+00  0.88000000000E+00 0. -1.
        -11    1    4    4    0    0 -0.78061933713E-02 -0.12402622180E-01 -0.30859525224E-01  0.34166256891E-01  0.51100000000E-03 0. -1.
         11    1    4    4    0    0 -0.50108238323E-01 -0.38677682902E-01 -0.70767467998E-01  0.94947850689E-01  0.51100000000E-03 0.  1.
</event>
<event>
 8    1  0.1202249E+005  0.1043930E+01  0.7957747E-01            NaN
         13   -1    0    0    0    0  0.00000000000E+00  0.00000000000E+00  0.74505805969E-08  0.10566000000E+00  0.10566000000E+00 0. -1.
     999900   -1    0    0    0    0 -0.00000000000E+00 -0.00000000000E+00 -0.74505805969E-08  0.93827000000E+00  0.93827000000E+00 0.  1.
     999902    2    1    2    0    0  0.16568713411E-01  0.68010716123E-03  0.17891857801E-01  0.10195352591E+01  0.10192433670E+01 0.  0.
     999903    2    3    3    0    0 -0.10654621961E-01  0.36032732730E-01 -0.12046994684E+00  0.12760762349E+00  0.18942509969E-01 0.  0.
         14    1    1    2    0    0 -0.16568713411E-01 -0.68010716123E-03 -0.17891857801E-01  0.24394740937E-01  0.00000000000E+00 0.  1.
     999901    1    3    3    0    0  0.27223335372E-01 -0.35352625569E-01  0.13836180464E+00  0.89192763558E+00  0.88000000000E+00 0. -1.
        -11    1    4    4    0    0 -0.48147613437E-03  0.89806479648E-02 -0.58958998975E-01  0.59643176796E-01  0.51100000000E-03 0. -1.
         11    1    4    4    0    0 -0.10173145827E-01  0.27052084765E-01 -0.61510947861E-01  0.67964446690E-01  0.51100000000E-03 0.  1.
</event>
<event>
 8    1  0.1202249E+005  0.1043930E+01  0.7957747E-01            NaN
         13   -1    0    0    0    0  0.00000000000E+00  0.00000000000E+00  0.74505805969E-08  0.10566000000E+00  0.10566000000E+00 0. -1.
     999900   -1    0    0    0    0 -0.00000000000E+00 -0.00000000000E+00 -0.74505805969E-08  0.93827000000E+00  0.93827000000E+00 0.  1.
     999902    2    1    2    0    0  0.13810891026E-01  0.15459420114E-01  0.97574476715E-02  0.10210183836E+01  0.10207612833E+01 0.  0.
     999903    2    3    3    0    0 -0.11364715572E+00  0.53691169863E-01 -0.26848387388E-01  0.13026184698E+00  0.21187145791E-01 0.  0.
         14    1    1    2    0    0 -0.13810891026E-01 -0.15459420114E-01 -0.97574476715E-02  0.22911616405E-01  0.00000000000E+00 0. -1.
     999901    1    3    3    0    0  0.12745804675E+00 -0.38231749748E-01  0.36605835060E-01  0.89075653662E+00  0.88000000000E+00 0. -1.
        -11    1    4    4    0    0 -0.81527241561E-01  0.43007601350E-01 -0.10835013420E-01  0.92811656203E-01  0.51100000000E-03 0.  1.
         11    1    4    4    0    0 -0.32119914163E-01  0.10683568513E-01 -0.16013373969E-01  0.37450190772E-01  0.51100000000E-03 0. -1.
</event>
<event>
 8    1  0.1202249E+005  0.1043930E+01  0.7957747E-01            NaN
         13   -1    0    0    0    0  0.00000000000E+00  0.00000000000E+00  0.74505805969E-08  0.10566000000E+00  0.10566000000E+00 0.  1.
     999900   -1    0    0    0    0 -0.00000000000E+00 -0.00000000000E+00 -0.74505805969E-08  0.93827000000E+00  0.93827000000E+00 0. -1.
     999902    2    1    2    0    0  0.15995882939E-01  0.24161167352E-01  0.66853672060E-02  0.10141924074E+01  0.10137563390E+01 0.  0.
     999903    2    3    3    0    0 -0.85661767205E-01  0.55487936353E-01  0.70338150009E-01  0.12550386745E+00  0.19670179362E-01 0.  0.
         14    1    1    2    0    0 -0.15995882939E-01 -0.24161167352E-01 -0.66853672060E-02  0.29737592598E-01  0.00000000000E+00 0. -1.
     999901    1    3    3    0    0  0.10165765014E+00 -0.31326769001E-01 -0.63652782803E-01  0.88868853996E+00  0.88000000000E+00 0. -1.
        -11    1    4    4    0    0 -0.76840869673E-01  0.43898333102E-01  0.54277089884E-01  0.10381640770E+00  0.51100000000E-03 0. -1.
         11    1    4    4    0    0 -0.88208975317E-02  0.11589603251E-01  0.16061060125E-01  0.21687459743E-01  0.51100000000E-03 0.  1.
</event>
<event>
 8    1  0.1202249E+005  0.1043930E+01  0.7957747E-01            NaN
         13   -1    0    0    0    0  0.00000000000E+00  0.00000000000E+00  0.74505805969E-08  0.10566000000E+00  0.10566000000E+00 0. -1.
     999900   -1    0    0    0    0 -0.00000000000E+00 -0.00000000000E+00 -0.74505805969E-08  0.93827000000E+00  0.93827000000E+00 0.  1.
     999902    2    1    2    0    0 -0.94185629866E-02  0.21177783748E-01  0.44582349234E-02  0.10203273791E+01  0.10200543500E+01 0.  0.
     999903    2    3    3    0    0  0.29535048233E-01 -0.78488149632E-01 -0.95180385382E-01  0.12826317922E+00  0.18958604273E-01 0.  0.
         14    1    1    2    0    0  0.94185629866E-02 -0.21177783748E-01 -0.44582349234E-02  0.23602620868E-01  0.00000000000E+00 0. -1.
     999901    1    3    3    0    0 -0.38953611219E-01  0.99665933380E-01  0.99638620305E-01  0.89206419991E+00  0.88000000000E+00 0. -1.
        -11    1    4    4    0    0  0.16405961046E-01 -0.59362217377E-01 -0.59055499682E-01  0.85327847585E-01  0.51100000000E-03 0.  1.
         11    1    4    4    0    0  0.13129087187E-01 -0.19125932255E-01 -0.36124885700E-01  0.42935331638E-01  0.51100000000E-03 0. -1.
</event>
<event>
 8    1  0.1202249E+005  0.1043930E+01  0.7957747E-01            NaN
         13   -1    0    0    0    0  0.00000000000E+00  0.00000000000E+00  0.74505805969E-08  0.10566000000E+00  0.10566000000E+00 0.  1.
     999900   -1    0    0    0    0 -0.00000000000E+00 -0.00000000000E+00 -0.74505805969E-08  0.93827000000E+00  0.93827000000E+00 0.  1.
     999902    2    1    2    0    0  0.30130444707E-02 -0.23628942184E-01  0.30741326156E-03  0.10201077447E+01  0.10198295499E+01 0.  0.
     999903    2    3    3    0    0 -0.56565379387E-01  0.60972176283E-01  0.96323075875E-01  0.12885809093E+00  0.20224347371E-01 0.  0.
         14    1    1    2    0    0 -0.30130444707E-02  0.23628942184E-01 -0.30741326156E-03  0.23822255322E-01  0.00000000000E+00 0. -1.
     999901    1    3    3    0    0  0.59578423858E-01 -0.84601118467E-01 -0.96015662614E-01  0.89124965375E+00  0.88000000000E+00 0.  1.
        -11    1    4    4    0    0 -0.32539894221E-01  0.20722825477E-01  0.39906452292E-01  0.55507353271E-01  0.51100000000E-03 0.  1.
         11    1    4    4    0    0 -0.24025485166E-01  0.40249350806E-01  0.56416623583E-01  0.73350737660E-01  0.51100000000E-03 0. -1.
</event>
<event>
 8    1  0.1202249E+005  0.1043930E+01  0.7957747E-01            NaN
         13   -1    0    0    0    0  0.00000000000E+00  0.00000000000E+00  0.74505805969E-08  0.10566000000E+00  0.10566000000E+00 0.  1.
     999900   -1    0    0    0    0 -0.00000000000E+00 -0.00000000000E+00 -0.74505805969E-08  0.93827000000E+00  0.93827000000E+00 0. -1.
     999902    2    1    2    0    0 -0.13466389556E-01 -0.74252396700E-03 -0.17720439421E-01  0.10216609865E+01  0.10214182602E+01 0.  0.
     999903    2    3    3    0    0 -0.23815189829E-02 -0.69193278342E-01  0.10826193787E+00  0.12998843475E+00  0.19569480779E-01 0.  0.
         14    1    1    2    0    0  0.13466389556E-01  0.74252396700E-03  0.17720439421E-01  0.22269013512E-01  0.00000000000E+00 0.  1.
     999901    1    3    3    0    0 -0.11084870573E-01  0.68450754375E-01 -0.12598237729E+00  0.89167255174E+00  0.88000000000E+00 0. -1.
        -11    1    4    4    0    0  0.19385347262E-02 -0.66009111674E-03  0.92860159147E-02  0.95228593256E-02  0.51100000000E-03 0. -1.
         11    1    4    4    0    0 -0.43200537091E-02 -0.68533187225E-01  0.98975921955E-01  0.12046557543E+00  0.51100000000E-03 0.  1.
</event>
<event>
 8    1  0.1202249E+005  0.1043930E+01  0.7957747E-01            NaN
         13   -1    0    0    0    0  0.00000000000E+00  0.00000000000E+00  0.74505805969E-08  0.10566000000E+00  0.10566000000E+00 0.  1.
     999900   -1    0    0    0    0 -0.00000000000E+00 -0.00000000000E+00 -0.74505805969E-08  0.93827000000E+00  0.93827000000E+00 0. -1.
     999902    2    1    2    0    0  0.76147909587E-03  0.82841541225E-02  0.21836300820E-01  0.10205626918E+01  0.10202951420E+01 0.  0.
     999903    2    3    3    0    0 -0.10434516097E+00  0.25476395545E-01 -0.69501674992E-01  0.12944788168E+00  0.19730988279E-01 0.  0.
         14    1    1    2    0    0 -0.76147909587E-03 -0.82841541225E-02 -0.21836300820E-01  0.23367308220E-01  0.00000000000E+00 0. -1.
     999901    1    3    3    0    0  0.10510664006E+00 -0.17192241423E-01  0.91337975812E-01  0.89111481010E+00  0.88000000000E+00 0.  1.
        -11    1    4    4    0    0 -0.36220933165E-01  0.18237340678E-01 -0.29050728008E-01  0.49887498565E-01  0.51100000000E-03 0.  1.
         11    1    4    4    0    0 -0.68124227801E-01  0.72390548674E-02 -0.40450946985E-01  0.79560383117E-01  0.51100000000E-03 0. -1.
</event>
<event>
 8    1  0.1202249E+005  0.1043930E+01  0.7957747E-01            NaN
         13   -1    0    0    0    0  0.00000000000E+00  0.00000000000E+00  0.74505805969E-08  0.10566000000E+00  0.10566000000E+00 0.  1.
     999900   -1    0    0    0    0 -0.00000000000E+00 -0.00000000000E+00 -0.74505805969E-08  0.93827000000E+00  0.93827000000E+00 0. -1.
     999902    2    1    2    0    0  0.19079680922E-01  0.12013397462E-01 -0.62037765206E-02  0.10205453301E+01  0.10202773780E+01 0.  0.
     999903    2    3    3    0    0  0.21101188254E-02 -0.10295655631E+00  0.74711619281E-01  0.12922419966E+00  0.22639846181E-01 0.  0.
         14    1    1    2    0    0 -0.19079680922E-01 -0.12013397462E-01  0.62037765206E-02  0.23384669889E-01  0.00000000000E+00 0.  1.
     999901    1    3    3    0    0  0.16969562097E-01  0.11496995377E+00 -0.80915395802E-01  0.89132113045E+00  0.88000000000E+00 0. -1.
        -11    1    4    4    0    0 -0.19084616726E-02 -0.43136742230E-01  0.18294860827E-01  0.46897588529E-01  0.51100000000E-03 0.  1.
         11    1    4    4    0    0  0.40185804981E-02 -0.59819814076E-01  0.56416758454E-01  0.82326611134E-01  0.51100000000E-03 0. -1.
</event>
<event>
 8    1  0.1202249E+005  0.1043930E+01  0.7957747E-01            NaN
         13   -1    0    0    0    0  0.00000000000E+00  0.00000000000E+00  0.74505805969E-08  0.10566000000E+00  0.10566000000E+00 0. -1.
     999900   -1    0    0    0    0 -0.00000000000E+00 -0.00000000000E+00 -0.74505805969E-08  0.93827000000E+00  0.93827000000E+00 0.  1.
     999902    2    1    2    0    0 -0.16572827302E-01 -0.15199195864E-01  0.25211696516E-02  0.10213019100E+01  0.10210512039E+01 0.  0.
     999903    2    3    3    0    0 -0.10392915834E+00 -0.81194427062E-01  0.16859375724E-01  0.13440164321E+00  0.19640728343E-01 0.  0.
         14    1    1    2    0    0  0.16572827302E-01  0.15199195864E-01 -0.25211696516E-02  0.22628089979E-01  0.00000000000E+00 0. -1.
     999901    1    3    3    0    0  0.87356331034E-01  0.65995231198E-01 -0.14338206073E-01  0.88690026681E+00  0.88000000000E+00 0. -1.
        -11    1    4    4    0    0 -0.99700785566E-01 -0.81319536715E-01  0.18186168733E-01  0.12993887620E+00  0.51100000000E-03 0.  1.
         11    1    4    4    0    0 -0.42283727705E-02  0.12510965318E-03 -0.13267930090E-02  0.44627670117E-02  0.51100000000E-03 0. -1.
</event>
<event>
 8    1  0.1202249E+005  0.1043930E+01  0.7957747E-01            NaN
         13   -1    0    0    0    0  0.00000000000E+00  0.00000000000E+00  0.74505805969E-08  0.10566000000E+00  0.10566000000E+00 0. -1.
     999900   -1    0    0    0    0 -0.00000000000E+00 -0.00000000000E+00 -0.74505805969E-08  0.93827000000E+00  0.93827000000E+00 0. -1.
     999902    2    1    2    0    0  0.19694497744E-01  0.48088378659E-02  0.39278381587E-02  0.10232799134E+01  0.10230715298E+01 0.  0.
     999903    2    3    3    0    0 -0.11981043345E+00  0.12709199904E-01  0.47596587873E-01  0.13118630777E+00  0.20696580495E-01 0.  0.
         14    1    1    2    0    0 -0.19694497744E-01 -0.48088378659E-02 -0.39278381587E-02  0.20650086576E-01  0.00000000000E+00 0. -1.
     999901    1    3    3    0    0  0.13950493119E+00 -0.79003620384E-02 -0.43668749714E-01  0.89209360565E+00  0.88000000000E+00 0.  1.
        -11    1    4    4    0    0 -0.10732550484E+00  0.17085488855E-01  0.39319528480E-01  0.11557233389E+00  0.51100000000E-03 0. -1.
         11    1    4    4    0    0 -0.12484928606E-01 -0.43762889505E-02  0.82770593930E-02  0.15613973885E-01  0.51100000000E-03 0.  1.
</event>
<event>
 8    1  0.1202249E+005  0.1043930E+01  0.7957747E-01            NaN
         13   -1    0    0    0    0  0.00000000000E+00  0.00000000000E+00  0.74505805969E-08  0.10566000000E+00  0.10566000000E+00 0.  1.
     999900   -1    0    0    0    0 -0.00000000000E+00 -0.00000000000E+00 -0.74505805969E-08  0.93827000000E+00  0.93827000000E+00 0.  1.
     999902    2    1    2    0    0 -0.23490770744E-01  0.90255567284E-02  0.25763214429E-02  0.10186334703E+01  0.10183193175E+01 0.  0.
     999903    2    3    3    0    0 -0.59218235881E-01  0.24291297482E-01  0.11266655516E+00  0.13092329562E+00  0.18716038323E-01 0.  0.
         14    1    1    2    0    0  0.23490770744E-01 -0.90255567284E-02 -0.25763214429E-02  0.25296529734E-01  0.00000000000E+00 0.  1.
     999901    1    3    3    0    0  0.35727465138E-01 -0.15265740754E-01 -0.11009023372E+00  0.88771017464E+00  0.88000000000E+00 0.  1.
        -11    1    4    4    0    0 -0.45274076804E-01  0.26621573133E-01  0.87541589565E-01  0.10208937854E+00  0.51100000000E-03 0. -1.
         11    1    4    4    0    0 -0.13944159077E-01 -0.23302756514E-02  0.25124965596E-01  0.28833917080E-01  0.51100000000E-03 0.  1.
</event>
<event>
 8    1  0.1202249E+005  0.1043930E+01  0.7957747E-01            NaN
         13   -1    0    0    0    0  0.00000000000E+00  0.00000000000E+00  0.74505805969E-08  0.10566000000E+00  0.10566000000E+00 0.  1.
     999900   -1    0    0    0    0 -0.00000000000E+00 -0.00000000000E+00 -0.74505805969E-08  0.93827000000E+00  0.93827000000E+00 0. -1.
     999902    2    1    2    0    0  0.58402567506E-02  0.21454319518E-01  0.86814179459E-02  0.10200602819E+01  0.10197809644E+01 0.  0.
     999903    2    3    3    0    0 -0.32904455865E-01  0.12659617124E+00 -0.11408956673E-01  0.13272743291E+00  0.19419406961E-01 0.  0.
         14    1    1    2    0    0 -0.58402567506E-02 -0.21454319518E-01 -0.86814179459E-02  0.23869718105E-01  0.00000000000E+00 0. -1.
     999901    1    3    3    0    0  0.38744712616E-01 -0.10514185172E+00  0.20090374619E-01  0.88733284899E+00  0.88000000000E+00 0.  1.
        -11    1    4    4    0    0 -0.83580003342E-02  0.48234124110E-01  0.42129016411E-02  0.49136509436E-01  0.51100000000E-03 0.  1.
         11    1    4    4    0    0 -0.24546455531E-01  0.78362047125E-01 -0.15621858314E-01  0.83590923472E-01  0.51100000000E-03 0. -1.
</event>
<event>
 7    1  0.1202249E+005  0.1043930E+01  0.7957747E-01            NaN
         13   -1    0    0    0    0  0.00000000000E+00  0.00000000000E+00  0.74505805969E-08  0.10566000000E+00  0.10566000000E+00 0.  1.
     999900   -1    0    0    0    0 -0.00000000000E+00 -0.00000000000E+00 -0.74505805969E-08  0.93827000000E+00  0.93827000000E+00 0.  1.
     999902    2    1    2    0    0  0.16555705734E-01  0.51258227043E-02 -0.16831005910E-01  0.10197711877E+01  0.10194849813E+01 0.  0.
         14    1    1    2    0    0 -0.16555705734E-01 -0.51258227043E-02  0.16831005910E-01  0.24158812278E-01  0.00000000000E+00 0.  1.
     999901    1    3    3    0    0 -0.11439174699E+00  0.89286165829E-02 -0.30530392386E-01  0.88797370278E+00  0.88000000000E+00 0. -1.
        -11    1    3    3    0    0  0.74721611571E-01 -0.34787877041E-02  0.96248919224E-02  0.75420957732E-01  0.51100000000E-03 0. -1.
         11    1    3    3    0    0  0.56225841151E-01 -0.32400617450E-03  0.40744945540E-02  0.56376527208E-01  0.51100000000E-03 0.  1.
</event>
<event>
 8    1  0.1202249E+005  0.1043930E+01  0.7957747E-01            NaN
         13   -1    0    0    0    0  0.00000000000E+00  0.00000000000E+00  0.74505805969E-08  0.10566000000E+00  0.10566000000E+00 0.  1.
     999900   -1    0    0    0    0 -0.00000000000E+00 -0.00000000000E+00 -0.74505805969E-08  0.93827000000E+00  0.93827000000E+00 0. -1.
     999902    2    1    2    0    0  0.56337861923E-02  0.22301938697E-01  0.32026357233E-02  0.10207055971E+01  0.10204413471E+01 0.  0.
     999903    2    3    3    0    0  0.36094532183E-01  0.17107731717E-01 -0.12316961505E+00  0.13114121906E+00  0.20779209025E-01 0.  0.
         14    1    1    2    0    0 -0.56337861923E-02 -0.22301938697E-01 -0.32026357233E-02  0.23224402943E-01  0.00000000000E+00 0. -1.
     999901    1    3    3    0    0 -0.30460745991E-01  0.51942069798E-02  0.12637225077E+00  0.88956437800E+00  0.88000000000E+00 0.  1.
        -11    1    4    4    0    0  0.31832742912E-01  0.52263187043E-02 -0.83889735197E-01  0.89879846022E-01  0.51100000000E-03 0.  1.
         11    1    4    4    0    0  0.42617892716E-02  0.11881413012E-01 -0.39279879852E-01  0.41261373040E-01  0.51100000000E-03 0. -1.
</event>
<event>
 8    1  0.1202249E+005  0.1043930E+01  0.7957747E-01            NaN
         13   -1    0    0    0    0  0.00000000000E+00  0.00000000000E+00  0.74505805969E-08  0.10566000000E+00  0.10566000000E+00 0.  1.
     999900   -1    0    0    0    0 -0.00000000000E+00 -0.00000000000E+00 -0.74505805969E-08  0.93827000000E+00  0.93827000000E+00 0.  1.
     999902    2    1    2    0    0  0.22176461250E-01  0.56044973539E-02 -0.12788521992E-02  0.10210205852E+01  0.10207635349E+01 0.  0.
     999903    2    3    3    0    0 -0.90790314360E-01 -0.45138498023E-01 -0.77822527640E-01  0.12905910719E+00  0.17875742115E-01 0.  0.
         14    1    1    2    0    0 -0.22176461250E-01 -0.56044973539E-02  0.12788521992E-02  0.22909414814E-01  0.00000000000E+00 0. -1.
     999901    1    3    3    0    0  0.11296677561E+00  0.50742995377E-01  0.76543675441E-01  0.89196147799E+00  0.88000000000E+00 0.  1.
        -11    1    4    4    0    0 -0.47083347891E-01 -0.16387740150E-01 -0.30054465118E-01  0.58214531436E-01  0.51100000000E-03 0. -1.
         11    1    4    4    0    0 -0.43706966469E-01 -0.28750757873E-01 -0.47768062522E-01  0.70844575758E-01  0.51100000000E-03 0.  1.
</event>
<event>
 8    1  0.1202249E+005  0.1043930E+01  0.7957747E-01            NaN
         13   -1    0    0    0    0  0.00000000000E+00  0.00000000000E+00  0.74505805969E-08  0.10566000000E+00  0.10566000000E+00 0. -1.
     999900   -1    0    0    0    0 -0.00000000000E+00 -0.00000000000E+00 -0.74505805969E-08  0.93827000000E+00  0.93827000000E+00 0. -1.
     999902    2    1    2    0    0 -0.18266217445E-01  0.10465639117E-01  0.88372455277E-02  0.10210984164E+01  0.10208431293E+01 0.  0.
     999903    2    3    3    0    0  0.26889646386E-01  0.12219093110E+00  0.38015713583E-01  0.13240669486E+00  0.20800520163E-01 0.  0.
         14    1    1    2    0    0  0.18266217445E-01 -0.10465639117E-01 -0.88372455277E-02  0.22831583615E-01  0.00000000000E+00 0.  1.
     999901    1    3    3    0    0 -0.45155863831E-01 -0.11172529198E+00 -0.29178468055E-01  0.88869172152E+00  0.88000000000E+00 0.  1.
        -11    1    4    4    0    0  0.25285026188E-01  0.93440460117E-01  0.36863421810E-01  0.10358390379E+00  0.51100000000E-03 0. -1.
         11    1    4    4    0    0  0.16046201983E-02  0.28750470982E-01  0.11522917734E-02  0.28822791069E-01  0.51100000000E-03 0.  1.
</event>
<event>
 8    1  0.1202249E+005  0.1043930E+01  0.7957747E-01            NaN
         13   -1    0    0    0    0  0.00000000000E+00  0.00000000000E+00  0.74505805969E-08  0.10566000000E+00  0.10566000000E+00 0. -1.
     999900   -1    0    0    0    0 -0.00000000000E+00 -0.00000000000E+00 -0.74505805969E-08  0.93827000000E+00  0.93827000000E+00 0. -1.
     999902    2    1    2    0    0 -0.25699913718E-02 -0.20523557465E-01 -0.10784073409E-01  0.10206036735E+01  0.10203370722E+01 0.  0.
     999903    2    3    3    0    0  0.31286480094E-01 -0.38656215140E-01 -0.12161579287E+00  0.13282063475E+00  0.19436386844E-01 0.  0.
         14    1    1    2    0    0  0.25699913718E-02  0.20523557465E-01  0.10784073409E-01  0.23326326456E-01  0.00000000000E+00 0. -1.
     999901    1    3    3    0    0 -0.33856471466E-01  0.18132657675E-01  0.11083171946E+00  0.88778303880E+00  0.88000000000E+00 0.  1.
        -11    1    4    4    0    0  0.22872644299E-01 -0.13509755611E-01 -0.67926446510E-01  0.72937881861E-01  0.51100000000E-03 0.  1.
         11    1    4    4    0    0  0.84138357954E-02 -0.25146459529E-01 -0.53689346361E-01  0.59882752887E-01  0.51100000000E-03 0. -1.
</event>
<event>
 8    1  0.1202249E+005  0.1043930E+01  0.7957747E-01            NaN
         13   -1    0    0    0    0  0.00000000000E+00  0.00000000000E+00  0.74505805969E-08  0.10566000000E+00  0.10566000000E+00 0. -1.
     999900   -1    0    0    0    0 -0.00000000000E+00 -0.00000000000E+00 -0.74505805969E-08  0.93827000000E+00  0.93827000000E+00 0.  1.
     999902    2    1    2    0    0  0.10532114224E-01  0.79465772170E-02  0.19308785456E-01  0.10205440488E+01  0.10202760669E+01 0.  0.
     999903    2    3    3    0    0  0.86798605239E-01 -0.95816461986E-01 -0.37854721139E-02  0.13087181098E+00  0.19957676468E-01 0.  0.
         14    1    1    2    0    0 -0.10532114224E-01 -0.79465772170E-02 -0.19308785456E-01  0.23385951238E-01  0.00000000000E+00 0.  1.
     999901    1    3    3    0    0 -0.76266491015E-01  0.10376303920E+00  0.23094257570E-01  0.88967223779E+00  0.88000000000E+00 0.  1.
        -11    1    4    4    0    0  0.36865111449E-01 -0.27243509549E-01 -0.42837601696E-02  0.46041904574E-01  0.51100000000E-03 0.  1.
         11    1    4    4    0    0  0.49933493790E-01 -0.68572952437E-01  0.49828805568E-03  0.84829906401E-01  0.51100000000E-03 0. -1.
</event>
<event>
 8    1  0.1202249E+005  0.1043930E+01  0.7957747E-01            NaN
         13   -1    0    0    0    0  0.00000000000E+00  0.00000000000E+00  0.74505805969E-08  0.10566000000E+00  0.10566000000E+00 0.  1.
     999900   -1    0    0    0    0 -0.00000000000E+00 -0.00000000000E+00 -0.74505805969E-08  0.93827000000E+00  0.93827000000E+00 0. -1.
     999902    2    1    2    0    0  0.45079642519E-03 -0.50374352274E-02  0.23474046048E-01  0.10199172990E+01  0.10196345850E+01 0.  0.
     999903    2    3    3    0    0 -0.35364463638E-01  0.34688891986E-02 -0.12081853929E+00  0.12740654804E+00  0.19303641261E-01 0.  0.
         14    1    1    2    0    0 -0.45079642519E-03  0.50374352274E-02 -0.23474046048E-01  0.24012700993E-01  0.00000000000E+00 0. -1.
     999901    1    3    3    0    0  0.35815260063E-01 -0.85063244260E-02  0.14429258534E+00  0.89251075097E+00  0.88000000000E+00 0.  1.
        -11    1    4    4    0    0 -0.22120188960E-01  0.18118688540E-02 -0.42417423399E-01  0.47875719913E-01  0.51100000000E-03 0. -1.
         11    1    4    4    0    0 -0.13244274678E-01  0.16570203446E-02 -0.78401115894E-01  0.79530828127E-01  0.51100000000E-03 0.  1.
</event>
<event>
 8    1  0.1202249E+005  0.1043930E+01  0.7957747E-01            NaN
         13   -1    0    0    0    0  0.00000000000E+00  0.00000000000E+00  0.74505805969E-08  0.10566000000E+00  0.10566000000E+00 0. -1.
     999900   -1    0    0    0    0 -0.00000000000E+00 -0.00000000000E+00 -0.74505805969E-08  0.93827000000E+00  0.93827000000E+00 0. -1.
     999902    2    1    2    0    0 -0.16612288937E-01 -0.16535513462E-01 -0.60662762219E-02  0.10197186172E+01  0.10194311488E+01 0.  0.
     999903    2    3    3    0    0  0.17586221129E-01  0.11786337804E+00 -0.42530195573E-01  0.12811207981E+00  0.20070784755E-01 0.  0.
         14    1    1    2    0    0  0.16612288937E-01  0.16535513462E-01  0.60662762219E-02  0.24211382785E-01  0.00000000000E+00 0. -1.
     999901    1    3    3    0    0 -0.34198510066E-01 -0.13439889150E+00  0.36463919351E-01  0.89160653740E+00  0.88000000000E+00 0. -1.
        -11    1    4    4    0    0  0.17311032410E-01  0.59192993969E-01 -0.27603179101E-01  0.67569808314E-01  0.51100000000E-03 0.  1.
         11    1    4    4    0    0  0.27518871892E-03  0.58670384074E-01 -0.14927016472E-01  0.60542271496E-01  0.51100000000E-03 0. -1.
</event>
<event>
 8    1  0.1202249E+005  0.1043930E+01  0.7957747E-01            NaN
         13   -1    0    0    0    0  0.00000000000E+00  0.00000000000E+00  0.74505805969E-08  0.10566000000E+00  0.10566000000E+00 0.  1.
     999900   -1    0    0    0    0 -0.00000000000E+00 -0.00000000000E+00 -0.74505805969E-08  0.93827000000E+00  0.93827000000E+00 0. -1.
     999902    2    1    2    0    0  0.13609621048E-01 -0.10594732640E-01 -0.15968837300E-01  0.10204252365E+01  0.10201544928E+01 0.  0.
     999903    2    3    3    0    0 -0.11635942252E+00 -0.22119576451E-01  0.45866416307E-01  0.12865824172E+00  0.20504247020E-01 0.  0.
         14    1    1    2    0    0 -0.13609621048E-01  0.10594732640E-01  0.15968837300E-01  0.23504763549E-01  0.00000000000E+00 0.  1.
     999901    1    3    3    0    0  0.12996904356E+00  0.11524843812E-01 -0.61835253608E-01  0.89176699473E+00  0.88000000000E+00 0. -1.
        -11    1    4    4    0    0 -0.51872197034E-01 -0.17728770662E-01  0.13940993145E-01  0.56565418280E-01  0.51100000000E-03 0.  1.
         11    1    4    4    0    0 -0.64487225482E-01 -0.43908057893E-02  0.31925423162E-01  0.72092823436E-01  0.51100000000E-03 0. -1.
</event>
<event>
 8    1  0.1202249E+005  0.1043930E+01  0.7957747E-01            NaN
         13   -1    0    0    0    0  0.00000000000E+00  0.00000000000E+00  0.74505805969E-08  0.10566000000E+00  0.10566000000E+00 0. -1.
     999900   -1    0    0    0    0 -0.00000000000E+00 -0.00000000000E+00 -0.74505805969E-08  0.93827000000E+00  0.93827000000E+00 0. -1.
     999902    2    1    2    0    0  0.33958449058E-02 -0.19521849531E-01 -0.72993726487E-03  0.10241015563E+01  0.10239095812E+01 0.  0.
     999903    2    3    3    0    0  0.76764790485E-01  0.76409114034E-01  0.74090946117E-01  0.13270718984E+00  0.19762190469E-01 0.  0.
         14    1    1    2    0    0 -0.33958449058E-02  0.19521849531E-01  0.72993726487E-03  0.19828443715E-01  0.00000000000E+00 0. -1.
     999901    1    3    3    0    0 -0.73368945579E-01 -0.95930963566E-01 -0.74820883382E-01  0.89139436645E+00  0.88000000000E+00 0. -1.
        -11    1    4    4    0    0  0.53165723752E-01  0.39538380228E-01  0.42437654595E-01  0.78683501076E-01  0.51100000000E-03 0.  1.
         11    1    4    4    0    0  0.23599066733E-01  0.36870733806E-01  0.31653291522E-01  0.54023688760E-01  0.51100000000E-03 0. -1.
</event>
<event>
 8    1  0.1202249E+005  0.1043930E+01  0.7957747E-01            NaN
         13   -1    0    0    0    0  0.00000000000E+00  0.00000000000E+00  0.74505805969E-08  0.10566000000E+00  0.10566000000E+00 0.  1.
     999900   -1    0    0    0    0 -0.00000000000E+00 -0.00000000000E+00 -0.74505805969E-08  0.93827000000E+00  0.93827000000E+00 0.  1.
     999902    2    1    2    0    0 -0.11957126722E-02  0.29941157001E-01 -0.14195956449E-01  0.10107723796E+01  0.10102283779E+01 0.  0.
     999903    2    3    3    0    0 -0.93221074481E-01 -0.14156313664E-01  0.72011159443E-01  0.12069096705E+00  0.22138936252E-01 0.  0.
         14    1    1    2    0    0  0.11957126722E-02 -0.29941157001E-01  0.14195956449E-01  0.33157620404E-01  0.00000000000E+00 0. -1.
     999901    1    3    3    0    0  0.92025361809E-01  0.44097470665E-01 -0.86207115892E-01  0.89008141255E+00  0.88000000000E+00 0. -1.
        -11    1    4    4    0    0 -0.57151812452E-01 -0.40142342107E-03  0.51693110682E-01  0.77064451080E-01  0.51100000000E-03 0.  1.
         11    1    4    4    0    0 -0.36069262029E-01 -0.13754890243E-01  0.20318048761E-01  0.43626515966E-01  0.51100000000E-03 0. -1.
</event>
<event>
 8    1  0.1202249E+005  0.1043930E+01  0.7957747E-01            NaN
         13   -1    0    0    0    0  0.00000000000E+00  0.00000000000E+00  0.74505805969E-08  0.10566000000E+00  0.10566000000E+00 0. -1.
     999900   -1    0    0    0    0 -0.00000000000E+00 -0.00000000000E+00 -0.74505805969E-08  0.93827000000E+00  0.93827000000E+00 0.  1.
     999902    2    1    2    0    0 -0.11432779362E-01  0.60381686472E-02  0.20306126565E-01  0.10198570546E+01  0.10195729033E+01 0.  0.
     999903    2    3    3    0    0  0.10560889761E-02 -0.10382387344E+00  0.77324576395E-01  0.13110695263E+00  0.20722714376E-01 0.  0.
         14    1    1    2    0    0  0.11432779362E-01 -0.60381686472E-02 -0.20306126565E-01  0.24072945408E-01  0.00000000000E+00 0.  1.
     999901    1    3    3    0    0 -0.12488868338E-01  0.10986204209E+00 -0.57018449830E-01  0.88875010197E+00  0.88000000000E+00 0.  1.
        -11    1    4    4    0    0 -0.64935965083E-02 -0.11736991111E-01  0.11265158442E-01  0.17523945665E-01  0.51100000000E-03 0.  1.
         11    1    4    4    0    0  0.75496854843E-02 -0.92086882334E-01  0.66059417953E-01  0.11358300696E+00  0.51100000000E-03 0. -1.
</event>
<event>
 8    1  0.1202249E+005  0.1043930E+01  0.7957747E-01            NaN
         13   -1    0    0    0    0  0.00000000000E+00  0.00000000000E+00  0.74505805969E-08  0.10566000000E+00  0.10566000000E+00 0.  1.
     999900   -1    0    0    0    0 -0.00000000000E+00 -0.00000000000E+00 -0.74505805969E-08  0.93827000000E+00  0.93827000000E+00 0.  1.
     999902    2    1    2    0    0  0.17201875805E-01 -0.15816562506E-01 -0.56798536950E-02  0.10198815298E+01  0.10195979629E+01 0.  0.
     999903    2    3    3    0    0 -0.24979604860E-01 -0.74388481466E-01  0.10206431508E+00  0.13037675022E+00  0.20575367581E-01 0.  0.
         14    1    1    2    0    0 -0.17201875805E-01  0.15816562506E-01  0.56798536950E-02  0.24048470195E-01  0.00000000000E+00 0. -1.
     999901    1    3    3    0    0  0.42181480665E-01  0.58571918961E-01 -0.10774416877E+00  0.88950477959E+00  0.88000000000E+00 0.  1.
        -11    1    4    4    0    0 -0.20443181882E-01 -0.66742543128E-01  0.98628489863E-01  0.12083182893E+00  0.51100000000E-03 0. -1.
         11    1    4    4    0    0 -0.45364229781E-02 -0.76459383385E-02  0.34358252167E-02  0.95449212900E-02  0.51100000000E-03 0.  1.
</event>
<event>
 8    1  0.1202249E+005  0.1043930E+01  0.7957747E-01            NaN
         13   -1    0    0    0    0  0.00000000000E+00  0.00000000000E+00  0.74505805969E-08  0.10566000000E+00  0.10566000000E+00 0.  1.
     999900   -1    0    0    0    0 -0.00000000000E+00 -0.00000000000E+00 -0.74505805969E-08  0.93827000000E+00  0.93827000000E+00 0.  1.
     999902    2    1    2    0    0  0.44363185477E-02 -0.24366360110E-01 -0.14877721341E-01  0.10150380112E+01  0.10146267378E+01 0.  0.
     999903    2    3    3    0    0  0.76140686032E-01 -0.38260941413E-01  0.90361980671E-01  0.12576304210E+00  0.19742125009E-01 0.  0.
         14    1    1    2    0    0 -0.44363185477E-02  0.24366360110E-01  0.14877721341E-01  0.28891988848E-01  0.00000000000E+00 0.  1.
     999901    1    3    3    0    0 -0.71704367484E-01  0.13894581302E-01 -0.10523970201E+00  0.88927496905E+00  0.88000000000E+00 0.  1.
        -11    1    4    4    0    0  0.54919687637E-01 -0.26541755740E-01  0.76466890377E-01  0.97816580051E-01  0.51100000000E-03 0.  1.
         11    1    4    4    0    0  0.21220998395E-01 -0.11719185673E-01  0.13895090295E-01  0.27946462048E-01  0.51100000000E-03 0. -1.
</event>
<event>
 8    1  0.1202249E+005  0.1043930E+01  0.7957747E-01            NaN
         13   -1    0    0    0    0  0.00000000000E+00  0.00000000000E+00  0.74505805969E-08  0.10566000000E+00  0.10566000000E+00 0.  1.
     999900   -1    0    0    0    0 -0.00000000000E+00 -0.00000000000E+00 -0.74505805969E-08  0.93827000000E+00  0.93827000000E+00 0. -1.
     999902    2    1    2    0    0  0.52470093117E-03  0.24240590568E-01  0.33391309378E-02  0.10194548833E+01  0.10191610411E+01 0.  0.
     999903    2    3    3    0    0 -0.12179645838E+00  0.24624212082E-01  0.24641049375E-01  0.13073873913E+00  0.32321935269E-01 0.  0.
         14    1    1    2    0    0 -0.52470093117E-03 -0.24240590568E-01 -0.33391309378E-02  0.24475116702E-01  0.00000000000E+00 0.  1.
     999901    1    3    3    0    0  0.12232115931E+00 -0.38362151379E-03 -0.21301918437E-01  0.88871614417E+00  0.88000000000E+00 0.  1.
        -11    1    4    4    0    0 -0.90955314616E-01  0.73876016793E-02  0.27442448829E-01  0.95293205603E-01  0.51100000000E-03 0.  1.
         11    1    4    4    0    0 -0.30841143765E-01  0.17236610403E-01 -0.28013994534E-02  0.35445533524E-01  0.51100000000E-03 0. -1.
</event>
<event>
 8    1  0.1202249E+005  0.1043930E+01  0.7957747E-01            NaN
         13   -1    0    0    0    0  0.00000000000E+00  0.00000000000E+00  0.74505805969E-08  0.10566000000E+00  0.10566000000E+00 0. -1.
     999900   -1    0    0    0    0 -0.00000000000E+00 -0.00000000000E+00 -0.74505805969E-08  0.93827000000E+00  0.93827000000E+00 0. -1.
     999902    2    1    2    0    0 -0.41165561425E-02 -0.21665869752E-01 -0.12863290341E-02  0.10218390383E+01  0.10216002200E+01 0.  0.
     999903    2    3    3    0    0 -0.11380854843E+00  0.53688484904E-01 -0.26865764449E-01  0.13146556640E+00  0.26955273026E-01 0.  0.
         14    1    1    2    0    0  0.41165561425E-02  0.21665869752E-01  0.12863290341E-02  0.22090961703E-01  0.00000000000E+00 0.  1.
     999901    1    3    3    0    0  0.10969199228E+00 -0.75354354656E-01  0.25579435415E-01  0.89037347189E+00  0.88000000000E+00 0. -1.
        -11    1    4    4    0    0 -0.70584357236E-01  0.21330217099E-01 -0.75764969048E-02  0.74126878218E-01  0.51100000000E-03 0.  1.
         11    1    4    4    0    0 -0.43224191190E-01  0.32358267805E-01 -0.19289267544E-01  0.57338688185E-01  0.51100000000E-03 0. -1.
</event>
<event>
 8    1  0.1202249E+005  0.1043930E+01  0.7957747E-01            NaN
         13   -1    0    0    0    0  0.00000000000E+00  0.00000000000E+00  0.74505805969E-08  0.10566000000E+00  0.10566000000E+00 0.  1.
     999900   -1    0    0    0    0 -0.00000000000E+00 -0.00000000000E+00 -0.74505805969E-08  0.93827000000E+00  0.93827000000E+00 0.  1.
     999902    2    1    2    0    0  0.17177724389E-01  0.61197610761E-02 -0.13771099154E-01  0.10210789855E+01  0.10208232589E+01 0.  0.
     999903    2    3    3    0    0  0.17056532316E-01  0.12177650840E+00 -0.46218783069E-01  0.13291832996E+00  0.20264827622E-01 0.  0.
         14    1    1    2    0    0 -0.17177724389E-01 -0.61197610761E-02  0.13771099154E-01  0.22851014479E-01  0.00000000000E+00 0.  1.
     999901    1    3    3    0    0  0.12119207238E-03 -0.11565674733E+00  0.32447683915E-01  0.88816065556E+00  0.88000000000E+00 0.  1.
        -11    1    4    4    0    0  0.14387158249E-01  0.39246842731E-01 -0.19504559816E-01  0.46130184928E-01  0.51100000000E-03 0.  1.
         11    1    4    4    0    0  0.26693740671E-02  0.82529665671E-01 -0.26714223252E-01  0.86788145035E-01  0.51100000000E-03 0. -1.
</event>
<event>
 8    1  0.1202249E+005  0.1043930E+01  0.7957747E-01            NaN
         13   -1    0    0    0    0  0.00000000000E+00  0.00000000000E+00  0.74505805969E-08  0.10566000000E+00  0.10566000000E+00 0. -1.
     999900   -1    0    0    0    0 -0.00000000000E+00 -0.00000000000E+00 -0.74505805969E-08  0.93827000000E+00  0.93827000000E+00 0. -1.
     999902    2    1    2    0    0  0.10967162737E-01 -0.14391712475E-01  0.15200667098E-01  0.10202982348E+01  0.10200245230E+01 0.  0.
     999903    2    3    3    0    0 -0.66486390029E-01 -0.46726219691E-01 -0.98181485321E-01  0.12906308867E+00  0.20344461966E-01 0.  0.
         14    1    1    2    0    0 -0.10967162737E-01  0.14391712475E-01 -0.15200667098E-01  0.23631765205E-01  0.00000000000E+00 0.  1.
     999901    1    3    3    0    0  0.77453552766E-01  0.32334507216E-01  0.11338215242E+00  0.89123514612E+00  0.88000000000E+00 0.  1.
        -11    1    4    4    0    0 -0.45940997911E-01 -0.27060452769E-01 -0.76722814537E-01  0.93431765394E-01  0.51100000000E-03 0.  1.
         11    1    4    4    0    0 -0.20545392117E-01 -0.19665766922E-01 -0.21458670783E-01  0.35631323280E-01  0.51100000000E-03 0. -1.
</event>
<event>
 8    1  0.1202249E+005  0.1043930E+01  0.7957747E-01            NaN
         13   -1    0    0    0    0  0.00000000000E+00  0.00000000000E+00  0.74505805969E-08  0.10566000000E+00  0.10566000000E+00 0. -1.
     999900   -1    0    0    0    0 -0.00000000000E+00 -0.00000000000E+00 -0.74505805969E-08  0.93827000000E+00  0.93827000000E+00 0.  1.
     999902    2    1    2    0    0  0.21465109655E-01  0.87974301094E-02  0.54203629757E-02  0.10201071949E+01  0.10198289871E+01 0.  0.
     999903    2    3    3    0    0 -0.56340785887E-01  0.40029516630E-01 -0.10686038195E+00  0.12902012490E+00  0.21222748220E-01 0.  0.
         14    1    1    2    0    0 -0.21465109655E-01 -0.87974301094E-02 -0.54203629757E-02  0.23822805120E-01  0.00000000000E+00 0. -1.
     999901    1    3    3    0    0  0.77805895542E-01 -0.31232086520E-01  0.11228074493E+00  0.89108706998E+00  0.88000000000E+00 0. -1.
        -11    1    4    4    0    0 -0.54940643990E-01  0.32887172886E-01 -0.88276093180E-01  0.10905489558E+00  0.51100000000E-03 0.  1.
         11    1    4    4    0    0 -0.14001418968E-02  0.71423437438E-02 -0.18584288770E-01  0.19965229314E-01  0.51100000000E-03 0. -1.
</event>
<event>
 8    1  0.1202249E+005  0.1043930E+01  0.7957747E-01            NaN
         13   -1    0    0    0    0  0.00000000000E+00  0.00000000000E+00  0.74505805969E-08  0.10566000000E+00  0.10566000000E+00 0.  1.
     999900   -1    0    0    0    0 -0.00000000000E+00 -0.00000000000E+00 -0.74505805969E-08  0.93827000000E+00  0.93827000000E+00 0. -1.
     999902    2    1    2    0    0  0.23449444936E-01 -0.70015888379E-02  0.87344927342E-03  0.10194420105E+01  0.10191478554E+01 0.  0.
     999903    2    3    3    0    0 -0.52372293898E-01  0.20501373837E-01 -0.11368846674E+00  0.12835852307E+00  0.19689577903E-01 0.  0.
         14    1    1    2    0    0 -0.23449444936E-01  0.70015888379E-02 -0.87344927342E-03  0.24487989458E-01  0.00000000000E+00 0. -1.
     999901    1    3    3    0    0  0.75821738834E-01 -0.27502962675E-01  0.11456191602E+00  0.89108348747E+00  0.88000000000E+00 0.  1.
        -11    1    4    4    0    0 -0.10173024949E-01  0.10639798933E-01 -0.42884145234E-01  0.45343211084E-01  0.51100000000E-03 0.  1.
         11    1    4    4    0    0 -0.42199268950E-01  0.98615749033E-02 -0.70804321510E-01  0.83015311991E-01  0.51100000000E-03 0. -1.
</event>
<event>
 8    1  0.1202249E+005  0.1043930E+01  0.7957747E-01            NaN
         13   -1    0    0    0    0  0.00000000000E+00  0.00000000000E+00  0.74505805969E-08  0.10566000000E+00  0.10566000000E+00 0.  1.
     999900   -1    0    0    0    0 -0.00000000000E+00 -0.00000000000E+00 -0.74505805969E-08  0.93827000000E+00  0.93827000000E+00 0. -1.
     999902    2    1    2    0    0  0.14073761684E-01  0.18221724890E-01  0.15533285875E-02  0.10208537166E+01  0.10205928649E+01 0.  0.
     999903    2    3    3    0    0  0.11181536554E+00 -0.59266373719E-01  0.30198131865E-01  0.13159652585E+00  0.19762070272E-01 0.  0.
         14    1    1    2    0    0 -0.14073761684E-01 -0.18221724890E-01 -0.15533285875E-02  0.23076283401E-01  0.00000000000E+00 0. -1.
     999901    1    3    3    0    0 -0.97741603859E-01  0.77488098609E-01 -0.28644803277E-01  0.88925719075E+00  0.88000000000E+00 0. -1.
        -11    1    4    4    0    0  0.62620770221E-01 -0.22413724264E-01  0.13066266064E-01  0.67784395906E-01  0.51100000000E-03 0.  1.
         11    1    4    4    0    0  0.49194595322E-01 -0.36852649455E-01  0.17131865801E-01  0.63812129941E-01  0.51100000000E-03 0. -1.
</event>
<event>
 8    1  0.1202249E+005  0.1043930E+01  0.7957747E-01            NaN
         13   -1    0    0    0    0  0.00000000000E+00  0.00000000000E+00  0.74505805969E-08  0.10566000000E+00  0.10566000000E+00 0.  1.
     999900   -1    0    0    0    0 -0.00000000000E+00 -0.00000000000E+00 -0.74505805969E-08  0.93827000000E+00  0.93827000000E+00 0. -1.
     999902    2    1    2    0    0 -0.19355519946E-01 -0.49555140421E-02 -0.11375607720E-01  0.10209387468E+01  0.10206798357E+01 0.  0.
     999903    2    3    3    0    0 -0.49713723443E-02  0.56881826813E-01 -0.11757257862E+00  0.13228326968E+00  0.20378798476E-01 0.  0.
         14    1    1    2    0    0  0.19355519946E-01  0.49555140421E-02  0.11375607720E-01  0.22991253181E-01  0.00000000000E+00 0.  1.
     999901    1    3    3    0    0 -0.14384147602E-01 -0.61837340855E-01  0.10619697090E+00  0.88865547714E+00  0.88000000000E+00 0. -1.
        -11    1    4    4    0    0 -0.93474058870E-02  0.31079628915E-01 -0.47954571550E-01  0.57906989076E-01  0.51100000000E-03 0. -1.
         11    1    4    4    0    0  0.43760335427E-02  0.25802197898E-01 -0.69618007075E-01  0.74376280600E-01  0.51100000000E-03 0.  1.
</event>
<event>
 8    1  0.1202249E+005  0.1043930E+01  0.7957747E-01            NaN
         13   -1    0    0    0    0  0.00000000000E+00  0.00000000000E+00  0.74505805969E-08  0.10566000000E+00  0.10566000000E+00 0.  1.
     999900   -1    0    0    0    0 -0.00000000000E+00 -0.00000000000E+00 -0.74505805969E-08  0.93827000000E+00  0.93827000000E+00 0. -1.
     999902    2    1    2    0    0 -0.13196286053E-01  0.17614164070E-01  0.97452718197E-02  0.10198598720E+01  0.10195757879E+01 0.  0.
     999903    2    3    3    0    0  0.10822182398E+00 -0.77387648688E-03  0.67894908686E-01  0.12943196485E+00  0.20744947067E-01 0.  0.
         14    1    1    2    0    0  0.13196286053E-01 -0.17614164070E-01 -0.97452718197E-02  0.24070128049E-01  0.00000000000E+00 0.  1.
     999901    1    3    3    0    0 -0.12141811003E+00  0.18388040557E-01 -0.58149636866E-01  0.89042790710E+00  0.88000000000E+00 0. -1.
        -11    1    4    4    0    0  0.70126810904E-01  0.58426185797E-02  0.34663253177E-01  0.78445573752E-01  0.51100000000E-03 0.  1.
         11    1    4    4    0    0  0.38095013075E-01 -0.66164950666E-02  0.33231655509E-01  0.50986391096E-01  0.51100000000E-03 0. -1.
</event>
<event>
 8    1  0.1202249E+005  0.1043930E+01  0.7957747E-01            NaN
         13   -1    0    0    0    0  0.00000000000E+00  0.00000000000E+00  0.74505805969E-08  0.10566000000E+00  0.10566000000E+00 0. -1.
     999900   -1    0    0    0    0 -0.00000000000E+00 -0.00000000000E+00 -0.74505805969E-08  0.93827000000E+00  0.93827000000E+00 0.  1.
     999902    2    1    2    0    0  0.22708308709E-01 -0.48700788306E-02 -0.16243701104E-02  0.10206486012E+01  0.10203830377E+01 0.  0.
     999903    2    3    3    0    0  0.82108115687E-01 -0.10258733010E+00  0.10891775921E-01  0.13316133245E+00  0.18638849717E-01 0.  0.
         14    1    1    2    0    0 -0.22708308709E-01  0.48700788306E-02  0.16243701104E-02  0.23281398809E-01  0.00000000000E+00 0. -1.
     999901    1    3    3    0    0 -0.59399806978E-01  0.97717251269E-01 -0.12516146031E-01  0.88748726874E+00  0.88000000000E+00 0.  1.
        -11    1    4    4    0    0  0.31667218837E-01 -0.32573094649E-01 -0.39399678582E-02  0.45602672198E-01  0.51100000000E-03 0.  1.
         11    1    4    4    0    0  0.50440896850E-01 -0.70014235450E-01  0.14831743779E-01  0.87558660252E-01  0.51100000000E-03 0. -1.
</event>
<event>
 8    1  0.1202249E+005  0.1043930E+01  0.7957747E-01            NaN
         13   -1    0    0    0    0  0.00000000000E+00  0.00000000000E+00  0.74505805969E-08  0.10566000000E+00  0.10566000000E+00 0.  1.
     999900   -1    0    0    0    0 -0.00000000000E+00 -0.00000000000E+00 -0.74505805969E-08  0.93827000000E+00  0.93827000000E+00 0. -1.
     999902    2    1    2    0    0 -0.54806484535E-02 -0.23857086734E-01  0.48256754017E-03  0.10194467207E+01  0.10191526801E+01 0.  0.
     999903    2    3    3    0    0 -0.39171497227E-01  0.61442764130E-01  0.10414553340E+00  0.12862847416E+00  0.19732530953E-01 0.  0.
         14    1    1    2    0    0  0.54806484535E-02  0.23857086734E-01 -0.48256754017E-03  0.24483279321E-01  0.00000000000E+00 0.  1.
     999901    1    3    3    0    0  0.33690848773E-01 -0.85299850864E-01 -0.10366296586E+00  0.89081824652E+00  0.88000000000E+00 0. -1.
        -11    1    4    4    0    0 -0.16090955408E-02  0.14260550106E-01  0.13216459655E-01  0.19516362484E-01  0.51100000000E-03 0.  1.
         11    1    4    4    0    0 -0.37562401686E-01  0.47182214024E-01  0.90929073743E-01  0.10911211167E+00  0.51100000000E-03 0. -1.
</event>
<event>
 8    1  0.1202249E+005  0.1043930E+01  0.7957747E-01            NaN
         13   -1    0    0    0    0  0.00000000000E+00  0.00000000000E+00  0.74505805969E-08  0.10566000000E+00  0.10566000000E+00 0.  1.
     999900   -1    0    0    0    0 -0.00000000000E+00 -0.00000000000E+00 -0.74505805969E-08  0.93827000000E+00  0.93827000000E+00 0.  1.
     999902    2    1    2    0    0  0.11640685375E-01  0.19928953819E-01  0.10989959284E-01  0.10183673718E+01  0.10180464901E+01 0.  0.
     999903    2    3    3    0    0 -0.76020544231E-01  0.87013626217E-01 -0.53951922663E-01  0.12909671980E+00  0.20116133108E-01 0.  0.
         14    1    1    2    0    0 -0.11640685375E-01 -0.19928953819E-01 -0.10989959284E-01  0.25562628218E-01  0.00000000000E+00 0. -1.
     999901    1    3    3    0    0  0.87661229606E-01 -0.67084672398E-01  0.64941881947E-01  0.88927065198E+00  0.88000000000E+00 0.  1.
        -11    1    4    4    0    0 -0.62722045183E-01  0.58489415527E-01 -0.37906738595E-01  0.93766991167E-01  0.51100000000E-03 0. -1.
         11    1    4    4    0    0 -0.13298499048E-01  0.28524210691E-01 -0.16045184067E-01  0.35329728632E-01  0.51100000000E-03 0.  1.
</event>
<event>
 8    1  0.1202249E+005  0.1043930E+01  0.7957747E-01            NaN
         13   -1    0    0    0    0  0.00000000000E+00  0.00000000000E+00  0.74505805969E-08  0.10566000000E+00  0.10566000000E+00 0.  1.
     999900   -1    0    0    0    0 -0.00000000000E+00 -0.00000000000E+00 -0.74505805969E-08  0.93827000000E+00  0.93827000000E+00 0.  1.
     999902    2    1    2    0    0 -0.13256174034E-01  0.61158625464E-02  0.20655698897E-01  0.10186359726E+01  0.10183218827E+01 0.  0.
     999903    2    3    3    0    0 -0.53584833306E-01  0.41984460968E-01  0.11168014279E+00  0.13229607929E+00  0.19893943215E-01 0.  0.
         14    1    1    2    0    0  0.13256174034E-01 -0.61158625464E-02 -0.20655698897E-01  0.25294027391E-01  0.00000000000E+00 0. -1.
     999901    1    3    3    0    0  0.40328659272E-01 -0.35868598421E-01 -0.91024443896E-01  0.88633989332E+00  0.88000000000E+00 0.  1.
        -11    1    4    4    0    0 -0.43604408309E-01  0.23591048022E-01  0.71780116863E-01  0.87238341735E-01  0.51100000000E-03 0. -1.
         11    1    4    4    0    0 -0.99804249975E-02  0.18393412945E-01  0.39900025931E-01  0.45057737551E-01  0.51100000000E-03 0.  1.
</event>
<event>
 8    1  0.1250095E+005  0.1043930E+01  0.7957747E-01            NaN
         13   -1    0    0    0    0  0.00000000000E+00  0.00000000000E+00  0.74505805969E-08  0.10566000000E+00  0.10566000000E+00 0.  1.
     999900   -1    0    0    0    0 -0.00000000000E+00 -0.00000000000E+00 -0.74505805969E-08  0.93827000000E+00  0.93827000000E+00 0.  1.
     999902    2    1    2    0    0  0.97463434826E-02 -0.11762827560E-01 -0.19466183170E-01  0.10191855539E+01  0.10188851288E+01 0.  0.
     999903    2    3    3    0    0 -0.70804094285E-02  0.56106567330E-01  0.11124679680E+00  0.12678694485E+00  0.22383040273E-01 0.  0.
         14    1    1    2    0    0 -0.97463434826E-02  0.11762827560E-01  0.19466183170E-01  0.24744446058E-01  0.00000000000E+00 0.  1.
     999901    1    3    3    0    0  0.16826752911E-01 -0.67869394891E-01 -0.13071297997E+00  0.89239860909E+00  0.88000000000E+00 0.  1.
        -11    1    4    4    0    0  0.74759778785E-02  0.17207529112E-01  0.42611908594E-01  0.46562057283E-01  0.51100000000E-03 0. -1.
         11    1    4    4    0    0 -0.14556387307E-01  0.38899038218E-01  0.68634888202E-01  0.80224887568E-01  0.51100000000E-03 0.  1.
</event>
<event>
 8    1  0.1202249E+005  0.1043930E+01  0.7957747E-01            NaN
         13   -1    0    0    0    0  0.00000000000E+00  0.00000000000E+00  0.74505805969E-08  0.10566000000E+00  0.10566000000E+00 0.  1.
     999900   -1    0    0    0    0 -0.00000000000E+00 -0.00000000000E+00 -0.74505805969E-08  0.93827000000E+00  0.93827000000E+00 0.  1.
     999902    2    1    2    0    0 -0.24066548751E-01  0.48047160100E-02 -0.36985372055E-02  0.10191113932E+01  0.10188091424E+01 0.  0.
     999903    2    3    3    0    0 -0.42405227255E-01 -0.81254328996E-02 -0.12216751696E+00  0.13088935171E+00  0.18517403510E-01 0.  0.
         14    1    1    2    0    0  0.24066548751E-01 -0.48047160100E-02  0.36985372055E-02  0.24818606773E-01  0.00000000000E+00 0.  1.
     999901    1    3    3    0    0  0.18338678504E-01  0.12930148910E-01  0.11846897975E+00  0.88822204152E+00  0.88000000000E+00 0. -1.
        -11    1    4    4    0    0 -0.15763877290E-01 -0.81615566377E-02 -0.29178134454E-01  0.34157509938E-01  0.51100000000E-03 0. -1.
         11    1    4    4    0    0 -0.26641349965E-01  0.36123738072E-04 -0.92989382501E-01  0.96731841768E-01  0.51100000000E-03 0.  1.
</event>
<event>
 8    1  0.1202249E+005  0.1043930E+01  0.7957747E-01            NaN
         13   -1    0    0    0    0  0.00000000000E+00  0.00000000000E+00  0.74505805969E-08  0.10566000000E+00  0.10566000000E+00 0. -1.
     999900   -1    0    0    0    0 -0.00000000000E+00 -0.00000000000E+00 -0.74505805969E-08  0.93827000000E+00  0.93827000000E+00 0. -1.
     999902    2    1    2    0    0  0.20472238981E-01  0.11289295659E-01  0.58590673566E-04  0.10205512875E+01  0.10202834735E+01 0.  0.
     999903    2    3    3    0    0  0.10393203986E+00 -0.43994762895E-01 -0.66442623724E-01  0.13238222870E+00  0.19313833297E-01 0.  0.
         14    1    1    2    0    0 -0.20472238981E-01 -0.11289295659E-01 -0.58590673566E-04  0.23378712502E-01  0.00000000000E+00 0. -1.
     999901    1    3    3    0    0 -0.83459800876E-01  0.55284058555E-01  0.66501214398E-01  0.88816905880E+00  0.88000000000E+00 0.  1.
        -11    1    4    4    0    0  0.44636437036E-01 -0.21448511389E-01 -0.18511171321E-01  0.52871303528E-01  0.51100000000E-03 0.  1.
         11    1    4    4    0    0  0.59295602822E-01 -0.22546251506E-01 -0.47931452403E-01  0.79510925170E-01  0.51100000000E-03 0. -1.
</event>
<event>
 8    1  0.1202249E+005  0.1043930E+01  0.7957747E-01            NaN
         13   -1    0    0    0    0  0.00000000000E+00  0.00000000000E+00  0.74505805969E-08  0.10566000000E+00  0.10566000000E+00 0. -1.
     999900   -1    0    0    0    0 -0.00000000000E+00 -0.00000000000E+00 -0.74505805969E-08  0.93827000000E+00  0.93827000000E+00 0.  1.
     999902    2    1    2    0    0 -0.14525830953E-01 -0.11694740865E-01 -0.14543741458E-01  0.10202807475E+01  0.10200066257E+01 0.  0.
     999903    2    3    3    0    0  0.56971429085E-01  0.10450504555E+00  0.42850773241E-01  0.12791962167E+00  0.18978739743E-01 0.  0.
         14    1    1    2    0    0  0.14525830953E-01  0.11694740865E-01  0.14543741458E-01  0.23649252512E-01  0.00000000000E+00 0. -1.
     999901    1    3    3    0    0 -0.71497260039E-01 -0.11619978642E+00 -0.57394514699E-01  0.89236112582E+00  0.88000000000E+00 0. -1.
        -11    1    4    4    0    0  0.29310053851E-01  0.36063989427E-01  0.12707445306E-01  0.48181229513E-01  0.51100000000E-03 0.  1.
         11    1    4    4    0    0  0.27661375234E-01  0.68441056126E-01  0.30143327935E-01  0.79738392155E-01  0.51100000000E-03 0. -1.
</event>
<event>
 8    1  0.1202249E+005  0.1043930E+01  0.7957747E-01            NaN
         13   -1    0    0    0    0  0.00000000000E+00  0.00000000000E+00  0.74505805969E-08  0.10566000000E+00  0.10566000000E+00 0.  1.
     999900   -1    0    0    0    0 -0.00000000000E+00 -0.00000000000E+00 -0.74505805969E-08  0.93827000000E+00  0.93827000000E+00 0.  1.
     999902    2    1    2    0    0  0.31807075882E-02  0.10894960702E-01  0.20788270683E-01  0.10202452102E+01  0.10199702543E+01 0.  0.
     999903    2    3    3    0    0 -0.91781638793E-01  0.91532537057E-01  0.77754794787E-03  0.13124538176E+00  0.20558966264E-01 0.  0.
         14    1    1    2    0    0 -0.31807075882E-02 -0.10894960702E-01 -0.20788270683E-01  0.23684789791E-01  0.00000000000E+00 0. -1.
     999901    1    3    3    0    0  0.94962346382E-01 -0.80637576355E-01  0.20010722735E-01  0.88899982844E+00  0.88000000000E+00 0.  1.
        -11    1    4    4    0    0 -0.44487248293E-01  0.35465989744E-01 -0.76605053837E-02  0.57409895949E-01  0.51100000000E-03 0.  1.
         11    1    4    4    0    0 -0.47294390501E-01  0.56066547313E-01  0.84380533316E-02  0.73835485814E-01  0.51100000000E-03 0. -1.
</event>
<event>
 8    1  0.1202249E+005  0.1043930E+01  0.7957747E-01            NaN
         13   -1    0    0    0    0  0.00000000000E+00  0.00000000000E+00  0.74505805969E-08  0.10566000000E+00  0.10566000000E+00 0.  1.
     999900   -1    0    0    0    0 -0.00000000000E+00 -0.00000000000E+00 -0.74505805969E-08  0.93827000000E+00  0.93827000000E+00 0. -1.
     999902    2    1    2    0    0 -0.16327230806E-01 -0.16006944426E-01  0.49222546333E-02  0.10205413419E+01  0.10202732973E+01 0.  0.
     999903    2    3    3    0    0 -0.11913223520E+00 -0.47708226925E-01 -0.30017465503E-01  0.13330145087E+00  0.19991602983E-01 0.  0.
         14    1    1    2    0    0  0.16327230806E-01  0.16006944426E-01 -0.49222546333E-02  0.23388658070E-01  0.00000000000E+00 0. -1.
     999901    1    3    3    0    0  0.10280500439E+00  0.31701282499E-01  0.34939720136E-01  0.88723989106E+00  0.88000000000E+00 0. -1.
        -11    1    4    4    0    0 -0.56426462310E-01 -0.23997463912E-01 -0.24503835491E-01  0.66034256245E-01  0.51100000000E-03 0. -1.
         11    1    4    4    0    0 -0.62705772888E-01 -0.23710763014E-01 -0.55136300113E-02  0.67267194627E-01  0.51100000000E-03 0.  1.
</event>
<event>
 8    1  0.1202249E+005  0.1043930E+01  0.7957747E-01            NaN
         13   -1    0    0    0    0  0.00000000000E+00  0.00000000000E+00  0.74505805969E-08  0.10566000000E+00  0.10566000000E+00 0.  1.
     999900   -1    0    0    0    0 -0.00000000000E+00 -0.00000000000E+00 -0.74505805969E-08  0.93827000000E+00  0.93827000000E+00 0.  1.
     999902    2    1    2    0    0  0.13431637029E-01  0.57893365078E-02 -0.18686668281E-01  0.10201999165E+01  0.10199238956E+01 0.  0.
     999903    2    3    3    0    0 -0.83433676832E-01  0.96922848131E-01  0.95394297164E-02  0.12975906021E+00  0.19778677129E-01 0.  0.
         14    1    1    2    0    0 -0.13431637029E-01 -0.57893365078E-02  0.18686668281E-01  0.23730083480E-01  0.00000000000E+00 0.  1.
     999901    1    3    3    0    0  0.96865313861E-01 -0.91133511623E-01 -0.28226097998E-01  0.89044085631E+00  0.88000000000E+00 0.  1.
        -11    1    4    4    0    0 -0.48744447999E-01  0.44297366547E-01  0.10616961836E-01  0.66717755458E-01  0.51100000000E-03 0. -1.
         11    1    4    4    0    0 -0.34689228833E-01  0.52625481584E-01 -0.10775321192E-02  0.63041304757E-01  0.51100000000E-03 0.  1.
</event>
<event>
 8    1  0.1202249E+005  0.1043930E+01  0.7957747E-01            NaN
         13   -1    0    0    0    0  0.00000000000E+00  0.00000000000E+00  0.74505805969E-08  0.10566000000E+00  0.10566000000E+00 0.  1.
     999900   -1    0    0    0    0 -0.00000000000E+00 -0.00000000000E+00 -0.74505805969E-08  0.93827000000E+00  0.93827000000E+00 0.  1.
     999902    2    1    2    0    0  0.88200899529E-02  0.11218832080E-01 -0.18379398216E-01  0.10206607400E+01  0.10203954566E+01 0.  0.
     999903    2    3    3    0    0 -0.73128288111E-02 -0.12114477441E+00  0.38223331526E-01  0.12881755629E+00  0.20084967150E-01 0.  0.
         14    1    1    2    0    0 -0.88200899529E-02 -0.11218832080E-01  0.18379398216E-01  0.23269259954E-01  0.00000000000E+00 0.  1.
     999901    1    3    3    0    0  0.16132918764E-01  0.13236360649E+00 -0.56602729742E-01  0.89184318375E+00  0.88000000000E+00 0.  1.
        -11    1    4    4    0    0 -0.23739470203E-02 -0.53979135522E-01  0.66709167871E-02  0.54443961538E-01  0.51100000000E-03 0. -1.
         11    1    4    4    0    0 -0.49388817908E-02 -0.67165638885E-01  0.31552414739E-01  0.74373594757E-01  0.51100000000E-03 0.  1.
</event>
<event>
 8    1  0.1202249E+005  0.1043930E+01  0.7957747E-01            NaN
         13   -1    0    0    0    0  0.00000000000E+00  0.00000000000E+00  0.74505805969E-08  0.10566000000E+00  0.10566000000E+00 0.  1.
     999900   -1    0    0    0    0 -0.00000000000E+00 -0.00000000000E+00 -0.74505805969E-08  0.93827000000E+00  0.93827000000E+00 0.  1.
     999902    2    1    2    0    0 -0.81121946643E-02  0.21630392587E-01  0.11330419915E-02  0.10208006816E+01  0.10205386157E+01 0.  0.
     999903    2    3    3    0    0 -0.10636502957E+00 -0.68890786313E-01  0.23639656412E-01  0.13043320067E+00  0.19862691816E-01 0.  0.
         14    1    1    2    0    0  0.81121946643E-02 -0.21630392587E-01 -0.11330419915E-02  0.23129318405E-01  0.00000000000E+00 0.  1.
     999901    1    3    3    0    0  0.98252834911E-01  0.90521178900E-01 -0.22506614421E-01  0.89036748093E+00  0.88000000000E+00 0.  1.
        -11    1    4    4    0    0 -0.55604504091E-01 -0.34683805548E-01  0.22228861564E-01  0.69204123070E-01  0.51100000000E-03 0. -1.
         11    1    4    4    0    0 -0.50760525484E-01 -0.34206980765E-01  0.14107948479E-02  0.61229077599E-01  0.51100000000E-03 0.  1.
</event>
<event>
 8    1  0.1202249E+005  0.1043930E+01  0.7957747E-01            NaN
         13   -1    0    0    0    0  0.00000000000E+00  0.00000000000E+00  0.74505805969E-08  0.10566000000E+00  0.10566000000E+00 0. -1.
     999900   -1    0    0    0    0 -0.00000000000E+00 -0.00000000000E+00 -0.74505805969E-08  0.93827000000E+00  0.93827000000E+00 0.  1.
     999902    2    1    2    0    0  0.22136134186E-01 -0.51299391396E-02  0.56036314024E-02  0.10205264661E+01  0.10202580765E+01 0.  0.
     999903    2    3    3    0    0  0.34390754973E-01 -0.86234245475E-01  0.92225899990E-01  0.13247719856E+00  0.20628194014E-01 0.  0.
         14    1    1    2    0    0 -0.22136134186E-01  0.51299391396E-02 -0.56036314024E-02  0.23403533861E-01  0.00000000000E+00 0. -1.
     999901    1    3    3    0    0 -0.12254620787E-01  0.81104306335E-01 -0.86622268588E-01  0.88804926758E+00  0.88000000000E+00 0. -1.
        -11    1    4    4    0    0  0.23697278431E-01 -0.74240911317E-01  0.83369202272E-01  0.11412256099E+00  0.51100000000E-03 0. -1.
         11    1    4    4    0    0  0.10693476543E-01 -0.11993334158E-01  0.88566977187E-02  0.18354637569E-01  0.51100000000E-03 0.  1.
</event>
<event>
 8    1  0.1202249E+005  0.1043930E+01  0.7957747E-01            NaN
         13   -1    0    0    0    0  0.00000000000E+00  0.00000000000E+00  0.74505805969E-08  0.10566000000E+00  0.10566000000E+00 0. -1.
     999900   -1    0    0    0    0 -0.00000000000E+00 -0.00000000000E+00 -0.74505805969E-08  0.93827000000E+00  0.93827000000E+00 0.  1.
     999902    2    1    2    0    0 -0.15566096259E-02 -0.19224456545E-01 -0.11411256772E-01  0.10215197447E+01  0.10212738953E+01 0.  0.
     999903    2    3    3    0    0 -0.87021761110E-01 -0.36444218893E-01  0.89294379819E-01  0.13149590365E+00  0.20413681991E-01 0.  0.
         14    1    1    2    0    0  0.15566096259E-02  0.19224456545E-01  0.11411256772E-01  0.22410255333E-01  0.00000000000E+00 0. -1.
     999901    1    3    3    0    0  0.85465151484E-01  0.17219762347E-01 -0.10070563659E+00  0.89002384101E+00  0.88000000000E+00 0.  1.
        -11    1    4    4    0    0 -0.28904846202E-01 -0.21699173023E-01  0.39623227495E-01  0.53633995954E-01  0.51100000000E-03 0.  1.
         11    1    4    4    0    0 -0.58116914909E-01 -0.14745045870E-01  0.49671152324E-01  0.77861907698E-01  0.51100000000E-03 0. -1.
</event>
<event>
 8    1  0.1202249E+005  0.1043930E+01  0.7957747E-01            NaN
         13   -1    0    0    0    0  0.00000000000E+00  0.00000000000E+00  0.74505805969E-08  0.10566000000E+00  0.10566000000E+00 0. -1.
     999900   -1    0    0    0    0 -0.00000000000E+00 -0.00000000000E+00 -0.74505805969E-08  0.93827000000E+00  0.93827000000E+00 0. -1.
     999902    2    1    2    0    0  0.50422910960E-02 -0.22851090619E-01 -0.42350872648E-03  0.10205253765E+01  0.10202569616E+01 0.  0.
     999903    2    3    3    0    0 -0.35272381295E-01 -0.60682421334E-01  0.10997440032E+00  0.13190612129E+00  0.19451451501E-01 0.  0.
         14    1    1    2    0    0 -0.50422910960E-02  0.22851090619E-01  0.42350872648E-03  0.23404623510E-01  0.00000000000E+00 0. -1.
     999901    1    3    3    0    0  0.40314672391E-01  0.37831330715E-01 -0.11039790905E+00  0.88861925520E+00  0.88000000000E+00 0. -1.
        -11    1    4    4    0    0 -0.26913974293E-01 -0.37344079703E-01  0.85279369607E-01  0.96911167069E-01  0.51100000000E-03 0. -1.
         11    1    4    4    0    0 -0.83584070024E-02 -0.23338341630E-01  0.24695030717E-01  0.34994954219E-01  0.51100000000E-03 0.  1.
</event>
<event>
 8    1  0.1202249E+005  0.1043930E+01  0.7957747E-01            NaN
         13   -1    0    0    0    0  0.00000000000E+00  0.00000000000E+00  0.74505805969E-08  0.10566000000E+00  0.10566000000E+00 0.  1.
     999900   -1    0    0    0    0 -0.00000000000E+00 -0.00000000000E+00 -0.74505805969E-08  0.93827000000E+00  0.93827000000E+00 0.  1.
     999902    2    1    2    0    0 -0.23695886769E-01  0.83984564248E-03 -0.28791809157E-02  0.10200450660E+01  0.10197653880E+01 0.  0.
     999903    2    3    3    0    0 -0.12813753266E+00  0.18922666524E-01  0.23963359429E-01  0.13327814746E+00  0.20286138387E-01 0.  0.
         14    1    1    2    0    0  0.23695886769E-01 -0.83984564248E-03  0.28791809157E-02  0.23884934022E-01  0.00000000000E+00 0. -1.
     999901    1    3    3    0    0  0.10444164589E+00 -0.18082820881E-01 -0.26842540345E-01  0.88676691852E+00  0.88000000000E+00 0. -1.
        -11    1    4    4    0    0 -0.64525288737E-01  0.11137801451E-01  0.19379636606E-02  0.65510154418E-01  0.51100000000E-03 0.  1.
         11    1    4    4    0    0 -0.63612243922E-01  0.77848650727E-02  0.22025395769E-01  0.67767993041E-01  0.51100000000E-03 0. -1.
</event>
<event>
 8    1  0.1202249E+005  0.1043930E+01  0.7957747E-01            NaN
         13   -1    0    0    0    0  0.00000000000E+00  0.00000000000E+00  0.74505805969E-08  0.10566000000E+00  0.10566000000E+00 0.  1.
     999900   -1    0    0    0    0 -0.00000000000E+00 -0.00000000000E+00 -0.74505805969E-08  0.93827000000E+00  0.93827000000E+00 0. -1.
     999902    2    1    2    0    0 -0.18624334915E-01 -0.10587611860E-01  0.11544755307E-01  0.10195939208E+01  0.10193034477E+01 0.  0.
     999903    2    3    3    0    0 -0.35761966475E-01  0.12231719369E+00 -0.88932282172E-02  0.12921473364E+00  0.19415039581E-01 0.  0.
         14    1    1    2    0    0  0.18624334915E-01  0.10587611860E-01 -0.11544755307E-01  0.24336079204E-01  0.00000000000E+00 0.  1.
     999901    1    3    3    0    0  0.17137631560E-01 -0.13290480555E+00  0.20437983524E-01  0.89037918716E+00  0.88000000000E+00 0.  1.
        -11    1    4    4    0    0 -0.23506630225E-01  0.64086949706E-01  0.37937328777E-02  0.68369235167E-01  0.51100000000E-03 0.  1.
         11    1    4    4    0    0 -0.12255336250E-01  0.58230243987E-01 -0.12686961095E-01  0.60845498471E-01  0.51100000000E-03 0. -1.
</event>
<event>
 8    1  0.1202249E+005  0.1043930E+01  0.7957747E-01            NaN
         13   -1    0    0    0    0  0.00000000000E+00  0.00000000000E+00  0.74505805969E-08  0.10566000000E+00  0.10566000000E+00 0. -1.
     999900   -1    0    0    0    0 -0.00000000000E+00 -0.00000000000E+00 -0.74505805969E-08  0.93827000000E+00  0.93827000000E+00 0.  1.
     999902    2    1    2    0    0 -0.15397139743E-01 -0.22070039906E-01 -0.30664850452E-02  0.10168456520E+01  0.10164848834E+01 0.  0.
     999903    2    3    3    0    0 -0.11652302348E+00  0.16553027018E-01  0.48587306455E-01  0.12870923243E+00  0.18807510749E-01 0.  0.
         14    1    1    2    0    0  0.15397139743E-01  0.22070039906E-01  0.30664850452E-02  0.27084347957E-01  0.00000000000E+00 0. -1.
     999901    1    3    3    0    0  0.10112588374E+00 -0.38623066923E-01 -0.51653791500E-01  0.88813641961E+00  0.88000000000E+00 0. -1.
        -11    1    4    4    0    0 -0.87666454128E-01  0.76557662463E-02  0.43191912963E-01  0.98029691434E-01  0.51100000000E-03 0. -1.
         11    1    4    4    0    0 -0.28856569352E-01  0.88972607716E-02  0.53953934926E-02  0.30679541000E-01  0.51100000000E-03 0.  1.
</event>
<event>
 8    1  0.1202249E+005  0.1043930E+01  0.7957747E-01            NaN
         13   -1    0    0    0    0  0.00000000000E+00  0.00000000000E+00  0.74505805969E-08  0.10566000000E+00  0.10566000000E+00 0.  1.
     999900   -1    0    0    0    0 -0.00000000000E+00 -0.00000000000E+00 -0.74505805969E-08  0.93827000000E+00  0.93827000000E+00 0. -1.
     999902    2    1    2    0    0 -0.13531311770E-01 -0.99080708187E-02 -0.16486084435E-01  0.10204128308E+01  0.10201417980E+01 0.  0.
     999903    2    3    3    0    0  0.80002288398E-01  0.41598416133E-01 -0.92473742247E-01  0.13070749945E+00  0.20056496032E-01 0.  0.
         14    1    1    2    0    0  0.13531311770E-01  0.99080708187E-02  0.16486084435E-01  0.23517169166E-01  0.00000000000E+00 0.  1.
     999901    1    3    3    0    0 -0.93533600168E-01 -0.51506486952E-01  0.75987657811E-01  0.88970533139E+00  0.88000000000E+00 0.  1.
        -11    1    4    4    0    0  0.14958204809E-01  0.47148010280E-02 -0.27428854202E-01  0.31600322842E-01  0.51100000000E-03 0.  1.
         11    1    4    4    0    0  0.65044083588E-01  0.36883615105E-01 -0.65044888044E-01  0.99107176606E-01  0.51100000000E-03 0. -1.
</event>
<event>
 8    1  0.1202249E+005  0.1043930E+01  0.7957747E-01            NaN
         13   -1    0    0    0    0  0.00000000000E+00  0.00000000000E+00  0.74505805969E-08  0.10566000000E+00  0.10566000000E+00 0.  1.
     999900   -1    0    0    0    0 -0.00000000000E+00 -0.00000000000E+00 -0.74505805969E-08  0.93827000000E+00  0.93827000000E+00 0.  1.
     999902    2    1    2    0    0  0.18764652076E-01  0.13464449033E-01  0.61483224338E-02  0.10200300957E+01  0.10197500629E+01 0.  0.
     999903    2    3    3    0    0 -0.50581724575E-01  0.86351447429E-01 -0.80651905237E-01  0.13005497585E+00  0.19861610966E-01 0.  0.
         14    1    1    2    0    0 -0.18764652076E-01 -0.13464449033E-01 -0.61483224338E-02  0.23899904268E-01  0.00000000000E+00 0. -1.
     999901    1    3    3    0    0  0.69346376651E-01 -0.72886998395E-01  0.86800227671E-01  0.88997511988E+00  0.88000000000E+00 0. -1.
        -11    1    4    4    0    0 -0.50593355820E-01  0.73877105806E-01 -0.70908172979E-01  0.11421796939E+00  0.51100000000E-03 0.  1.
         11    1    4    4    0    0  0.11631244206E-04  0.12474341623E-01 -0.97437322582E-02  0.15837006457E-01  0.51100000000E-03 0. -1.
</event>
<event>
 8    1  0.1290064E+005  0.1043930E+01  0.7957747E-01            NaN
         13   -1    0    0    0    0  0.00000000000E+00  0.00000000000E+00  0.74505805969E-08  0.10566000000E+00  0.10566000000E+00 0.  1.
     999900   -1    0    0    0    0 -0.00000000000E+00 -0.00000000000E+00 -0.74505805969E-08  0.93827000000E+00  0.93827000000E+00 0.  1.
     999902    2    1    2    0    0 -0.70848509287E-02  0.80656712395E-02 -0.22479718299E-01  0.10190183983E+01  0.10187138500E+01 0.  0.
     999903    2    3    3    0    0 -0.13813058999E-01 -0.90286422403E-01  0.85856651755E-01  0.12691124542E+00  0.19815672976E-01 0.  0.
         14    1    1    2    0    0  0.70848509287E-02 -0.80656712395E-02  0.22479718299E-01  0.24911601715E-01  0.00000000000E+00 0.  1.
     999901    1    3    3    0    0  0.67282080705E-02  0.98352093642E-01 -0.10833637005E+00  0.89210715286E+00  0.88000000000E+00 0.  1.
        -11    1    4    4    0    0  0.16294974641E-02 -0.50802133449E-01  0.42349507463E-01  0.66160818679E-01  0.51100000000E-03 0. -1.
         11    1    4    4    0    0 -0.15442556463E-01 -0.39484288954E-01  0.43507144292E-01  0.60750426746E-01  0.51100000000E-03 0.  1.
</event>
<event>
 8    1  0.1202249E+005  0.1043930E+01  0.7957747E-01            NaN
         13   -1    0    0    0    0  0.00000000000E+00  0.00000000000E+00  0.74505805969E-08  0.10566000000E+00  0.10566000000E+00 0. -1.
     999900   -1    0    0    0    0 -0.00000000000E+00 -0.00000000000E+00 -0.74505805969E-08  0.93827000000E+00  0.93827000000E+00 0. -1.
     999902    2    1    2    0    0 -0.11442817797E-01 -0.29349321479E-02  0.17764018933E-01  0.10225966394E+01  0.10223740874E+01 0.  0.
     999903    2    3    3    0    0  0.10088945803E+00  0.38078241221E-01 -0.70081722078E-01  0.13017437679E+00  0.20131701566E-01 0.  0.
         14    1    1    2    0    0  0.11442817797E-01  0.29349321479E-02 -0.17764018933E-01  0.21333360600E-01  0.00000000000E+00 0.  1.
     999901    1    3    3    0    0 -0.11233227583E+00 -0.41013173369E-01  0.87845741011E-01  0.89242226261E+00  0.88000000000E+00 0.  1.
        -11    1    4    4    0    0  0.50678948642E-01  0.14786740114E-01 -0.45144383963E-01  0.69464235712E-01  0.51100000000E-03 0. -1.
         11    1    4    4    0    0  0.50210509388E-01  0.23291501107E-01 -0.24937338115E-01  0.60710141081E-01  0.51100000000E-03 0.  1.
</event>
<event>
 8    1  0.1202249E+005  0.1043930E+01  0.7957747E-01            NaN
         13   -1    0    0    0    0  0.00000000000E+00  0.00000000000E+00  0.74505805969E-08  0.10566000000E+00  0.10566000000E+00 0.  1.
     999900   -1    0    0    0    0 -0.00000000000E+00 -0.00000000000E+00 -0.74505805969E-08  0.93827000000E+00  0.93827000000E+00 0.  1.
     999902    2    1    2    0    0 -0.22982422638E-01  0.21863893835E-02 -0.10979682342E-02  0.10208177179E+01  0.10205560424E+01 0.  0.
     999903    2    3    3    0    0 -0.10580942398E+00 -0.67387490962E-01  0.39816771403E-01  0.13325090190E+00  0.20825931674E-01 0.  0.
         14    1    1    2    0    0  0.22982422638E-01 -0.21863893835E-02  0.10979682342E-02  0.23112282083E-01  0.00000000000E+00 0.  1.
     999901    1    3    3    0    0  0.82827001344E-01  0.69573880345E-01 -0.40914739637E-01  0.88756681602E+00  0.88000000000E+00 0. -1.
        -11    1    4    4    0    0 -0.40091592674E-01 -0.17553275492E-01  0.21498028967E-01  0.48763507402E-01  0.51100000000E-03 0.  1.
         11    1    4    4    0    0 -0.65717831308E-01 -0.49834215469E-01  0.18318742435E-01  0.84487394496E-01  0.51100000000E-03 0. -1.
</event>
<event>
 8    1  0.1202249E+005  0.1043930E+01  0.7957747E-01            NaN
         13   -1    0    0    0    0  0.00000000000E+00  0.00000000000E+00  0.74505805969E-08  0.10566000000E+00  0.10566000000E+00 0.  1.
     999900   -1    0    0    0    0 -0.00000000000E+00 -0.00000000000E+00 -0.74505805969E-08  0.93827000000E+00  0.93827000000E+00 0.  1.
     999902    2    1    2    0    0 -0.15783053181E-01 -0.10127418775E-01 -0.15064292132E-01  0.10198758470E+01  0.10195921445E+01 0.  0.
     999903    2    3    3    0    0 -0.12176184507E+00 -0.25206415409E-01  0.39359516860E-01  0.13171998712E+00  0.18430223727E-01 0.  0.
         14    1    1    2    0    0  0.15783053181E-01  0.10127418775E-01  0.15064292132E-01  0.24054152993E-01  0.00000000000E+00 0.  1.
     999901    1    3    3    0    0  0.10597879189E+00  0.15078996634E-01 -0.54423808992E-01  0.88815585989E+00  0.88000000000E+00 0.  1.
        -11    1    4    4    0    0 -0.53287407325E-01 -0.18693330110E-01  0.12260366223E-01  0.57788978802E-01  0.51100000000E-03 0.  1.
         11    1    4    4    0    0 -0.68474437744E-01 -0.65130852991E-02  0.27099150637E-01  0.73931008317E-01  0.51100000000E-03 0. -1.
</event>
<event>
 8    1  0.1202249E+005  0.1043930E+01  0.7957747E-01            NaN
         13   -1    0    0    0    0  0.00000000000E+00  0.00000000000E+00  0.74505805969E-08  0.10566000000E+00  0.10566000000E+00 0. -1.
     999900   -1    0    0    0    0 -0.00000000000E+00 -0.00000000000E+00 -0.74505805969E-08  0.93827000000E+00  0.93827000000E+00 0. -1.
     999902    2    1    2    0    0  0.15665393322E-01  0.15153028536E-02 -0.16763515263E-01  0.10209361718E+01  0.10206772020E+01 0.  0.
     999903    2    3    3    0    0 -0.20860200771E-01  0.96590905028E-01  0.81556449019E-01  0.12962236370E+00  0.19635475166E-01 0.  0.
         14    1    1    2    0    0 -0.15665393322E-01 -0.15153028536E-02  0.16763515263E-01  0.22993828186E-01  0.00000000000E+00 0. -1.
     999901    1    3    3    0    0  0.36525594093E-01 -0.95075602174E-01 -0.98319964283E-01  0.89131380811E+00  0.88000000000E+00 0. -1.
        -11    1    4    4    0    0 -0.16284347626E-01  0.57035974314E-01  0.59866236923E-01  0.84276389267E-01  0.51100000000E-03 0.  1.
         11    1    4    4    0    0 -0.45758531453E-02  0.39554930714E-01  0.21690212096E-01  0.45345974436E-01  0.51100000000E-03 0. -1.
</event>
<event>
 8    1  0.1202249E+005  0.1043930E+01  0.7957747E-01            NaN
         13   -1    0    0    0    0  0.00000000000E+00  0.00000000000E+00  0.74505805969E-08  0.10566000000E+00  0.10566000000E+00 0. -1.
     999900   -1    0    0    0    0 -0.00000000000E+00 -0.00000000000E+00 -0.74505805969E-08  0.93827000000E+00  0.93827000000E+00 0. -1.
     999902    2    1    2    0    0 -0.19373549075E-01 -0.84835978020E-02 -0.80478577573E-02  0.10213009512E+01  0.10210502236E+01 0.  0.
     999903    2    3    3    0    0 -0.10596144642E+00 -0.40094808947E-01  0.67254367552E-01  0.13328791200E+00  0.20176612697E-01 0.  0.
         14    1    1    2    0    0  0.19373549075E-01  0.84835978020E-02  0.80478577573E-02  0.22629048807E-01  0.00000000000E+00 0. -1.
     999901    1    3    3    0    0  0.86587897342E-01  0.31611211145E-01 -0.75302225310E-01  0.88801303919E+00  0.88000000000E+00 0. -1.
        -11    1    4    4    0    0 -0.78416837225E-01 -0.29501147397E-01  0.38955399220E-01  0.92397523276E-01  0.51100000000E-03 0. -1.
         11    1    4    4    0    0 -0.27544609192E-01 -0.10593661550E-01  0.28298968332E-01  0.40890388727E-01  0.51100000000E-03 0.  1.
</event>
<event>
 8    1  0.1202249E+005  0.1043930E+01  0.7957747E-01            NaN
         13   -1    0    0    0    0  0.00000000000E+00  0.00000000000E+00  0.74505805969E-08  0.10566000000E+00  0.10566000000E+00 0.  1.
     999900   -1    0    0    0    0 -0.00000000000E+00 -0.00000000000E+00 -0.74505805969E-08  0.93827000000E+00  0.93827000000E+00 0. -1.
     999902    2    1    2    0    0 -0.22085401291E-01 -0.83025763543E-02 -0.29903380655E-02  0.10201468159E+01  0.10198695437E+01 0.  0.
     999903    2    3    3    0    0  0.82981335575E-02  0.51471610818E-02 -0.12868965979E+00  0.13059390903E+00  0.19959665613E-01 0.  0.
         14    1    1    2    0    0  0.22085401291E-01  0.83025763543E-02  0.29903380655E-02  0.23783184102E-01  0.00000000000E+00 0. -1.
     999901    1    3    3    0    0 -0.30383534849E-01 -0.13449737436E-01  0.12569932173E+00  0.88955290686E+00  0.88000000000E+00 0.  1.
        -11    1    4    4    0    0  0.14721809306E-01  0.51092237276E-02 -0.82958642367E-01  0.84411097024E-01  0.51100000000E-03 0.  1.
         11    1    4    4    0    0 -0.64236757489E-02  0.37937354175E-04 -0.45731017426E-01  0.46182812010E-01  0.51100000000E-03 0. -1.
</event>
<event>
 8    1  0.1202249E+005  0.1043930E+01  0.7957747E-01            NaN
         13   -1    0    0    0    0  0.00000000000E+00  0.00000000000E+00  0.74505805969E-08  0.10566000000E+00  0.10566000000E+00 0.  1.
     999900   -1    0    0    0    0 -0.00000000000E+00 -0.00000000000E+00 -0.74505805969E-08  0.93827000000E+00  0.93827000000E+00 0. -1.
     999902    2    1    2    0    0 -0.35150035084E-02  0.23009333403E-01 -0.43031916308E-02  0.10202592980E+01  0.10199846730E+01 0.  0.
     999903    2    3    3    0    0 -0.34569670641E-01 -0.54185802049E-01  0.10999256288E+00  0.12897539221E+00  0.20127708138E-01 0.  0.
         14    1    1    2    0    0  0.35150035084E-02 -0.23009333403E-01  0.43031916308E-02  0.23670701965E-01  0.00000000000E+00 0. -1.
     999901    1    3    3    0    0  0.31054667133E-01  0.77195135451E-01 -0.11429575451E+00  0.89128390583E+00  0.88000000000E+00 0. -1.
        -11    1    4    4    0    0 -0.32754641877E-01 -0.34673535374E-01  0.80131973853E-01  0.93255106962E-01  0.51100000000E-03 0. -1.
         11    1    4    4    0    0 -0.18150287644E-02 -0.19512266674E-01  0.29860589024E-01  0.35720285246E-01  0.51100000000E-03 0.  1.
</event>
<event>
 8    1  0.1202249E+005  0.1043930E+01  0.7957747E-01            NaN
         13   -1    0    0    0    0  0.00000000000E+00  0.00000000000E+00  0.74505805969E-08  0.10566000000E+00  0.10566000000E+00 0. -1.
     999900   -1    0    0    0    0 -0.00000000000E+00 -0.00000000000E+00 -0.74505805969E-08  0.93827000000E+00  0.93827000000E+00 0.  1.
     999902    2    1    2    0    0  0.37862713471E-02 -0.22634203048E-01 -0.21469648471E-02  0.10208810856E+01  0.10206208593E+01 0.  0.
     999903    2    3    3    0    0 -0.65946441945E-01  0.10646251857E+00  0.19959861507E-01  0.12845891720E+00  0.20496250171E-01 0.  0.
         14    1    1    2    0    0 -0.37862713471E-02  0.22634203048E-01  0.21469648471E-02  0.23048914430E-01  0.00000000000E+00 0.  1.
     999901    1    3    3    0    0  0.69732713292E-01 -0.12909672161E+00 -0.22106826354E-01  0.89242216837E+00  0.88000000000E+00 0. -1.
        -11    1    4    4    0    0 -0.23495274117E-02  0.16628581037E-01  0.17116784541E-02  0.16888485737E-01  0.51100000000E-03 0.  1.
         11    1    4    4    0    0 -0.63596914533E-01  0.89833937529E-01  0.18248183053E-01  0.11157043146E+00  0.51100000000E-03 0. -1.
</event>
<event>
 8    1  0.1202249E+005  0.1043930E+01  0.7957747E-01            NaN
         13   -1    0    0    0    0  0.00000000000E+00  0.00000000000E+00  0.74505805969E-08  0.10566000000E+00  0.10566000000E+00 0.  1.
     999900   -1    0    0    0    0 -0.00000000000E+00 -0.00000000000E+00 -0.74505805969E-08  0.93827000000E+00  0.93827000000E+00 0. -1.
     999902    2    1    2    0    0  0.25591067110E-02  0.11092644866E-01  0.20311487182E-01  0.10206458357E+01  0.10203802083E+01 0.  0.
     999903    2    3    3    0    0 -0.63697918095E-01  0.11268573339E+00 -0.13970076192E-01  0.13166531025E+00  0.19623751342E-01 0.  0.
         14    1    1    2    0    0 -0.25591067110E-02 -0.11092644866E-01 -0.20311487182E-01  0.23284164336E-01  0.00000000000E+00 0. -1.
     999901    1    3    3    0    0  0.66257024806E-01 -0.10159308852E+00  0.34281563374E-01  0.88898052541E+00  0.88000000000E+00 0.  1.
        -11    1    4    4    0    0 -0.50721366650E-01  0.10198260417E+00 -0.14551472159E-01  0.11482645623E+00  0.51100000000E-03 0.  1.
         11    1    4    4    0    0 -0.12976551445E-01  0.10703129218E-01  0.58139596732E-03  0.16838854021E-01  0.51100000000E-03 0. -1.
</event>
<event>
 8    1  0.1202249E+005  0.1043930E+01  0.7957747E-01            NaN
         13   -1    0    0    0    0  0.00000000000E+00  0.00000000000E+00  0.74505805969E-08  0.10566000000E+00  0.10566000000E+00 0.  1.
     999900   -1    0    0    0    0 -0.00000000000E+00 -0.00000000000E+00 -0.74505805969E-08  0.93827000000E+00  0.93827000000E+00 0.  1.
     999902    2    1    2    0    0 -0.22541060210E-01  0.69607941669E-02  0.46652767849E-03  0.10203340321E+01  0.10200611587E+01 0.  0.
     999903    2    3    3    0    0 -0.10656581197E+00  0.74187922882E-01  0.24219984995E-01  0.13346094513E+00  0.19107485926E-01 0.  0.
         14    1    1    2    0    0  0.22541060210E-01 -0.69607941669E-02 -0.46652767849E-03  0.23595967853E-01  0.00000000000E+00 0. -1.
     999901    1    3    3    0    0  0.84024751763E-01 -0.67227128715E-01 -0.23753457316E-01  0.88687308702E+00  0.88000000000E+00 0.  1.
        -11    1    4    4    0    0 -0.71628015399E-01  0.38840772401E-01  0.16993381226E-01  0.83235895605E-01  0.51100000000E-03 0.  1.
         11    1    4    4    0    0 -0.34937796574E-01  0.35347150481E-01  0.72266037689E-02  0.50225049523E-01  0.51100000000E-03 0. -1.
</event>
<event>
 8    1  0.1202249E+005  0.1043930E+01  0.7957747E-01            NaN
         13   -1    0    0    0    0  0.00000000000E+00  0.00000000000E+00  0.74505805969E-08  0.10566000000E+00  0.10566000000E+00 0. -1.
     999900   -1    0    0    0    0 -0.00000000000E+00 -0.00000000000E+00 -0.74505805969E-08  0.93827000000E+00  0.93827000000E+00 0. -1.
     999902    2    1    2    0    0 -0.14833648578E-01 -0.15149237561E-01  0.38446843445E-02  0.10223819577E+01  0.10221548558E+01 0.  0.
     999903    2    3    3    0    0 -0.10214963809E+00 -0.76248218779E-01 -0.40437216718E-01  0.13484713907E+00  0.17327521199E-01 0.  0.
         14    1    1    2    0    0  0.14833648578E-01  0.15149237561E-01 -0.38446843445E-02  0.21548042290E-01  0.00000000000E+00 0. -1.
     999901    1    3    3    0    0  0.87315989514E-01  0.61098981218E-01  0.44281901063E-01  0.88753481864E+00  0.88000000000E+00 0. -1.
        -11    1    4    4    0    0 -0.22057707699E-01 -0.18995216881E-01 -0.16737907438E-01  0.33582426948E-01  0.51100000000E-03 0.  1.
         11    1    4    4    0    0 -0.80091930393E-01 -0.57253001898E-01 -0.23699309280E-01  0.10126471213E+00  0.51100000000E-03 0. -1.
</event>
<event>
 8    1  0.1202249E+005  0.1043930E+01  0.7957747E-01            NaN
         13   -1    0    0    0    0  0.00000000000E+00  0.00000000000E+00  0.74505805969E-08  0.10566000000E+00  0.10566000000E+00 0. -1.
     999900   -1    0    0    0    0 -0.00000000000E+00 -0.00000000000E+00 -0.74505805969E-08  0.93827000000E+00  0.93827000000E+00 0. -1.
     999902    2    1    2    0    0  0.92158893760E-02  0.14267087542E-01  0.15334549678E-01  0.10210470190E+01  0.10207905683E+01 0.  0.
     999903    2    3    3    0    0 -0.10247096467E+00  0.68725292341E-02  0.78501048034E-01  0.13171095243E+00  0.25255300216E-01 0.  0.
         14    1    1    2    0    0 -0.92158893760E-02 -0.14267087542E-01 -0.15334549678E-01  0.22882980963E-01  0.00000000000E+00 0. -1.
     999901    1    3    3    0    0  0.11168685404E+00  0.73945583077E-02 -0.63166498356E-01  0.88933606661E+00  0.88000000000E+00 0. -1.
        -11    1    4    4    0    0 -0.82861041419E-01 -0.39911951523E-02  0.57072834779E-01  0.10069484304E+00  0.51100000000E-03 0.  1.
         11    1    4    4    0    0 -0.19609923248E-01  0.10863724386E-01  0.21428213255E-01  0.31016109389E-01  0.51100000000E-03 0. -1.
</event>
<event>
 8    1  0.1202249E+005  0.1043930E+01  0.7957747E-01            NaN
         13   -1    0    0    0    0  0.00000000000E+00  0.00000000000E+00  0.74505805969E-08  0.10566000000E+00  0.10566000000E+00 0. -1.
     999900   -1    0    0    0    0 -0.00000000000E+00 -0.00000000000E+00 -0.74505805969E-08  0.93827000000E+00  0.93827000000E+00 0.  1.
     999902    2    1    2    0    0 -0.41857527670E-02 -0.11771193835E-01 -0.20262343147E-01  0.10201257130E+01  0.10198479427E+01 0.  0.
     999903    2    3    3    0    0  0.43095695332E-01  0.11210225903E+00  0.39531584778E-01  0.12818654383E+00  0.21092377501E-01 0.  0.
         14    1    1    2    0    0  0.41857527670E-02  0.11771193835E-01  0.20262343147E-01  0.23804287016E-01  0.00000000000E+00 0. -1.
     999901    1    3    3    0    0 -0.47281448099E-01 -0.12387345286E+00 -0.59793927925E-01  0.89193916916E+00  0.88000000000E+00 0.  1.
        -11    1    4    4    0    0  0.26793225010E-01  0.54995175676E-01  0.29635746962E-01  0.67977090796E-01  0.51100000000E-03 0. -1.
         11    1    4    4    0    0  0.16302470321E-01  0.57107083351E-01  0.98958378159E-02  0.60209453032E-01  0.51100000000E-03 0.  1.
</event>
<event>
 8    1  0.1202249E+005  0.1043930E+01  0.7957747E-01            NaN
         13   -1    0    0    0    0  0.00000000000E+00  0.00000000000E+00  0.74505805969E-08  0.10566000000E+00  0.10566000000E+00 0.  1.
     999900   -1    0    0    0    0 -0.00000000000E+00 -0.00000000000E+00 -0.74505805969E-08  0.93827000000E+00  0.93827000000E+00 0.  1.
     999902    2    1    2    0    0  0.25336418849E-03  0.16470019998E-01  0.16663500096E-01  0.10204992939E+01  0.10202302735E+01 0.  0.
     999903    2    3    3    0    0  0.62840481727E-01 -0.11091639025E+00  0.47346133697E-02  0.12904725194E+00  0.19478318713E-01 0.  0.
         14    1    1    2    0    0 -0.25336418849E-03 -0.16470019998E-01 -0.16663500096E-01  0.23430706084E-01  0.00000000000E+00 0. -1.
     999901    1    3    3    0    0 -0.62587117539E-01  0.12738641025E+00  0.11928886726E-01  0.89145204197E+00  0.88000000000E+00 0. -1.
        -11    1    4    4    0    0  0.42987651250E-01 -0.60543137681E-01 -0.31962706118E-02  0.74322856155E-01  0.51100000000E-03 0. -1.
         11    1    4    4    0    0  0.19852830478E-01 -0.50373252573E-01  0.79308839815E-02  0.54724395789E-01  0.51100000000E-03 0.  1.
</event>
<event>
 8    1  0.1202249E+005  0.1043930E+01  0.7957747E-01            NaN
         13   -1    0    0    0    0  0.00000000000E+00  0.00000000000E+00  0.74505805969E-08  0.10566000000E+00  0.10566000000E+00 0. -1.
     999900   -1    0    0    0    0 -0.00000000000E+00 -0.00000000000E+00 -0.74505805969E-08  0.93827000000E+00  0.93827000000E+00 0.  1.
     999902    2    1    2    0    0 -0.79076712740E-02  0.14147148871E-01  0.19312130024E-01  0.10187182676E+01  0.10184062437E+01 0.  0.
     999903    2    3    3    0    0  0.10362954660E+00  0.27201638118E-01 -0.66074481717E-01  0.12748213493E+00  0.20170412662E-01 0.  0.
         14    1    1    2    0    0  0.79076712740E-02 -0.14147148871E-01 -0.19312130024E-01  0.25211732432E-01  0.00000000000E+00 0.  1.
     999901    1    3    3    0    0 -0.11153721787E+00 -0.13054489247E-01  0.85386611741E-01  0.89123613264E+00  0.88000000000E+00 0. -1.
        -11    1    4    4    0    0  0.33879633561E-02  0.41137441135E-02 -0.25519704572E-03  0.53597978381E-02  0.51100000000E-03 0. -1.
         11    1    4    4    0    0  0.10024158324E+00  0.23087894004E-01 -0.65819284672E-01  0.12212233709E+00  0.51100000000E-03 0.  1.
</event>
<event>
 7    1  0.1202249E+005  0.1043930E+01  0.7957747E-01            NaN
         13   -1    0    0    0    0  0.00000000000E+00  0.00000000000E+00  0.74505805969E-08  0.10566000000E+00  0.10566000000E+00 0.  1.
     999900   -1    0    0    0    0 -0.00000000000E+00 -0.00000000000E+00 -0.74505805969E-08  0.93827000000E+00  0.93827000000E+00 0.  1.
     999903    2    1    2    0    0  0.47725813974E-01  0.14405871714E-01  0.44517969951E-01  0.71100651417E-01  0.24252227198E-01 0.  0.
         14    1    1    2    0    0  0.59353199503E-01  0.33025990428E-02  0.54503596478E-01  0.80649559705E-01  0.00000000000E+00 0. -1.
     999901    1    1    2    0    0 -0.10707901348E+00 -0.17708470757E-01 -0.99021566429E-01  0.89217978888E+00  0.88000000000E+00 0. -1.
        -11    1    3    3    0    0  0.12726447824E-01 -0.68735386076E-02  0.11363380020E-01  0.18400965564E-01  0.51100000000E-03 0. -1.
         11    1    3    3    0    0  0.34999366150E-01  0.21279410322E-01  0.33154589932E-01  0.52699685854E-01  0.51100000000E-03 0.  1.
</event>
<event>
 8    1  0.1202249E+005  0.1043930E+01  0.7957747E-01            NaN
         13   -1    0    0    0    0  0.00000000000E+00  0.00000000000E+00  0.74505805969E-08  0.10566000000E+00  0.10566000000E+00 0. -1.
     999900   -1    0    0    0    0 -0.00000000000E+00 -0.00000000000E+00 -0.74505805969E-08  0.93827000000E+00  0.93827000000E+00 0.  1.
     999902    2    1    2    0    0  0.15353057046E-01  0.12804251960E-01 -0.30776082619E-01  0.10072307835E+01  0.10065619796E+01 0.  0.
     999903    2    3    3    0    0 -0.55866069308E-01  0.24237369381E-01  0.95963751181E-01  0.11522973778E+00  0.18983760252E-01 0.  0.
         14    1    1    2    0    0 -0.15353057046E-01 -0.12804251960E-01  0.30776082619E-01  0.36699216480E-01  0.00000000000E+00 0. -1.
     999901    1    3    3    0    0  0.71219126353E-01 -0.11433117421E-01 -0.12673983380E+00  0.89200104574E+00  0.88000000000E+00 0.  1.
        -11    1    4    4    0    0 -0.21922655610E-01  0.19183425390E-01  0.49941762587E-01  0.57819092089E-01  0.51100000000E-03 0. -1.
         11    1    4    4    0    0 -0.33943413698E-01  0.50539439912E-02  0.46021988594E-01  0.57410645689E-01  0.51100000000E-03 0.  1.
</event>
<event>
 8    1  0.1202249E+005  0.1043930E+01  0.7957747E-01            NaN
         13   -1    0    0    0    0  0.00000000000E+00  0.00000000000E+00  0.74505805969E-08  0.10566000000E+00  0.10566000000E+00 0. -1.
     999900   -1    0    0    0    0 -0.00000000000E+00 -0.00000000000E+00 -0.74505805969E-08  0.93827000000E+00  0.93827000000E+00 0.  1.
     999902    2    1    2    0    0  0.23634564712E-01  0.74418331094E-03  0.50211974892E-02  0.10197564839E+01  0.10194699248E+01 0.  0.
     999903    2    3    3    0    0 -0.18808809700E-01  0.81360180933E-01  0.97770494330E-01  0.13020445550E+00  0.20515367591E-01 0.  0.
         14    1    1    2    0    0 -0.23634564712E-01 -0.74418331094E-03 -0.50211974892E-02  0.24173516132E-01  0.00000000000E+00 0.  1.
     999901    1    3    3    0    0  0.42443374413E-01 -0.80615997622E-01 -0.92749296841E-01  0.88955202837E+00  0.88000000000E+00 0.  1.
        -11    1    4    4    0    0 -0.70322713885E-02  0.18285961844E-01  0.36786012688E-01  0.41680943990E-01  0.51100000000E-03 0. -1.
         11    1    4    4    0    0 -0.11776538312E-01  0.63074219090E-01  0.60984481642E-01  0.88523511513E-01  0.51100000000E-03 0.  1.
</event>
<event>
 8    1  0.1202249E+005  0.1043930E+01  0.7957747E-01            NaN
         13   -1    0    0    0    0  0.00000000000E+00  0.00000000000E+00  0.74505805969E-08  0.10566000000E+00  0.10566000000E+00 0.  1.
     999900   -1    0    0    0    0 -0.00000000000E+00 -0.00000000000E+00 -0.74505805969E-08  0.93827000000E+00  0.93827000000E+00 0. -1.
     999902    2    1    2    0    0 -0.15073071568E-02  0.77513932468E-02 -0.22378214855E-01  0.10201994169E+01  0.10199233843E+01 0.  0.
     999903    2    3    3    0    0  0.26507841227E-01 -0.10989287728E+00  0.57798161012E-01  0.12831754462E+00  0.18591791680E-01 0.  0.
         14    1    1    2    0    0  0.15073071568E-02 -0.77513932468E-02  0.22378214855E-01  0.23730583057E-01  0.00000000000E+00 0.  1.
     999901    1    3    3    0    0 -0.28015148384E-01  0.11764427053E+00 -0.80176375867E-01  0.89188187232E+00  0.88000000000E+00 0. -1.
        -11    1    4    4    0    0  0.91894958982E-02 -0.49987125449E-01  0.35884964804E-01  0.62218577334E-01  0.51100000000E-03 0.  1.
         11    1    4    4    0    0  0.17318345329E-01 -0.59905751832E-01  0.21913196209E-01  0.66098967288E-01  0.51100000000E-03 0. -1.
</event>
<event>
 8    1  0.1202249E+005  0.1043930E+01  0.7957747E-01            NaN
         13   -1    0    0    0    0  0.00000000000E+00  0.00000000000E+00  0.74505805969E-08  0.10566000000E+00  0.10566000000E+00 0. -1.
     999900   -1    0    0    0    0 -0.00000000000E+00 -0.00000000000E+00 -0.74505805969E-08  0.93827000000E+00  0.93827000000E+00 0. -1.
     999902    2    1    2    0    0  0.15183510597E-02 -0.67804310004E-02 -0.22866369065E-01  0.10200312455E+01  0.10197512399E+01 0.  0.
     999903    2    3    3    0    0  0.58611049946E-01 -0.11476198893E+00  0.11287937618E-01  0.13093838766E+00  0.20294692603E-01 0.  0.
         14    1    1    2    0    0 -0.15183510597E-02  0.67804310004E-02  0.22866369065E-01  0.23898754543E-01  0.00000000000E+00 0. -1.
     999901    1    3    3    0    0 -0.57092698886E-01  0.10798155793E+00 -0.34154306683E-01  0.88909285780E+00  0.88000000000E+00 0.  1.
        -11    1    4    4    0    0  0.57797460781E-01 -0.10391654808E+00  0.66245950466E-02  0.11909383619E+00  0.51100000000E-03 0.  1.
         11    1    4    4    0    0  0.81358916450E-03 -0.10845440856E-01  0.46633425713E-02  0.11844551475E-01  0.51100000000E-03 0. -1.
</event>
<event>
 8    1  0.1202249E+005  0.1043930E+01  0.7957747E-01            NaN
         13   -1    0    0    0    0  0.00000000000E+00  0.00000000000E+00  0.74505805969E-08  0.10566000000E+00  0.10566000000E+00 0. -1.
     999900   -1    0    0    0    0 -0.00000000000E+00 -0.00000000000E+00 -0.74505805969E-08  0.93827000000E+00  0.93827000000E+00 0.  1.
     999902    2    1    2    0    0  0.21533247676E-01  0.54217656399E-02 -0.74033423140E-02  0.10205230400E+01  0.10202545709E+01 0.  0.
     999903    2    3    3    0    0 -0.55824031147E-01  0.38215724466E-01 -0.10991837193E+00  0.13059668148E+00  0.19916844021E-01 0.  0.
         14    1    1    2    0    0 -0.21533247676E-01 -0.54217656399E-02  0.74033423140E-02  0.23406959981E-01  0.00000000000E+00 0. -1.
     999901    1    3    3    0    0  0.77357278823E-01 -0.32793958826E-01  0.10251502962E+00  0.88992635854E+00  0.88000000000E+00 0. -1.
        -11    1    4    4    0    0 -0.19599631466E-01  0.19346429396E-01 -0.29260985380E-01  0.40185771990E-01  0.51100000000E-03 0.  1.
         11    1    4    4    0    0 -0.36224399681E-01  0.18869295069E-01 -0.80657386553E-01  0.90410909492E-01  0.51100000000E-03 0. -1.
</event>
<event>
 8    1  0.1202249E+005  0.1043930E+01  0.7957747E-01            NaN
         13   -1    0    0    0    0  0.00000000000E+00  0.00000000000E+00  0.74505805969E-08  0.10566000000E+00  0.10566000000E+00 0.  1.
     999900   -1    0    0    0    0 -0.00000000000E+00 -0.00000000000E+00 -0.74505805969E-08  0.93827000000E+00  0.93827000000E+00 0.  1.
     999902    2    1    2    0    0 -0.18948102753E-01 -0.58561380018E-02  0.12864090271E-01  0.10202908425E+01  0.10200169574E+01 0.  0.
     999903    2    3    3    0    0  0.12379728533E+00  0.34677144300E-02  0.28508546367E-01  0.12860259591E+00  0.19700191879E-01 0.  0.
         14    1    1    2    0    0  0.18948102753E-01  0.58561380018E-02 -0.12864090271E-01  0.23639157530E-01  0.00000000000E+00 0. -1.
     999901    1    3    3    0    0 -0.14274538809E+00 -0.93238524318E-02 -0.15644456096E-01  0.89168824656E+00  0.88000000000E+00 0. -1.
        -11    1    4    4    0    0  0.42060818488E-01 -0.70315979041E-02  0.52220564004E-02  0.42966112403E-01  0.51100000000E-03 0.  1.
         11    1    4    4    0    0  0.81736466845E-01  0.10499312334E-01  0.23286489966E-01  0.85636483509E-01  0.51100000000E-03 0. -1.
</event>
<event>
 8    1  0.1202249E+005  0.1043930E+01  0.7957747E-01            NaN
         13   -1    0    0    0    0  0.00000000000E+00  0.00000000000E+00  0.74505805969E-08  0.10566000000E+00  0.10566000000E+00 0.  1.
     999900   -1    0    0    0    0 -0.00000000000E+00 -0.00000000000E+00 -0.74505805969E-08  0.93827000000E+00  0.93827000000E+00 0. -1.
     999902    2    1    2    0    0 -0.21628321402E-01 -0.19919008639E-01  0.34704837784E-02  0.10143226453E+01  0.10138904445E+01 0.  0.
     999903    2    3    3    0    0 -0.45280433379E-01 -0.76768194242E-01 -0.88707433156E-01  0.12736829439E+00  0.20248467247E-01 0.  0.
         14    1    1    2    0    0  0.21628321402E-01  0.19919008639E-01 -0.34704837784E-02  0.29607354652E-01  0.00000000000E+00 0. -1.
     999901    1    3    3    0    0  0.23652111976E-01  0.56849185603E-01  0.92177916934E-01  0.88695435095E+00  0.88000000000E+00 0.  1.
        -11    1    4    4    0    0 -0.78899653584E-02 -0.29492055834E-01 -0.23194468669E-01  0.38344196543E-01  0.51100000000E-03 0. -1.
         11    1    4    4    0    0 -0.37390468020E-01 -0.47276138408E-01 -0.65512964487E-01  0.89024097852E-01  0.51100000000E-03 0.  1.
</event>
<event>
 8    1  0.1202249E+005  0.1043930E+01  0.7957747E-01            NaN
         13   -1    0    0    0    0  0.00000000000E+00  0.00000000000E+00  0.74505805969E-08  0.10566000000E+00  0.10566000000E+00 0.  1.
     999900   -1    0    0    0    0 -0.00000000000E+00 -0.00000000000E+00 -0.74505805969E-08  0.93827000000E+00  0.93827000000E+00 0. -1.
     999902    2    1    2    0    0  0.21597246388E-01  0.46950770335E-02  0.78813925047E-02  0.10204651082E+01  0.10201952930E+01 0.  0.
     999903    2    3    3    0    0  0.12976027063E+00 -0.22605823797E-01 -0.57854937482E-02  0.13331722718E+00  0.19780293801E-01 0.  0.
         14    1    1    2    0    0 -0.21597246388E-01 -0.46950770335E-02 -0.78813925047E-02  0.23464891811E-01  0.00000000000E+00 0. -1.
     999901    1    3    3    0    0 -0.10816302424E+00  0.27300900831E-01  0.13666886253E-01  0.88714788101E+00  0.88000000000E+00 0.  1.
        -11    1    4    4    0    0  0.22077772826E-01 -0.86075200911E-02 -0.70228850901E-02  0.24720426595E-01  0.51100000000E-03 0. -1.
         11    1    4    4    0    0  0.10768249780E+00 -0.13998303706E-01  0.12373913419E-02  0.10859680058E+00  0.51100000000E-03 0.  1.
</event>
<event>
 8    1  0.1202249E+005  0.1043930E+01  0.7957747E-01            NaN
         13   -1    0    0    0    0  0.00000000000E+00  0.00000000000E+00  0.74505805969E-08  0.10566000000E+00  0.10566000000E+00 0. -1.
     999900   -1    0    0    0    0 -0.00000000000E+00 -0.00000000000E+00 -0.74505805969E-08  0.93827000000E+00  0.93827000000E+00 0. -1.
     999902    2    1    2    0    0  0.55823953641E-02 -0.22387916831E-01  0.84255896059E-02  0.10193663578E+01  0.10190703601E+01 0.  0.
     999903    2    3    3    0    0  0.31588321130E-01 -0.10471817749E+00  0.72567597962E-01  0.13281755642E+00  0.20266432587E-01 0.  0.
         14    1    1    2    0    0 -0.55823953641E-02  0.22387916831E-01 -0.84255896059E-02  0.24563642202E-01  0.00000000000E+00 0.  1.
     999901    1    3    3    0    0 -0.26005925765E-01  0.82330260659E-01 -0.64142008356E-01  0.88654880138E+00  0.88000000000E+00 0. -1.
        -11    1    4    4    0    0  0.19301786473E-01 -0.39876218134E-01  0.20828254805E-01  0.48956603773E-01  0.51100000000E-03 0.  1.
         11    1    4    4    0    0  0.12286534656E-01 -0.64841959356E-01  0.51739343157E-01  0.83860952644E-01  0.51100000000E-03 0. -1.
</event>
<event>
 8    1  0.1202249E+005  0.1043930E+01  0.7957747E-01            NaN
         13   -1    0    0    0    0  0.00000000000E+00  0.00000000000E+00  0.74505805969E-08  0.10566000000E+00  0.10566000000E+00 0.  1.
     999900   -1    0    0    0    0 -0.00000000000E+00 -0.00000000000E+00 -0.74505805969E-08  0.93827000000E+00  0.93827000000E+00 0.  1.
     999902    2    1    2    0    0 -0.65000401955E-02 -0.21784307624E-01  0.82664317722E-02  0.10197403230E+01  0.10194533760E+01 0.  0.
     999903    2    3    3    0    0  0.15775461649E-01 -0.89780680144E-01  0.94350158412E-01  0.13264950875E+00  0.19608775122E-01 0.  0.
         14    1    1    2    0    0  0.65000401955E-02  0.21784307624E-01 -0.82664317722E-02  0.24189677043E-01  0.00000000000E+00 0. -1.
     999901    1    3    3    0    0 -0.22275501845E-01  0.67996372520E-01 -0.86083726640E-01  0.88709081421E+00  0.88000000000E+00 0.  1.
        -11    1    4    4    0    0  0.61123687001E-02 -0.30977497981E-01  0.20064901253E-01  0.37414272886E-01  0.51100000000E-03 0.  1.
         11    1    4    4    0    0  0.96630929492E-02 -0.58803182163E-01  0.74285257159E-01  0.95235235864E-01  0.51100000000E-03 0. -1.
</event>
<event>
 8    1  0.1202249E+005  0.1043930E+01  0.7957747E-01            NaN
         13   -1    0    0    0    0  0.00000000000E+00  0.00000000000E+00  0.74505805969E-08  0.10566000000E+00  0.10566000000E+00 0.  1.
     999900   -1    0    0    0    0 -0.00000000000E+00 -0.00000000000E+00 -0.74505805969E-08  0.93827000000E+00  0.93827000000E+00 0.  1.
     999902    2    1    2    0    0  0.12584673260E-01 -0.44385646209E-02  0.28852015300E-02  0.10302771891E+01  0.10301867244E+01 0.  0.
     999903    2    3    3    0    0 -0.14943405568E-01  0.94975755422E-01 -0.98690086757E-01  0.13844842678E+00  0.13584335314E-01 0.  0.
         14    1    1    2    0    0 -0.12584673260E-01  0.44385646209E-02 -0.28852015300E-02  0.13652810876E-01  0.00000000000E+00 0.  1.
     999901    1    3    3    0    0  0.27528078827E-01 -0.99414320043E-01  0.10157528829E+00  0.89182876234E+00  0.88000000000E+00 0. -1.
        -11    1    4    4    0    0 -0.60066001292E-02  0.74595004841E-01 -0.76330273472E-01  0.10689745442E+00  0.51100000000E-03 0. -1.
         11    1    4    4    0    0 -0.89368054385E-02  0.20380750580E-01 -0.22359813285E-01  0.31550972359E-01  0.51100000000E-03 0.  1.
</event>
<event>
 8    1  0.1202249E+005  0.1043930E+01  0.7957747E-01            NaN
         13   -1    0    0    0    0  0.00000000000E+00  0.00000000000E+00  0.74505805969E-08  0.10566000000E+00  0.10566000000E+00 0.  1.
     999900   -1    0    0    0    0 -0.00000000000E+00 -0.00000000000E+00 -0.74505805969E-08  0.93827000000E+00  0.93827000000E+00 0.  1.
     999902    2    1    2    0    0 -0.17618785702E-01 -0.23826344111E-01  0.18246753688E-03  0.10142964113E+01  0.10138634328E+01 0.  0.
     999903    2    3    3    0    0 -0.58090293559E-01 -0.50929786804E-01  0.99299158054E-01  0.12739356552E+00  0.20011805437E-01 0.  0.
         14    1    1    2    0    0  0.17618785702E-01  0.23826344111E-01 -0.18246753688E-03  0.29633588674E-01  0.00000000000E+00 0. -1.
     999901    1    3    3    0    0  0.40471507857E-01  0.27103442693E-01 -0.99116690517E-01  0.88690284580E+00  0.88000000000E+00 0.  1.
        -11    1    4    4    0    0 -0.73058387491E-02 -0.89954734612E-02  0.56476494409E-02  0.12901584702E-01  0.51100000000E-03 0. -1.
         11    1    4    4    0    0 -0.50784454810E-01 -0.41934313343E-01  0.93651508613E-01  0.11449198082E+00  0.51100000000E-03 0.  1.
</event>
<event>
 8    1  0.1202249E+005  0.1043930E+01  0.7957747E-01            NaN
         13   -1    0    0    0    0  0.00000000000E+00  0.00000000000E+00  0.74505805969E-08  0.10566000000E+00  0.10566000000E+00 0. -1.
     999900   -1    0    0    0    0 -0.00000000000E+00 -0.00000000000E+00 -0.74505805969E-08  0.93827000000E+00  0.93827000000E+00 0.  1.
     999902    2    1    2    0    0  0.22915241811E-01  0.67883876475E-02  0.56984223456E-02  0.10193604552E+01  0.10190643135E+01 0.  0.
     999903    2    3    3    0    0 -0.45331906223E-01 -0.18892427463E-01  0.11789250137E+00  0.12924546890E+00  0.19845498616E-01 0.  0.
         14    1    1    2    0    0 -0.22915241811E-01 -0.67883876475E-02 -0.56984223456E-02  0.24569544793E-01  0.00000000000E+00 0.  1.
     999901    1    3    3    0    0  0.68247148034E-01  0.25680815111E-01 -0.11219407902E+00  0.89011498631E+00  0.88000000000E+00 0.  1.
        -11    1    4    4    0    0 -0.20086742264E-01 -0.14333774506E-02  0.65435950977E-01  0.68466463228E-01  0.51100000000E-03 0. -1.
         11    1    4    4    0    0 -0.25245163958E-01 -0.17459050012E-01  0.52456550391E-01  0.60779005673E-01  0.51100000000E-03 0.  1.
</event>
<event>
 8    1  0.1202249E+005  0.1043930E+01  0.7957747E-01            NaN
         13   -1    0    0    0    0  0.00000000000E+00  0.00000000000E+00  0.74505805969E-08  0.10566000000E+00  0.10566000000E+00 0.  1.
     999900   -1    0    0    0    0 -0.00000000000E+00 -0.00000000000E+00 -0.74505805969E-08  0.93827000000E+00  0.93827000000E+00 0.  1.
     999902    2    1    2    0    0  0.25636042462E-02  0.23032868985E-02  0.22943746781E-01  0.10207288640E+01  0.10204651493E+01 0.  0.
     999903    2    3    3    0    0  0.57596508820E-01  0.55864280587E-01 -0.99036236047E-01  0.12900215872E+00  0.19879769349E-01 0.  0.
         14    1    1    2    0    0 -0.25636042462E-02 -0.23032868985E-02 -0.22943746781E-01  0.23201136042E-01  0.00000000000E+00 0. -1.
     999901    1    3    3    0    0 -0.55032904574E-01 -0.53560993688E-01  0.12197998283E+00  0.89172670524E+00  0.88000000000E+00 0. -1.
        -11    1    4    4    0    0  0.25692980955E-01  0.13470454481E-01 -0.27857146703E-01  0.40222682130E-01  0.51100000000E-03 0. -1.
         11    1    4    4    0    0  0.31903527864E-01  0.42393826106E-01 -0.71179089344E-01  0.88779476586E-01  0.51100000000E-03 0.  1.
</event>
<event>
 8    1  0.1202249E+005  0.1043930E+01  0.7957747E-01            NaN
         13   -1    0    0    0    0  0.00000000000E+00  0.00000000000E+00  0.74505805969E-08  0.10566000000E+00  0.10566000000E+00 0. -1.
     999900   -1    0    0    0    0 -0.00000000000E+00 -0.00000000000E+00 -0.74505805969E-08  0.93827000000E+00  0.93827000000E+00 0.  1.
     999902    2    1    2    0    0 -0.16973954408E-01  0.47770315489E-02 -0.14837448651E-01  0.10208847176E+01  0.10206245743E+01 0.  0.
     999903    2    3    3    0    0 -0.86752169441E-01  0.67452307288E-01 -0.73829597047E-01  0.13393643102E+00  0.20307769289E-01 0.  0.
         14    1    1    2    0    0  0.16973954408E-01 -0.47770315489E-02  0.14837448651E-01  0.23045282405E-01  0.00000000000E+00 0. -1.
     999901    1    3    3    0    0  0.69778215033E-01 -0.62675275739E-01  0.58992148397E-01  0.88694828657E+00  0.88000000000E+00 0. -1.
        -11    1    4    4    0    0 -0.41229332726E-01  0.44715322759E-01 -0.41947688533E-01  0.73886315788E-01  0.51100000000E-03 0.  1.
         11    1    4    4    0    0 -0.45522836716E-01  0.22736984529E-01 -0.31881908514E-01  0.60050115234E-01  0.51100000000E-03 0. -1.
</event>
<event>
 7    1  0.1202249E+005  0.1043930E+01  0.7957747E-01            NaN
         13   -1    0    0    0    0  0.00000000000E+00  0.00000000000E+00  0.74505805969E-08  0.10566000000E+00  0.10566000000E+00 0.  1.
     999900   -1    0    0    0    0 -0.00000000000E+00 -0.00000000000E+00 -0.74505805969E-08  0.93827000000E+00  0.93827000000E+00 0.  1.
     999903    2    1    2    0    0 -0.12162655029E-01 -0.83539470415E-01  0.81741027585E-01  0.11893827022E+00  0.18383232536E-01 0.  0.
         14    1    1    2    0    0 -0.13018030945E-02  0.33694928934E-01 -0.24387034085E-01  0.41614545037E-01  0.00000000000E+00 0. -1.
     999901    1    1    2    0    0  0.13464458124E-01  0.49844541481E-01 -0.57353993499E-01  0.88337718474E+00  0.88000000000E+00 0.  1.
        -11    1    3    3    0    0 -0.11587209772E-01 -0.68339170398E-01  0.56333312370E-01  0.89320819771E-01  0.51100000000E-03 0. -1.
         11    1    3    3    0    0 -0.57544525676E-03 -0.15200300017E-01  0.25407715215E-01  0.29617450452E-01  0.51100000000E-03 0.  1.
</event>
<event>
 8    1  0.1202249E+005  0.1043930E+01  0.7957747E-01            NaN
         13   -1    0    0    0    0  0.00000000000E+00  0.00000000000E+00  0.74505805969E-08  0.10566000000E+00  0.10566000000E+00 0.  1.
     999900   -1    0    0    0    0 -0.00000000000E+00 -0.00000000000E+00 -0.74505805969E-08  0.93827000000E+00  0.93827000000E+00 0.  1.
     999902    2    1    2    0    0  0.19146031223E-01 -0.23838915404E-02 -0.13874900172E-01  0.10201651877E+01  0.10198883487E+01 0.  0.
     999903    2    3    3    0    0 -0.78971672073E-01  0.98812294887E-01 -0.13892782179E-01  0.12894818145E+00  0.20838173908E-01 0.  0.
         14    1    1    2    0    0 -0.19146031223E-01  0.23838915404E-02  0.13874900172E-01  0.23764812334E-01  0.00000000000E+00 0. -1.
     999901    1    3    3    0    0  0.98117703297E-01 -0.10119618643E+00  0.17882006396E-04  0.89121700622E+00  0.88000000000E+00 0. -1.
        -11    1    4    4    0    0 -0.64313881455E-01  0.65559597665E-01 -0.10811490151E-01  0.92474243084E-01  0.51100000000E-03 0. -1.
         11    1    4    4    0    0 -0.14657790619E-01  0.33252697222E-01 -0.30812920280E-02  0.36473938366E-01  0.51100000000E-03 0.  1.
</event>
<event>
 8    1  0.1202249E+005  0.1043930E+01  0.7957747E-01            NaN
         13   -1    0    0    0    0  0.00000000000E+00  0.00000000000E+00  0.74505805969E-08  0.10566000000E+00  0.10566000000E+00 0. -1.
     999900   -1    0    0    0    0 -0.00000000000E+00 -0.00000000000E+00 -0.74505805969E-08  0.93827000000E+00  0.93827000000E+00 0. -1.
     999902    2    1    2    0    0  0.16983810951E-01  0.12197738972E-01  0.13197975251E-01  0.10192030669E+01  0.10189030721E+01 0.  0.
     999903    2    3    3    0    0  0.89621817686E-01 -0.91640820706E-01 -0.61918165507E-02  0.12991419901E+00  0.20229935441E-01 0.  0.
         14    1    1    2    0    0 -0.16983810951E-01 -0.12197738972E-01 -0.13197975251E-01  0.24726933113E-01  0.00000000000E+00 0.  1.
     999901    1    3    3    0    0 -0.72638006735E-01  0.10383855968E+00  0.19389791802E-01  0.88928886787E+00  0.88000000000E+00 0.  1.
        -11    1    4    4    0    0  0.82721693915E-01 -0.74894324738E-01 -0.39878564081E-02  0.11166110622E+00  0.51100000000E-03 0. -1.
         11    1    4    4    0    0  0.69001237704E-02 -0.16746495967E-01 -0.22039601425E-02  0.18253092794E-01  0.51100000000E-03 0.  1.
</event>
<event>
 7    1  0.1329283E+005  0.1043930E+01  0.7957747E-01            NaN
         13   -1    0    0    0    0  0.00000000000E+00  0.00000000000E+00  0.74505805969E-08  0.10566000000E+00  0.10566000000E+00 0. -1.
     999900   -1    0    0    0    0 -0.00000000000E+00 -0.00000000000E+00 -0.74505805969E-08  0.93827000000E+00  0.93827000000E+00 0.  1.
     999903    2    1    2    0    0  0.65150580450E-01 -0.57464534249E-01  0.70339925790E-01  0.11326915853E+00  0.18314646705E-01 0.  0.
         14    1    1    2    0    0 -0.41184505734E-01 -0.16928766758E-01 -0.26158665706E-02  0.44604813803E-01  0.00000000000E+00 0.  1.
     999901    1    1    2    0    0 -0.23966074716E-01  0.74393301007E-01 -0.67724059219E-01  0.88605602767E+00  0.88000000000E+00 0. -1.
        -11    1    3    3    0    0  0.39332826117E-01 -0.29640911146E-01  0.50075686666E-01  0.70238809358E-01  0.51100000000E-03 0. -1.
         11    1    3    3    0    0  0.25817754333E-01 -0.27823623104E-01  0.20264239123E-01  0.43030349170E-01  0.51100000000E-03 0.  1.
</event>
<event>
 8    1  0.1202249E+005  0.1043930E+01  0.7957747E-01            NaN
         13   -1    0    0    0    0  0.00000000000E+00  0.00000000000E+00  0.74505805969E-08  0.10566000000E+00  0.10566000000E+00 0.  1.
     999900   -1    0    0    0    0 -0.00000000000E+00 -0.00000000000E+00 -0.74505805969E-08  0.93827000000E+00  0.93827000000E+00 0. -1.
     999902    2    1    2    0    0  0.22439580096E-01  0.37940026391E-02 -0.64547296931E-02  0.10202742872E+01  0.10200000139E+01 0.  0.
     999903    2    3    3    0    0 -0.27412013628E-01 -0.12354686228E+00  0.18227918639E-01  0.12937019004E+00  0.19726717481E-01 0.  0.
         14    1    1    2    0    0 -0.22439580096E-01 -0.37940026391E-02  0.64547296931E-02  0.23655712763E-01  0.00000000000E+00 0.  1.
     999901    1    3    3    0    0  0.49851593724E-01  0.12734086492E+00 -0.24682648332E-01  0.89090409720E+00  0.88000000000E+00 0.  1.
        -11    1    4    4    0    0 -0.11675539204E-01 -0.84516197470E-01  0.59426718197E-02  0.85527085300E-01  0.51100000000E-03 0. -1.
         11    1    4    4    0    0 -0.15736474425E-01 -0.39030664809E-01  0.12285246819E-01  0.43843104739E-01  0.51100000000E-03 0.  1.
</event>
<event>
 8    1  0.1202249E+005  0.1043930E+01  0.7957747E-01            NaN
         13   -1    0    0    0    0  0.00000000000E+00  0.00000000000E+00  0.74505805969E-08  0.10566000000E+00  0.10566000000E+00 0. -1.
     999900   -1    0    0    0    0 -0.00000000000E+00 -0.00000000000E+00 -0.74505805969E-08  0.93827000000E+00  0.93827000000E+00 0.  1.
     999902    2    1    2    0    0 -0.67453051834E-02  0.14840544093E-01  0.17437944911E-01  0.10200590383E+01  0.10197796913E+01 0.  0.
     999903    2    3    3    0    0  0.59661462111E-01  0.68284549785E-01 -0.90178473773E-01  0.12941465691E+00  0.19842542440E-01 0.  0.
         14    1    1    2    0    0  0.67453051834E-02 -0.14840544093E-01 -0.17437944911E-01  0.23870961725E-01  0.00000000000E+00 0.  1.
     999901    1    3    3    0    0 -0.66406767294E-01 -0.53444005692E-01  0.10761641868E+00  0.89064438137E+00  0.88000000000E+00 0. -1.
        -11    1    4    4    0    0  0.16013650838E-01  0.28708223392E-01 -0.23373182568E-01  0.40338144328E-01  0.51100000000E-03 0. -1.
         11    1    4    4    0    0  0.43647811273E-01  0.39576326393E-01 -0.66805291205E-01  0.89076512582E-01  0.51100000000E-03 0.  1.
</event>
<event>
 8    1  0.1202249E+005  0.1043930E+01  0.7957747E-01            NaN
         13   -1    0    0    0    0  0.00000000000E+00  0.00000000000E+00  0.74505805969E-08  0.10566000000E+00  0.10566000000E+00 0.  1.
     999900   -1    0    0    0    0 -0.00000000000E+00 -0.00000000000E+00 -0.74505805969E-08  0.93827000000E+00  0.93827000000E+00 0. -1.
     999902    2    1    2    0    0  0.17032417132E-01 -0.47871874732E-02 -0.16630660081E-01  0.10196483351E+01  0.10193591751E+01 0.  0.
     999903    2    3    3    0    0  0.14822240173E-01  0.11121427307E+00 -0.64402747288E-01  0.13074823042E+00  0.18949209987E-01 0.  0.
         14    1    1    2    0    0 -0.17032417132E-01  0.47871874732E-02  0.16630660081E-01  0.24281664935E-01  0.00000000000E+00 0.  1.
     999901    1    3    3    0    0  0.22101769590E-02 -0.11600146055E+00  0.47772087207E-01  0.88890010465E+00  0.88000000000E+00 0.  1.
        -11    1    4    4    0    0  0.13943689255E-01  0.10286640407E+00 -0.64723138341E-01  0.12233261754E+00  0.51100000000E-03 0.  1.
         11    1    4    4    0    0  0.87855091793E-03  0.83478690089E-02  0.32039105298E-03  0.84156128792E-02  0.51100000000E-03 0. -1.
</event>
<event>
 8    1  0.1202249E+005  0.1043930E+01  0.7957747E-01            NaN
         13   -1    0    0    0    0  0.00000000000E+00  0.00000000000E+00  0.74505805969E-08  0.10566000000E+00  0.10566000000E+00 0.  1.
     999900   -1    0    0    0    0 -0.00000000000E+00 -0.00000000000E+00 -0.74505805969E-08  0.93827000000E+00  0.93827000000E+00 0.  1.
     999902    2    1    2    0    0  0.13397406851E-01  0.14185060957E-01 -0.41771570484E-02  0.10239761757E+01  0.10237817410E+01 0.  0.
     999903    2    3    3    0    0 -0.16715576789E-01 -0.12745009834E+00 -0.22164677646E-01  0.13196111916E+00  0.19988145485E-01 0.  0.
         14    1    1    2    0    0 -0.13397406851E-01 -0.14185060957E-01  0.41771570484E-02  0.19953824337E-01  0.00000000000E+00 0. -1.
     999901    1    3    3    0    0  0.30112983640E-01  0.14163515930E+00  0.17987520598E-01  0.89201505650E+00  0.88000000000E+00 0.  1.
        -11    1    4    4    0    0 -0.15080366019E-01 -0.59465939826E-01 -0.35466039807E-02  0.61452867789E-01  0.51100000000E-03 0.  1.
         11    1    4    4    0    0 -0.16352107701E-02 -0.67984158515E-01 -0.18618073665E-01  0.70508251370E-01  0.51100000000E-03 0. -1.
</event>
<event>
 8    1  0.1202249E+005  0.1043930E+01  0.7957747E-01            NaN
         13   -1    0    0    0    0  0.00000000000E+00  0.00000000000E+00  0.74505805969E-08  0.10566000000E+00  0.10566000000E+00 0. -1.
     999900   -1    0    0    0    0 -0.00000000000E+00 -0.00000000000E+00 -0.74505805969E-08  0.93827000000E+00  0.93827000000E+00 0. -1.
     999902    2    1    2    0    0  0.65418485242E-03 -0.22516592305E-01 -0.55796386479E-02  0.10207231636E+01  0.10204593179E+01 0.  0.
     999903    2    3    3    0    0 -0.10765801251E+00 -0.61479867794E-01 -0.40786675214E-01  0.13252881307E+00  0.23028495770E-01 0.  0.
         14    1    1    2    0    0 -0.65418485242E-03  0.22516592305E-01  0.55796386479E-02  0.23206836370E-01  0.00000000000E+00 0. -1.
     999901    1    3    3    0    0  0.10831219737E+00  0.38963275488E-01  0.35207036567E-01  0.88819435056E+00  0.88000000000E+00 0.  1.
        -11    1    4    4    0    0 -0.39849420514E-01 -0.18965079848E-01 -0.36179212124E-02  0.44283191437E-01  0.51100000000E-03 0.  1.
         11    1    4    4    0    0 -0.67808592000E-01 -0.42514787945E-01 -0.37168754002E-01  0.88245621637E-01  0.51100000000E-03 0. -1.
</event>
<event>
 8    1  0.1202249E+005  0.1043930E+01  0.7957747E-01            NaN
         13   -1    0    0    0    0  0.00000000000E+00  0.00000000000E+00  0.74505805969E-08  0.10566000000E+00  0.10566000000E+00 0. -1.
     999900   -1    0    0    0    0 -0.00000000000E+00 -0.00000000000E+00 -0.74505805969E-08  0.93827000000E+00  0.93827000000E+00 0. -1.
     999902    2    1    2    0    0  0.19545154424E-02 -0.16252471236E-01 -0.16700557639E-01  0.10205447145E+01  0.10202767481E+01 0.  0.
     999903    2    3    3    0    0 -0.18910257846E-01 -0.12533029695E+00 -0.32579096263E-01  0.13342271680E+00  0.25979658581E-01 0.  0.
         14    1    1    2    0    0 -0.19545154424E-02  0.16252471236E-01  0.16700557639E-01  0.23385285488E-01  0.00000000000E+00 0. -1.
     999901    1    3    3    0    0  0.20864773289E-01  0.10907782572E+00  0.15878538624E-01  0.88712199771E+00  0.88000000000E+00 0.  1.
        -11    1    4    4    0    0  0.32164157181E-02 -0.58537309913E-01 -0.19982357881E-01  0.61939629716E-01  0.51100000000E-03 0. -1.
         11    1    4    4    0    0 -0.22126673564E-01 -0.66792987040E-01 -0.12596738382E-01  0.71483087088E-01  0.51100000000E-03 0.  1.
</event>
<event>
 8    1  0.1202249E+005  0.1043930E+01  0.7957747E-01            NaN
         13   -1    0    0    0    0  0.00000000000E+00  0.00000000000E+00  0.74505805969E-08  0.10566000000E+00  0.10566000000E+00 0.  1.
     999900   -1    0    0    0    0 -0.00000000000E+00 -0.00000000000E+00 -0.74505805969E-08  0.93827000000E+00  0.93827000000E+00 0.  1.
     999902    2    1    2    0    0  0.55028637955E-02  0.22781166658E-01 -0.22090373433E-03  0.10204925969E+01  0.10202234209E+01 0.  0.
     999903    2    3    3    0    0 -0.62361767540E-01 -0.70018661543E-01  0.86199321451E-01  0.12881671881E+00  0.19282660890E-01 0.  0.
         14    1    1    2    0    0 -0.55028637955E-02 -0.22781166658E-01  0.22090373433E-03  0.23437403071E-01  0.00000000000E+00 0.  1.
     999901    1    3    3    0    0  0.67864631335E-01  0.92799828201E-01 -0.86420225186E-01  0.89167587812E+00  0.88000000000E+00 0. -1.
        -11    1    4    4    0    0 -0.30110249551E-01 -0.35410323330E-01  0.55611491086E-01  0.72480460734E-01  0.51100000000E-03 0. -1.
         11    1    4    4    0    0 -0.32251517988E-01 -0.34608338213E-01  0.30587830366E-01  0.56336258075E-01  0.51100000000E-03 0.  1.
</event>
<event>
 8    1  0.1202249E+005  0.1043930E+01  0.7957747E-01            NaN
         13   -1    0    0    0    0  0.00000000000E+00  0.00000000000E+00  0.74505805969E-08  0.10566000000E+00  0.10566000000E+00 0. -1.
     999900   -1    0    0    0    0 -0.00000000000E+00 -0.00000000000E+00 -0.74505805969E-08  0.93827000000E+00  0.93827000000E+00 0. -1.
     999902    2    1    2    0    0 -0.10904109489E-02  0.48100009564E-02  0.25067529677E-01  0.10183818856E+01  0.10180613728E+01 0.  0.
     999903    2    3    3    0    0 -0.99359418066E-01  0.70799278136E-01  0.43352877045E-01  0.13026830255E+00  0.14336211472E-01 0.  0.
         14    1    1    2    0    0  0.10904109489E-02 -0.48100009564E-02 -0.25067529677E-01  0.25548114399E-01  0.00000000000E+00 0.  1.
     999901    1    3    3    0    0  0.98269007117E-01 -0.65989277180E-01 -0.18285347367E-01  0.88811358305E+00  0.88000000000E+00 0. -1.
        -11    1    4    4    0    0 -0.80330066246E-01  0.63711697291E-01  0.36267751290E-01  0.10875527950E+00  0.51100000000E-03 0.  1.
         11    1    4    4    0    0 -0.19029351820E-01  0.70875808450E-02  0.70851257547E-02  0.21513023053E-01  0.51100000000E-03 0. -1.
</event>
<event>
 8    1  0.1202249E+005  0.1043930E+01  0.7957747E-01            NaN
         13   -1    0    0    0    0  0.00000000000E+00  0.00000000000E+00  0.74505805969E-08  0.10566000000E+00  0.10566000000E+00 0.  1.
     999900   -1    0    0    0    0 -0.00000000000E+00 -0.00000000000E+00 -0.74505805969E-08  0.93827000000E+00  0.93827000000E+00 0. -1.
     999902    2    1    2    0    0  0.19586463213E-01 -0.92082276246E-02  0.11978523480E-01  0.10191932657E+01  0.10188930302E+01 0.  0.
     999903    2    3    3    0    0  0.89002169212E-01  0.63243259724E-01  0.70696025136E-01  0.13154721958E+00  0.19637896640E-01 0.  0.
         14    1    1    2    0    0 -0.19586463213E-01  0.92082276246E-02 -0.11978523480E-01  0.24736734262E-01  0.00000000000E+00 0. -1.
     999901    1    3    3    0    0 -0.69415705999E-01 -0.72451487348E-01 -0.58717501655E-01  0.88764604616E+00  0.88000000000E+00 0. -1.
        -11    1    4    4    0    0  0.13904963015E-01  0.18979565478E-01  0.18573076135E-01  0.29979862913E-01  0.51100000000E-03 0. -1.
         11    1    4    4    0    0  0.75097206197E-01  0.44263694245E-01  0.52122949001E-01  0.10156735667E+00  0.51100000000E-03 0.  1.
</event>
<event>
 8    1  0.1202249E+005  0.1043930E+01  0.7957747E-01            NaN
         13   -1    0    0    0    0  0.00000000000E+00  0.00000000000E+00  0.74505805969E-08  0.10566000000E+00  0.10566000000E+00 0. -1.
     999900   -1    0    0    0    0 -0.00000000000E+00 -0.00000000000E+00 -0.74505805969E-08  0.93827000000E+00  0.93827000000E+00 0. -1.
     999902    2    1    2    0    0  0.37578246011E-02 -0.20515873662E-01  0.11883342587E-01  0.10199250807E+01  0.10196425522E+01 0.  0.
     999903    2    3    3    0    0  0.67898070016E-02  0.21961286290E-01  0.12795040853E+00  0.13128282098E+00  0.18315907456E-01 0.  0.
         14    1    1    2    0    0 -0.37578246011E-02  0.20515873662E-01 -0.11883342587E-01  0.24004919264E-01  0.00000000000E+00 0. -1.
     999901    1    3    3    0    0 -0.30319824005E-02 -0.42477159951E-01 -0.11606706594E+00  0.88864225976E+00  0.88000000000E+00 0. -1.
        -11    1    4    4    0    0 -0.31246293915E-02  0.69488668507E-02  0.74355908175E-01  0.74746988306E-01  0.51100000000E-03 0.  1.
         11    1    4    4    0    0  0.99144363931E-02  0.15012419439E-01  0.53594500355E-01  0.56535832670E-01  0.51100000000E-03 0. -1.
</event>
<event>
 8    1  0.1274701E+005  0.1043930E+01  0.7957747E-01            NaN
         13   -1    0    0    0    0  0.00000000000E+00  0.00000000000E+00  0.74505805969E-08  0.10566000000E+00  0.10566000000E+00 0.  1.
     999900   -1    0    0    0    0 -0.00000000000E+00 -0.00000000000E+00 -0.74505805969E-08  0.93827000000E+00  0.93827000000E+00 0.  1.
     999902    2    1    2    0    0  0.77328918352E-03 -0.14640047793E-01 -0.18986463081E-01  0.10199421957E+01  0.10196600746E+01 0.  0.
     999903    2    3    3    0    0 -0.10534760222E+00 -0.66722197235E-01 -0.38276694099E-01  0.13182829145E+00  0.19068933294E-01 0.  0.
         14    1    1    2    0    0 -0.77328918352E-03  0.14640047793E-01  0.18986463081E-01  0.23987804315E-01  0.00000000000E+00 0.  1.
     999901    1    3    3    0    0  0.10612089141E+00  0.52082149442E-01  0.19290231018E-01  0.88811390424E+00  0.88000000000E+00 0.  1.
        -11    1    4    4    0    0 -0.35528782688E-01 -0.23750508264E-01 -0.38620455328E-02  0.42913372727E-01  0.51100000000E-03 0.  1.
         11    1    4    4    0    0 -0.69818819537E-01 -0.42971688971E-01 -0.34414648566E-01  0.88914918723E-01  0.51100000000E-03 0. -1.
</event>
<event>
 8    1  0.1202249E+005  0.1043930E+01  0.7957747E-01            NaN
         13   -1    0    0    0    0  0.00000000000E+00  0.00000000000E+00  0.74505805969E-08  0.10566000000E+00  0.10566000000E+00 0.  1.
     999900   -1    0    0    0    0 -0.00000000000E+00 -0.00000000000E+00 -0.74505805969E-08  0.93827000000E+00  0.93827000000E+00 0.  1.
     999902    2    1    2    0    0  0.31733753454E-02 -0.18978399604E-01 -0.15164781731E-01  0.10194306007E+01  0.10191361680E+01 0.  0.
     999903    2    3    3    0    0  0.95627083255E-01 -0.16666656184E-01  0.82929130221E-01  0.12916353522E+00  0.19587284416E-01 0.  0.
         14    1    1    2    0    0 -0.31733753454E-02  0.18978399604E-01  0.15164781731E-01  0.24499399331E-01  0.00000000000E+00 0.  1.
     999901    1    3    3    0    0 -0.92453707909E-01 -0.23117434199E-02 -0.98093911953E-01  0.89026706545E+00  0.88000000000E+00 0.  1.
        -11    1    4    4    0    0  0.38629773885E-01 -0.78595994116E-02  0.46424460235E-01  0.60905864762E-01  0.51100000000E-03 0.  1.
         11    1    4    4    0    0  0.56997309369E-01 -0.88070567723E-02  0.36504669987E-01  0.68257670456E-01  0.51100000000E-03 0. -1.
</event>
<event>
 8    1  0.1202249E+005  0.1043930E+01  0.7957747E-01            NaN
         13   -1    0    0    0    0  0.00000000000E+00  0.00000000000E+00  0.74505805969E-08  0.10566000000E+00  0.10566000000E+00 0.  1.
     999900   -1    0    0    0    0 -0.00000000000E+00 -0.00000000000E+00 -0.74505805969E-08  0.93827000000E+00  0.93827000000E+00 0. -1.
     999902    2    1    2    0    0  0.17427203904E-01 -0.13648689304E-01  0.58649722327E-02  0.10210303918E+01  0.10207735640E+01 0.  0.
     999903    2    3    3    0    0  0.74005731695E-01  0.27784393052E-01 -0.10339897434E+00  0.13150442809E+00  0.18794836833E-01 0.  0.
         14    1    1    2    0    0 -0.17427203904E-01  0.13648689304E-01 -0.58649722327E-02  0.22899608182E-01  0.00000000000E+00 0.  1.
     999901    1    3    3    0    0 -0.56578527791E-01 -0.41433082356E-01  0.10926394658E+00  0.88952596373E+00  0.88000000000E+00 0.  1.
        -11    1    4    4    0    0  0.71280022434E-01  0.27067416838E-01 -0.90724255468E-01  0.11851007680E+00  0.51100000000E-03 0.  1.
         11    1    4    4    0    0  0.27257092607E-02  0.71697621467E-03 -0.12674718876E-01  0.12994351290E-01  0.51100000000E-03 0. -1.
</event>
<event>
 8    1  0.1202249E+005  0.1043930E+01  0.7957747E-01            NaN
         13   -1    0    0    0    0  0.00000000000E+00  0.00000000000E+00  0.74505805969E-08  0.10566000000E+00  0.10566000000E+00 0. -1.
     999900   -1    0    0    0    0 -0.00000000000E+00 -0.00000000000E+00 -0.74505805969E-08  0.93827000000E+00  0.93827000000E+00 0. -1.
     999902    2    1    2    0    0  0.50948573135E-02 -0.52756497087E-02  0.22162382265E-01  0.10205855951E+01  0.10203185756E+01 0.  0.
     999903    2    3    3    0    0  0.21688754634E-01  0.11792601632E+00  0.50467490474E-01  0.13139765825E+00  0.18477813673E-01 0.  0.
         14    1    1    2    0    0 -0.50948573135E-02  0.52756497087E-02 -0.22162382265E-01  0.23344404866E-01  0.00000000000E+00 0.  1.
     999901    1    3    3    0    0 -0.16593897321E-01 -0.12320166603E+00 -0.28305108209E-01  0.88918793688E+00  0.88000000000E+00 0. -1.
        -11    1    4    4    0    0  0.19629818215E-01  0.73007270405E-01  0.24514994973E-01  0.79477275965E-01  0.51100000000E-03 0.  1.
         11    1    4    4    0    0  0.20589364192E-02  0.44918745912E-01  0.25952495501E-01  0.51920382290E-01  0.51100000000E-03 0. -1.
</event>
<event>
 8    1  0.1202249E+005  0.1043930E+01  0.7957747E-01            NaN
         13   -1    0    0    0    0  0.00000000000E+00  0.00000000000E+00  0.74505805969E-08  0.10566000000E+00  0.10566000000E+00 0. -1.
     999900   -1    0    0    0    0 -0.00000000000E+00 -0.00000000000E+00 -0.74505805969E-08  0.93827000000E+00  0.93827000000E+00 0. -1.
     999902    2    1    2    0    0 -0.17730204640E-01  0.13324861316E-02  0.16759094904E-01  0.10194963564E+01  0.10192035213E+01 0.  0.
     999903    2    3    3    0    0  0.86605559022E-01  0.58546995054E-01  0.73764700897E-01  0.12965980362E+00  0.21027603120E-01 0.  0.
         14    1    1    2    0    0  0.17730204640E-01 -0.13324861316E-02 -0.16759094904E-01  0.24433643565E-01  0.00000000000E+00 0.  1.
     999901    1    3    3    0    0 -0.10433576366E+00 -0.57214508923E-01 -0.57005605993E-01  0.88983655281E+00  0.88000000000E+00 0. -1.
        -11    1    4    4    0    0  0.55441747865E-01  0.47150629863E-01  0.43785555366E-01  0.84937655269E-01  0.51100000000E-03 0. -1.
         11    1    4    4    0    0  0.31163811157E-01  0.11396365191E-01  0.29979145531E-01  0.44722148351E-01  0.51100000000E-03 0.  1.
</event>
<event>
 8    1  0.1202249E+005  0.1043930E+01  0.7957747E-01            NaN
         13   -1    0    0    0    0  0.00000000000E+00  0.00000000000E+00  0.74505805969E-08  0.10566000000E+00  0.10566000000E+00 0. -1.
     999900   -1    0    0    0    0 -0.00000000000E+00 -0.00000000000E+00 -0.74505805969E-08  0.93827000000E+00  0.93827000000E+00 0.  1.
     999902    2    1    2    0    0 -0.60895658279E-02  0.14055895743E-01 -0.17376660616E-01  0.10207653858E+01  0.10205025103E+01 0.  0.
     999903    2    3    3    0    0 -0.27432066721E-01 -0.10129262160E+00  0.71500994042E-01  0.12854342894E+00  0.19957642622E-01 0.  0.
         14    1    1    2    0    0  0.60895658279E-02 -0.14055895743E-01  0.17376660616E-01  0.23164614205E-01  0.00000000000E+00 0. -1.
     999901    1    3    3    0    0  0.21342500893E-01  0.11534851734E+00 -0.88877654658E-01  0.89222195686E+00  0.88000000000E+00 0.  1.
        -11    1    4    4    0    0 -0.73873135681E-02 -0.29693575282E-01  0.32274601884E-01  0.44476868848E-01  0.51100000000E-03 0.  1.
         11    1    4    4    0    0 -0.20044753153E-01 -0.71599046319E-01  0.39226392158E-01  0.84066560091E-01  0.51100000000E-03 0. -1.
</event>
<event>
 8    1  0.1202249E+005  0.1043930E+01  0.7957747E-01            NaN
         13   -1    0    0    0    0  0.00000000000E+00  0.00000000000E+00  0.74505805969E-08  0.10566000000E+00  0.10566000000E+00 0. -1.
     999900   -1    0    0    0    0 -0.00000000000E+00 -0.00000000000E+00 -0.74505805969E-08  0.93827000000E+00  0.93827000000E+00 0.  1.
     999902    2    1    2    0    0  0.54991601973E-02  0.19064276516E-01  0.15754381632E-01  0.10185944925E+01  0.10182793586E+01 0.  0.
     999903    2    3    3    0    0 -0.12190781716E+00  0.12278735273E-01 -0.31558305473E-01  0.12813558166E+00  0.20261229425E-01 0.  0.
         14    1    1    2    0    0 -0.54991601973E-02 -0.19064276516E-01 -0.15754381632E-01  0.25335507545E-01  0.00000000000E+00 0.  1.
     999901    1    3    3    0    0  0.12740697736E+00  0.67855412432E-02  0.47312687105E-01  0.89045891079E+00  0.88000000000E+00 0. -1.
        -11    1    4    4    0    0 -0.55964816071E-01  0.27841195236E-02 -0.44700477246E-02  0.56214361217E-01  0.51100000000E-03 0.  1.
         11    1    4    4    0    0 -0.65943001093E-01  0.94946157490E-02 -0.27088257748E-01  0.71921220445E-01  0.51100000000E-03 0. -1.
</event>
<event>
 8    1  0.1202249E+005  0.1043930E+01  0.7957747E-01            NaN
         13   -1    0    0    0    0  0.00000000000E+00  0.00000000000E+00  0.74505805969E-08  0.10566000000E+00  0.10566000000E+00 0.  1.
     999900   -1    0    0    0    0 -0.00000000000E+00 -0.00000000000E+00 -0.74505805969E-08  0.93827000000E+00  0.93827000000E+00 0.  1.
     999902    2    1    2    0    0  0.84679167022E-04  0.23865103484E-01  0.21941154110E-03  0.10200637377E+01  0.10197845020E+01 0.  0.
     999903    2    3    3    0    0  0.55972952801E-01 -0.52829580364E-01  0.10167273487E+00  0.12916624052E+00  0.20558128987E-01 0.  0.
         14    1    1    2    0    0 -0.84679167022E-04 -0.23865103484E-01 -0.21941154110E-03  0.23866262302E-01  0.00000000000E+00 0. -1.
     999901    1    3    3    0    0 -0.55888273634E-01  0.76694683848E-01 -0.10145332333E+00  0.89089749718E+00  0.88000000000E+00 0. -1.
        -11    1    4    4    0    0  0.40613492348E-01 -0.49191436501E-01  0.79127559969E-01  0.10163997763E+00  0.51100000000E-03 0.  1.
         11    1    4    4    0    0  0.15359460453E-01 -0.36381438634E-02  0.22545174903E-01  0.27526262888E-01  0.51100000000E-03 0. -1.
</event>
<event>
 8    1  0.1202249E+005  0.1043930E+01  0.7957747E-01            NaN
         13   -1    0    0    0    0  0.00000000000E+00  0.00000000000E+00  0.74505805969E-08  0.10566000000E+00  0.10566000000E+00 0.  1.
     999900   -1    0    0    0    0 -0.00000000000E+00 -0.00000000000E+00 -0.74505805969E-08  0.93827000000E+00  0.93827000000E+00 0. -1.
     999902    2    1    2    0    0 -0.54990541711E-02  0.15510837797E-01  0.17822219357E-01  0.10196718635E+01  0.10193832704E+01 0.  0.
     999903    2    3    3    0    0  0.33878125006E-01 -0.50504779466E-01  0.11427470004E+00  0.13107088158E+00  0.20552586801E-01 0.  0.
         14    1    1    2    0    0  0.54990541711E-02 -0.15510837797E-01 -0.17822219357E-01  0.24258136547E-01  0.00000000000E+00 0. -1.
     999901    1    3    3    0    0 -0.39377179177E-01  0.66015617263E-01 -0.96452480686E-01  0.88860098188E+00  0.88000000000E+00 0. -1.
        -11    1    4    4    0    0  0.10096957955E-01 -0.32525898208E-01  0.67379185616E-01  0.75498995950E-01  0.51100000000E-03 0. -1.
         11    1    4    4    0    0  0.23781167050E-01 -0.17978881257E-01  0.46895514427E-01  0.55571885625E-01  0.51100000000E-03 0.  1.
</event>
<event>
 8    1  0.1202249E+005  0.1043930E+01  0.7957747E-01            NaN
         13   -1    0    0    0    0  0.00000000000E+00  0.00000000000E+00  0.74505805969E-08  0.10566000000E+00  0.10566000000E+00 0. -1.
     999900   -1    0    0    0    0 -0.00000000000E+00 -0.00000000000E+00 -0.74505805969E-08  0.93827000000E+00  0.93827000000E+00 0.  1.
     999902    2    1    2    0    0 -0.13076794134E-01 -0.12771144701E-01  0.18476264945E-01  0.10179400587E+01  0.10176082184E+01 0.  0.
     999903    2    3    3    0    0  0.55531367994E-01 -0.45958142631E-01  0.10667430965E+00  0.13025354207E+00  0.19765960065E-01 0.  0.
         14    1    1    2    0    0  0.13076794134E-01  0.12771144701E-01 -0.18476264945E-01  0.25989941287E-01  0.00000000000E+00 0. -1.
     999901    1    3    3    0    0 -0.68608162127E-01  0.33186997930E-01 -0.88198044704E-01  0.88768651664E+00  0.88000000000E+00 0.  1.
        -11    1    4    4    0    0  0.36976879769E-01 -0.19633764191E-01  0.51580484659E-01  0.66434793989E-01  0.51100000000E-03 0.  1.
         11    1    4    4    0    0  0.18554488225E-01 -0.26324378439E-01  0.55093824989E-01  0.63818748080E-01  0.51100000000E-03 0. -1.
</event>
<event>
 8    1  0.1202249E+005  0.1043930E+01  0.7957747E-01            NaN
         13   -1    0    0    0    0  0.00000000000E+00  0.00000000000E+00  0.74505805969E-08  0.10566000000E+00  0.10566000000E+00 0.  1.
     999900   -1    0    0    0    0 -0.00000000000E+00 -0.00000000000E+00 -0.74505805969E-08  0.93827000000E+00  0.93827000000E+00 0.  1.
     999902    2    1    2    0    0 -0.38943320260E-02  0.13265450777E-01  0.20089625136E-01  0.10195428918E+01  0.10192511846E+01 0.  0.
     999903    2    3    3    0    0  0.22385510524E-01 -0.46269335066E-01 -0.11435129878E+00  0.12695710724E+00  0.19998127351E-01 0.  0.
         14    1    1    2    0    0  0.38943320260E-02 -0.13265450777E-01 -0.20089625136E-01  0.24387108159E-01  0.00000000000E+00 0. -1.
     999901    1    3    3    0    0 -0.26279842550E-01  0.59534785842E-01  0.13444092391E+00  0.89258578460E+00  0.88000000000E+00 0. -1.
        -11    1    4    4    0    0  0.15825601835E-01 -0.43492251897E-01 -0.85381465154E-01  0.97119932873E-01  0.51100000000E-03 0.  1.
         11    1    4    4    0    0  0.65599086896E-02 -0.27770831687E-02 -0.28969833625E-01  0.29837174367E-01  0.51100000000E-03 0. -1.
</event>
<event>
 8    1  0.1202249E+005  0.1043930E+01  0.7957747E-01            NaN
         13   -1    0    0    0    0  0.00000000000E+00  0.00000000000E+00  0.74505805969E-08  0.10566000000E+00  0.10566000000E+00 0.  1.
     999900   -1    0    0    0    0 -0.00000000000E+00 -0.00000000000E+00 -0.74505805969E-08  0.93827000000E+00  0.93827000000E+00 0.  1.
     999902    2    1    2    0    0 -0.20899177240E-01  0.10081956195E-01 -0.70880925416E-03  0.10207152663E+01  0.10204512389E+01 0.  0.
     999903    2    3    3    0    0  0.93015476663E-02 -0.11518570609E+00  0.55338736403E-01  0.12956690695E+00  0.19259853434E-01 0.  0.
         14    1    1    2    0    0  0.20899177240E-01 -0.10081956195E-01  0.70880925416E-03  0.23214733696E-01  0.00000000000E+00 0. -1.
     999901    1    3    3    0    0 -0.30200724906E-01  0.12526766229E+00 -0.56047545657E-01  0.89114835935E+00  0.88000000000E+00 0.  1.
        -11    1    4    4    0    0 -0.39221095282E-02 -0.62042230117E-01  0.33375370179E-01  0.70560596062E-01  0.51100000000E-03 0. -1.
         11    1    4    4    0    0  0.13223657195E-01 -0.53143475973E-01  0.21963366224E-01  0.59006310891E-01  0.51100000000E-03 0.  1.
</event>
<event>
 8    1  0.1202249E+005  0.1043930E+01  0.7957747E-01            NaN
         13   -1    0    0    0    0  0.00000000000E+00  0.00000000000E+00  0.74505805969E-08  0.10566000000E+00  0.10566000000E+00 0. -1.
     999900   -1    0    0    0    0 -0.00000000000E+00 -0.00000000000E+00 -0.74505805969E-08  0.93827000000E+00  0.93827000000E+00 0.  1.
     999902    2    1    2    0    0 -0.11104339735E-01 -0.19296793278E-01 -0.36228411895E-02  0.10213734584E+01  0.10211243528E+01 0.  0.
     999903    2    3    3    0    0 -0.52747911770E-01 -0.11721897828E-01 -0.11967220552E+00  0.13274585297E+00  0.19500759527E-01 0.  0.
         14    1    1    2    0    0  0.11104339735E-01  0.19296793278E-01  0.36228411895E-02  0.22556541624E-01  0.00000000000E+00 0.  1.
     999901    1    3    3    0    0  0.41643572035E-01 -0.75748954495E-02  0.11604936433E+00  0.88862760541E+00  0.88000000000E+00 0. -1.
        -11    1    4    4    0    0 -0.51757786749E-02 -0.10814295707E-02 -0.31941271094E-01  0.32379995288E-01  0.51100000000E-03 0. -1.
         11    1    4    4    0    0 -0.47572133095E-01 -0.10640468258E-01 -0.87730934423E-01  0.10036585768E+00  0.51100000000E-03 0.  1.
</event>
<event>
 8    1  0.1202249E+005  0.1043930E+01  0.7957747E-01            NaN
         13   -1    0    0    0    0  0.00000000000E+00  0.00000000000E+00  0.74505805969E-08  0.10566000000E+00  0.10566000000E+00 0. -1.
     999900   -1    0    0    0    0 -0.00000000000E+00 -0.00000000000E+00 -0.74505805969E-08  0.93827000000E+00  0.93827000000E+00 0.  1.
     999902    2    1    2    0    0  0.15713962631E-01 -0.17114207645E-01  0.14487770839E-02  0.10206507457E+01  0.10203852317E+01 0.  0.
     999903    2    3    3    0    0 -0.11637841937E+00  0.43397381614E-01  0.24986525500E-01  0.12842651638E+00  0.21018430641E-01 0.  0.
         14    1    1    2    0    0 -0.15713962631E-01  0.17114207645E-01 -0.14487770839E-02  0.23279254282E-01  0.00000000000E+00 0.  1.
     999901    1    3    3    0    0  0.13209238200E+00 -0.60511589259E-01 -0.23537748416E-01  0.89222422934E+00  0.88000000000E+00 0. -1.
        -11    1    4    4    0    0 -0.65201853566E-01  0.31091057289E-01  0.60656108505E-02  0.72491298152E-01  0.51100000000E-03 0.  1.
         11    1    4    4    0    0 -0.51176565806E-01  0.12306324325E-01  0.18920914650E-01  0.55935218228E-01  0.51100000000E-03 0. -1.
</event>
<event>
 8    1  0.1202249E+005  0.1043930E+01  0.7957747E-01            NaN
         13   -1    0    0    0    0  0.00000000000E+00  0.00000000000E+00  0.74505805969E-08  0.10566000000E+00  0.10566000000E+00 0.  1.
     999900   -1    0    0    0    0 -0.00000000000E+00 -0.00000000000E+00 -0.74505805969E-08  0.93827000000E+00  0.93827000000E+00 0. -1.
     999902    2    1    2    0    0  0.16833863159E-01 -0.13371372185E-01  0.81101097913E-02  0.10209529152E+01  0.10206943268E+01 0.  0.
     999903    2    3    3    0    0 -0.98187512560E-01 -0.54070648345E-01 -0.62244625374E-01  0.12975364644E+00  0.19929694995E-01 0.  0.
         14    1    1    2    0    0 -0.16833863159E-01  0.13371372185E-01 -0.81101097913E-02  0.22977084753E-01  0.00000000000E+00 0.  1.
     999901    1    3    3    0    0  0.11502137572E+00  0.40699276161E-01  0.70354735165E-01  0.89119926880E+00  0.88000000000E+00 0.  1.
        -11    1    4    4    0    0 -0.31963068501E-03 -0.27863461620E-03 -0.35101731154E-02  0.35724273715E-02  0.51100000000E-03 0.  1.
         11    1    4    4    0    0 -0.97867881875E-01 -0.53792013729E-01 -0.58734452258E-01  0.12618121907E+00  0.51100000000E-03 0. -1.
</event>
<event>
 8    1  0.1202249E+005  0.1043930E+01  0.7957747E-01            NaN
         13   -1    0    0    0    0  0.00000000000E+00  0.00000000000E+00  0.74505805969E-08  0.10566000000E+00  0.10566000000E+00 0. -1.
     999900   -1    0    0    0    0 -0.00000000000E+00 -0.00000000000E+00 -0.74505805969E-08  0.93827000000E+00  0.93827000000E+00 0. -1.
     999902    2    1    2    0    0 -0.65206784214E-02 -0.13537760250E-01 -0.18557151283E-01  0.10200520172E+01  0.10197725039E+01 0.  0.
     999903    2    3    3    0    0  0.23177255944E-01 -0.12807117668E+00  0.47708409737E-02  0.13182678336E+00  0.20399225402E-01 0.  0.
         14    1    1    2    0    0  0.65206784214E-02  0.13537760250E-01  0.18557151283E-01  0.23877982817E-01  0.00000000000E+00 0. -1.
     999901    1    3    3    0    0 -0.29697934366E-01  0.11453341643E+00 -0.23327992257E-01  0.88822523383E+00  0.88000000000E+00 0.  1.
        -11    1    4    4    0    0 -0.23423148832E-02 -0.59984297727E-02  0.29481705623E-02  0.71007344278E-02  0.51100000000E-03 0. -1.
         11    1    4    4    0    0  0.25519570827E-01 -0.12207274691E+00  0.18226704114E-02  0.12472604893E+00  0.51100000000E-03 0.  1.
</event>
<event>
 8    1  0.1202249E+005  0.1043930E+01  0.7957747E-01            NaN
         13   -1    0    0    0    0  0.00000000000E+00  0.00000000000E+00  0.74505805969E-08  0.10566000000E+00  0.10566000000E+00 0. -1.
     999900   -1    0    0    0    0 -0.00000000000E+00 -0.00000000000E+00 -0.74505805969E-08  0.93827000000E+00  0.93827000000E+00 0.  1.
     999902    2    1    2    0    0 -0.16080385760E-01  0.18605120789E-01  0.98632891590E-03  0.10193189827E+01  0.10190218282E+01 0.  0.
     999903    2    3    3    0    0  0.98770478820E-01 -0.73995212413E-01 -0.20439451182E-01  0.12678068841E+00  0.20607591842E-01 0.  0.
         14    1    1    2    0    0  0.16080385760E-01 -0.18605120789E-01 -0.98632891590E-03  0.24611017258E-01  0.00000000000E+00 0.  1.
     999901    1    3    3    0    0 -0.11485086458E+00  0.92600333202E-01  0.21425780098E-01  0.89253829434E+00  0.88000000000E+00 0.  1.
        -11    1    4    4    0    0  0.43203279911E-01 -0.25573160289E-01  0.31307685798E-03  0.50208256894E-01  0.51100000000E-03 0.  1.
         11    1    4    4    0    0  0.55567198910E-01 -0.48422052124E-01 -0.20752528040E-01  0.76572431511E-01  0.51100000000E-03 0. -1.
</event>
<event>
 7    1  0.1202249E+005  0.1043930E+01  0.7957747E-01            NaN
         13   -1    0    0    0    0  0.00000000000E+00  0.00000000000E+00  0.74505805969E-08  0.10566000000E+00  0.10566000000E+00 0.  1.
     999900   -1    0    0    0    0 -0.00000000000E+00 -0.00000000000E+00 -0.74505805969E-08  0.93827000000E+00  0.93827000000E+00 0. -1.
     999903    2    1    2    0    0  0.52028444113E-01 -0.40724800173E-01  0.79271160509E-01  0.10558765495E+00  0.22346535363E-01 0.  0.
         14    1    1    2    0    0 -0.29898747210E-01 -0.11231551294E-02 -0.47943300273E-01  0.56513331199E-01  0.00000000000E+00 0. -1.
     999901    1    1    2    0    0 -0.22129696903E-01  0.41847955302E-01 -0.31327860236E-01  0.88182901385E+00  0.88000000000E+00 0. -1.
        -11    1    3    3    0    0  0.13220548664E-01 -0.19260861481E-01  0.15999244808E-01  0.28319615947E-01  0.51100000000E-03 0. -1.
         11    1    3    3    0    0  0.38807895449E-01 -0.21463938692E-01  0.63271915701E-01  0.77268039000E-01  0.51100000000E-03 0.  1.
</event>
<event>
 8    1  0.1202249E+005  0.1043930E+01  0.7957747E-01            NaN
         13   -1    0    0    0    0  0.00000000000E+00  0.00000000000E+00  0.74505805969E-08  0.10566000000E+00  0.10566000000E+00 0.  1.
     999900   -1    0    0    0    0 -0.00000000000E+00 -0.00000000000E+00 -0.74505805969E-08  0.93827000000E+00  0.93827000000E+00 0.  1.
     999902    2    1    2    0    0  0.19348727643E-01 -0.54303348931E-02 -0.13143240075E-01  0.10199173667E+01  0.10196346543E+01 0.  0.
     999903    2    3    3    0    0  0.34381452334E-01  0.94318993568E-02 -0.12599231313E+00  0.13245932143E+00  0.20009094831E-01 0.  0.
         14    1    1    2    0    0 -0.19348727643E-01  0.54303348931E-02  0.13143240075E-01  0.24012633302E-01  0.00000000000E+00 0.  1.
     999901    1    3    3    0    0 -0.15032724692E-01 -0.14862234250E-01  0.11284907306E+00  0.88745804527E+00  0.88000000000E+00 0. -1.
        -11    1    4    4    0    0  0.87221670880E-02  0.14021107293E-02 -0.98351063458E-02  0.13229986812E-01  0.51100000000E-03 0.  1.
         11    1    4    4    0    0  0.25659285246E-01  0.80297886275E-02 -0.11615720678E+00  0.11922933462E+00  0.51100000000E-03 0. -1.
</event>
<event>
 8    1  0.1202249E+005  0.1043930E+01  0.7957747E-01            NaN
         13   -1    0    0    0    0  0.00000000000E+00  0.00000000000E+00  0.74505805969E-08  0.10566000000E+00  0.10566000000E+00 0.  1.
     999900   -1    0    0    0    0 -0.00000000000E+00 -0.00000000000E+00 -0.74505805969E-08  0.93827000000E+00  0.93827000000E+00 0.  1.
     999902    2    1    2    0    0 -0.20947284629E-01  0.10086742051E-01 -0.50692149786E-02  0.10201344534E+01  0.10198568894E+01 0.  0.
     999903    2    3    3    0    0  0.13142201000E-01 -0.69820294785E-01  0.10653110158E+00  0.12884221274E+00  0.14277575768E-01 0.  0.
         14    1    1    2    0    0  0.20947284629E-01 -0.10086742051E-01  0.50692149786E-02  0.23795546622E-01  0.00000000000E+00 0. -1.
     999901    1    3    3    0    0 -0.34089485629E-01  0.79907036836E-01 -0.11160031655E+00  0.89129224064E+00  0.88000000000E+00 0.  1.
        -11    1    4    4    0    0  0.49090470149E-02 -0.24056307298E-01  0.49492993573E-01  0.55250540244E-01  0.51100000000E-03 0. -1.
         11    1    4    4    0    0  0.82331539851E-02 -0.45763987487E-01  0.57038108003E-01  0.73591672497E-01  0.51100000000E-03 0.  1.
</event>
<event>
 8    1  0.1202249E+005  0.1043930E+01  0.7957747E-01            NaN
         13   -1    0    0    0    0  0.00000000000E+00  0.00000000000E+00  0.74505805969E-08  0.10566000000E+00  0.10566000000E+00 0.  1.
     999900   -1    0    0    0    0 -0.00000000000E+00 -0.00000000000E+00 -0.74505805969E-08  0.93827000000E+00  0.93827000000E+00 0.  1.
     999902    2    1    2    0    0  0.92524689498E-02 -0.10052059592E-01  0.19159089833E-01  0.10203986845E+01  0.10201273218E+01 0.  0.
     999903    2    3    3    0    0  0.55602864888E-01 -0.11762750028E+00 -0.11162376090E-01  0.13211932199E+00  0.20075088981E-01 0.  0.
         14    1    1    2    0    0 -0.92524689498E-02  0.10052059592E-01 -0.19159089833E-01  0.23531315453E-01  0.00000000000E+00 0. -1.
     999901    1    3    3    0    0 -0.46350395938E-01  0.10757544069E+00  0.30321465923E-01  0.88827936255E+00  0.88000000000E+00 0.  1.
        -11    1    4    4    0    0  0.11732717452E-01 -0.30178761446E-01 -0.11250795910E-01  0.34282004475E-01  0.51100000000E-03 0. -1.
         11    1    4    4    0    0  0.43870147436E-01 -0.87448738836E-01  0.88419819440E-04  0.97837317518E-01  0.51100000000E-03 0.  1.
</event>
<event>
 8    1  0.1202249E+005  0.1043930E+01  0.7957747E-01            NaN
         13   -1    0    0    0    0  0.00000000000E+00  0.00000000000E+00  0.74505805969E-08  0.10566000000E+00  0.10566000000E+00 0.  1.
     999900   -1    0    0    0    0 -0.00000000000E+00 -0.00000000000E+00 -0.74505805969E-08  0.93827000000E+00  0.93827000000E+00 0.  1.
     999902    2    1    2    0    0  0.70189543797E-02  0.23632535081E-01  0.87951671021E-02  0.10177552526E+01  0.10174186144E+01 0.  0.
     999903    2    3    3    0    0  0.96133405832E-01 -0.80302513923E-01  0.97242648761E-02  0.12716851173E+00  0.19675964736E-01 0.  0.
         14    1    1    2    0    0 -0.70189543797E-02 -0.23632535081E-01 -0.87951671021E-02  0.26174747359E-01  0.00000000000E+00 0. -1.
     999901    1    3    3    0    0 -0.89114451453E-01  0.10393504900E+00 -0.92909777401E-03  0.89058674091E+00  0.88000000000E+00 0.  1.
        -11    1    4    4    0    0  0.28901989857E-01 -0.23839159643E-01 -0.60831943423E-02  0.37959148101E-01  0.51100000000E-03 0. -1.
         11    1    4    4    0    0  0.67231415976E-01 -0.56463354280E-01  0.15807459218E-01  0.89209363626E-01  0.51100000000E-03 0.  1.
</event>
<event>
 8    1  0.1202249E+005  0.1043930E+01  0.7957747E-01            NaN
         13   -1    0    0    0    0  0.00000000000E+00  0.00000000000E+00  0.74505805969E-08  0.10566000000E+00  0.10566000000E+00 0.  1.
     999900   -1    0    0    0    0 -0.00000000000E+00 -0.00000000000E+00 -0.74505805969E-08  0.93827000000E+00  0.93827000000E+00 0. -1.
     999902    2    1    2    0    0 -0.19015927034E-01  0.13358931656E-01  0.34045242521E-02  0.10204426136E+01  0.10201722748E+01 0.  0.
     999903    2    3    3    0    0 -0.12711717724E+00 -0.22197661356E-01  0.23872421775E-01  0.13287904603E+00  0.20867089691E-01 0.  0.
         14    1    1    2    0    0  0.19015927034E-01 -0.13358931656E-01 -0.34045242521E-02  0.23487386430E-01  0.00000000000E+00 0. -1.
     999901    1    3    3    0    0  0.10810125021E+00  0.35556593011E-01 -0.20467897523E-01  0.88756356754E+00  0.88000000000E+00 0. -1.
        -11    1    4    4    0    0 -0.40542402993E-01 -0.24067749386E-02 -0.10778540768E-02  0.40631292084E-01  0.51100000000E-03 0.  1.
         11    1    4    4    0    0 -0.86574774247E-01 -0.19790886417E-01  0.24950275852E-01  0.92247753941E-01  0.51100000000E-03 0. -1.
</event>
<event>
 8    1  0.1202249E+005  0.1043930E+01  0.7957747E-01            NaN
         13   -1    0    0    0    0  0.00000000000E+00  0.00000000000E+00  0.74505805969E-08  0.10566000000E+00  0.10566000000E+00 0.  1.
     999900   -1    0    0    0    0 -0.00000000000E+00 -0.00000000000E+00 -0.74505805969E-08  0.93827000000E+00  0.93827000000E+00 0. -1.
     999902    2    1    2    0    0  0.19720177785E-01  0.13313340917E-01  0.24469906634E-02  0.10200110071E+01  0.10197305214E+01 0.  0.
     999903    2    3    3    0    0 -0.71423888353E-01  0.69641641512E-01  0.80873411470E-01  0.13004987215E+00  0.20521464437E-01 0.  0.
         14    1    1    2    0    0 -0.19720177785E-01 -0.13313340917E-01 -0.24469906634E-02  0.23918992904E-01  0.00000000000E+00 0. -1.
     999901    1    3    3    0    0  0.91144066138E-01 -0.56328300596E-01 -0.78426420807E-01  0.88996113495E+00  0.88000000000E+00 0. -1.
        -11    1    4    4    0    0 -0.24817401039E-01  0.35244086242E-01  0.42694397496E-01  0.60672248252E-01  0.51100000000E-03 0. -1.
         11    1    4    4    0    0 -0.46606487314E-01  0.34397555270E-01  0.38179013974E-01  0.69377623895E-01  0.51100000000E-03 0.  1.
</event>
<event>
 8    1  0.1202249E+005  0.1043930E+01  0.7957747E-01            NaN
         13   -1    0    0    0    0  0.00000000000E+00  0.00000000000E+00  0.74505805969E-08  0.10566000000E+00  0.10566000000E+00 0. -1.
     999900   -1    0    0    0    0 -0.00000000000E+00 -0.00000000000E+00 -0.74505805969E-08  0.93827000000E+00  0.93827000000E+00 0.  1.
     999902    2    1    2    0    0  0.22671620663E-02 -0.12616180208E-01 -0.16086874494E-01  0.10233607132E+01  0.10231539737E+01 0.  0.
     999903    2    3    3    0    0 -0.34608301734E-01  0.30670209857E-01 -0.12502675750E+00  0.13482179484E+00  0.20170026049E-01 0.  0.
         14    1    1    2    0    0 -0.22671620663E-02  0.12616180208E-01  0.16086874494E-01  0.20569286761E-01  0.00000000000E+00 0. -1.
     999901    1    3    3    0    0  0.36875463801E-01 -0.43286390065E-01  0.10893988301E+00  0.88853891840E+00  0.88000000000E+00 0. -1.
        -11    1    4    4    0    0 -0.27926276487E-01  0.15348983352E-01 -0.63307320560E-01  0.70876979097E-01  0.51100000000E-03 0. -1.
         11    1    4    4    0    0 -0.66820252473E-02  0.15321226505E-01 -0.61719436944E-01  0.63944815745E-01  0.51100000000E-03 0.  1.
</event>
<event>
 7    1  0.1202249E+005  0.1043930E+01  0.7957747E-01            NaN
         13   -1    0    0    0    0  0.00000000000E+00  0.00000000000E+00  0.74505805969E-08  0.10566000000E+00  0.10566000000E+00 0. -1.
     999900   -1    0    0    0    0 -0.00000000000E+00 -0.00000000000E+00 -0.74505805969E-08  0.93827000000E+00  0.93827000000E+00 0. -1.
     999903    2    1    2    0    0 -0.27137476587E-01 -0.77256333387E-01 -0.72630039759E-01  0.11124527671E+00  0.19884798976E-01 0.  0.
         14    1    1    2    0    0 -0.31527926358E-01  0.33973518828E-01  0.10254648642E-01  0.47469652840E-01  0.00000000000E+00 0.  1.
     999901    1    1    2    0    0  0.58665402945E-01  0.43282814559E-01  0.62375391118E-01  0.88521507045E+00  0.88000000000E+00 0. -1.
        -11    1    3    3    0    0 -0.15963325903E-01 -0.34744210986E-01 -0.21699154383E-01  0.43967060317E-01  0.51100000000E-03 0. -1.
         11    1    3    3    0    0 -0.11174150684E-01 -0.42512122401E-01 -0.50930885376E-01  0.67278216391E-01  0.51100000000E-03 0.  1.
</event>
<event>
 8    1  0.1202249E+005  0.1043930E+01  0.7957747E-01            NaN
         13   -1    0    0    0    0  0.00000000000E+00  0.00000000000E+00  0.74505805969E-08  0.10566000000E+00  0.10566000000E+00 0. -1.
     999900   -1    0    0    0    0 -0.00000000000E+00 -0.00000000000E+00 -0.74505805969E-08  0.93827000000E+00  0.93827000000E+00 0. -1.
     999902    2    1    2    0    0  0.34132933145E-03 -0.47307524027E-02 -0.22142648719E-01  0.10212850576E+01  0.10210339737E+01 0.  0.
     999903    2    3    3    0    0 -0.17300242003E-02 -0.12988929623E+00 -0.23643791955E-01  0.13242556081E+00  0.10162578343E-01 0.  0.
         14    1    1    2    0    0 -0.34132933145E-03  0.47307524027E-02  0.22142648719E-01  0.22644942400E-01  0.00000000000E+00 0. -1.
     999901    1    3    3    0    0  0.20713535317E-02  0.12515854383E+00  0.15011432367E-02  0.88885949679E+00  0.88000000000E+00 0. -1.
        -11    1    4    4    0    0  0.16851183933E-02 -0.15414527605E-01 -0.55535789289E-02  0.16478793803E-01  0.51100000000E-03 0.  1.
         11    1    4    4    0    0 -0.34151425936E-02 -0.11447476863E+00 -0.18090213026E-01  0.11594676701E+00  0.51100000000E-03 0. -1.
</event>
<event>
 8    1  0.1202249E+005  0.1043930E+01  0.7957747E-01            NaN
         13   -1    0    0    0    0  0.00000000000E+00  0.00000000000E+00  0.74505805969E-08  0.10566000000E+00  0.10566000000E+00 0. -1.
     999900   -1    0    0    0    0 -0.00000000000E+00 -0.00000000000E+00 -0.74505805969E-08  0.93827000000E+00  0.93827000000E+00 0.  1.
     999902    2    1    2    0    0  0.21105778226E-01 -0.38030230532E-02 -0.10263381231E-01  0.10201549321E+01  0.10198778513E+01 0.  0.
     999903    2    3    3    0    0  0.70902484954E-01  0.10103076027E+00 -0.41689708632E-01  0.13197845855E+00  0.21116458576E-01 0.  0.
         14    1    1    2    0    0 -0.21105778226E-01  0.38030230532E-02  0.10263381231E-01  0.23775067890E-01  0.00000000000E+00 0.  1.
     999901    1    3    3    0    0 -0.49796706728E-01 -0.10483378332E+00  0.31426327401E-01  0.88817647356E+00  0.88000000000E+00 0.  1.
        -11    1    4    4    0    0  0.59352440035E-01  0.90671459525E-01 -0.29709523300E-01  0.11236966942E+00  0.51100000000E-03 0. -1.
         11    1    4    4    0    0  0.11550044919E-01  0.10359300745E-01 -0.11980185332E-01  0.19608789130E-01  0.51100000000E-03 0.  1.
</event>
<event>
 8    1  0.1202249E+005  0.1043930E+01  0.7957747E-01            NaN
         13   -1    0    0    0    0  0.00000000000E+00  0.00000000000E+00  0.74505805969E-08  0.10566000000E+00  0.10566000000E+00 0.  1.
     999900   -1    0    0    0    0 -0.00000000000E+00 -0.00000000000E+00 -0.74505805969E-08  0.93827000000E+00  0.93827000000E+00 0.  1.
     999902    2    1    2    0    0  0.55373174672E-02 -0.22599903674E-01  0.98971809638E-02  0.10186441992E+01  0.10183303162E+01 0.  0.
     999903    2    3    3    0    0 -0.11945561499E-01 -0.12278688935E+00  0.43059731695E-01  0.13216642852E+00  0.19862217809E-01 0.  0.
         14    1    1    2    0    0 -0.55373174672E-02  0.22599903674E-01 -0.98971809638E-02  0.25285800794E-01  0.00000000000E+00 0. -1.
     999901    1    3    3    0    0  0.17482878967E-01  0.10018698568E+00 -0.33162550732E-01  0.88647777069E+00  0.88000000000E+00 0.  1.
        -11    1    4    4    0    0 -0.13506099207E-01 -0.51524387799E-01  0.23705037436E-01  0.58304092264E-01  0.51100000000E-03 0. -1.
         11    1    4    4    0    0  0.15605377074E-02 -0.71262501554E-01  0.19354694259E-01  0.73862336252E-01  0.51100000000E-03 0.  1.
</event>
<event>
 8    1  0.1202249E+005  0.1043930E+01  0.7957747E-01            NaN
         13   -1    0    0    0    0  0.00000000000E+00  0.00000000000E+00  0.74505805969E-08  0.10566000000E+00  0.10566000000E+00 0.  1.
     999900   -1    0    0    0    0 -0.00000000000E+00 -0.00000000000E+00 -0.74505805969E-08  0.93827000000E+00  0.93827000000E+00 0.  1.
     999902    2    1    2    0    0  0.50516590434E-02 -0.23182512115E-01 -0.31032966963E-02  0.10200013858E+01  0.10197206718E+01 0.  0.
     999903    2    3    3    0    0  0.18544040897E-01  0.71400422631E-01  0.10323203445E+00  0.12846609286E+00  0.20119201595E-01 0.  0.
         14    1    1    2    0    0 -0.50516590434E-02  0.23182512115E-01  0.31032966963E-02  0.23928614198E-01  0.00000000000E+00 0.  1.
     999901    1    3    3    0    0 -0.13492381854E-01 -0.94582934746E-01 -0.10633533115E+00  0.89153529294E+00  0.88000000000E+00 0.  1.
        -11    1    4    4    0    0  0.13158319464E-02  0.40903348547E-01  0.48220138918E-01  0.63247594850E-01  0.51100000000E-03 0. -1.
         11    1    4    4    0    0  0.17228208951E-01  0.30497074084E-01  0.55011895533E-01  0.65218498008E-01  0.51100000000E-03 0.  1.
</event>
<event>
 8    1  0.1202249E+005  0.1043930E+01  0.7957747E-01            NaN
         13   -1    0    0    0    0  0.00000000000E+00  0.00000000000E+00  0.74505805969E-08  0.10566000000E+00  0.10566000000E+00 0. -1.
     999900   -1    0    0    0    0 -0.00000000000E+00 -0.00000000000E+00 -0.74505805969E-08  0.93827000000E+00  0.93827000000E+00 0. -1.
     999902    2    1    2    0    0 -0.12368049492E-02  0.53820324053E-02  0.26437489011E-01  0.10169219126E+01  0.10165632000E+01 0.  0.
     999903    2    3    3    0    0  0.60357671611E-01  0.74641161019E-01  0.85517776777E-01  0.13008416711E+00  0.19855703143E-01 0.  0.
         14    1    1    2    0    0  0.12368049492E-02 -0.53820324053E-02 -0.26437489011E-01  0.27008087391E-01  0.00000000000E+00 0.  1.
     999901    1    3    3    0    0 -0.61594476560E-01 -0.69259128614E-01 -0.59080287765E-01  0.88683774550E+00  0.88000000000E+00 0. -1.
        -11    1    4    4    0    0  0.31991751935E-01  0.27892082258E-01  0.46159270305E-01  0.62708689993E-01  0.51100000000E-03 0.  1.
         11    1    4    4    0    0  0.28365919676E-01  0.46749078761E-01  0.39358506472E-01  0.67375477117E-01  0.51100000000E-03 0. -1.
</event>
<event>
 8    1  0.1202249E+005  0.1043930E+01  0.7957747E-01            NaN
         13   -1    0    0    0    0  0.00000000000E+00  0.00000000000E+00  0.74505805969E-08  0.10566000000E+00  0.10566000000E+00 0. -1.
     999900   -1    0    0    0    0 -0.00000000000E+00 -0.00000000000E+00 -0.74505805969E-08  0.93827000000E+00  0.93827000000E+00 0.  1.
     999902    2    1    2    0    0 -0.70601952669E-02  0.11878896537E-01  0.20141520212E-01  0.10195038792E+01  0.10192112266E+01 0.  0.
     999903    2    3    3    0    0  0.77722728090E-01  0.98733487553E-01 -0.26135535731E-01  0.12996836560E+00  0.20483793670E-01 0.  0.
         14    1    1    2    0    0  0.70601952669E-02 -0.11878896537E-01 -0.20141520212E-01  0.24426120785E-01  0.00000000000E+00 0.  1.
     999901    1    3    3    0    0 -0.84782923357E-01 -0.86854591016E-01  0.46277055942E-01  0.88953551361E+00  0.88000000000E+00 0. -1.
        -11    1    4    4    0    0  0.16216099139E-01  0.11214860068E-01  0.50608956177E-03  0.19729475545E-01  0.51100000000E-03 0. -1.
         11    1    4    4    0    0  0.61506628951E-01  0.87518627485E-01 -0.26641625292E-01  0.11023889006E+00  0.51100000000E-03 0.  1.
</event>
<event>
 8    1  0.1202249E+005  0.1043930E+01  0.7957747E-01            NaN
         13   -1    0    0    0    0  0.00000000000E+00  0.00000000000E+00  0.74505805969E-08  0.10566000000E+00  0.10566000000E+00 0.  1.
     999900   -1    0    0    0    0 -0.00000000000E+00 -0.00000000000E+00 -0.74505805969E-08  0.93827000000E+00  0.93827000000E+00 0.  1.
     999902    2    1    2    0    0  0.11135334250E-01 -0.17252418305E-01 -0.11472489401E-01  0.10204085285E+01  0.10201373954E+01 0.  0.
     999903    2    3    3    0    0  0.62601390322E-01 -0.78670699170E-02  0.11211984086E+00  0.13023331895E+00  0.20224583816E-01 0.  0.
         14    1    1    2    0    0 -0.11135334250E-01  0.17252418305E-01  0.11472489401E-01  0.23521471452E-01  0.00000000000E+00 0.  1.
     999901    1    3    3    0    0 -0.51466056072E-01 -0.93853483880E-02 -0.12359233026E+00  0.89017520960E+00  0.88000000000E+00 0.  1.
        -11    1    4    4    0    0  0.33077716975E-01  0.45495836370E-02  0.67471996723E-01  0.75283235413E-01  0.51100000000E-03 0.  1.
         11    1    4    4    0    0  0.29523673347E-01 -0.12416653554E-01  0.44647844134E-01  0.54950083532E-01  0.51100000000E-03 0. -1.
</event>
<event>
 8    1  0.1202249E+005  0.1043930E+01  0.7957747E-01            NaN
         13   -1    0    0    0    0  0.00000000000E+00  0.00000000000E+00  0.74505805969E-08  0.10566000000E+00  0.10566000000E+00 0. -1.
     999900   -1    0    0    0    0 -0.00000000000E+00 -0.00000000000E+00 -0.74505805969E-08  0.93827000000E+00  0.93827000000E+00 0. -1.
     999902    2    1    2    0    0 -0.61418200802E-02 -0.16035419294E-01  0.16499814546E-01  0.10201161279E+01  0.10198381312E+01 0.  0.
     999903    2    3    3    0    0 -0.19844873232E-01 -0.81062878029E-01  0.10202124454E+00  0.13347625789E+00  0.21037297671E-01 0.  0.
         14    1    1    2    0    0  0.61418200802E-02  0.16035419294E-01 -0.16499814546E-01  0.23813872132E-01  0.00000000000E+00 0.  1.
     999901    1    3    3    0    0  0.13703053152E-01  0.65027458734E-01 -0.85521429996E-01  0.88663986998E+00  0.88000000000E+00 0. -1.
        -11    1    4    4    0    0 -0.14899082593E-01 -0.37968103325E-01  0.35581833265E-01  0.54128435334E-01  0.51100000000E-03 0. -1.
         11    1    4    4    0    0 -0.49457906384E-02 -0.43094774704E-01  0.66439411277E-01  0.79347822551E-01  0.51100000000E-03 0.  1.
</event>
<event>
 8    1  0.1202249E+005  0.1043930E+01  0.7957747E-01            NaN
         13   -1    0    0    0    0  0.00000000000E+00  0.00000000000E+00  0.74505805969E-08  0.10566000000E+00  0.10566000000E+00 0. -1.
     999900   -1    0    0    0    0 -0.00000000000E+00 -0.00000000000E+00 -0.74505805969E-08  0.93827000000E+00  0.93827000000E+00 0.  1.
     999902    2    1    2    0    0  0.14638582394E-01  0.16631213615E-01 -0.21448111859E-02  0.10216704947E+01  0.10214279780E+01 0.  0.
     999903    2    3    3    0    0 -0.10568526798E+00 -0.71076686860E-01 -0.74325480565E-02  0.12914684520E+00  0.20059750034E-01 0.  0.
         14    1    1    2    0    0 -0.14638582394E-01 -0.16631213615E-01  0.21448111859E-02  0.22259505292E-01  0.00000000000E+00 0.  1.
     999901    1    3    3    0    0  0.12032385037E+00  0.87707900475E-01  0.52877368706E-02  0.89252364951E+00  0.88000000000E+00 0.  1.
        -11    1    4    4    0    0 -0.71275105998E-01 -0.42519453460E-01 -0.13262885489E-01  0.84048854306E-01  0.51100000000E-03 0.  1.
         11    1    4    4    0    0 -0.34410161979E-01 -0.28557233401E-01  0.58303374330E-02  0.45097990892E-01  0.51100000000E-03 0. -1.
</event>
<event>
 8    1  0.1202249E+005  0.1043930E+01  0.7957747E-01            NaN
         13   -1    0    0    0    0  0.00000000000E+00  0.00000000000E+00  0.74505805969E-08  0.10566000000E+00  0.10566000000E+00 0. -1.
     999900   -1    0    0    0    0 -0.00000000000E+00 -0.00000000000E+00 -0.74505805969E-08  0.93827000000E+00  0.93827000000E+00 0. -1.
     999902    2    1    2    0    0 -0.92975812262E-02 -0.16978377119E-01  0.82917446083E-02  0.10228714308E+01  0.10226546341E+01 0.  0.
     999903    2    3    3    0    0  0.10995541096E+00 -0.54140558106E-01  0.48221834215E-01  0.13315421965E+00  0.19578265590E-01 0.  0.
         14    1    1    2    0    0  0.92975812262E-02  0.16978377119E-01 -0.82917446083E-02  0.21058569156E-01  0.00000000000E+00 0.  1.
     999901    1    3    3    0    0 -0.11925299219E+00  0.37162180988E-01 -0.39930089607E-01  0.88971721120E+00  0.88000000000E+00 0. -1.
        -11    1    4    4    0    0  0.38868566360E-01 -0.18762864613E-01  0.71354984004E-02  0.43749137109E-01  0.51100000000E-03 0. -1.
         11    1    4    4    0    0  0.71086844601E-01 -0.35377693493E-01  0.41086335814E-01  0.89405082540E-01  0.51100000000E-03 0.  1.
</event>
<event>
 8    1  0.1202249E+005  0.1043930E+01  0.7957747E-01            NaN
         13   -1    0    0    0    0  0.00000000000E+00  0.00000000000E+00  0.74505805969E-08  0.10566000000E+00  0.10566000000E+00 0.  1.
     999900   -1    0    0    0    0 -0.00000000000E+00 -0.00000000000E+00 -0.74505805969E-08  0.93827000000E+00  0.93827000000E+00 0.  1.
     999902    2    1    2    0    0  0.14097837043E-01 -0.37369524294E-02  0.16594311185E-01  0.10218373545E+01  0.10215984994E+01 0.  0.
     999903    2    3    3    0    0 -0.37345980237E-01  0.58447001216E-01  0.11169658266E+00  0.13304167915E+00  0.20327017045E-01 0.  0.
         14    1    1    2    0    0 -0.14097837043E-01  0.37369524294E-02 -0.16594311185E-01  0.22092645528E-01  0.00000000000E+00 0.  1.
     999901    1    3    3    0    0  0.51443817279E-01 -0.62183953645E-01 -0.95102271478E-01  0.88879567532E+00  0.88000000000E+00 0.  1.
        -11    1    4    4    0    0 -0.21635418482E-02  0.20113872502E-01  0.30446971116E-01  0.36558555107E-01  0.51100000000E-03 0. -1.
         11    1    4    4    0    0 -0.35182438388E-01  0.38333128714E-01  0.81249611546E-01  0.96483124045E-01  0.51100000000E-03 0.  1.
</event>
<event>
 8    1  0.1202249E+005  0.1043930E+01  0.7957747E-01            NaN
         13   -1    0    0    0    0  0.00000000000E+00  0.00000000000E+00  0.74505805969E-08  0.10566000000E+00  0.10566000000E+00 0. -1.
     999900   -1    0    0    0    0 -0.00000000000E+00 -0.00000000000E+00 -0.74505805969E-08  0.93827000000E+00  0.93827000000E+00 0. -1.
     999902    2    1    2    0    0 -0.44361834860E-02  0.84861129684E-02  0.21694030491E-01  0.10202166115E+01  0.10199409833E+01 0.  0.
     999903    2    3    3    0    0  0.14468595111E-01 -0.29004524166E-01 -0.12181289308E+00  0.12760405517E+00  0.19844679627E-01 0.  0.
         14    1    1    2    0    0  0.44361834860E-02 -0.84861129684E-02 -0.21694030491E-01  0.23713388543E-01  0.00000000000E+00 0.  1.
     999901    1    3    3    0    0 -0.18904778597E-01  0.37490637135E-01  0.14350692357E+00  0.89261255629E+00  0.88000000000E+00 0.  1.
        -11    1    4    4    0    0  0.53966488429E-02 -0.11932902063E-01 -0.85154508842E-01  0.86157236884E-01  0.51100000000E-03 0. -1.
         11    1    4    4    0    0  0.90719462680E-02 -0.17071622103E-01 -0.36658384236E-01  0.41446818287E-01  0.51100000000E-03 0.  1.
</event>
<event>
 8    1  0.1202249E+005  0.1043930E+01  0.7957747E-01            NaN
         13   -1    0    0    0    0  0.00000000000E+00  0.00000000000E+00  0.74505805969E-08  0.10566000000E+00  0.10566000000E+00 0.  1.
     999900   -1    0    0    0    0 -0.00000000000E+00 -0.00000000000E+00 -0.74505805969E-08  0.93827000000E+00  0.93827000000E+00 0. -1.
     999902    2    1    2    0    0  0.72575212125E-03  0.22061903455E-01 -0.73215159767E-02  0.10206736268E+01  0.10204086404E+01 0.  0.
     999903    2    3    3    0    0 -0.45165216801E-01  0.36905216188E-01 -0.11728333397E+00  0.13251941358E+00  0.20102804752E-01 0.  0.
         14    1    1    2    0    0 -0.72575212125E-03 -0.22061903455E-01  0.73215159767E-02  0.23256373243E-01  0.00000000000E+00 0.  1.
     999901    1    3    3    0    0  0.45890968922E-01 -0.14843312733E-01  0.10996181799E+00  0.88815421317E+00  0.88000000000E+00 0.  1.
        -11    1    4    4    0    0 -0.60294764368E-02  0.16244539740E-01 -0.29692485588E-01  0.34382328002E-01  0.51100000000E-03 0. -1.
         11    1    4    4    0    0 -0.39135740364E-01  0.20660676448E-01 -0.87590848382E-01  0.98137085581E-01  0.51100000000E-03 0.  1.
</event>
<event>
 8    1  0.1202249E+005  0.1043930E+01  0.7957747E-01            NaN
         13   -1    0    0    0    0  0.00000000000E+00  0.00000000000E+00  0.74505805969E-08  0.10566000000E+00  0.10566000000E+00 0. -1.
     999900   -1    0    0    0    0 -0.00000000000E+00 -0.00000000000E+00 -0.74505805969E-08  0.93827000000E+00  0.93827000000E+00 0.  1.
     999902    2    1    2    0    0 -0.16286019932E-01 -0.15818485267E-01  0.68450959235E-02  0.10202168336E+01  0.10199412107E+01 0.  0.
     999903    2    3    3    0    0  0.85779864208E-01 -0.36116713896E-01  0.88841392753E-01  0.13029950292E+00  0.20556392416E-01 0.  0.
         14    1    1    2    0    0  0.16286019932E-01  0.15818485267E-01 -0.68450959235E-02  0.23713166376E-01  0.00000000000E+00 0.  1.
     999901    1    3    3    0    0 -0.10206588414E+00  0.20298228629E-01 -0.81996296829E-01  0.88991733070E+00  0.88000000000E+00 0.  1.
        -11    1    4    4    0    0  0.62322462738E-01 -0.32885089161E-01  0.74798935232E-01  0.10276507327E+00  0.51100000000E-03 0. -1.
         11    1    4    4    0    0  0.23457401470E-01 -0.32316247351E-02  0.14042457521E-01  0.27534429654E-01  0.51100000000E-03 0.  1.
</event>
<event>
 8    1  0.1202249E+005  0.1043930E+01  0.7957747E-01            NaN
         13   -1    0    0    0    0  0.00000000000E+00  0.00000000000E+00  0.74505805969E-08  0.10566000000E+00  0.10566000000E+00 0. -1.
     999900   -1    0    0    0    0 -0.00000000000E+00 -0.00000000000E+00 -0.74505805969E-08  0.93827000000E+00  0.93827000000E+00 0. -1.
     999902    2    1    2    0    0 -0.18917292280E-01  0.13254685031E-01  0.21355967975E-02  0.10207327718E+01  0.10204691470E+01 0.  0.
     999903    2    3    3    0    0 -0.88172690467E-01  0.41769584065E-01  0.88708769926E-01  0.13331836807E+00  0.19632114134E-01 0.  0.
         14    1    1    2    0    0  0.18917292280E-01 -0.13254685031E-01 -0.21355967975E-02  0.23197228200E-01  0.00000000000E+00 0. -1.
     999901    1    3    3    0    0  0.69255398187E-01 -0.28514899033E-01 -0.86573173129E-01  0.88741440373E+00  0.88000000000E+00 0. -1.
        -11    1    4    4    0    0 -0.38939389580E-01  0.29031673794E-01  0.40485681891E-01  0.63233422360E-01  0.51100000000E-03 0.  1.
         11    1    4    4    0    0 -0.49233300887E-01  0.12737910271E-01  0.48223088035E-01  0.70084945708E-01  0.51100000000E-03 0. -1.
</event>
<event>
 8    1  0.1202249E+005  0.1043930E+01  0.7957747E-01            NaN
         13   -1    0    0    0    0  0.00000000000E+00  0.00000000000E+00  0.74505805969E-08  0.10566000000E+00  0.10566000000E+00 0.  1.
     999900   -1    0    0    0    0 -0.00000000000E+00 -0.00000000000E+00 -0.74505805969E-08  0.93827000000E+00  0.93827000000E+00 0. -1.
     999902    2    1    2    0    0 -0.21051036077E-01 -0.11532541412E-01  0.27128476837E-02  0.10197741482E+01  0.10194880128E+01 0.  0.
     999903    2    3    3    0    0  0.10934180587E+00  0.35418022232E-01 -0.51327653704E-01  0.12729052126E+00  0.18928337433E-01 0.  0.
         14    1    1    2    0    0  0.21051036077E-01  0.11532541412E-01 -0.27128476837E-02  0.24155851753E-01  0.00000000000E+00 0.  1.
     999901    1    3    3    0    0 -0.13039284194E+00 -0.46950563644E-01  0.54040501388E-01  0.89248362699E+00  0.88000000000E+00 0. -1.
        -11    1    4    4    0    0  0.65577333475E-01  0.30375032673E-01 -0.35045150171E-01  0.80320937166E-01  0.51100000000E-03 0.  1.
         11    1    4    4    0    0  0.43764472391E-01  0.50429895585E-02 -0.16282503533E-01  0.46969584090E-01  0.51100000000E-03 0. -1.
</event>
<event>
 8    1  0.1202249E+005  0.1043930E+01  0.7957747E-01            NaN
         13   -1    0    0    0    0  0.00000000000E+00  0.00000000000E+00  0.74505805969E-08  0.10566000000E+00  0.10566000000E+00 0.  1.
     999900   -1    0    0    0    0 -0.00000000000E+00 -0.00000000000E+00 -0.74505805969E-08  0.93827000000E+00  0.93827000000E+00 0.  1.
     999902    2    1    2    0    0  0.24523682999E-01 -0.36936118075E-02 -0.44100811061E-02  0.10187406647E+01  0.10184292019E+01 0.  0.
     999903    2    3    3    0    0 -0.42773912360E-01 -0.84117389726E-01  0.84158983047E-01  0.12809964304E+00  0.20529035197E-01 0.  0.
         14    1    1    2    0    0 -0.24523682999E-01  0.36936118075E-02  0.44100811061E-02  0.25189335270E-01  0.00000000000E+00 0. -1.
     999901    1    3    3    0    0  0.67297595358E-01  0.80423777918E-01 -0.88569064153E-01  0.89064102169E+00  0.88000000000E+00 0.  1.
        -11    1    4    4    0    0 -0.15597288484E-01 -0.52740106276E-01  0.50212682986E-01  0.74473947603E-01  0.51100000000E-03 0.  1.
         11    1    4    4    0    0 -0.27176623876E-01 -0.31377283450E-01  0.33946300061E-01  0.53625695434E-01  0.51100000000E-03 0. -1.
</event>
<event>
 8    1  0.1202249E+005  0.1043930E+01  0.7957747E-01            NaN
         13   -1    0    0    0    0  0.00000000000E+00  0.00000000000E+00  0.74505805969E-08  0.10566000000E+00  0.10566000000E+00 0.  1.
     999900   -1    0    0    0    0 -0.00000000000E+00 -0.00000000000E+00 -0.74505805969E-08  0.93827000000E+00  0.93827000000E+00 0. -1.
     999902    2    1    2    0    0  0.19280872163E-01  0.71881445783E-02  0.12015693755E-01  0.10201014803E+01  0.10198231375E+01 0.  0.
     999903    2    3    3    0    0  0.42961852615E-01 -0.11916413973E+00 -0.22719495061E-01  0.13008337830E+00  0.18965676275E-01 0.  0.
         14    1    1    2    0    0 -0.19280872163E-01 -0.71881445783E-02 -0.12015693755E-01  0.23828519682E-01  0.00000000000E+00 0.  1.
     999901    1    3    3    0    0 -0.23680980452E-01  0.12635228430E+00  0.34735188816E-01  0.89001810202E+00  0.88000000000E+00 0.  1.
        -11    1    4    4    0    0  0.32461325365E-01 -0.10493986152E+00 -0.15319432259E-01  0.11091013618E+00  0.51100000000E-03 0. -1.
         11    1    4    4    0    0  0.10500527250E-01 -0.14224278201E-01 -0.74000628019E-02  0.19173242118E-01  0.51100000000E-03 0.  1.
</event>
<event>
 8    1  0.1202249E+005  0.1043930E+01  0.7957747E-01            NaN
         13   -1    0    0    0    0  0.00000000000E+00  0.00000000000E+00  0.74505805969E-08  0.10566000000E+00  0.10566000000E+00 0. -1.
     999900   -1    0    0    0    0 -0.00000000000E+00 -0.00000000000E+00 -0.74505805969E-08  0.93827000000E+00  0.93827000000E+00 0. -1.
     999902    2    1    2    0    0  0.23309789005E-01  0.24232995213E-02  0.19043644205E-02  0.10204173386E+01  0.10201464109E+01 0.  0.
     999903    2    3    3    0    0 -0.70707042664E-01 -0.42672128845E-02 -0.10579052896E+00  0.12885572114E+00  0.19861164737E-01 0.  0.
         14    1    1    2    0    0 -0.23309789005E-01 -0.24232995213E-02 -0.19043644205E-02  0.23512661438E-01  0.00000000000E+00 0. -1.
     999901    1    3    3    0    0  0.94016831670E-01  0.66905124058E-02  0.10769489338E+00  0.89156161742E+00  0.88000000000E+00 0.  1.
        -11    1    4    4    0    0 -0.51647629013E-01 -0.61144251342E-02 -0.61140176884E-01  0.80269833236E-01  0.51100000000E-03 0.  1.
         11    1    4    4    0    0 -0.19059413651E-01  0.18472122497E-02 -0.44650352080E-01  0.48585887907E-01  0.51100000000E-03 0. -1.
</event>
<event>
 8    1  0.1202249E+005  0.1043930E+01  0.7957747E-01            NaN
         13   -1    0    0    0    0  0.00000000000E+00  0.00000000000E+00  0.74505805969E-08  0.10566000000E+00  0.10566000000E+00 0. -1.
     999900   -1    0    0    0    0 -0.00000000000E+00 -0.00000000000E+00 -0.74505805969E-08  0.93827000000E+00  0.93827000000E+00 0. -1.
     999902    2    1    2    0    0  0.50219752712E-02 -0.18337065047E-01 -0.13971181770E-01  0.10203363121E+01  0.10200634920E+01 0.  0.
     999903    2    3    3    0    0 -0.51108200703E-01  0.11663841695E+00 -0.69066130640E-02  0.12824949705E+00  0.13552258179E-01 0.  0.
         14    1    1    2    0    0 -0.50219752712E-02  0.18337065047E-01  0.13971181770E-01  0.23593687932E-01  0.00000000000E+00 0. -1.
     999901    1    3    3    0    0  0.56130175974E-01 -0.13497548200E+00 -0.70645687056E-02  0.89208681502E+00  0.88000000000E+00 0. -1.
        -11    1    4    4    0    0 -0.20965166320E-01  0.64394531282E-01 -0.24716867733E-02  0.67768460321E-01  0.51100000000E-03 0.  1.
         11    1    4    4    0    0 -0.30143034382E-01  0.52243885671E-01 -0.44349262908E-02  0.60481036730E-01  0.51100000000E-03 0. -1.
</event>
<event>
 7    1  0.1202249E+005  0.1043930E+01  0.7957747E-01            NaN
         13   -1    0    0    0    0  0.00000000000E+00  0.00000000000E+00  0.74505805969E-08  0.10566000000E+00  0.10566000000E+00 0.  1.
     999900   -1    0    0    0    0 -0.00000000000E+00 -0.00000000000E+00 -0.74505805969E-08  0.93827000000E+00  0.93827000000E+00 0. -1.
     999903    2    1    2    0    0  0.88275454433E-02  0.82766944445E-01 -0.55101515655E-01  0.10221256858E+00  0.21975884452E-01 0.  0.
         14    1    1    2    0    0 -0.63245158862E-02 -0.58294414395E-02 -0.51260145885E-01  0.51976768318E-01  0.00000000000E+00 0. -1.
     999901    1    1    2    0    0 -0.25030295571E-02 -0.76937503006E-01  0.10636166154E+00  0.88974066310E+00  0.88000000000E+00 0.  1.
        -11    1    3    3    0    0  0.98052852403E-02  0.73245252673E-01 -0.39220828044E-01  0.83663284249E-01  0.51100000000E-03 0. -1.
         11    1    3    3    0    0 -0.97773979701E-03  0.95216917719E-02 -0.15880687611E-01  0.18549284334E-01  0.51100000000E-03 0.  1.
</event>
<event>
 8    1  0.1202249E+005  0.1043930E+01  0.7957747E-01            NaN
         13   -1    0    0    0    0  0.00000000000E+00  0.00000000000E+00  0.74505805969E-08  0.10566000000E+00  0.10566000000E+00 0. -1.
     999900   -1    0    0    0    0 -0.00000000000E+00 -0.00000000000E+00 -0.74505805969E-08  0.93827000000E+00  0.93827000000E+00 0. -1.
     999902    2    1    2    0    0  0.24574661939E-01  0.31683119196E-03  0.60181385634E-02  0.10186271863E+01  0.10183128754E+01 0.  0.
     999903    2    3    3    0    0  0.39610288633E-01  0.10004604523E+00  0.71039592686E-01  0.13048318009E+00  0.20026243423E-01 0.  0.
         14    1    1    2    0    0 -0.24574661939E-01 -0.31683119196E-03 -0.60181385634E-02  0.25302813740E-01  0.00000000000E+00 0. -1.
     999901    1    3    3    0    0 -0.15035626694E-01 -0.99729214036E-01 -0.65021454123E-01  0.88814400617E+00  0.88000000000E+00 0. -1.
        -11    1    4    4    0    0  0.19674034491E-01  0.27123027729E-01  0.17173925358E-01  0.37655425898E-01  0.51100000000E-03 0.  1.
         11    1    4    4    0    0  0.19936254142E-01  0.72923017498E-01  0.53865667328E-01  0.92827754190E-01  0.51100000000E-03 0. -1.
</event>
<event>
 8    1  0.1202249E+005  0.1043930E+01  0.7957747E-01            NaN
         13   -1    0    0    0    0  0.00000000000E+00  0.00000000000E+00  0.74505805969E-08  0.10566000000E+00  0.10566000000E+00 0.  1.
     999900   -1    0    0    0    0 -0.00000000000E+00 -0.00000000000E+00 -0.74505805969E-08  0.93827000000E+00  0.93827000000E+00 0.  1.
     999902    2    1    2    0    0  0.12188637860E-01  0.25514726950E-02 -0.20188530927E-01  0.10202097621E+01  0.10199339728E+01 0.  0.
     999903    2    3    3    0    0  0.12718862838E+00  0.22911128917E-01 -0.20115393604E-01  0.13249386228E+00  0.21169021311E-01 0.  0.
         14    1    1    2    0    0 -0.12188637860E-01 -0.25514726950E-02  0.20188530927E-01  0.23720237916E-01  0.00000000000E+00 0.  1.
     999901    1    3    3    0    0 -0.11499999052E+00 -0.20359656222E-01 -0.73137322718E-04  0.88771589981E+00  0.88000000000E+00 0.  1.
        -11    1    4    4    0    0  0.71222595926E-01  0.19422343725E-01 -0.19727796007E-01  0.76415526318E-01  0.51100000000E-03 0.  1.
         11    1    4    4    0    0  0.55966032456E-01  0.34887851919E-02 -0.38759759713E-03  0.56078335959E-01  0.51100000000E-03 0. -1.
</event>
<event>
 8    1  0.1202249E+005  0.1043930E+01  0.7957747E-01            NaN
         13   -1    0    0    0    0  0.00000000000E+00  0.00000000000E+00  0.74505805969E-08  0.10566000000E+00  0.10566000000E+00 0. -1.
     999900   -1    0    0    0    0 -0.00000000000E+00 -0.00000000000E+00 -0.74505805969E-08  0.93827000000E+00  0.93827000000E+00 0. -1.
     999902    2    1    2    0    0  0.57459560977E-02  0.13657341503E-01 -0.18541938648E-01  0.10201951632E+01  0.10199190304E+01 0.  0.
     999903    2    3    3    0    0  0.51663638787E-01  0.18514257956E-01 -0.11997611956E+00  0.13316589860E+00  0.18082532023E-01 0.  0.
         14    1    1    2    0    0 -0.57459560977E-02 -0.13657341503E-01  0.18541938648E-01  0.23734836786E-01  0.00000000000E+00 0. -1.
     999901    1    3    3    0    0 -0.45917682690E-01 -0.48569164528E-02  0.10143418092E+00  0.88702926461E+00  0.88000000000E+00 0.  1.
        -11    1    4    4    0    0  0.29479540895E-01  0.19389586231E-01 -0.67037849942E-01  0.75758391162E-01  0.51100000000E-03 0. -1.
         11    1    4    4    0    0  0.22184097893E-01 -0.87532827521E-03 -0.52938269622E-01  0.57407507440E-01  0.51100000000E-03 0.  1.
</event>
<event>
 8    1  0.1202249E+005  0.1043930E+01  0.7957747E-01            NaN
         13   -1    0    0    0    0  0.00000000000E+00  0.00000000000E+00  0.74505805969E-08  0.10566000000E+00  0.10566000000E+00 0.  1.
     999900   -1    0    0    0    0 -0.00000000000E+00 -0.00000000000E+00 -0.74505805969E-08  0.93827000000E+00  0.93827000000E+00 0.  1.
     999902    2    1    2    0    0  0.14187409832E-01  0.94728186835E-02 -0.16573500989E-01  0.10201455970E+01  0.10198682960E+01 0.  0.
     999903    2    3    3    0    0 -0.72171309903E-01 -0.74611771129E-01  0.71327517662E-01  0.12759048060E+00  0.20398568554E-01 0.  0.
         14    1    1    2    0    0 -0.14187409832E-01 -0.94728186835E-02  0.16573500989E-01  0.23784403011E-01  0.00000000000E+00 0.  1.
     999901    1    3    3    0    0  0.86358719735E-01  0.84084589813E-01 -0.87901018650E-01  0.89255511639E+00  0.88000000000E+00 0.  1.
        -11    1    4    4    0    0 -0.38283413468E-01 -0.25795339555E-01  0.35062409567E-01  0.57971139157E-01  0.51100000000E-03 0.  1.
         11    1    4    4    0    0 -0.33887896435E-01 -0.48816431574E-01  0.36265108095E-01  0.69619341440E-01  0.51100000000E-03 0. -1.
</event>
<event>
 8    1  0.1202249E+005  0.1043930E+01  0.7957747E-01            NaN
         13   -1    0    0    0    0  0.00000000000E+00  0.00000000000E+00  0.74505805969E-08  0.10566000000E+00  0.10566000000E+00 0. -1.
     999900   -1    0    0    0    0 -0.00000000000E+00 -0.00000000000E+00 -0.74505805969E-08  0.93827000000E+00  0.93827000000E+00 0.  1.
     999902    2    1    2    0    0  0.20490478440E-01 -0.11243770225E-01  0.36770489135E-02  0.10202698486E+01  0.10199954712E+01 0.  0.
     999903    2    3    3    0    0  0.54983552219E-01  0.11285384980E+00 -0.29169338789E-01  0.13028733382E+00  0.19098601973E-01 0.  0.
         14    1    1    2    0    0 -0.20490478440E-01  0.11243770225E-01 -0.36770489135E-02  0.23660151400E-01  0.00000000000E+00 0.  1.
     999901    1    3    3    0    0 -0.34493073780E-01 -0.12409762003E+00  0.32846387703E-01  0.88998251478E+00  0.88000000000E+00 0. -1.
        -11    1    4    4    0    0  0.36760745144E-01  0.56978374432E-01 -0.20748741551E-01  0.70913037824E-01  0.51100000000E-03 0.  1.
         11    1    4    4    0    0  0.18222807075E-01  0.55875475372E-01 -0.84205972385E-02  0.59374295993E-01  0.51100000000E-03 0. -1.
</event>
<event>
 8    1  0.1202249E+005  0.1043930E+01  0.7957747E-01            NaN
         13   -1    0    0    0    0  0.00000000000E+00  0.00000000000E+00  0.74505805969E-08  0.10566000000E+00  0.10566000000E+00 0. -1.
     999900   -1    0    0    0    0 -0.00000000000E+00 -0.00000000000E+00 -0.74505805969E-08  0.93827000000E+00  0.93827000000E+00 0.  1.
     999902    2    1    2    0    0  0.11488819982E-02  0.22961990064E-01  0.40090297939E-02  0.10205923644E+01  0.10203255015E+01 0.  0.
     999903    2    3    3    0    0 -0.53763224105E-01 -0.10524766793E+00 -0.45262065151E-01  0.12824674936E+00  0.20760980442E-01 0.  0.
         14    1    1    2    0    0 -0.11488819982E-02 -0.22961990064E-01 -0.40090297939E-02  0.23337635643E-01  0.00000000000E+00 0.  1.
     999901    1    3    3    0    0  0.54912106103E-01  0.12820965800E+00  0.49271094945E-01  0.89234561499E+00  0.88000000000E+00 0.  1.
        -11    1    4    4    0    0 -0.17808021677E-01 -0.36925314072E-01 -0.53885686692E-02  0.41350964301E-01  0.51100000000E-03 0.  1.
         11    1    4    4    0    0 -0.35955202428E-01 -0.68322353862E-01 -0.39873496482E-01  0.86895785062E-01  0.51100000000E-03 0. -1.
</event>
<event>
 8    1  0.1202249E+005  0.1043930E+01  0.7957747E-01            NaN
         13   -1    0    0    0    0  0.00000000000E+00  0.00000000000E+00  0.74505805969E-08  0.10566000000E+00  0.10566000000E+00 0.  1.
     999900   -1    0    0    0    0 -0.00000000000E+00 -0.00000000000E+00 -0.74505805969E-08  0.93827000000E+00  0.93827000000E+00 0. -1.
     999902    2    1    2    0    0  0.12970203121E-01  0.15338765666E-01 -0.19691000749E-01  0.10158010219E+01  0.10154114814E+01 0.  0.
     999903    2    3    3    0    0 -0.73474710002E-01  0.65173114870E-01 -0.80585413126E-01  0.12807115594E+00  0.16190869786E-01 0.  0.
         14    1    1    2    0    0 -0.12970203121E-01 -0.15338765666E-01  0.19691000749E-01  0.28128978148E-01  0.00000000000E+00 0. -1.
     999901    1    3    3    0    0  0.86444913123E-01 -0.49834349205E-01  0.60894412377E-01  0.88772986591E+00  0.88000000000E+00 0. -1.
        -11    1    4    4    0    0 -0.97672110105E-02  0.63663276893E-02 -0.16706014080E-01  0.20378433861E-01  0.51100000000E-03 0. -1.
         11    1    4    4    0    0 -0.63707498992E-01  0.58806787181E-01 -0.63879399046E-01  0.10769272208E+00  0.51100000000E-03 0.  1.
</event>
<event>
 8    1  0.1202249E+005  0.1043930E+01  0.7957747E-01            NaN
         13   -1    0    0    0    0  0.00000000000E+00  0.00000000000E+00  0.74505805969E-08  0.10566000000E+00  0.10566000000E+00 0.  1.
     999900   -1    0    0    0    0 -0.00000000000E+00 -0.00000000000E+00 -0.74505805969E-08  0.93827000000E+00  0.93827000000E+00 0.  1.
     999902    2    1    2    0    0  0.52137669042E-02 -0.15088479196E-01 -0.17684406684E-01  0.10201059825E+01  0.10198277461E+01 0.  0.
     999903    2    3    3    0    0 -0.58968069291E-01  0.17781347805E-01 -0.11492046861E+00  0.13181853727E+00  0.19390800308E-01 0.  0.
         14    1    1    2    0    0 -0.52137669042E-02  0.15088479196E-01  0.17684406684E-01  0.23824017493E-01  0.00000000000E+00 0.  1.
     999901    1    3    3    0    0  0.64181836195E-01 -0.32869827000E-01  0.97236061928E-01  0.88828744524E+00  0.88000000000E+00 0. -1.
        -11    1    4    4    0    0 -0.37731926687E-01  0.11821685075E-01 -0.53297433943E-01  0.66365112186E-01  0.51100000000E-03 0.  1.
         11    1    4    4    0    0 -0.21236142604E-01  0.59596627290E-02 -0.61623034669E-01  0.65453425085E-01  0.51100000000E-03 0. -1.
</event>
<event>
 8    1  0.1202249E+005  0.1043930E+01  0.7957747E-01            NaN
         13   -1    0    0    0    0  0.00000000000E+00  0.00000000000E+00  0.74505805969E-08  0.10566000000E+00  0.10566000000E+00 0. -1.
     999900   -1    0    0    0    0 -0.00000000000E+00 -0.00000000000E+00 -0.74505805969E-08  0.93827000000E+00  0.93827000000E+00 0.  1.
     999902    2    1    2    0    0  0.17735891870E-01 -0.29888482246E-02 -0.15595549578E-01  0.10201241973E+01  0.10198463912E+01 0.  0.
     999903    2    3    3    0    0 -0.68131047813E-01  0.10735905779E+00 -0.89903093924E-02  0.12906111264E+00  0.20202429784E-01 0.  0.
         14    1    1    2    0    0 -0.17735891870E-01  0.29888482246E-02  0.15595549578E-01  0.23805802670E-01  0.00000000000E+00 0. -1.
     999901    1    3    3    0    0  0.85866939683E-01 -0.11034790601E+00 -0.66052401852E-02  0.89106308469E+00  0.88000000000E+00 0. -1.
        -11    1    4    4    0    0 -0.31650456989E-01  0.60803128808E-01  0.33803460735E-02  0.68632789256E-01  0.51100000000E-03 0.  1.
         11    1    4    4    0    0 -0.36480590824E-01  0.46555928978E-01 -0.12370655466E-01  0.60428323388E-01  0.51100000000E-03 0. -1.
</event>
<event>
 8    1  0.1202249E+005  0.1043930E+01  0.7957747E-01            NaN
         13   -1    0    0    0    0  0.00000000000E+00  0.00000000000E+00  0.74505805969E-08  0.10566000000E+00  0.10566000000E+00 0. -1.
     999900   -1    0    0    0    0 -0.00000000000E+00 -0.00000000000E+00 -0.74505805969E-08  0.93827000000E+00  0.93827000000E+00 0. -1.
     999902    2    1    2    0    0 -0.12650823614E-01 -0.12862760544E-01  0.11323896736E-01  0.10226291882E+01  0.10224073219E+01 0.  0.
     999903    2    3    3    0    0  0.67191421142E-01  0.97510636329E-01  0.52741009600E-01  0.13118516412E+00  0.20122671802E-01 0.  0.
         14    1    1    2    0    0  0.12650823614E-01  0.12862760544E-01 -0.11323896736E-01  0.21300811820E-01  0.00000000000E+00 0.  1.
     999901    1    3    3    0    0 -0.79842244756E-01 -0.11037339687E+00 -0.41417112863E-01  0.89144402405E+00  0.88000000000E+00 0.  1.
        -11    1    4    4    0    0  0.20884392865E-01  0.43602601744E-01  0.14471195888E-01  0.50468023298E-01  0.51100000000E-03 0.  1.
         11    1    4    4    0    0  0.46307028277E-01  0.53908034585E-01  0.38269813712E-01  0.80717140827E-01  0.51100000000E-03 0. -1.
</event>
<event>
 7    1  0.1202249E+005  0.1043930E+01  0.7957747E-01            NaN
         13   -1    0    0    0    0  0.00000000000E+00  0.00000000000E+00  0.74505805969E-08  0.10566000000E+00  0.10566000000E+00 0. -1.
     999900   -1    0    0    0    0 -0.00000000000E+00 -0.00000000000E+00 -0.74505805969E-08  0.93827000000E+00  0.93827000000E+00 0. -1.
     999903    2    1    2    0    0 -0.33396415021E-01 -0.39864500078E-02  0.25276416648E-01  0.49118132219E-01  0.25347215906E-01 0.  0.
         14    1    1    2    0    0 -0.28141650845E-01 -0.34428909931E-01 -0.99227485083E-01  0.10873544108E+00  0.00000000000E+00 0.  1.
     999901    1    1    2    0    0  0.61538065866E-01  0.38415359939E-01  0.73951068436E-01  0.88607642670E+00  0.88000000000E+00 0.  1.
        -11    1    3    3    0    0 -0.15175226243E-01  0.10797099763E-01  0.10552422131E-01  0.21412136481E-01  0.51100000000E-03 0. -1.
         11    1    3    3    0    0 -0.18221188777E-01 -0.14783549771E-01  0.14723994517E-01  0.27705995738E-01  0.51100000000E-03 0.  1.
</event>
<event>
 8    1  0.1202249E+005  0.1043930E+01  0.7957747E-01            NaN
         13   -1    0    0    0    0  0.00000000000E+00  0.00000000000E+00  0.74505805969E-08  0.10566000000E+00  0.10566000000E+00 0. -1.
     999900   -1    0    0    0    0 -0.00000000000E+00 -0.00000000000E+00 -0.74505805969E-08  0.93827000000E+00  0.93827000000E+00 0.  1.
     999902    2    1    2    0    0 -0.51741197782E-02 -0.20790723731E-01  0.11223008320E-01  0.10197436066E+01  0.10194567385E+01 0.  0.
     999903    2    3    3    0    0  0.35513741369E-03 -0.13123384427E+00 -0.48816184037E-03  0.13274563196E+00  0.19967886660E-01 0.  0.
         14    1    1    2    0    0  0.51741197782E-02  0.20790723731E-01 -0.11223008320E-01  0.24186393375E-01  0.00000000000E+00 0.  1.
     999901    1    3    3    0    0 -0.55292571919E-02  0.11044312054E+00  0.11711170161E-01  0.88699797467E+00  0.88000000000E+00 0.  1.
        -11    1    4    4    0    0  0.58357094589E-02 -0.52858077918E-01  0.77607707111E-02  0.53744977339E-01  0.51100000000E-03 0.  1.
         11    1    4    4    0    0 -0.54805720452E-02 -0.78375766350E-01 -0.82489325515E-02  0.79000654618E-01  0.51100000000E-03 0. -1.
</event>
<event>
 8    1  0.1202249E+005  0.1043930E+01  0.7957747E-01            NaN
         13   -1    0    0    0    0  0.00000000000E+00  0.00000000000E+00  0.74505805969E-08  0.10566000000E+00  0.10566000000E+00 0. -1.
     999900   -1    0    0    0    0 -0.00000000000E+00 -0.00000000000E+00 -0.74505805969E-08  0.93827000000E+00  0.93827000000E+00 0.  1.
     999902    2    1    2    0    0  0.15818629307E-01 -0.38040956673E-02 -0.17727584349E-01  0.10198682581E+01  0.10195843744E+01 0.  0.
     999903    2    3    3    0    0  0.48494946352E-01 -0.59577224942E-01  0.10315780010E+00  0.12925517722E+00  0.12812632930E-01 0.  0.
         14    1    1    2    0    0 -0.15818629307E-01  0.38040956673E-02  0.17727584349E-01  0.24061741912E-01  0.00000000000E+00 0. -1.
     999901    1    3    3    0    0 -0.32676317045E-01  0.55773129275E-01 -0.12088538445E+00  0.89061308087E+00  0.88000000000E+00 0. -1.
        -11    1    4    4    0    0  0.37733641824E-01 -0.38839022313E-01  0.77556102741E-01  0.94591265838E-01  0.51100000000E-03 0.  1.
         11    1    4    4    0    0  0.10761304528E-01 -0.20738202630E-01  0.25601697358E-01  0.34663911379E-01  0.51100000000E-03 0. -1.
</event>
<event>
 8    1  0.1202249E+005  0.1043930E+01  0.7957747E-01            NaN
         13   -1    0    0    0    0  0.00000000000E+00  0.00000000000E+00  0.74505805969E-08  0.10566000000E+00  0.10566000000E+00 0.  1.
     999900   -1    0    0    0    0 -0.00000000000E+00 -0.00000000000E+00 -0.74505805969E-08  0.93827000000E+00  0.93827000000E+00 0. -1.
     999902    2    1    2    0    0  0.15272421536E-01 -0.39938386739E-02  0.16489152367E-01  0.10211026096E+01  0.10208474174E+01 0.  0.
     999903    2    3    3    0    0 -0.91761346829E-01 -0.21361274293E-01 -0.85558446554E-01  0.12859402822E+00  0.18431698363E-01 0.  0.
         14    1    1    2    0    0 -0.15272421536E-01  0.39938386739E-02 -0.16489152367E-01  0.22827390405E-01  0.00000000000E+00 0. -1.
     999901    1    3    3    0    0  0.10703376837E+00  0.17367435619E-01  0.10204759892E+00  0.89250858138E+00  0.88000000000E+00 0.  1.
        -11    1    4    4    0    0 -0.11825546378E-01  0.16746665614E-02 -0.55754767432E-02  0.13190720873E-01  0.51100000000E-03 0. -1.
         11    1    4    4    0    0 -0.79935800451E-01 -0.23035940855E-01 -0.79982969811E-01  0.11540330734E+00  0.51100000000E-03 0.  1.
</event>
<event>
 8    1  0.1202249E+005  0.1043930E+01  0.7957747E-01            NaN
         13   -1    0    0    0    0  0.00000000000E+00  0.00000000000E+00  0.74505805969E-08  0.10566000000E+00  0.10566000000E+00 0. -1.
     999900   -1    0    0    0    0 -0.00000000000E+00 -0.00000000000E+00 -0.74505805969E-08  0.93827000000E+00  0.93827000000E+00 0.  1.
     999902    2    1    2    0    0 -0.15039508352E-01  0.11874024411E-01  0.37585436707E-02  0.10244029440E+01  0.10242168158E+01 0.  0.
     999903    2    3    3    0    0 -0.10807596871E+00  0.55770818754E-01  0.58883938384E-01  0.13669718153E+00  0.20688209213E-01 0.  0.
         14    1    1    2    0    0  0.15039508352E-01 -0.11874024411E-01 -0.37585436707E-02  0.19527056043E-01  0.00000000000E+00 0.  1.
     999901    1    3    3    0    0  0.93036460358E-01 -0.43896794343E-01 -0.55125394713E-01  0.88770576243E+00  0.88000000000E+00 0.  1.
        -11    1    4    4    0    0 -0.53156038855E-01  0.35332840219E-01  0.22297781698E-01  0.67612323243E-01  0.51100000000E-03 0. -1.
         11    1    4    4    0    0 -0.54919929856E-01  0.20437978535E-01  0.36586156686E-01  0.69084858284E-01  0.51100000000E-03 0.  1.
</event>
<event>
 8    1  0.1202249E+005  0.1043930E+01  0.7957747E-01            NaN
         13   -1    0    0    0    0  0.00000000000E+00  0.00000000000E+00  0.74505805969E-08  0.10566000000E+00  0.10566000000E+00 0. -1.
     999900   -1    0    0    0    0 -0.00000000000E+00 -0.00000000000E+00 -0.74505805969E-08  0.93827000000E+00  0.93827000000E+00 0.  1.
     999902    2    1    2    0    0 -0.13914671560E-01  0.12050772711E-01 -0.76951442168E-02  0.10239786980E+01  0.10237843130E+01 0.  0.
     999903    2    3    3    0    0 -0.11355859353E+00  0.48331982790E-01  0.52334391563E-01  0.13558194959E+00  0.20298812535E-01 0.  0.
         14    1    1    2    0    0  0.13914671560E-01 -0.12050772711E-01  0.76951442168E-02  0.19951302014E-01  0.00000000000E+00 0.  1.
     999901    1    3    3    0    0  0.99643921969E-01 -0.36281210079E-01 -0.60029535780E-01  0.88839674839E+00  0.88000000000E+00 0.  1.
        -11    1    4    4    0    0 -0.47686542030E-01  0.26477310603E-01  0.32086744549E-01  0.63284078284E-01  0.51100000000E-03 0.  1.
         11    1    4    4    0    0 -0.65872051499E-01  0.21854672187E-01  0.20247647014E-01  0.72297871308E-01  0.51100000000E-03 0. -1.
</event>
<event>
 8    1  0.1202249E+005  0.1043930E+01  0.7957747E-01            NaN
         13   -1    0    0    0    0  0.00000000000E+00  0.00000000000E+00  0.74505805969E-08  0.10566000000E+00  0.10566000000E+00 0.  1.
     999900   -1    0    0    0    0 -0.00000000000E+00 -0.00000000000E+00 -0.74505805969E-08  0.93827000000E+00  0.93827000000E+00 0.  1.
     999902    2    1    2    0    0 -0.21973974541E-01 -0.19078164268E-02  0.88372600810E-02  0.10201688450E+01  0.10198920923E+01 0.  0.
     999903    2    3    3    0    0 -0.66725505623E-01 -0.27081303441E-01  0.10988218342E+00  0.13289973109E+00  0.20063753223E-01 0.  0.
         14    1    1    2    0    0  0.21973974541E-01  0.19078164268E-02 -0.88372600810E-02  0.23761154989E-01  0.00000000000E+00 0.  1.
     999901    1    3    3    0    0  0.44751531081E-01  0.25173487014E-01 -0.10104492334E+00  0.88726911392E+00  0.88000000000E+00 0. -1.
        -11    1    4    4    0    0 -0.25387657719E-01 -0.78356906429E-02  0.58173540460E-01  0.63955868714E-01  0.51100000000E-03 0.  1.
         11    1    4    4    0    0 -0.41337847904E-01 -0.19245612798E-01  0.51708642964E-01  0.68943862377E-01  0.51100000000E-03 0. -1.
</event>
<event>
 8    1  0.1202249E+005  0.1043930E+01  0.7957747E-01            NaN
         13   -1    0    0    0    0  0.00000000000E+00  0.00000000000E+00  0.74505805969E-08  0.10566000000E+00  0.10566000000E+00 0. -1.
     999900   -1    0    0    0    0 -0.00000000000E+00 -0.00000000000E+00 -0.74505805969E-08  0.93827000000E+00  0.93827000000E+00 0. -1.
     999902    2    1    2    0    0 -0.19863969148E-01 -0.12331444366E-01 -0.80376760980E-03  0.10205358163E+01  0.10202676435E+01 0.  0.
     999903    2    3    3    0    0 -0.10320578765E+00 -0.76416048769E-01  0.31346605789E-01  0.13369516443E+00  0.20023490802E-01 0.  0.
         14    1    1    2    0    0  0.19863969148E-01  0.12331444366E-01  0.80376760980E-03  0.23394183739E-01  0.00000000000E+00 0.  1.
     999901    1    3    3    0    0  0.83341818499E-01  0.64084604403E-01 -0.32150373398E-01  0.88684065183E+00  0.88000000000E+00 0. -1.
        -11    1    4    4    0    0 -0.35225914328E-01 -0.24999731636E-01  0.20353375992E-01  0.47753247611E-01  0.51100000000E-03 0.  1.
         11    1    4    4    0    0 -0.67979873319E-01 -0.51416317133E-01  0.10993229797E-01  0.85941916818E-01  0.51100000000E-03 0. -1.
</event>
<event>
 8    1  0.1202249E+005  0.1043930E+01  0.7957747E-01            NaN
         13   -1    0    0    0    0  0.00000000000E+00  0.00000000000E+00  0.74505805969E-08  0.10566000000E+00  0.10566000000E+00 0.  1.
     999900   -1    0    0    0    0 -0.00000000000E+00 -0.00000000000E+00 -0.74505805969E-08  0.93827000000E+00  0.93827000000E+00 0.  1.
     999902    2    1    2    0    0 -0.60608792382E-02 -0.10508655279E-01 -0.18638002785E-01  0.10216917168E+01  0.10214496673E+01 0.  0.
     999903    2    3    3    0    0  0.75909063411E-02  0.12744330641E+00  0.16398688894E-01  0.13015109249E+00  0.19260624926E-01 0.  0.
         14    1    1    2    0    0  0.60608792382E-02  0.10508655279E-01  0.18638002785E-01  0.22238283223E-01  0.00000000000E+00 0.  1.
     999901    1    3    3    0    0 -0.13651785579E-01 -0.13795196169E+00 -0.35036691679E-01  0.89154062428E+00  0.88000000000E+00 0. -1.
        -11    1    4    4    0    0  0.62169343972E-02  0.11697591903E+00  0.94942136249E-02  0.11752624013E+00  0.51100000000E-03 0.  1.
         11    1    4    4    0    0  0.13739719439E-02  0.10467387382E-01  0.69044752691E-02  0.12624852365E-01  0.51100000000E-03 0. -1.
</event>
<event>
 8    1  0.1202249E+005  0.1043930E+01  0.7957747E-01            NaN
         13   -1    0    0    0    0  0.00000000000E+00  0.00000000000E+00  0.74505805969E-08  0.10566000000E+00  0.10566000000E+00 0.  1.
     999900   -1    0    0    0    0 -0.00000000000E+00 -0.00000000000E+00 -0.74505805969E-08  0.93827000000E+00  0.93827000000E+00 0.  1.
     999902    2    1    2    0    0  0.17956543053E-01  0.12795874568E-01 -0.69011856905E-02  0.10208259266E+01  0.10205644390E+01 0.  0.
     999903    2    3    3    0    0 -0.14340355146E-01 -0.74632727883E-01  0.10257134675E+00  0.12915833969E+00  0.19629204809E-01 0.  0.
         14    1    1    2    0    0 -0.17956543053E-01 -0.12795874568E-01  0.69011856905E-02  0.23104073413E-01  0.00000000000E+00 0.  1.
     999901    1    3    3    0    0  0.32296898199E-01  0.87428602450E-01 -0.10947253244E+00  0.89166758689E+00  0.88000000000E+00 0.  1.
        -11    1    4    4    0    0 -0.17681687796E-01 -0.66677770638E-01  0.84164787064E-01  0.10882343352E+00  0.51100000000E-03 0.  1.
         11    1    4    4    0    0  0.33413326492E-02 -0.79549572451E-02  0.18406559684E-01  0.20334906172E-01  0.51100000000E-03 0. -1.
</event>
<event>
 8    1  0.1202249E+005  0.1043930E+01  0.7957747E-01            NaN
         13   -1    0    0    0    0  0.00000000000E+00  0.00000000000E+00  0.74505805969E-08  0.10566000000E+00  0.10566000000E+00 0. -1.
     999900   -1    0    0    0    0 -0.00000000000E+00 -0.00000000000E+00 -0.74505805969E-08  0.93827000000E+00  0.93827000000E+00 0. -1.
     999902    2    1    2    0    0  0.21204836831E-01  0.32290423613E-02  0.88620072487E-02  0.10207220920E+01  0.10204582217E+01 0.  0.
     999903    2    3    3    0    0 -0.20050369924E-01  0.29818778280E-01  0.12515066175E+00  0.13171587310E+00  0.19879794227E-01 0.  0.
         14    1    1    2    0    0 -0.21204836831E-01 -0.32290423613E-02 -0.88620072487E-02  0.23207907964E-01  0.00000000000E+00 0. -1.
     999901    1    3    3    0    0  0.41255206755E-01 -0.26589735918E-01 -0.11628865450E+00  0.88900621894E+00  0.88000000000E+00 0. -1.
        -11    1    4    4    0    0 -0.13617008446E-01  0.61471538877E-02  0.30931623812E-01  0.34354576006E-01  0.51100000000E-03 0.  1.
         11    1    4    4    0    0 -0.64333614784E-02  0.23671624392E-01  0.94219037936E-01  0.97361297094E-01  0.51100000000E-03 0. -1.
</event>
<event>
 8    1  0.1202249E+005  0.1043930E+01  0.7957747E-01            NaN
         13   -1    0    0    0    0  0.00000000000E+00  0.00000000000E+00  0.74505805969E-08  0.10566000000E+00  0.10566000000E+00 0.  1.
     999900   -1    0    0    0    0 -0.00000000000E+00 -0.00000000000E+00 -0.74505805969E-08  0.93827000000E+00  0.93827000000E+00 0. -1.
     999902    2    1    2    0    0  0.11595084044E-01 -0.24016686002E-01 -0.19168853403E-02  0.10171919816E+01  0.10168405016E+01 0.  0.
     999903    2    3    3    0    0  0.83773653479E-01  0.39767617166E-01 -0.85910794466E-01  0.12796020076E+00  0.19840866444E-01 0.  0.
         14    1    1    2    0    0 -0.11595084044E-01  0.24016686002E-01  0.19168853403E-02  0.26738018436E-01  0.00000000000E+00 0. -1.
     999901    1    3    3    0    0 -0.72178569435E-01 -0.63784303168E-01  0.83993909126E-01  0.88923178080E+00  0.88000000000E+00 0.  1.
        -11    1    4    4    0    0  0.72767529218E-01  0.40598072554E-01 -0.79589734036E-01  0.11523065429E+00  0.51100000000E-03 0.  1.
         11    1    4    4    0    0  0.11006124261E-01 -0.83045538801E-03 -0.63210604295E-02  0.12729546471E-01  0.51100000000E-03 0. -1.
</event>
<event>
 8    1  0.1202249E+005  0.1043930E+01  0.7957747E-01            NaN
         13   -1    0    0    0    0  0.00000000000E+00  0.00000000000E+00  0.74505805969E-08  0.10566000000E+00  0.10566000000E+00 0.  1.
     999900   -1    0    0    0    0 -0.00000000000E+00 -0.00000000000E+00 -0.74505805969E-08  0.93827000000E+00  0.93827000000E+00 0. -1.
     999902    2    1    2    0    0  0.71759385502E-02 -0.50475245151E-02  0.20717728116E-01  0.10214312032E+01  0.10211833856E+01 0.  0.
     999903    2    3    3    0    0 -0.13460559540E-01 -0.10983285509E+00 -0.66573953035E-01  0.13068675719E+00  0.20062267121E-01 0.  0.
         14    1    1    2    0    0 -0.71759385502E-02  0.50475245151E-02 -0.20717728116E-01  0.22498796770E-01  0.00000000000E+00 0. -1.
     999901    1    3    3    0    0  0.20636498090E-01  0.10478533057E+00  0.87291681151E-01  0.89074444604E+00  0.88000000000E+00 0.  1.
        -11    1    4    4    0    0 -0.46970369668E-02 -0.64163211337E-01 -0.49387065811E-01  0.81106863062E-01  0.51100000000E-03 0.  1.
         11    1    4    4    0    0 -0.87635225732E-02 -0.45669643750E-01 -0.17186887225E-01  0.49579894126E-01  0.51100000000E-03 0. -1.
</event>
<event>
 8    1  0.1202249E+005  0.1043930E+01  0.7957747E-01            NaN
         13   -1    0    0    0    0  0.00000000000E+00  0.00000000000E+00  0.74505805969E-08  0.10566000000E+00  0.10566000000E+00 0.  1.
     999900   -1    0    0    0    0 -0.00000000000E+00 -0.00000000000E+00 -0.74505805969E-08  0.93827000000E+00  0.93827000000E+00 0. -1.
     999902    2    1    2    0    0  0.61088974562E-02  0.20413237331E-01 -0.91004996241E-02  0.10207602357E+01  0.10204972419E+01 0.  0.
     999903    2    3    3    0    0  0.86497519041E-01 -0.27350084635E-01  0.91108825270E-01  0.13015057132E+00  0.20211512648E-01 0.  0.
         14    1    1    2    0    0 -0.61088974562E-02 -0.20413237331E-01  0.91004996241E-02  0.23169764346E-01  0.00000000000E+00 0.  1.
     999901    1    3    3    0    0 -0.80388621585E-01  0.47763321966E-01 -0.10020932489E+00  0.89060966433E+00  0.88000000000E+00 0. -1.
        -11    1    4    4    0    0  0.57034518015E-01 -0.20406217805E-01  0.73048379329E-01  0.94898244525E-01  0.51100000000E-03 0. -1.
         11    1    4    4    0    0  0.29463001026E-01 -0.69438668300E-02  0.18060445941E-01  0.35252326797E-01  0.51100000000E-03 0.  1.
</event>
<event>
 8    1  0.1202249E+005  0.1043930E+01  0.7957747E-01            NaN
         13   -1    0    0    0    0  0.00000000000E+00  0.00000000000E+00  0.74505805969E-08  0.10566000000E+00  0.10566000000E+00 0. -1.
     999900   -1    0    0    0    0 -0.00000000000E+00 -0.00000000000E+00 -0.74505805969E-08  0.93827000000E+00  0.93827000000E+00 0. -1.
     999902    2    1    2    0    0 -0.88294660533E-02  0.18369495848E-01  0.10367022563E-01  0.10210635835E+01  0.10208075080E+01 0.  0.
     999903    2    3    3    0    0 -0.86639821205E-01 -0.59295519011E-01 -0.74317408439E-01  0.13018886794E+00  0.20090966756E-01 0.  0.
         14    1    1    2    0    0  0.88294660533E-02 -0.18369495848E-01 -0.10367022563E-01  0.22866416538E-01  0.00000000000E+00 0.  1.
     999901    1    3    3    0    0  0.77810355152E-01  0.77665014858E-01  0.84684431002E-01  0.89087471552E+00  0.88000000000E+00 0.  1.
        -11    1    4    4    0    0 -0.51796805450E-01 -0.39677712088E-01 -0.34720501257E-01  0.73912138516E-01  0.51100000000E-03 0.  1.
         11    1    4    4    0    0 -0.34843015755E-01 -0.19617806922E-01 -0.39596907181E-01  0.56276729424E-01  0.51100000000E-03 0. -1.
</event>
<event>
 8    1  0.1202249E+005  0.1043930E+01  0.7957747E-01            NaN
         13   -1    0    0    0    0  0.00000000000E+00  0.00000000000E+00  0.74505805969E-08  0.10566000000E+00  0.10566000000E+00 0.  1.
     999900   -1    0    0    0    0 -0.00000000000E+00 -0.00000000000E+00 -0.74505805969E-08  0.93827000000E+00  0.93827000000E+00 0. -1.
     999902    2    1    2    0    0 -0.22399164513E-02  0.29998634521E-02 -0.25278097518E-01  0.10183761623E+01  0.10180555041E+01 0.  0.
     999903    2    3    3    0    0  0.55246150313E-01  0.10949460878E+00  0.32163295011E-01  0.12823836836E+00  0.19219653922E-01 0.  0.
         14    1    1    2    0    0  0.22399164513E-02 -0.29998634521E-02  0.25278097518E-01  0.25553837688E-01  0.00000000000E+00 0.  1.
     999901    1    3    3    0    0 -0.57486066764E-01 -0.10649474533E+00 -0.57441392529E-01  0.89013779396E+00  0.88000000000E+00 0.  1.
        -11    1    4    4    0    0  0.26523780384E-01  0.64141058730E-01  0.26328190269E-01  0.74236251688E-01  0.51100000000E-03 0.  1.
         11    1    4    4    0    0  0.28722369929E-01  0.45353550047E-01  0.58351047421E-02  0.54002116668E-01  0.51100000000E-03 0. -1.
</event>
<event>
 8    1  0.1202249E+005  0.1043930E+01  0.7957747E-01            NaN
         13   -1    0    0    0    0  0.00000000000E+00  0.00000000000E+00  0.74505805969E-08  0.10566000000E+00  0.10566000000E+00 0. -1.
     999900   -1    0    0    0    0 -0.00000000000E+00 -0.00000000000E+00 -0.74505805969E-08  0.93827000000E+00  0.93827000000E+00 0. -1.
     999902    2    1    2    0    0  0.20526159502E-01  0.12491569451E-01  0.24882876392E-02  0.10197731354E+01  0.10194869757E+01 0.  0.
     999903    2    3    3    0    0  0.81729141560E-02 -0.38846661215E-01 -0.12179210718E+00  0.12947327967E+00  0.18818957572E-01 0.  0.
         14    1    1    2    0    0 -0.20526159502E-01 -0.12491569451E-01 -0.24882876392E-02  0.24156864586E-01  0.00000000000E+00 0.  1.
     999901    1    3    3    0    0  0.12353245346E-01  0.51338230666E-01  0.12428039482E+00  0.89029985574E+00  0.88000000000E+00 0.  1.
        -11    1    4    4    0    0 -0.55129402449E-02 -0.17995070986E-01 -0.47022694611E-01  0.50651851096E-01  0.51100000000E-03 0.  1.
         11    1    4    4    0    0  0.13685854401E-01 -0.20851590229E-01 -0.74769412569E-01  0.78821428576E-01  0.51100000000E-03 0. -1.
</event>
<event>
 8    1  0.1202249E+005  0.1043930E+01  0.7957747E-01            NaN
         13   -1    0    0    0    0  0.00000000000E+00  0.00000000000E+00  0.74505805969E-08  0.10566000000E+00  0.10566000000E+00 0. -1.
     999900   -1    0    0    0    0 -0.00000000000E+00 -0.00000000000E+00 -0.74505805969E-08  0.93827000000E+00  0.93827000000E+00 0. -1.
     999902    2    1    2    0    0 -0.12979318003E-01 -0.12033328225E-01  0.20226079427E-01  0.10170532820E+01  0.10166980970E+01 0.  0.
     999903    2    3    3    0    0  0.82156389394E-02 -0.40825173133E-01  0.12205668206E+00  0.13045998840E+00  0.19692218117E-01 0.  0.
         14    1    1    2    0    0  0.12979318003E-01  0.12033328225E-01 -0.20226079427E-01  0.26876718047E-01  0.00000000000E+00 0.  1.
     999901    1    3    3    0    0 -0.21194956943E-01  0.28791844908E-01 -0.10183060263E+00  0.88659329355E+00  0.88000000000E+00 0.  1.
        -11    1    4    4    0    0  0.88697375615E-02 -0.10343893883E-01  0.57051794494E-01  0.58658646089E-01  0.51100000000E-03 0. -1.
         11    1    4    4    0    0 -0.65409862205E-03 -0.30481279250E-01  0.65004887566E-01  0.71801342315E-01  0.51100000000E-03 0.  1.
</event>
<event>
 8    1  0.1202249E+005  0.1043930E+01  0.7957747E-01            NaN
         13   -1    0    0    0    0  0.00000000000E+00  0.00000000000E+00  0.74505805969E-08  0.10566000000E+00  0.10566000000E+00 0. -1.
     999900   -1    0    0    0    0 -0.00000000000E+00 -0.00000000000E+00 -0.74505805969E-08  0.93827000000E+00  0.93827000000E+00 0. -1.
     999902    2    1    2    0    0  0.18789884756E-01 -0.50284281876E-02  0.12630759875E-01  0.10207377393E+01  0.10204742288E+01 0.  0.
     999903    2    3    3    0    0  0.93623280755E-01 -0.39014844471E-01 -0.81853945854E-01  0.13187190399E+00  0.20066235859E-01 0.  0.
         14    1    1    2    0    0 -0.18789884756E-01  0.50284281876E-02 -0.12630759875E-01  0.23192260653E-01  0.00000000000E+00 0. -1.
     999901    1    3    3    0    0 -0.74833395999E-01  0.33986416283E-01  0.94484705728E-01  0.88886583536E+00  0.88000000000E+00 0.  1.
        -11    1    4    4    0    0  0.44070120057E-01 -0.11032966835E-01 -0.27115350127E-01  0.52909405332E-01  0.51100000000E-03 0. -1.
         11    1    4    4    0    0  0.49553160698E-01 -0.27981877635E-01 -0.54738595727E-01  0.78962498658E-01  0.51100000000E-03 0.  1.
</event>
<event>
 8    1  0.1202249E+005  0.1043930E+01  0.7957747E-01            NaN
         13   -1    0    0    0    0  0.00000000000E+00  0.00000000000E+00  0.74505805969E-08  0.10566000000E+00  0.10566000000E+00 0. -1.
     999900   -1    0    0    0    0 -0.00000000000E+00 -0.00000000000E+00 -0.74505805969E-08  0.93827000000E+00  0.93827000000E+00 0. -1.
     999902    2    1    2    0    0  0.67471696106E-03  0.14571370558E-01 -0.19210177578E-01  0.10198092412E+01  0.10195239465E+01 0.  0.
     999903    2    3    3    0    0 -0.36449246668E-01 -0.11985725270E+00  0.17894438751E-01  0.12805479294E+00  0.19583422819E-01 0.  0.
         14    1    1    2    0    0 -0.67471696106E-03 -0.14571370558E-01  0.19210177578E-01  0.24120758808E-01  0.00000000000E+00 0. -1.
     999901    1    3    3    0    0  0.37123963629E-01  0.13442862326E+00 -0.37104616329E-01  0.89175444825E+00  0.88000000000E+00 0.  1.
        -11    1    4    4    0    0 -0.24365872755E-01 -0.59999633750E-01  0.13017508562E-02  0.64773509103E-01  0.51100000000E-03 0.  1.
         11    1    4    4    0    0 -0.12083373912E-01 -0.59857618949E-01  0.16592687895E-01  0.63281283836E-01  0.51100000000E-03 0. -1.
</event>
<event>
 8    1  0.1202249E+005  0.1043930E+01  0.7957747E-01            NaN
         13   -1    0    0    0    0  0.00000000000E+00  0.00000000000E+00  0.74505805969E-08  0.10566000000E+00  0.10566000000E+00 0.  1.
     999900   -1    0    0    0    0 -0.00000000000E+00 -0.00000000000E+00 -0.74505805969E-08  0.93827000000E+00  0.93827000000E+00 0.  1.
     999902    2    1    2    0    0 -0.15175616203E-01  0.15533882801E-01 -0.94818123154E-02  0.10202338905E+01  0.10199586686E+01 0.  0.
     999903    2    3    3    0    0 -0.99941793321E-02 -0.91312276752E-01 -0.89904256019E-01  0.13011551714E+00  0.20235044915E-01 0.  0.
         14    1    1    2    0    0  0.15175616203E-01 -0.15533882801E-01  0.94818123154E-02  0.23696109529E-01  0.00000000000E+00 0.  1.
     999901    1    3    3    0    0 -0.51814368711E-02  0.10684615955E+00  0.80422443704E-01  0.89011837334E+00  0.88000000000E+00 0. -1.
        -11    1    4    4    0    0 -0.14499867703E-01 -0.45300897464E-01 -0.40772474517E-01  0.62650405216E-01  0.51100000000E-03 0. -1.
         11    1    4    4    0    0  0.45056883705E-02 -0.46011379289E-01 -0.49131781502E-01  0.67465111920E-01  0.51100000000E-03 0.  1.
</event>
<event>
 8    1  0.1202249E+005  0.1043930E+01  0.7957747E-01            NaN
         13   -1    0    0    0    0  0.00000000000E+00  0.00000000000E+00  0.74505805969E-08  0.10566000000E+00  0.10566000000E+00 0. -1.
     999900   -1    0    0    0    0 -0.00000000000E+00 -0.00000000000E+00 -0.74505805969E-08  0.93827000000E+00  0.93827000000E+00 0. -1.
     999902    2    1    2    0    0 -0.11860995641E-02 -0.93859672230E-02  0.24697052561E-01  0.10174829280E+01  0.10171391552E+01 0.  0.
     999903    2    3    3    0    0 -0.34423462904E-01 -0.10957330187E+00 -0.52316521372E-01  0.12783506792E+00  0.20334770773E-01 0.  0.
         14    1    1    2    0    0  0.11860995641E-02  0.93859672230E-02 -0.24697052561E-01  0.26447072013E-01  0.00000000000E+00 0.  1.
     999901    1    3    3    0    0  0.33237363340E-01  0.10018733464E+00  0.77013573932E-01  0.88964786006E+00  0.88000000000E+00 0.  1.
        -11    1    4    4    0    0 -0.22786816742E-01 -0.75930779971E-01 -0.25549084784E-01  0.83293092262E-01  0.51100000000E-03 0. -1.
         11    1    4    4    0    0 -0.11636646162E-01 -0.33642521896E-01 -0.26767436588E-01  0.44541975662E-01  0.51100000000E-03 0.  1.
</event>
<event>
 8    1  0.1202249E+005  0.1043930E+01  0.7957747E-01            NaN
         13   -1    0    0    0    0  0.00000000000E+00  0.00000000000E+00  0.74505805969E-08  0.10566000000E+00  0.10566000000E+00 0. -1.
     999900   -1    0    0    0    0 -0.00000000000E+00 -0.00000000000E+00 -0.74505805969E-08  0.93827000000E+00  0.93827000000E+00 0.  1.
     999902    2    1    2    0    0 -0.22512217057E-01  0.90771532911E-02 -0.69366186522E-02  0.10186849746E+01  0.10183721158E+01 0.  0.
     999903    2    3    3    0    0  0.11321559501E+00  0.20595748691E-01 -0.50351146431E-01  0.12714723664E+00  0.19728811937E-01 0.  0.
         14    1    1    2    0    0  0.22512217057E-01 -0.90771532911E-02  0.69366186522E-02  0.25245025392E-01  0.00000000000E+00 0. -1.
     999901    1    3    3    0    0 -0.13572781206E+00 -0.11518595399E-01  0.43414527779E-01  0.89153773797E+00  0.88000000000E+00 0. -1.
        -11    1    4    4    0    0  0.48766621073E-01  0.13017826190E-02 -0.28021585736E-01  0.56261428679E-01  0.51100000000E-03 0.  1.
         11    1    4    4    0    0  0.64448973933E-01  0.19293966072E-01 -0.22329560695E-01  0.70885807956E-01  0.51100000000E-03 0. -1.
</event>
<event>
 8    1  0.1202249E+005  0.1043930E+01  0.7957747E-01            NaN
         13   -1    0    0    0    0  0.00000000000E+00  0.00000000000E+00  0.74505805969E-08  0.10566000000E+00  0.10566000000E+00 0.  1.
     999900   -1    0    0    0    0 -0.00000000000E+00 -0.00000000000E+00 -0.74505805969E-08  0.93827000000E+00  0.93827000000E+00 0. -1.
     999902    2    1    2    0    0  0.11509068826E-01  0.15404434435E-01 -0.11219727749E-01  0.10216670811E+01  0.10214244892E+01 0.  0.
     999903    2    3    3    0    0  0.54023301674E-01 -0.64155802478E-01 -0.10063191139E+00  0.13254851206E+00  0.20195106922E-01 0.  0.
         14    1    1    2    0    0 -0.11509068826E-01 -0.15404434435E-01  0.11219727749E-01  0.22262918863E-01  0.00000000000E+00 0.  1.
     999901    1    3    3    0    0 -0.42514232847E-01  0.79560236913E-01  0.89412183645E-01  0.88911856908E+00  0.88000000000E+00 0.  1.
        -11    1    4    4    0    0  0.14460823783E-01 -0.17639362693E-01 -0.42498214200E-01  0.48235068901E-01  0.51100000000E-03 0. -1.
         11    1    4    4    0    0  0.39562477891E-01 -0.46516439785E-01 -0.58133697193E-01  0.84313443160E-01  0.51100000000E-03 0.  1.
</event>
<event>
 8    1  0.1202249E+005  0.1043930E+01  0.7957747E-01            NaN
         13   -1    0    0    0    0  0.00000000000E+00  0.00000000000E+00  0.74505805969E-08  0.10566000000E+00  0.10566000000E+00 0.  1.
     999900   -1    0    0    0    0 -0.00000000000E+00 -0.00000000000E+00 -0.74505805969E-08  0.93827000000E+00  0.93827000000E+00 0. -1.
     999902    2    1    2    0    0  0.20667287216E-01 -0.10890914182E-01  0.12301027884E-02  0.10205363700E+01  0.10202682101E+01 0.  0.
     999903    2    3    3    0    0 -0.53772065880E-01 -0.11670674073E+00  0.16473765742E-01  0.13094625330E+00  0.19069291909E-01 0.  0.
         14    1    1    2    0    0 -0.20667287216E-01  0.10890914182E-01 -0.12301027884E-02  0.23393630019E-01  0.00000000000E+00 0. -1.
     999901    1    3    3    0    0  0.74439353096E-01  0.10581582655E+00 -0.15243662954E-01  0.88959011668E+00  0.88000000000E+00 0. -1.
        -11    1    4    4    0    0 -0.12237426277E-01 -0.47046515375E-01  0.27823665609E-02  0.48694269637E-01  0.51100000000E-03 0.  1.
         11    1    4    4    0    0 -0.41534639602E-01 -0.69660225358E-01  0.13691399182E-01  0.82251983662E-01  0.51100000000E-03 0. -1.
</event>
<event>
 8    1  0.1202249E+005  0.1043930E+01  0.7957747E-01            NaN
         13   -1    0    0    0    0  0.00000000000E+00  0.00000000000E+00  0.74505805969E-08  0.10566000000E+00  0.10566000000E+00 0.  1.
     999900   -1    0    0    0    0 -0.00000000000E+00 -0.00000000000E+00 -0.74505805969E-08  0.93827000000E+00  0.93827000000E+00 0. -1.
     999902    2    1    2    0    0 -0.18633038807E-01  0.38356667935E-02 -0.12675000791E-01  0.10210704698E+01  0.10208145504E+01 0.  0.
     999903    2    3    3    0    0 -0.68045519644E-01  0.10901810192E+00 -0.29594658372E-01  0.13326913352E+00  0.19227034510E-01 0.  0.
         14    1    1    2    0    0  0.18633038807E-01 -0.38356667935E-02  0.12675000791E-01  0.22859530179E-01  0.00000000000E+00 0.  1.
     999901    1    3    3    0    0  0.49412480837E-01 -0.10518243512E+00  0.16919657581E-01  0.88780133630E+00  0.88000000000E+00 0.  1.
        -11    1    4    4    0    0 -0.20160317816E-01  0.31766352360E-01 -0.17771610281E-01  0.41612868319E-01  0.51100000000E-03 0. -1.
         11    1    4    4    0    0 -0.47885201829E-01  0.77251749558E-01 -0.11823048091E-01  0.91656265204E-01  0.51100000000E-03 0.  1.
</event>
<event>
 8    1  0.1202249E+005  0.1043930E+01  0.7957747E-01            NaN
         13   -1    0    0    0    0  0.00000000000E+00  0.00000000000E+00  0.74505805969E-08  0.10566000000E+00  0.10566000000E+00 0. -1.
     999900   -1    0    0    0    0 -0.00000000000E+00 -0.00000000000E+00 -0.74505805969E-08  0.93827000000E+00  0.93827000000E+00 0. -1.
     999902    2    1    2    0    0  0.20741053345E-01 -0.90112556107E-02 -0.64987939595E-02  0.10204006918E+01  0.10201293759E+01 0.  0.
     999903    2    3    3    0    0  0.54414686040E-02  0.33799855050E-01  0.12361743600E+00  0.12967228101E+00  0.19015525151E-01 0.  0.
         14    1    1    2    0    0 -0.20741053345E-01  0.90112556107E-02  0.64987939595E-02  0.23529308202E-01  0.00000000000E+00 0.  1.
     999901    1    3    3    0    0  0.15299584741E-01 -0.42811110660E-01 -0.13011622996E+00  0.89072841079E+00  0.88000000000E+00 0. -1.
        -11    1    4    4    0    0  0.11356480589E-01  0.18266873260E-01  0.83887939264E-01  0.86603093392E-01  0.51100000000E-03 0.  1.
         11    1    4    4    0    0 -0.59150119850E-02  0.15532981790E-01  0.39729496736E-01  0.43069187616E-01  0.51100000000E-03 0. -1.
</event>
<event>
 8    1  0.1202249E+005  0.1043930E+01  0.7957747E-01            NaN
         13   -1    0    0    0    0  0.00000000000E+00  0.00000000000E+00  0.74505805969E-08  0.10566000000E+00  0.10566000000E+00 0.  1.
     999900   -1    0    0    0    0 -0.00000000000E+00 -0.00000000000E+00 -0.74505805969E-08  0.93827000000E+00  0.93827000000E+00 0.  1.
     999902    2    1    2    0    0  0.14339830583E-01  0.14311517900E-01  0.56670193477E-02  0.10228927617E+01  0.10226764086E+01 0.  0.
     999903    2    3    3    0    0  0.12042877423E+00 -0.35032081288E-02 -0.56664827730E-01  0.13415349311E+00  0.16458884624E-01 0.  0.
         14    1    1    2    0    0 -0.14339830583E-01 -0.14311517900E-01 -0.56670193477E-02  0.21037238270E-01  0.00000000000E+00 0. -1.
     999901    1    3    3    0    0 -0.10608894364E+00  0.17814726028E-01  0.62331847078E-01  0.88873926862E+00  0.88000000000E+00 0. -1.
        -11    1    4    4    0    0  0.99394735214E-01 -0.59508030171E-02 -0.52497125904E-01  0.11256524683E+00  0.51100000000E-03 0.  1.
         11    1    4    4    0    0  0.21034039013E-01  0.24475948884E-02 -0.41677018259E-02  0.21588246280E-01  0.51100000000E-03 0. -1.
</event>
<event>
 8    1  0.1202249E+005  0.1043930E+01  0.7957747E-01            NaN
         13   -1    0    0    0    0  0.00000000000E+00  0.00000000000E+00  0.74505805969E-08  0.10566000000E+00  0.10566000000E+00 0.  1.
     999900   -1    0    0    0    0 -0.00000000000E+00 -0.00000000000E+00 -0.74505805969E-08  0.93827000000E+00  0.93827000000E+00 0.  1.
     999902    2    1    2    0    0  0.50283726959E-02 -0.15424422275E-01  0.17066907391E-01  0.10203826719E+01  0.10201109353E+01 0.  0.
     999903    2    3    3    0    0  0.11897364689E-01 -0.28996140038E-01 -0.12163720074E+00  0.12938873014E+00  0.31040480978E-01 0.  0.
         14    1    1    2    0    0 -0.50283726959E-02  0.15424422275E-01 -0.17066907391E-01  0.23547328137E-01  0.00000000000E+00 0. -1.
     999901    1    3    3    0    0 -0.68689919926E-02  0.13571717762E-01  0.13870410813E+00  0.89099394172E+00  0.88000000000E+00 0. -1.
        -11    1    4    4    0    0 -0.98806250368E-02 -0.13755108947E-01 -0.57916615758E-01  0.60344223212E-01  0.51100000000E-03 0. -1.
         11    1    4    4    0    0  0.21777989725E-01 -0.15241031090E-01 -0.63720584984E-01  0.69044506928E-01  0.51100000000E-03 0.  1.
</event>
<event>
 8    1  0.1202249E+005  0.1043930E+01  0.7957747E-01            NaN
         13   -1    0    0    0    0  0.00000000000E+00  0.00000000000E+00  0.74505805969E-08  0.10566000000E+00  0.10566000000E+00 0.  1.
     999900   -1    0    0    0    0 -0.00000000000E+00 -0.00000000000E+00 -0.74505805969E-08  0.93827000000E+00  0.93827000000E+00 0. -1.
     999902    2    1    2    0    0  0.12816879903E-01 -0.14291012332E-01 -0.14088899973E-01  0.10201181847E+01  0.10198402366E+01 0.  0.
     999903    2    3    3    0    0 -0.28020992100E-04 -0.49709903501E-01 -0.12183105997E+00  0.13274686315E+00  0.17545575263E-01 0.  0.
         14    1    1    2    0    0 -0.12816879903E-01  0.14291012332E-01  0.14088899973E-01  0.23811815268E-01  0.00000000000E+00 0.  1.
     999901    1    3    3    0    0  0.12844900896E-01  0.35418891169E-01  0.10774215999E+00  0.88737132158E+00  0.88000000000E+00 0.  1.
        -11    1    4    4    0    0  0.56562377226E-02 -0.44265332976E-01 -0.99071796020E-01  0.10865953532E+00  0.51100000000E-03 0.  1.
         11    1    4    4    0    0 -0.56842587147E-02 -0.54445705243E-02 -0.22759263948E-01  0.24087327826E-01  0.51100000000E-03 0. -1.
</event>
<event>
 8    1  0.1504355E+005  0.1043930E+01  0.7957747E-01            NaN
         13   -1    0    0    0    0  0.00000000000E+00  0.00000000000E+00  0.74505805969E-08  0.10566000000E+00  0.10566000000E+00 0. -1.
     999900   -1    0    0    0    0 -0.00000000000E+00 -0.00000000000E+00 -0.74505805969E-08  0.93827000000E+00  0.93827000000E+00 0. -1.
     999902    2    1    2    0    0  0.15313301972E-01  0.43120959578E-02  0.19479272102E-01  0.10187797827E+01  0.10184692986E+01 0.  0.
     999903    2    3    3    0    0 -0.15819890244E-01 -0.10535816080E+00 -0.66588527894E-01  0.12726169142E+00  0.20270547129E-01 0.  0.
         14    1    1    2    0    0 -0.15313301972E-01 -0.43120959578E-02 -0.19479272102E-01  0.25150217305E-01  0.00000000000E+00 0.  1.
     999901    1    3    3    0    0  0.31133192217E-01  0.10967025676E+00  0.86067799996E-01  0.89151809128E+00  0.88000000000E+00 0.  1.
        -11    1    4    4    0    0 -0.11229415251E-01 -0.41885243967E-01 -0.16992497034E-01  0.46577671748E-01  0.51100000000E-03 0.  1.
         11    1    4    4    0    0 -0.45904749935E-02 -0.63472916836E-01 -0.49596030860E-01  0.80684019671E-01  0.51100000000E-03 0. -1.
</event>
<event>
 8    1  0.1202249E+005  0.1043930E+01  0.7957747E-01            NaN
         13   -1    0    0    0    0  0.00000000000E+00  0.00000000000E+00  0.74505805969E-08  0.10566000000E+00  0.10566000000E+00 0.  1.
     999900   -1    0    0    0    0 -0.00000000000E+00 -0.00000000000E+00 -0.74505805969E-08  0.93827000000E+00  0.93827000000E+00 0.  1.
     999902    2    1    2    0    0  0.57788338144E-02  0.10155956596E-01  0.19755528551E-01  0.10209774559E+01  0.10207194257E+01 0.  0.
     999903    2    3    3    0    0 -0.79032001435E-01  0.75441870238E-02 -0.99599359688E-01  0.12887584254E+00  0.19646331276E-01 0.  0.
         14    1    1    2    0    0 -0.57788338144E-02 -0.10155956596E-01 -0.19755528551E-01  0.22952544150E-01  0.00000000000E+00 0. -1.
     999901    1    3    3    0    0  0.84810835249E-01  0.26117695717E-02  0.11935488824E+00  0.89210161331E+00  0.88000000000E+00 0. -1.
        -11    1    4    4    0    0 -0.62276352212E-01  0.13938079106E-01 -0.76394087071E-01  0.99543617346E-01  0.51100000000E-03 0.  1.
         11    1    4    4    0    0 -0.16755649223E-01 -0.63938920820E-02 -0.23205272617E-01  0.29332225198E-01  0.51100000000E-03 0. -1.
</event>
<event>
 8    1  0.1202249E+005  0.1043930E+01  0.7957747E-01            NaN
         13   -1    0    0    0    0  0.00000000000E+00  0.00000000000E+00  0.74505805969E-08  0.10566000000E+00  0.10566000000E+00 0. -1.
     999900   -1    0    0    0    0 -0.00000000000E+00 -0.00000000000E+00 -0.74505805969E-08  0.93827000000E+00  0.93827000000E+00 0. -1.
     999902    2    1    2    0    0 -0.37082697623E-02  0.89012782258E-02  0.22448711938E-01  0.10194978759E+01  0.10192050777E+01 0.  0.
     999903    2    3    3    0    0 -0.97440906700E-01 -0.76121578890E-01  0.36390938869E-01  0.13033586643E+00  0.19336819132E-01 0.  0.
         14    1    1    2    0    0  0.37082697623E-02 -0.89012782258E-02 -0.22448711938E-01  0.24432124066E-01  0.00000000000E+00 0.  1.
     999901    1    3    3    0    0  0.93732636937E-01  0.85022857116E-01 -0.13942226931E-01  0.88916200951E+00  0.88000000000E+00 0. -1.
        -11    1    4    4    0    0 -0.10970398316E-01 -0.16998433420E-01  0.83769220262E-02  0.21902746896E-01  0.51100000000E-03 0.  1.
         11    1    4    4    0    0 -0.86470508384E-01 -0.59123145470E-01  0.28014016843E-01  0.10843311953E+00  0.51100000000E-03 0. -1.
</event>
<event>
 8    1  0.1202249E+005  0.1043930E+01  0.7957747E-01            NaN
         13   -1    0    0    0    0  0.00000000000E+00  0.00000000000E+00  0.74505805969E-08  0.10566000000E+00  0.10566000000E+00 0.  1.
     999900   -1    0    0    0    0 -0.00000000000E+00 -0.00000000000E+00 -0.74505805969E-08  0.93827000000E+00  0.93827000000E+00 0. -1.
     999902    2    1    2    0    0  0.22039019489E-02  0.30562353773E-02  0.21798328359E-01  0.10218084070E+01  0.10215689187E+01 0.  0.
     999903    2    3    3    0    0 -0.30881083108E-01  0.12650484868E+00 -0.91820148979E-02  0.13203654969E+00  0.19804621263E-01 0.  0.
         14    1    1    2    0    0 -0.22039019489E-02 -0.30562353773E-02 -0.21798328359E-01  0.22121593020E-01  0.00000000000E+00 0. -1.
     999901    1    3    3    0    0  0.33084985056E-01 -0.12344861330E+00  0.30980343257E-01  0.88977185729E+00  0.88000000000E+00 0. -1.
        -11    1    4    4    0    0 -0.24839064537E-01  0.11106907371E+00 -0.14233209520E-01  0.11470032100E+00  0.51100000000E-03 0.  1.
         11    1    4    4    0    0 -0.60420185701E-02  0.15435774965E-01  0.50511946219E-02  0.17336228692E-01  0.51100000000E-03 0. -1.
</event>
<event>
 8    1  0.1202249E+005  0.1043930E+01  0.7957747E-01            NaN
         13   -1    0    0    0    0  0.00000000000E+00  0.00000000000E+00  0.74505805969E-08  0.10566000000E+00  0.10566000000E+00 0.  1.
     999900   -1    0    0    0    0 -0.00000000000E+00 -0.00000000000E+00 -0.74505805969E-08  0.93827000000E+00  0.93827000000E+00 0. -1.
     999902    2    1    2    0    0  0.61457846369E-02 -0.20359777953E-01 -0.10428788546E-01  0.10202434879E+01  0.10199684915E+01 0.  0.
     999903    2    3    3    0    0 -0.45670866548E-01  0.10831096375E+00 -0.48084130718E-01  0.12858264992E+00  0.20107742645E-01 0.  0.
         14    1    1    2    0    0 -0.61457846369E-02  0.20359777953E-01  0.10428788546E-01  0.23686512146E-01  0.00000000000E+00 0.  1.
     999901    1    3    3    0    0  0.51816651185E-01 -0.12867074170E+00  0.37655342172E-01  0.89166083793E+00  0.88000000000E+00 0.  1.
        -11    1    4    4    0    0 -0.43181829112E-01  0.98409702029E-01 -0.37384490346E-01  0.11378488941E+00  0.51100000000E-03 0. -1.
         11    1    4    4    0    0 -0.24890374358E-02  0.99012617198E-02 -0.10699640372E-01  0.14797760509E-01  0.51100000000E-03 0.  1.
</event>
<event>
 8    1  0.1202249E+005  0.1043930E+01  0.7957747E-01            NaN
         13   -1    0    0    0    0  0.00000000000E+00  0.00000000000E+00  0.74505805969E-08  0.10566000000E+00  0.10566000000E+00 0.  1.
     999900   -1    0    0    0    0 -0.00000000000E+00 -0.00000000000E+00 -0.74505805969E-08  0.93827000000E+00  0.93827000000E+00 0. -1.
     999902    2    1    2    0    0 -0.19492927119E-01  0.10057109329E-01 -0.93114380479E-02  0.10201009729E+01  0.10198226181E+01 0.  0.
     999903    2    3    3    0    0  0.28924128845E-02  0.13003709665E+00 -0.71319402804E-02  0.13167480766E+00  0.19219205059E-01 0.  0.
         14    1    1    2    0    0  0.19492927119E-01 -0.10057109329E-01  0.93114380479E-02  0.23829027136E-01  0.00000000000E+00 0. -1.
     999901    1    3    3    0    0 -0.22385340003E-01 -0.11997998732E+00 -0.21794977675E-02  0.88842616520E+00  0.88000000000E+00 0.  1.
        -11    1    4    4    0    0 -0.19762132319E-02  0.39899886611E-01  0.61842859471E-02  0.40427872613E-01  0.51100000000E-03 0.  1.
         11    1    4    4    0    0  0.48686261164E-02  0.90137210040E-01 -0.13316226227E-01  0.91246935050E-01  0.51100000000E-03 0. -1.
</event>
<event>
 8    1  0.1202249E+005  0.1043930E+01  0.7957747E-01            NaN
         13   -1    0    0    0    0  0.00000000000E+00  0.00000000000E+00  0.74505805969E-08  0.10566000000E+00  0.10566000000E+00 0. -1.
     999900   -1    0    0    0    0 -0.00000000000E+00 -0.00000000000E+00 -0.74505805969E-08  0.93827000000E+00  0.93827000000E+00 0. -1.
     999902    2    1    2    0    0 -0.16053904597E-01 -0.23276692469E-01 -0.15006274584E-01  0.10119187435E+01  0.10114122913E+01 0.  0.
     999903    2    3    3    0    0 -0.69733534674E-01  0.87356948472E-01  0.42864836641E-01  0.12148605616E+00  0.20675234366E-01 0.  0.
         14    1    1    2    0    0  0.16053904597E-01  0.23276692469E-01  0.15006274584E-01  0.32011256489E-01  0.00000000000E+00 0.  1.
     999901    1    3    3    0    0  0.53679630076E-01 -0.11063364094E+00 -0.57871111224E-01  0.89043268735E+00  0.88000000000E+00 0. -1.
        -11    1    4    4    0    0 -0.52258626864E-01  0.56064909504E-01  0.20887341127E-01  0.79440419812E-01  0.51100000000E-03 0. -1.
         11    1    4    4    0    0 -0.17474907809E-01  0.31292038968E-01  0.21977495513E-01  0.42045636346E-01  0.51100000000E-03 0.  1.
</event>
<event>
 8    1  0.1202249E+005  0.1043930E+01  0.7957747E-01            NaN
         13   -1    0    0    0    0  0.00000000000E+00  0.00000000000E+00  0.74505805969E-08  0.10566000000E+00  0.10566000000E+00 0. -1.
     999900   -1    0    0    0    0 -0.00000000000E+00 -0.00000000000E+00 -0.74505805969E-08  0.93827000000E+00  0.93827000000E+00 0.  1.
     999902    2    1    2    0    0  0.36518624849E-02  0.20656371899E-01 -0.12159383689E-01  0.10196839197E+01  0.10193956168E+01 0.  0.
     999903    2    3    3    0    0 -0.89861684268E-01  0.92935790557E-01 -0.15762271160E-01  0.13177509632E+00  0.20100829634E-01 0.  0.
         14    1    1    2    0    0 -0.36518624849E-02 -0.20656371899E-01  0.12159383689E-01  0.24246080329E-01  0.00000000000E+00 0. -1.
     999901    1    3    3    0    0  0.93513546753E-01 -0.72279418658E-01  0.36028874708E-02  0.88790882335E+00  0.88000000000E+00 0. -1.
        -11    1    4    4    0    0 -0.22003451888E-01  0.33544907638E-01  0.59144479729E-03  0.40125100017E-01  0.51100000000E-03 0.  1.
         11    1    4    4    0    0 -0.67858232380E-01  0.59390882919E-01 -0.16353715957E-01  0.91649996302E-01  0.51100000000E-03 0. -1.
</event>
<event>
 8    1  0.1202249E+005  0.1043930E+01  0.7957747E-01            NaN
         13   -1    0    0    0    0  0.00000000000E+00  0.00000000000E+00  0.74505805969E-08  0.10566000000E+00  0.10566000000E+00 0. -1.
     999900   -1    0    0    0    0 -0.00000000000E+00 -0.00000000000E+00 -0.74505805969E-08  0.93827000000E+00  0.93827000000E+00 0. -1.
     999902    2    1    2    0    0 -0.22096912235E-01  0.19546041923E-02 -0.98111957888E-02  0.10196739993E+01  0.10193854576E+01 0.  0.
     999903    2    3    3    0    0  0.35949654084E-01 -0.97088267087E-01 -0.75559723453E-01  0.12978537530E+00  0.20407415273E-01 0.  0.
         14    1    1    2    0    0  0.22096912235E-01 -0.19546041923E-02  0.98111957888E-02  0.24256000715E-01  0.00000000000E+00 0. -1.
     999901    1    3    3    0    0 -0.58046566319E-01  0.99042871279E-01  0.65748527664E-01  0.88988862399E+00  0.88000000000E+00 0.  1.
        -11    1    4    4    0    0  0.29096889949E-01 -0.52636698056E-01 -0.48754881222E-01  0.77424482891E-01  0.51100000000E-03 0.  1.
         11    1    4    4    0    0  0.68527641352E-02 -0.44451569031E-01 -0.26804842231E-01  0.52360892407E-01  0.51100000000E-03 0. -1.
</event>
<event>
 8    1  0.1202249E+005  0.1043930E+01  0.7957747E-01            NaN
         13   -1    0    0    0    0  0.00000000000E+00  0.00000000000E+00  0.74505805969E-08  0.10566000000E+00  0.10566000000E+00 0. -1.
     999900   -1    0    0    0    0 -0.00000000000E+00 -0.00000000000E+00 -0.74505805969E-08  0.93827000000E+00  0.93827000000E+00 0. -1.
     999902    2    1    2    0    0 -0.75663181440E-02 -0.15362823523E-01 -0.17014134912E-01  0.10197898612E+01  0.10195041023E+01 0.  0.
     999903    2    3    3    0    0 -0.95136537418E-01 -0.62269648240E-01  0.61206724533E-01  0.13075257489E+00  0.20530535033E-01 0.  0.
         14    1    1    2    0    0  0.75663181440E-02  0.15362823523E-01  0.17014134912E-01  0.24140138849E-01  0.00000000000E+00 0. -1.
     999901    1    3    3    0    0  0.87570219274E-01  0.46906824717E-01 -0.78220859445E-01  0.88903728626E+00  0.88000000000E+00 0. -1.
        -11    1    4    4    0    0 -0.44101977087E-01 -0.40809010314E-01  0.34403294033E-01  0.69240215678E-01  0.51100000000E-03 0. -1.
         11    1    4    4    0    0 -0.51034560331E-01 -0.21460637925E-01  0.26803430500E-01  0.61512359212E-01  0.51100000000E-03 0.  1.
</event>
<event>
 8    1  0.1202249E+005  0.1043930E+01  0.7957747E-01            NaN
         13   -1    0    0    0    0  0.00000000000E+00  0.00000000000E+00  0.74505805969E-08  0.10566000000E+00  0.10566000000E+00 0. -1.
     999900   -1    0    0    0    0 -0.00000000000E+00 -0.00000000000E+00 -0.74505805969E-08  0.93827000000E+00  0.93827000000E+00 0.  1.
     999902    2    1    2    0    0  0.14017494304E-01  0.17232879060E-01  0.85953882980E-02  0.10201110377E+01  0.10198329207E+01 0.  0.
     999903    2    3    3    0    0 -0.71114420518E-01  0.10061912796E+00  0.41010717311E-01  0.13148768494E+00  0.20631593273E-01 0.  0.
         14    1    1    2    0    0 -0.14017494304E-01 -0.17232879060E-01 -0.85953882980E-02  0.23818962346E-01  0.00000000000E+00 0.  1.
     999901    1    3    3    0    0  0.85131914822E-01 -0.83386248898E-01 -0.32415329013E-01  0.88862335271E+00  0.88000000000E+00 0. -1.
        -11    1    4    4    0    0 -0.38516335172E-01  0.44090387451E-01  0.28205557780E-01  0.64986805979E-01  0.51100000000E-03 0.  1.
         11    1    4    4    0    0 -0.32598085346E-01  0.56528740507E-01  0.12805159531E-01  0.66500878965E-01  0.51100000000E-03 0. -1.
</event>
<event>
 8    1  0.1202249E+005  0.1043930E+01  0.7957747E-01            NaN
         13   -1    0    0    0    0  0.00000000000E+00  0.00000000000E+00  0.74505805969E-08  0.10566000000E+00  0.10566000000E+00 0.  1.
     999900   -1    0    0    0    0 -0.00000000000E+00 -0.00000000000E+00 -0.74505805969E-08  0.93827000000E+00  0.93827000000E+00 0.  1.
     999902    2    1    2    0    0  0.41106719250E-02 -0.67436257368E-02  0.25165381897E-01  0.10175544326E+01  0.10172125406E+01 0.  0.
     999903    2    3    3    0    0 -0.93527189387E-01  0.81080000323E-01 -0.18325721701E-01  0.12674714849E+00  0.20191730190E-01 0.  0.
         14    1    1    2    0    0 -0.41106719250E-02  0.67436257368E-02 -0.25165381897E-01  0.26375567440E-01  0.00000000000E+00 0. -1.
     999901    1    3    3    0    0  0.97637861312E-01 -0.87823626060E-01  0.43491103598E-01  0.89080728407E+00  0.88000000000E+00 0. -1.
        -11    1    4    4    0    0 -0.33037125558E-01  0.33247748048E-01  0.22620078202E-02  0.46928053611E-01  0.51100000000E-03 0. -1.
         11    1    4    4    0    0 -0.60490063829E-01  0.47832252276E-01 -0.20587729521E-01  0.79819094881E-01  0.51100000000E-03 0.  1.
</event>
<event>
 8    1  0.1202249E+005  0.1043930E+01  0.7957747E-01            NaN
         13   -1    0    0    0    0  0.00000000000E+00  0.00000000000E+00  0.74505805969E-08  0.10566000000E+00  0.10566000000E+00 0.  1.
     999900   -1    0    0    0    0 -0.00000000000E+00 -0.00000000000E+00 -0.74505805969E-08  0.93827000000E+00  0.93827000000E+00 0. -1.
     999902    2    1    2    0    0  0.46443546289E-02 -0.19731429778E-01 -0.12563853006E-01  0.10200815251E+01  0.10198027104E+01 0.  0.
     999903    2    3    3    0    0  0.11693040598E+00  0.16057067166E-01 -0.53798843728E-01  0.13126810360E+00  0.20160609802E-01 0.  0.
         14    1    1    2    0    0 -0.46443546289E-02  0.19731429778E-01  0.12563853006E-01  0.23848474864E-01  0.00000000000E+00 0.  1.
     999901    1    3    3    0    0 -0.11228605135E+00 -0.35788496944E-01  0.41234990722E-01  0.88881342154E+00  0.88000000000E+00 0. -1.
        -11    1    4    4    0    0  0.14373260526E-01  0.12918137630E-03 -0.38196230132E-04  0.14382972082E-01  0.51100000000E-03 0.  1.
         11    1    4    4    0    0  0.10255714546E+00  0.15927885790E-01 -0.53760647498E-01  0.11688513152E+00  0.51100000000E-03 0. -1.
</event>
<event>
 8    1  0.1202249E+005  0.1043930E+01  0.7957747E-01            NaN
         13   -1    0    0    0    0  0.00000000000E+00  0.00000000000E+00  0.74505805969E-08  0.10566000000E+00  0.10566000000E+00 0. -1.
     999900   -1    0    0    0    0 -0.00000000000E+00 -0.00000000000E+00 -0.74505805969E-08  0.93827000000E+00  0.93827000000E+00 0. -1.
     999902    2    1    2    0    0  0.11720300393E-01  0.19126358282E-01 -0.56945788492E-02  0.10207867234E+01  0.10205243375E+01 0.  0.
     999903    2    3    3    0    0 -0.81643646006E-01 -0.94999419856E-01 -0.19865335723E-01  0.12840657457E+00  0.20075909003E-01 0.  0.
         14    1    1    2    0    0 -0.11720300393E-01 -0.19126358282E-01  0.56945788492E-02  0.23143276577E-01  0.00000000000E+00 0. -1.
     999901    1    3    3    0    0  0.93363946400E-01  0.11412577814E+00  0.14170756874E-01  0.89238014886E+00  0.88000000000E+00 0. -1.
        -11    1    4    4    0    0 -0.32982932888E-01 -0.42482047099E-01 -0.18228776614E-01  0.56790383037E-01  0.51100000000E-03 0.  1.
         11    1    4    4    0    0 -0.48660713118E-01 -0.52517372757E-01 -0.16365591086E-02  0.71616191529E-01  0.51100000000E-03 0. -1.
</event>
<event>
 8    1  0.1202249E+005  0.1043930E+01  0.7957747E-01            NaN
         13   -1    0    0    0    0  0.00000000000E+00  0.00000000000E+00  0.74505805969E-08  0.10566000000E+00  0.10566000000E+00 0. -1.
     999900   -1    0    0    0    0 -0.00000000000E+00 -0.00000000000E+00 -0.74505805969E-08  0.93827000000E+00  0.93827000000E+00 0.  1.
     999902    2    1    2    0    0  0.70165551764E-02 -0.11730516097E-01  0.18135738266E-01  0.10212200450E+01  0.10209675011E+01 0.  0.
     999903    2    3    3    0    0 -0.71798762367E-01 -0.10440959198E+00 -0.29298013984E-01  0.13158459929E+00  0.19992697960E-01 0.  0.
         14    1    1    2    0    0 -0.70165551764E-02  0.11730516097E-01 -0.18135738266E-01  0.22709955018E-01  0.00000000000E+00 0.  1.
     999901    1    3    3    0    0  0.78815317543E-01  0.92679075880E-01  0.47433752250E-01  0.88963544570E+00  0.88000000000E+00 0.  1.
        -11    1    4    4    0    0 -0.57970910692E-01 -0.93215398553E-01 -0.20272831370E-01  0.11162878583E+00  0.51100000000E-03 0. -1.
         11    1    4    4    0    0 -0.13827851674E-01 -0.11194193424E-01 -0.90251826145E-02  0.19955813453E-01  0.51100000000E-03 0.  1.
</event>
<event>
 8    1  0.1202249E+005  0.1043930E+01  0.7957747E-01            NaN
         13   -1    0    0    0    0  0.00000000000E+00  0.00000000000E+00  0.74505805969E-08  0.10566000000E+00  0.10566000000E+00 0.  1.
     999900   -1    0    0    0    0 -0.00000000000E+00 -0.00000000000E+00 -0.74505805969E-08  0.93827000000E+00  0.93827000000E+00 0. -1.
     999902    2    1    2    0    0  0.12501510511E-01  0.17415827712E-02  0.20159797101E-01  0.10201447463E+01  0.10198674252E+01 0.  0.
     999903    2    3    3    0    0  0.12240557389E+00  0.31616845076E-01  0.35080077107E-01  0.13267978967E+00  0.19762726663E-01 0.  0.
         14    1    1    2    0    0 -0.12501510511E-01 -0.17415827712E-02 -0.20159797101E-01  0.23785253725E-01  0.00000000000E+00 0. -1.
     999901    1    3    3    0    0 -0.10990406338E+00 -0.29875262305E-01 -0.14920280007E-01  0.88746495660E+00  0.88000000000E+00 0.  1.
        -11    1    4    4    0    0  0.79257818057E-01  0.19602709182E-01  0.12773704863E-01  0.82640768313E-01  0.51100000000E-03 0.  1.
         11    1    4    4    0    0  0.43147755834E-01  0.12014135894E-01  0.22306372244E-01  0.50039021358E-01  0.51100000000E-03 0. -1.
</event>
<event>
 8    1  0.1202249E+005  0.1043930E+01  0.7957747E-01            NaN
         13   -1    0    0    0    0  0.00000000000E+00  0.00000000000E+00  0.74505805969E-08  0.10566000000E+00  0.10566000000E+00 0. -1.
     999900   -1    0    0    0    0 -0.00000000000E+00 -0.00000000000E+00 -0.74505805969E-08  0.93827000000E+00  0.93827000000E+00 0. -1.
     999902    2    1    2    0    0 -0.19519605683E-01 -0.56577662691E-02  0.94713991614E-02  0.10215082979E+01  0.10212621945E+01 0.  0.
     999903    2    3    3    0    0  0.19201012133E-01 -0.36913216204E-01  0.12421144283E+00  0.13266552941E+00  0.20985608543E-01 0.  0.
         14    1    1    2    0    0  0.19519605683E-01  0.56577662691E-02 -0.94713991614E-02  0.22421702149E-01  0.00000000000E+00 0.  1.
     999901    1    3    3    0    0 -0.38720617816E-01  0.31255449935E-01 -0.11474004367E+00  0.88884276844E+00  0.88000000000E+00 0. -1.
        -11    1    4    4    0    0  0.14152355081E-01 -0.29337307384E-01  0.64478265693E-01  0.72240394701E-01  0.51100000000E-03 0.  1.
         11    1    4    4    0    0  0.50486570526E-02 -0.75759088195E-02  0.59733177136E-01  0.60425134706E-01  0.51100000000E-03 0. -1.
</event>
<event>
 8    1  0.1202249E+005  0.1043930E+01  0.7957747E-01            NaN
         13   -1    0    0    0    0  0.00000000000E+00  0.00000000000E+00  0.74505805969E-08  0.10566000000E+00  0.10566000000E+00 0.  1.
     999900   -1    0    0    0    0 -0.00000000000E+00 -0.00000000000E+00 -0.74505805969E-08  0.93827000000E+00  0.93827000000E+00 0. -1.
     999902    2    1    2    0    0  0.74233848331E-02  0.22480297277E-01 -0.37313049795E-02  0.10199635016E+01  0.10196818874E+01 0.  0.
     999903    2    3    3    0    0  0.56582768913E-01 -0.62610256842E-01 -0.96369554580E-01  0.12966080436E+00  0.20079321168E-01 0.  0.
         14    1    1    2    0    0 -0.74233848331E-02 -0.22480297277E-01  0.37313049795E-02  0.23966498386E-01  0.00000000000E+00 0.  1.
     999901    1    3    3    0    0 -0.49159384080E-01  0.85090554118E-01  0.92638249600E-01  0.89030269725E+00  0.88000000000E+00 0.  1.
        -11    1    4    4    0    0  0.30275656741E-01 -0.19553072966E-01 -0.35436879426E-01  0.50546726877E-01  0.51100000000E-03 0. -1.
         11    1    4    4    0    0  0.26307112172E-01 -0.43057183876E-01 -0.60932675153E-01  0.79114077486E-01  0.51100000000E-03 0.  1.
</event>
<event>
 8    1  0.1202249E+005  0.1043930E+01  0.7957747E-01            NaN
         13   -1    0    0    0    0  0.00000000000E+00  0.00000000000E+00  0.74505805969E-08  0.10566000000E+00  0.10566000000E+00 0. -1.
     999900   -1    0    0    0    0 -0.00000000000E+00 -0.00000000000E+00 -0.74505805969E-08  0.93827000000E+00  0.93827000000E+00 0. -1.
     999902    2    1    2    0    0  0.38718153560E-02  0.12669635918E-01  0.19279915531E-01  0.10205371427E+01  0.10202690008E+01 0.  0.
     999903    2    3    3    0    0 -0.90573494785E-02  0.12969493771E+00  0.17599957494E-01  0.13269430370E+00  0.19879820972E-01 0.  0.
         14    1    1    2    0    0 -0.38718153560E-02 -0.12669635918E-01 -0.19279915531E-01  0.23392857272E-01  0.00000000000E+00 0.  1.
     999901    1    3    3    0    0  0.12929164835E-01 -0.11702530179E+00  0.16799580369E-02  0.88784283903E+00  0.88000000000E+00 0.  1.
        -11    1    4    4    0    0  0.15898498548E-02  0.64225860618E-01  0.73097815537E-03  0.64251725617E-01  0.51100000000E-03 0. -1.
         11    1    4    4    0    0 -0.10647199333E-01  0.65469077094E-01  0.16868979339E-01  0.68442578079E-01  0.51100000000E-03 0.  1.
</event>
<event>
 8    1  0.1202249E+005  0.1043930E+01  0.7957747E-01            NaN
         13   -1    0    0    0    0  0.00000000000E+00  0.00000000000E+00  0.74505805969E-08  0.10566000000E+00  0.10566000000E+00 0.  1.
     999900   -1    0    0    0    0 -0.00000000000E+00 -0.00000000000E+00 -0.74505805969E-08  0.93827000000E+00  0.93827000000E+00 0.  1.
     999902    2    1    2    0    0  0.18963321504E-01 -0.12048983871E-01  0.82983030251E-02  0.10199790625E+01  0.10196978182E+01 0.  0.
     999903    2    3    3    0    0  0.76177021726E-01  0.92770921067E-01 -0.39058328227E-01  0.13065163657E+00  0.33688495058E-01 0.  0.
         14    1    1    2    0    0 -0.18963321504E-01  0.12048983871E-01 -0.82983030251E-02  0.23950937516E-01  0.00000000000E+00 0. -1.
     999901    1    3    3    0    0 -0.57213700221E-01 -0.10481990494E+00  0.47356631252E-01  0.88932742592E+00  0.88000000000E+00 0. -1.
        -11    1    4    4    0    0  0.42579123147E-01  0.55099311303E-01 -0.39719278503E-01  0.80167312790E-01  0.51100000000E-03 0.  1.
         11    1    4    4    0    0  0.33597898578E-01  0.37671609763E-01  0.66095027545E-03  0.50484323778E-01  0.51100000000E-03 0. -1.
</event>
<event>
 8    1  0.1202249E+005  0.1043930E+01  0.7957747E-01            NaN
         13   -1    0    0    0    0  0.00000000000E+00  0.00000000000E+00  0.74505805969E-08  0.10566000000E+00  0.10566000000E+00 0. -1.
     999900   -1    0    0    0    0 -0.00000000000E+00 -0.00000000000E+00 -0.74505805969E-08  0.93827000000E+00  0.93827000000E+00 0.  1.
     999902    2    1    2    0    0  0.19253993939E-01  0.11079726496E-01  0.31971474995E-02  0.10214867744E+01  0.10212401931E+01 0.  0.
     999903    2    3    3    0    0  0.28729059001E-01  0.27887022218E-02 -0.12691451290E+00  0.13183090719E+00  0.20951343988E-01 0.  0.
         14    1    1    2    0    0 -0.19253993939E-01 -0.11079726496E-01 -0.31971474995E-02  0.22443225570E-01  0.00000000000E+00 0. -1.
     999901    1    3    3    0    0 -0.94750650621E-02  0.82910242746E-02  0.13011166040E+00  0.88965586724E+00  0.88000000000E+00 0. -1.
        -11    1    4    4    0    0  0.24807855100E-01  0.14689109800E-02 -0.62207029556E-01  0.66989275420E-01  0.51100000000E-03 0.  1.
         11    1    4    4    0    0  0.39212039012E-02  0.13197912418E-02 -0.64707483344E-01  0.64841631771E-01  0.51100000000E-03 0. -1.
</event>
<event>
 8    1  0.1202249E+005  0.1043930E+01  0.7957747E-01            NaN
         13   -1    0    0    0    0  0.00000000000E+00  0.00000000000E+00  0.74505805969E-08  0.10566000000E+00  0.10566000000E+00 0.  1.
     999900   -1    0    0    0    0 -0.00000000000E+00 -0.00000000000E+00 -0.74505805969E-08  0.93827000000E+00  0.93827000000E+00 0. -1.
     999902    2    1    2    0    0  0.22590851166E-01 -0.25350304093E-02 -0.71222944467E-02  0.10201077412E+01  0.10198295464E+01 0.  0.
     999903    2    3    3    0    0  0.72153688785E-01  0.10850104568E+00  0.21327363429E-02  0.13169840951E+00  0.19007650661E-01 0.  0.
         14    1    1    2    0    0 -0.22590851166E-01  0.25350304093E-02  0.71222944467E-02  0.23822258788E-01  0.00000000000E+00 0.  1.
     999901    1    3    3    0    0 -0.49562837619E-01 -0.11103607609E+00 -0.92550307896E-02  0.88840933171E+00  0.88000000000E+00 0.  1.
        -11    1    4    4    0    0  0.66286721126E-01  0.91429305784E-01  0.65017768941E-02  0.11311844048E+00  0.51100000000E-03 0. -1.
         11    1    4    4    0    0  0.58669676588E-02  0.17071739894E-01 -0.43690405512E-02  0.18579969022E-01  0.51100000000E-03 0.  1.
</event>
<event>
 8    1  0.1202249E+005  0.1043930E+01  0.7957747E-01            NaN
         13   -1    0    0    0    0  0.00000000000E+00  0.00000000000E+00  0.74505805969E-08  0.10566000000E+00  0.10566000000E+00 0.  1.
     999900   -1    0    0    0    0 -0.00000000000E+00 -0.00000000000E+00 -0.74505805969E-08  0.93827000000E+00  0.93827000000E+00 0.  1.
     999902    2    1    2    0    0  0.14125918627E-01  0.17971159177E-01  0.28544654867E-02  0.10208941125E+01  0.10206341837E+01 0.  0.
     999903    2    3    3    0    0 -0.58833478320E-01  0.49243466245E-01  0.10491037289E+00  0.13144684649E+00  0.19641536943E-01 0.  0.
         14    1    1    2    0    0 -0.14125918627E-01 -0.17971159177E-01 -0.28544654867E-02  0.23035887490E-01  0.00000000000E+00 0. -1.
     999901    1    3    3    0    0  0.72959396948E-01 -0.31272307068E-01 -0.10205590740E+00  0.88944726602E+00  0.88000000000E+00 0.  1.
        -11    1    4    4    0    0 -0.69974954867E-02  0.10927786435E-03  0.15472448998E-01  0.16989252006E-01  0.51100000000E-03 0.  1.
         11    1    4    4    0    0 -0.51835982834E-01  0.49134188381E-01  0.89437923892E-01  0.11445759449E+00  0.51100000000E-03 0. -1.
</event>
<event>
 8    1  0.1202249E+005  0.1043930E+01  0.7957747E-01            NaN
         13   -1    0    0    0    0  0.00000000000E+00  0.00000000000E+00  0.74505805969E-08  0.10566000000E+00  0.10566000000E+00 0.  1.
     999900   -1    0    0    0    0 -0.00000000000E+00 -0.00000000000E+00 -0.74505805969E-08  0.93827000000E+00  0.93827000000E+00 0.  1.
     999902    2    1    2    0    0  0.68998244947E-02 -0.20331791770E-01  0.12362964321E-01  0.10191543623E+01  0.10188531700E+01 0.  0.
     999903    2    3    3    0    0  0.10111487053E+00 -0.53380242619E-01 -0.59921969824E-01  0.13056346282E+00  0.19557812067E-01 0.  0.
         14    1    1    2    0    0 -0.68998244947E-02  0.20331791770E-01 -0.12362964321E-01  0.24775637660E-01  0.00000000000E+00 0. -1.
     999901    1    3    3    0    0 -0.94215046032E-01  0.33048450849E-01  0.72284934145E-01  0.88859089952E+00  0.88000000000E+00 0.  1.
        -11    1    4    4    0    0  0.82164104555E-01 -0.47312250644E-01 -0.56484539312E-01  0.11036373245E+00  0.51100000000E-03 0. -1.
         11    1    4    4    0    0  0.18950765972E-01 -0.60679919753E-02 -0.34374305119E-02  0.20199730371E-01  0.51100000000E-03 0.  1.
</event>
<event>
 8    1  0.1202249E+005  0.1043930E+01  0.7957747E-01            NaN
         13   -1    0    0    0    0  0.00000000000E+00  0.00000000000E+00  0.74505805969E-08  0.10566000000E+00  0.10566000000E+00 0.  1.
     999900   -1    0    0    0    0 -0.00000000000E+00 -0.00000000000E+00 -0.74505805969E-08  0.93827000000E+00  0.93827000000E+00 0.  1.
     999902    2    1    2    0    0  0.17595480616E-01  0.11290892519E-01  0.93323855619E-02  0.10210350527E+01  0.10207783306E+01 0.  0.
     999903    2    3    3    0    0 -0.19679976729E-01 -0.27844305315E-01 -0.12296894010E+00  0.12950565654E+00  0.22085018069E-01 0.  0.
         14    1    1    2    0    0 -0.17595480616E-01 -0.11290892519E-01 -0.93323855619E-02  0.22894947309E-01  0.00000000000E+00 0. -1.
     999901    1    3    3    0    0  0.37275457345E-01  0.39135197834E-01  0.13230132567E+00  0.89152939615E+00  0.88000000000E+00 0. -1.
        -11    1    4    4    0    0  0.46082452897E-02 -0.80248362004E-02 -0.28818604593E-01  0.30272215188E-01  0.51100000000E-03 0.  1.
         11    1    4    4    0    0 -0.24288222019E-01 -0.19819469114E-01 -0.94150335511E-01  0.99233441352E-01  0.51100000000E-03 0. -1.
</event>
<event>
 8    1  0.1202249E+005  0.1043930E+01  0.7957747E-01            NaN
         13   -1    0    0    0    0  0.00000000000E+00  0.00000000000E+00  0.74505805969E-08  0.10566000000E+00  0.10566000000E+00 0. -1.
     999900   -1    0    0    0    0 -0.00000000000E+00 -0.00000000000E+00 -0.74505805969E-08  0.93827000000E+00  0.93827000000E+00 0.  1.
     999902    2    1    2    0    0  0.16212020546E-01 -0.10959799765E-01  0.11781279078E-02  0.10243255412E+01  0.10241379201E+01 0.  0.
     999903    2    3    3    0    0  0.59149528921E-02 -0.10153982001E+00 -0.86750728841E-01  0.13525734720E+00  0.20580070487E-01 0.  0.
         14    1    1    2    0    0 -0.16212020546E-01  0.10959799765E-01 -0.11781279078E-02  0.19604458841E-01  0.00000000000E+00 0. -1.
     999901    1    3    3    0    0  0.10297067654E-01  0.90580020241E-01  0.87928856748E-01  0.88906819396E+00  0.88000000000E+00 0. -1.
        -11    1    4    4    0    0 -0.63319471492E-02 -0.58098306998E-01 -0.44861419332E-01  0.73677098859E-01  0.51100000000E-03 0. -1.
         11    1    4    4    0    0  0.12246900041E-01 -0.43441513008E-01 -0.41889309509E-01  0.61580248337E-01  0.51100000000E-03 0.  1.
</event>
<event>
 8    1  0.1202249E+005  0.1043930E+01  0.7957747E-01            NaN
         13   -1    0    0    0    0  0.00000000000E+00  0.00000000000E+00  0.74505805969E-08  0.10566000000E+00  0.10566000000E+00 0. -1.
     999900   -1    0    0    0    0 -0.00000000000E+00 -0.00000000000E+00 -0.74505805969E-08  0.93827000000E+00  0.93827000000E+00 0.  1.
     999902    2    1    2    0    0  0.40384799871E-02 -0.23547122616E-01  0.41779387245E-02  0.10196765162E+01  0.10193880352E+01 0.  0.
     999903    2    3    3    0    0  0.10376783814E+00 -0.18276391132E-01 -0.74553184921E-01  0.13053518024E+00  0.19479866356E-01 0.  0.
         14    1    1    2    0    0 -0.40384799871E-02  0.23547122616E-01 -0.41779387245E-02  0.24253483793E-01  0.00000000000E+00 0.  1.
     999901    1    3    3    0    0 -0.99729358157E-01 -0.52707314840E-02  0.78731123646E-01  0.88914133596E+00  0.88000000000E+00 0. -1.
        -11    1    4    4    0    0  0.19801664564E-01 -0.11503862336E-01 -0.16387843933E-01  0.28165001649E-01  0.51100000000E-03 0. -1.
         11    1    4    4    0    0  0.83966173580E-01 -0.67725287968E-02 -0.58165340989E-01  0.10237017859E+00  0.51100000000E-03 0.  1.
</event>
<event>
 8    1  0.1202249E+005  0.1043930E+01  0.7957747E-01            NaN
         13   -1    0    0    0    0  0.00000000000E+00  0.00000000000E+00  0.74505805969E-08  0.10566000000E+00  0.10566000000E+00 0.  1.
     999900   -1    0    0    0    0 -0.00000000000E+00 -0.00000000000E+00 -0.74505805969E-08  0.93827000000E+00  0.93827000000E+00 0.  1.
     999902    2    1    2    0    0 -0.50950469972E-03 -0.52974634106E-02 -0.22886831742E-01  0.10204325580E+01  0.10201619850E+01 0.  0.
     999903    2    3    3    0    0  0.15659814263E-01  0.39124928522E-01  0.11890728641E+00  0.12782941677E+00  0.20625887024E-01 0.  0.
         14    1    1    2    0    0  0.50950469972E-03  0.52974634106E-02  0.22886831742E-01  0.23497442005E-01  0.00000000000E+00 0.  1.
     999901    1    3    3    0    0 -0.16169318963E-01 -0.44422391933E-01 -0.14179411815E+00  0.89260314122E+00  0.88000000000E+00 0.  1.
        -11    1    4    4    0    0  0.49123758388E-02  0.34975603057E-01  0.92451248599E-01  0.98969281770E-01  0.51100000000E-03 0. -1.
         11    1    4    4    0    0  0.10747438424E-01  0.41493254648E-02  0.26456037812E-01  0.28860135000E-01  0.51100000000E-03 0.  1.
</event>
<event>
 8    1  0.1202249E+005  0.1043930E+01  0.7957747E-01            NaN
         13   -1    0    0    0    0  0.00000000000E+00  0.00000000000E+00  0.74505805969E-08  0.10566000000E+00  0.10566000000E+00 0. -1.
     999900   -1    0    0    0    0 -0.00000000000E+00 -0.00000000000E+00 -0.74505805969E-08  0.93827000000E+00  0.93827000000E+00 0.  1.
     999902    2    1    2    0    0  0.17522062378E-01 -0.16450293985E-01 -0.12468668538E-03  0.10198956415E+01  0.10196124112E+01 0.  0.
     999903    2    3    3    0    0 -0.87692201380E-01 -0.72520074249E-02  0.91925734484E-01  0.12881319311E+00  0.19999606604E-01 0.  0.
         14    1    1    2    0    0 -0.17522062378E-01  0.16450293985E-01  0.12468668538E-03  0.24034358509E-01  0.00000000000E+00 0.  1.
     999901    1    3    3    0    0  0.10521426376E+00 -0.91982865600E-02 -0.92050421169E-01  0.89108244838E+00  0.88000000000E+00 0.  1.
        -11    1    4    4    0    0 -0.28535977595E-01  0.50167162028E-02  0.38318563594E-01  0.48042095039E-01  0.51100000000E-03 0. -1.
         11    1    4    4    0    0 -0.59156223785E-01 -0.12268723628E-01  0.53607170890E-01  0.80771098072E-01  0.51100000000E-03 0.  1.
</event>
<event>
 8    1  0.1202249E+005  0.1043930E+01  0.7957747E-01            NaN
         13   -1    0    0    0    0  0.00000000000E+00  0.00000000000E+00  0.74505805969E-08  0.10566000000E+00  0.10566000000E+00 0. -1.
     999900   -1    0    0    0    0 -0.00000000000E+00 -0.00000000000E+00 -0.74505805969E-08  0.93827000000E+00  0.93827000000E+00 0.  1.
     999902    2    1    2    0    0  0.88817534940E-02 -0.17731444308E-01 -0.10069237267E-01  0.10216886151E+01  0.10214464974E+01 0.  0.
     999903    2    3    3    0    0 -0.35757680104E-01  0.48918333702E-01  0.11272770218E+00  0.12954851386E+00  0.20091479443E-01 0.  0.
         14    1    1    2    0    0 -0.88817534940E-02  0.17731444308E-01  0.10069237267E-01  0.22241384883E-01  0.00000000000E+00 0.  1.
     999901    1    3    3    0    0  0.44639433598E-01 -0.66649778010E-01 -0.12279693944E+00  0.89214010126E+00  0.88000000000E+00 0.  1.
        -11    1    4    4    0    0 -0.22985225179E-01  0.17934562644E-01  0.64860820928E-01  0.71113685928E-01  0.51100000000E-03 0.  1.
         11    1    4    4    0    0 -0.12772454925E-01  0.30983771058E-01  0.47866881247E-01  0.58434827928E-01  0.51100000000E-03 0. -1.
</event>
<event>
 8    1  0.1202249E+005  0.1043930E+01  0.7957747E-01            NaN
         13   -1    0    0    0    0  0.00000000000E+00  0.00000000000E+00  0.74505805969E-08  0.10566000000E+00  0.10566000000E+00 0. -1.
     999900   -1    0    0    0    0 -0.00000000000E+00 -0.00000000000E+00 -0.74505805969E-08  0.93827000000E+00  0.93827000000E+00 0. -1.
     999902    2    1    2    0    0  0.17569730664E-01 -0.96208770901E-02 -0.21865050081E-01  0.10142763809E+01  0.10138428082E+01 0.  0.
     999903    2    3    3    0    0 -0.11224737783E+00 -0.18590813681E-01  0.40840750748E-01  0.12250008670E+00  0.19829577321E-01 0.  0.
         14    1    1    2    0    0 -0.17569730664E-01  0.96208770901E-02  0.21865050081E-01  0.29653619115E-01  0.00000000000E+00 0. -1.
     999901    1    3    3    0    0  0.12981710849E+00  0.89699365912E-02 -0.62705800829E-01  0.89177629419E+00  0.88000000000E+00 0. -1.
        -11    1    4    4    0    0 -0.66178697069E-01 -0.30823266960E-02  0.29823738101E-01  0.72655606521E-01  0.51100000000E-03 0. -1.
         11    1    4    4    0    0 -0.46068680757E-01 -0.15508486985E-01  0.11017012647E-01  0.49844480175E-01  0.51100000000E-03 0.  1.
</event>
<event>
 8    1  0.1202249E+005  0.1043930E+01  0.7957747E-01            NaN
         13   -1    0    0    0    0  0.00000000000E+00  0.00000000000E+00  0.74505805969E-08  0.10566000000E+00  0.10566000000E+00 0. -1.
     999900   -1    0    0    0    0 -0.00000000000E+00 -0.00000000000E+00 -0.74505805969E-08  0.93827000000E+00  0.93827000000E+00 0.  1.
     999902    2    1    2    0    0 -0.68530055795E-02 -0.20873639976E-01 -0.87633720025E-02  0.10202768983E+01  0.10200026863E+01 0.  0.
     999903    2    3    3    0    0  0.70168572781E-01 -0.90335486382E-01  0.61580263607E-01  0.13139811089E+00  0.19728303836E-01 0.  0.
         14    1    1    2    0    0  0.68530055795E-02  0.20873639976E-01  0.87633720025E-02  0.23653101703E-01  0.00000000000E+00 0. -1.
     999901    1    3    3    0    0 -0.77021578361E-01  0.69461846406E-01 -0.70343635610E-01  0.88887878741E+00  0.88000000000E+00 0.  1.
        -11    1    4    4    0    0  0.53307826488E-01 -0.59267250482E-01  0.50434688362E-01  0.94330537239E-01  0.51100000000E-03 0. -1.
         11    1    4    4    0    0  0.16860746293E-01 -0.31068235900E-01  0.11145575245E-01  0.37067573647E-01  0.51100000000E-03 0.  1.
</event>
<event>
 8    1  0.1202249E+005  0.1043930E+01  0.7957747E-01            NaN
         13   -1    0    0    0    0  0.00000000000E+00  0.00000000000E+00  0.74505805969E-08  0.10566000000E+00  0.10566000000E+00 0.  1.
     999900   -1    0    0    0    0 -0.00000000000E+00 -0.00000000000E+00 -0.74505805969E-08  0.93827000000E+00  0.93827000000E+00 0.  1.
     999902    2    1    2    0    0 -0.38186690318E-02  0.24065841519E-01 -0.75440383849E-02  0.10184219723E+01  0.10181024773E+01 0.  0.
     999903    2    3    3    0    0  0.72546768108E-01 -0.24661592551E-01  0.99693283891E-01  0.12729578254E+00  0.19855419628E-01 0.  0.
         14    1    1    2    0    0  0.38186690318E-02 -0.24065841519E-01  0.75440383849E-02  0.25508027685E-01  0.00000000000E+00 0.  1.
     999901    1    3    3    0    0 -0.76365437140E-01  0.48727434070E-01 -0.10723732228E+00  0.89112618978E+00  0.88000000000E+00 0.  1.
        -11    1    4    4    0    0  0.43074235634E-01 -0.10241086723E-01  0.71156397084E-01  0.83807897001E-01  0.51100000000E-03 0. -1.
         11    1    4    4    0    0  0.29472532473E-01 -0.14420505828E-01  0.28536886807E-01  0.43487885536E-01  0.51100000000E-03 0.  1.
</event>
<event>
 8    1  0.1202249E+005  0.1043930E+01  0.7957747E-01            NaN
         13   -1    0    0    0    0  0.00000000000E+00  0.00000000000E+00  0.74505805969E-08  0.10566000000E+00  0.10566000000E+00 0. -1.
     999900   -1    0    0    0    0 -0.00000000000E+00 -0.00000000000E+00 -0.74505805969E-08  0.93827000000E+00  0.93827000000E+00 0.  1.
     999902    2    1    2    0    0 -0.17383055963E-01  0.12914732175E-01  0.93591862697E-02  0.10203385755E+01  0.10200658084E+01 0.  0.
     999903    2    3    3    0    0  0.92863417365E-01  0.43422258792E-01 -0.75613980350E-01  0.12887605072E+00  0.19556471604E-01 0.  0.
         14    1    1    2    0    0  0.17383055963E-01 -0.12914732175E-01 -0.93591862697E-02  0.23591424488E-01  0.00000000000E+00 0.  1.
     999901    1    3    3    0    0 -0.11024647333E+00 -0.30507526617E-01  0.84973166620E-01  0.89146252479E+00  0.88000000000E+00 0. -1.
        -11    1    4    4    0    0  0.53662248086E-01  0.22365435850E-01 -0.31106826897E-01  0.65937435430E-01  0.51100000000E-03 0.  1.
         11    1    4    4    0    0  0.39201169279E-01  0.21056822943E-01 -0.44507153453E-01  0.62938615291E-01  0.51100000000E-03 0. -1.
</event>
<event>
 8    1  0.1202249E+005  0.1043930E+01  0.7957747E-01            NaN
         13   -1    0    0    0    0  0.00000000000E+00  0.00000000000E+00  0.74505805969E-08  0.10566000000E+00  0.10566000000E+00 0. -1.
     999900   -1    0    0    0    0 -0.00000000000E+00 -0.00000000000E+00 -0.74505805969E-08  0.93827000000E+00  0.93827000000E+00 0.  1.
     999902    2    1    2    0    0 -0.22161754800E-01 -0.50113511709E-03  0.84770951909E-02  0.10201969923E+01  0.10199209025E+01 0.  0.
     999903    2    3    3    0    0 -0.84831435156E-01  0.98638668223E-01  0.14411136283E-01  0.13239554923E+00  0.19873131327E-01 0.  0.
         14    1    1    2    0    0  0.22161754800E-01  0.50113511709E-03 -0.84770951909E-02  0.23733007713E-01  0.00000000000E+00 0.  1.
     999901    1    3    3    0    0  0.62669680356E-01 -0.99139803341E-01 -0.59340410917E-02  0.88780144305E+00  0.88000000000E+00 0. -1.
        -11    1    4    4    0    0 -0.56119981843E-01  0.52289762028E-01  0.34719059220E-02  0.76785329502E-01  0.51100000000E-03 0. -1.
         11    1    4    4    0    0 -0.28711453312E-01  0.46348906195E-01  0.10939230361E-01  0.55610219732E-01  0.51100000000E-03 0.  1.
</event>
<event>
 8    1  0.1202249E+005  0.1043930E+01  0.7957747E-01            NaN
         13   -1    0    0    0    0  0.00000000000E+00  0.00000000000E+00  0.74505805969E-08  0.10566000000E+00  0.10566000000E+00 0.  1.
     999900   -1    0    0    0    0 -0.00000000000E+00 -0.00000000000E+00 -0.74505805969E-08  0.93827000000E+00  0.93827000000E+00 0. -1.
     999902    2    1    2    0    0  0.17210233690E-01 -0.10357483487E-01  0.18212977374E-01  0.10168157574E+01  0.10164541811E+01 0.  0.
     999903    2    3    3    0    0 -0.66979561669E-01 -0.93592142272E-01  0.52889854526E-01  0.12821099942E+00  0.19873924732E-01 0.  0.
         14    1    1    2    0    0 -0.17210233690E-01  0.10357483487E-01 -0.18212977374E-01  0.27114242617E-01  0.00000000000E+00 0. -1.
     999901    1    3    3    0    0  0.84189795359E-01  0.83234658785E-01 -0.34676877152E-01  0.88860475796E+00  0.88000000000E+00 0. -1.
        -11    1    4    4    0    0 -0.98290062164E-02 -0.25286057955E-01  0.70070191224E-02  0.28024159722E-01  0.51100000000E-03 0.  1.
         11    1    4    4    0    0 -0.57150555452E-01 -0.68306084316E-01  0.45882835403E-01  0.10018683970E+00  0.51100000000E-03 0. -1.
</event>
<event>
 8    1  0.1202249E+005  0.1043930E+01  0.7957747E-01            NaN
         13   -1    0    0    0    0  0.00000000000E+00  0.00000000000E+00  0.74505805969E-08  0.10566000000E+00  0.10566000000E+00 0. -1.
     999900   -1    0    0    0    0 -0.00000000000E+00 -0.00000000000E+00 -0.74505805969E-08  0.93827000000E+00  0.93827000000E+00 0.  1.
     999902    2    1    2    0    0  0.60578120949E-02  0.50374999733E-03 -0.22911118024E-01  0.10202261990E+01  0.10199507964E+01 0.  0.
     999903    2    3    3    0    0  0.12498579229E+00 -0.30929818839E-01  0.13679846841E-01  0.13091701071E+00  0.19339687538E-01 0.  0.
         14    1    1    2    0    0 -0.60578120949E-02 -0.50374999733E-03  0.22911118024E-01  0.23703800973E-01  0.00000000000E+00 0. -1.
     999901    1    3    3    0    0 -0.11892798020E+00  0.31433568836E-01 -0.36590964865E-01  0.88930918832E+00  0.88000000000E+00 0.  1.
        -11    1    4    4    0    0  0.95141062592E-01 -0.30947238547E-01  0.67655809539E-02  0.10027755268E+00  0.51100000000E-03 0. -1.
         11    1    4    4    0    0  0.29844729700E-01  0.17419708151E-04  0.69142658870E-02  0.30639458025E-01  0.51100000000E-03 0.  1.
</event>
<event>
 8    1  0.1202249E+005  0.1043930E+01  0.7957747E-01            NaN
         13   -1    0    0    0    0  0.00000000000E+00  0.00000000000E+00  0.74505805969E-08  0.10566000000E+00  0.10566000000E+00 0.  1.
     999900   -1    0    0    0    0 -0.00000000000E+00 -0.00000000000E+00 -0.74505805969E-08  0.93827000000E+00  0.93827000000E+00 0. -1.
     999902    2    1    2    0    0  0.10702828287E-01 -0.19142861260E-01  0.89587924825E-02  0.10202390812E+01  0.10199639813E+01 0.  0.
     999903    2    3    3    0    0  0.56042804266E-02 -0.89274280583E-01  0.96567427324E-01  0.13309778239E+00  0.19709046763E-01 0.  0.
         14    1    1    2    0    0 -0.10702828287E-01  0.19142861260E-01 -0.89587924825E-02  0.23690918794E-01  0.00000000000E+00 0. -1.
     999901    1    3    3    0    0  0.50985478608E-02  0.70131419323E-01 -0.87608634842E-01  0.88714129882E+00  0.88000000000E+00 0.  1.
        -11    1    4    4    0    0  0.59818211653E-02 -0.25307537472E-01  0.39952227252E-01  0.47672793297E-01  0.51100000000E-03 0. -1.
         11    1    4    4    0    0 -0.37754073867E-03 -0.63966743111E-01  0.56615200072E-01  0.85424989092E-01  0.51100000000E-03 0.  1.
</event>
<event>
 8    1  0.1202249E+005  0.1043930E+01  0.7957747E-01            NaN
         13   -1    0    0    0    0  0.00000000000E+00  0.00000000000E+00  0.74505805969E-08  0.10566000000E+00  0.10566000000E+00 0.  1.
     999900   -1    0    0    0    0 -0.00000000000E+00 -0.00000000000E+00 -0.74505805969E-08  0.93827000000E+00  0.93827000000E+00 0. -1.
     999902    2    1    2    0    0  0.17244203869E-01  0.16205143355E-01  0.26691792665E-02  0.10201162696E+01  0.10198382763E+01 0.  0.
     999903    2    3    3    0    0  0.87472072853E-01  0.77079313573E-01  0.61415841929E-01  0.13327423824E+00  0.19938225345E-01 0.  0.
         14    1    1    2    0    0 -0.17244203869E-01 -0.16205143355E-01 -0.26691792665E-02  0.23813730413E-01  0.00000000000E+00 0.  1.
     999901    1    3    3    0    0 -0.70227868984E-01 -0.60874170219E-01 -0.58746662662E-01  0.88684203134E+00  0.88000000000E+00 0. -1.
        -11    1    4    4    0    0  0.23045479789E-01  0.29384478893E-01  0.26747809678E-01  0.45937437696E-01  0.51100000000E-03 0.  1.
         11    1    4    4    0    0  0.64426593064E-01  0.47694834680E-01  0.34668032251E-01  0.87336800549E-01  0.51100000000E-03 0. -1.
</event>
<event>
 8    1  0.1202249E+005  0.1043930E+01  0.7957747E-01            NaN
         13   -1    0    0    0    0  0.00000000000E+00  0.00000000000E+00  0.74505805969E-08  0.10566000000E+00  0.10566000000E+00 0. -1.
     999900   -1    0    0    0    0 -0.00000000000E+00 -0.00000000000E+00 -0.74505805969E-08  0.93827000000E+00  0.93827000000E+00 0.  1.
     999902    2    1    2    0    0 -0.21428472157E-01  0.19711894908E-02 -0.10337917263E-01  0.10200566353E+01  0.10197772314E+01 0.  0.
     999903    2    3    3    0    0  0.22954097458E-01 -0.11636488974E+00 -0.48115487947E-01  0.13022497430E+00  0.23995116101E-01 0.  0.
         14    1    1    2    0    0  0.21428472157E-01 -0.19711894908E-02  0.10337917263E-01  0.23873364663E-01  0.00000000000E+00 0.  1.
     999901    1    3    3    0    0 -0.44382569615E-01  0.11833607923E+00  0.37777570684E-01  0.88983166104E+00  0.88000000000E+00 0. -1.
        -11    1    4    4    0    0  0.27492425780E-01 -0.96660352931E-01 -0.36618873419E-01  0.10695915256E+00  0.51100000000E-03 0.  1.
         11    1    4    4    0    0 -0.45383283222E-02 -0.19704536811E-01 -0.11496614528E-01  0.23265821746E-01  0.51100000000E-03 0. -1.
</event>
<event>
 8    1  0.1202249E+005  0.1043930E+01  0.7957747E-01            NaN
         13   -1    0    0    0    0  0.00000000000E+00  0.00000000000E+00  0.74505805969E-08  0.10566000000E+00  0.10566000000E+00 0.  1.
     999900   -1    0    0    0    0 -0.00000000000E+00 -0.00000000000E+00 -0.74505805969E-08  0.93827000000E+00  0.93827000000E+00 0. -1.
     999902    2    1    2    0    0  0.21280774117E-01 -0.10579459480E-01  0.36135959342E-02  0.10198913980E+01  0.10196080665E+01 0.  0.
     999903    2    3    3    0    0  0.58455133006E-01  0.94525226626E-02 -0.11494102549E+00  0.13093784944E+00  0.20662243730E-01 0.  0.
         14    1    1    2    0    0 -0.21280774117E-01  0.10579459480E-01 -0.36135959342E-02  0.24038601987E-01  0.00000000000E+00 0.  1.
     999901    1    3    3    0    0 -0.37174358889E-01 -0.20031982143E-01  0.11855462142E+00  0.88895354858E+00  0.88000000000E+00 0.  1.
        -11    1    4    4    0    0  0.22901023186E-01  0.14030480927E-01 -0.48654206726E-01  0.55577011535E-01  0.51100000000E-03 0.  1.
         11    1    4    4    0    0  0.35554109820E-01 -0.45779582648E-02 -0.66286818759E-01  0.75360837901E-01  0.51100000000E-03 0. -1.
</event>
<event>
 8    1  0.1202249E+005  0.1043930E+01  0.7957747E-01            NaN
         13   -1    0    0    0    0  0.00000000000E+00  0.00000000000E+00  0.74505805969E-08  0.10566000000E+00  0.10566000000E+00 0. -1.
     999900   -1    0    0    0    0 -0.00000000000E+00 -0.00000000000E+00 -0.74505805969E-08  0.93827000000E+00  0.93827000000E+00 0.  1.
     999902    2    1    2    0    0 -0.20064081806E-01  0.24746846048E-01 -0.11786049400E-01  0.10099611212E+01  0.10093897075E+01 0.  0.
     999903    2    3    3    0    0  0.45142745962E-02  0.11743204270E+00  0.32633718249E-01  0.12363851792E+00  0.20269687205E-01 0.  0.
         14    1    1    2    0    0  0.20064081806E-01 -0.24746846048E-01  0.11786049400E-01  0.33968878823E-01  0.00000000000E+00 0. -1.
     999901    1    3    3    0    0 -0.24578356402E-01 -0.92685196653E-01 -0.44419767650E-01  0.88632260325E+00  0.88000000000E+00 0. -1.
        -11    1    4    4    0    0  0.80799369526E-02  0.91408644953E-01  0.17827942900E-01  0.93482203774E-01  0.51100000000E-03 0.  1.
         11    1    4    4    0    0 -0.35656623565E-02  0.26023397747E-01  0.14805775349E-01  0.30156314149E-01  0.51100000000E-03 0. -1.
</event>
<event>
 8    1  0.1202249E+005  0.1043930E+01  0.7957747E-01            NaN
         13   -1    0    0    0    0  0.00000000000E+00  0.00000000000E+00  0.74505805969E-08  0.10566000000E+00  0.10566000000E+00 0.  1.
     999900   -1    0    0    0    0 -0.00000000000E+00 -0.00000000000E+00 -0.74505805969E-08  0.93827000000E+00  0.93827000000E+00 0.  1.
     999902    2    1    2    0    0 -0.21464844163E-01  0.14933276306E-02 -0.87140996487E-02  0.10207156705E+01  0.10204516524E+01 0.  0.
     999903    2    3    3    0    0  0.42121868629E-01  0.16205623378E-01 -0.12155024069E+00  0.13111367160E+00  0.19479728482E-01 0.  0.
         14    1    1    2    0    0  0.21464844163E-01 -0.14933276306E-02  0.87140996487E-02  0.23214329519E-01  0.00000000000E+00 0.  1.
     999901    1    3    3    0    0 -0.63586712792E-01 -0.14712295747E-01  0.11283614104E+00  0.88960199888E+00  0.88000000000E+00 0.  1.
        -11    1    4    4    0    0  0.21913732891E-01  0.10314782300E-01 -0.38924896965E-01  0.45847738743E-01  0.51100000000E-03 0. -1.
         11    1    4    4    0    0  0.20208135739E-01  0.58908410778E-02 -0.82625343727E-01  0.85265932855E-01  0.51100000000E-03 0.  1.
</event>
<event>
 8    1  0.1202249E+005  0.1043930E+01  0.7957747E-01            NaN
         13   -1    0    0    0    0  0.00000000000E+00  0.00000000000E+00  0.74505805969E-08  0.10566000000E+00  0.10566000000E+00 0.  1.
     999900   -1    0    0    0    0 -0.00000000000E+00 -0.00000000000E+00 -0.74505805969E-08  0.93827000000E+00  0.93827000000E+00 0. -1.
     999902    2    1    2    0    0 -0.40347927299E-03 -0.13525491935E-01 -0.19929916218E-01  0.10198405150E+01  0.10195559684E+01 0.  0.
     999903    2    3    3    0    0 -0.10818245992E+00 -0.16828335091E-01  0.65467892703E-01  0.12915538364E+00  0.20209667284E-01 0.  0.
         14    1    1    2    0    0  0.40347927299E-03  0.13525491935E-01  0.19929916218E-01  0.24089485010E-01  0.00000000000E+00 0. -1.
     999901    1    3    3    0    0  0.10777898065E+00  0.33028431561E-02 -0.85397808921E-01  0.89068513135E+00  0.88000000000E+00 0. -1.
        -11    1    4    4    0    0 -0.16988507312E-01 -0.81220041277E-03  0.25394515658E-02  0.17204039801E-01  0.51100000000E-03 0.  1.
         11    1    4    4    0    0 -0.91193952607E-01 -0.16016134678E-01  0.62928441138E-01  0.11195134384E+00  0.51100000000E-03 0. -1.
</event>
<event>
 8    1  0.1202249E+005  0.1043930E+01  0.7957747E-01            NaN
         13   -1    0    0    0    0  0.00000000000E+00  0.00000000000E+00  0.74505805969E-08  0.10566000000E+00  0.10566000000E+00 0. -1.
     999900   -1    0    0    0    0 -0.00000000000E+00 -0.00000000000E+00 -0.74505805969E-08  0.93827000000E+00  0.93827000000E+00 0. -1.
     999902    2    1    2    0    0 -0.46170827495E-02  0.14681975032E-01  0.18309303411E-01  0.10200112117E+01  0.10197307309E+01 0.  0.
     999903    2    3    3    0    0 -0.29582891901E-01 -0.14199032526E-01  0.12724606397E+00  0.13247269305E+00  0.16753912700E-01 0.  0.
         14    1    1    2    0    0  0.46170827495E-02 -0.14681975032E-01 -0.18309303411E-01  0.23918788333E-01  0.00000000000E+00 0.  1.
     999901    1    3    3    0    0  0.24965809151E-01  0.28881007557E-01 -0.10893676056E+00  0.88753851861E+00  0.88000000000E+00 0. -1.
        -11    1    4    4    0    0 -0.25881331192E-01 -0.17941430786E-01  0.10617032797E+00  0.11074356823E+00  0.51100000000E-03 0.  1.
         11    1    4    4    0    0 -0.37015607088E-02  0.37423982606E-02  0.21075736001E-01  0.21729124819E-01  0.51100000000E-03 0. -1.
</event>
<event>
 8    1  0.1202249E+005  0.1043930E+01  0.7957747E-01            NaN
         13   -1    0    0    0    0  0.00000000000E+00  0.00000000000E+00  0.74505805969E-08  0.10566000000E+00  0.10566000000E+00 0.  1.
     999900   -1    0    0    0    0 -0.00000000000E+00 -0.00000000000E+00 -0.74505805969E-08  0.93827000000E+00  0.93827000000E+00 0. -1.
     999902    2    1    2    0    0 -0.21525480271E-01 -0.18226380093E-01 -0.92754444232E-02  0.10142385686E+01  0.10138038730E+01 0.  0.
     999903    2    3    3    0    0  0.38460233645E-01 -0.10530771499E+00 -0.55628211970E-01  0.12669700681E+00  0.19716215665E-01 0.  0.
         14    1    1    2    0    0  0.21525480271E-01  0.18226380093E-01  0.92754444232E-02  0.29691431448E-01  0.00000000000E+00 0. -1.
     999901    1    3    3    0    0 -0.59985713915E-01  0.87081334892E-01  0.46352767547E-01  0.88754156174E+00  0.88000000000E+00 0.  1.
        -11    1    4    4    0    0  0.69352667897E-02 -0.40335608960E-01 -0.13553840829E-01  0.43116435357E-01  0.51100000000E-03 0.  1.
         11    1    4    4    0    0  0.31524966855E-01 -0.64972106025E-01 -0.42074371141E-01  0.83580571453E-01  0.51100000000E-03 0. -1.
</event>
<event>
 8    1  0.1202249E+005  0.1043930E+01  0.7957747E-01            NaN
         13   -1    0    0    0    0  0.00000000000E+00  0.00000000000E+00  0.74505805969E-08  0.10566000000E+00  0.10566000000E+00 0.  1.
     999900   -1    0    0    0    0 -0.00000000000E+00 -0.00000000000E+00 -0.74505805969E-08  0.93827000000E+00  0.93827000000E+00 0.  1.
     999902    2    1    2    0    0 -0.17704558861E-01  0.10726195679E-01  0.96426899546E-02  0.10210939726E+01  0.10208385850E+01 0.  0.
     999903    2    3    3    0    0  0.11376949005E+00 -0.54054885648E-01  0.19021735894E-01  0.12892247532E+00  0.19843151964E-01 0.  0.
         14    1    1    2    0    0  0.17704558861E-01 -0.10726195679E-01 -0.96426899546E-02  0.22836027408E-01  0.00000000000E+00 0.  1.
     999901    1    3    3    0    0 -0.13147404891E+00  0.64781081327E-01 -0.93790459397E-02  0.89217149727E+00  0.88000000000E+00 0.  1.
        -11    1    4    4    0    0  0.64169837658E-01 -0.40728276511E-01  0.83341474257E-02  0.76460968519E-01  0.51100000000E-03 0. -1.
         11    1    4    4    0    0  0.49599652388E-01 -0.13326609137E-01  0.10687588469E-01  0.52461506806E-01  0.51100000000E-03 0.  1.
</event>
<event>
 8    1  0.1202249E+005  0.1043930E+01  0.7957747E-01            NaN
         13   -1    0    0    0    0  0.00000000000E+00  0.00000000000E+00  0.74505805969E-08  0.10566000000E+00  0.10566000000E+00 0.  1.
     999900   -1    0    0    0    0 -0.00000000000E+00 -0.00000000000E+00 -0.74505805969E-08  0.93827000000E+00  0.93827000000E+00 0.  1.
     999902    2    1    2    0    0 -0.13541521143E-02  0.48988387568E-02  0.21462656445E-01  0.10218737544E+01  0.10216356943E+01 0.  0.
     999903    2    3    3    0    0 -0.57236688024E-01 -0.48894968347E-01  0.10917998963E+00  0.13411761554E+00  0.20012702908E-01 0.  0.
         14    1    1    2    0    0  0.13541521143E-02 -0.48988387568E-02 -0.21462656445E-01  0.22056245618E-01  0.00000000000E+00 0. -1.
     999901    1    3    3    0    0  0.55882535909E-01  0.53793807104E-01 -0.87717333187E-01  0.88775613884E+00  0.88000000000E+00 0. -1.
        -11    1    4    4    0    0 -0.19106391170E-01 -0.10500325088E-01  0.18881553903E-01  0.28845887216E-01  0.51100000000E-03 0. -1.
         11    1    4    4    0    0 -0.38130296854E-01 -0.38394643258E-01  0.90298435729E-01  0.10527172833E+00  0.51100000000E-03 0.  1.
</event>
<event>
 8    1  0.1202249E+005  0.1043930E+01  0.7957747E-01            NaN
         13   -1    0    0    0    0  0.00000000000E+00  0.00000000000E+00  0.74505805969E-08  0.10566000000E+00  0.10566000000E+00 0.  1.
     999900   -1    0    0    0    0 -0.00000000000E+00 -0.00000000000E+00 -0.74505805969E-08  0.93827000000E+00  0.93827000000E+00 0. -1.
     999902    2    1    2    0    0 -0.15094320684E-01 -0.51587001440E-02 -0.17519691344E-01  0.10202363239E+01  0.10199611592E+01 0.  0.
     999903    2    3    3    0    0  0.91043379407E-01 -0.31716609857E-01  0.81462275861E-01  0.12795387767E+00  0.21006002676E-01 0.  0.
         14    1    1    2    0    0  0.15094320684E-01  0.51587001440E-02  0.17519691344E-01  0.23693676137E-01  0.00000000000E+00 0.  1.
     999901    1    3    3    0    0 -0.10613770009E+00  0.26557909713E-01 -0.98981967204E-01  0.89228244619E+00  0.88000000000E+00 0. -1.
        -11    1    4    4    0    0  0.65987573102E-01 -0.16065327734E-01  0.47182236042E-01  0.82697515549E-01  0.51100000000E-03 0. -1.
         11    1    4    4    0    0  0.25055806305E-01 -0.15651282123E-01  0.34280039819E-01  0.45256362124E-01  0.51100000000E-03 0.  1.
</event>
<event>
 8    1  0.1202249E+005  0.1043930E+01  0.7957747E-01            NaN
         13   -1    0    0    0    0  0.00000000000E+00  0.00000000000E+00  0.74505805969E-08  0.10566000000E+00  0.10566000000E+00 0. -1.
     999900   -1    0    0    0    0 -0.00000000000E+00 -0.00000000000E+00 -0.74505805969E-08  0.93827000000E+00  0.93827000000E+00 0. -1.
     999902    2    1    2    0    0 -0.29131149057E-02 -0.22334065737E-01  0.50423428353E-02  0.10208492298E+01  0.10205882755E+01 0.  0.
     999903    2    3    3    0    0 -0.10763520225E+00 -0.73103350313E-01  0.18643751283E-01  0.13308279987E+00  0.20832800302E-01 0.  0.
         14    1    1    2    0    0  0.29131149057E-02  0.22334065737E-01 -0.50423428353E-02  0.23080770179E-01  0.00000000000E+00 0.  1.
     999901    1    3    3    0    0  0.10472208735E+00  0.50769284576E-01 -0.13601408447E-01  0.88776642995E+00  0.88000000000E+00 0. -1.
        -11    1    4    4    0    0 -0.77129546179E-01 -0.41911190422E-01  0.78362985186E-02  0.88131625832E-01  0.51100000000E-03 0. -1.
         11    1    4    4    0    0 -0.30505656075E-01 -0.31192159891E-01  0.10807452764E-01  0.44951174038E-01  0.51100000000E-03 0.  1.
</event>
<event>
 8    1  0.1202249E+005  0.1043930E+01  0.7957747E-01            NaN
         13   -1    0    0    0    0  0.00000000000E+00  0.00000000000E+00  0.74505805969E-08  0.10566000000E+00  0.10566000000E+00 0. -1.
     999900   -1    0    0    0    0 -0.00000000000E+00 -0.00000000000E+00 -0.74505805969E-08  0.93827000000E+00  0.93827000000E+00 0. -1.
     999902    2    1    2    0    0  0.64043412404E-02  0.75521832256E-03 -0.24476193464E-01  0.10186185404E+01  0.10183040120E+01 0.  0.
     999903    2    3    3    0    0  0.10330789927E+00  0.36201318722E-01 -0.69785678395E-01  0.13143215917E+00  0.20525935447E-01 0.  0.
         14    1    1    2    0    0 -0.64043412404E-02 -0.75521832256E-03  0.24476193464E-01  0.25311459617E-01  0.00000000000E+00 0. -1.
     999901    1    3    3    0    0 -0.96903558027E-01 -0.35446100399E-01  0.45309484931E-01  0.88718638122E+00  0.88000000000E+00 0.  1.
        -11    1    4    4    0    0  0.72906950860E-01  0.17349603001E-01 -0.40429614278E-01  0.85154254383E-01  0.51100000000E-03 0. -1.
         11    1    4    4    0    0  0.30400948408E-01  0.18851715720E-01 -0.29356064117E-01  0.46277904783E-01  0.51100000000E-03 0.  1.
</event>
<event>
 8    1  0.1202249E+005  0.1043930E+01  0.7957747E-01            NaN
         13   -1    0    0    0    0  0.00000000000E+00  0.00000000000E+00  0.74505805969E-08  0.10566000000E+00  0.10566000000E+00 0.  1.
     999900   -1    0    0    0    0 -0.00000000000E+00 -0.00000000000E+00 -0.74505805969E-08  0.93827000000E+00  0.93827000000E+00 0. -1.
     999902    2    1    2    0    0  0.11611469013E-02 -0.12951382027E-01 -0.20091994371E-01  0.10199972861E+01  0.10197164747E+01 0.  0.
     999903    2    3    3    0    0 -0.20780990857E-01 -0.10971902952E+00  0.64268996124E-01  0.13041187042E+00  0.20165243969E-01 0.  0.
         14    1    1    2    0    0 -0.11611469013E-02  0.12951382027E-01  0.20091994371E-01  0.23932713936E-01  0.00000000000E+00 0.  1.
     999901    1    3    3    0    0  0.21942137758E-01  0.96767647490E-01 -0.84360990495E-01  0.88958541564E+00  0.88000000000E+00 0. -1.
        -11    1    4    4    0    0 -0.11993011741E-02 -0.60322831104E-01  0.34361365148E-01  0.69435198649E-01  0.51100000000E-03 0.  1.
         11    1    4    4    0    0 -0.19581689683E-01 -0.49396198414E-01  0.29907630976E-01  0.60976671770E-01  0.51100000000E-03 0. -1.
</event>
<event>
 8    1  0.1202249E+005  0.1043930E+01  0.7957747E-01            NaN
         13   -1    0    0    0    0  0.00000000000E+00  0.00000000000E+00  0.74505805969E-08  0.10566000000E+00  0.10566000000E+00 0. -1.
     999900   -1    0    0    0    0 -0.00000000000E+00 -0.00000000000E+00 -0.74505805969E-08  0.93827000000E+00  0.93827000000E+00 0.  1.
     999902    2    1    2    0    0  0.78652639630E-02  0.66455575662E-02 -0.20900680359E-01  0.10206305525E+01  0.10203645724E+01 0.  0.
     999903    2    3    3    0    0  0.96835900384E-01  0.87651313625E-01 -0.61108464973E-02  0.13231954515E+00  0.20277455477E-01 0.  0.
         14    1    1    2    0    0 -0.78652639630E-02 -0.66455575662E-02  0.20900680359E-01  0.23299447462E-01  0.00000000000E+00 0. -1.
     999901    1    3    3    0    0 -0.88970636421E-01 -0.81005756059E-01 -0.14789833861E-01  0.88831100739E+00  0.88000000000E+00 0.  1.
        -11    1    4    4    0    0  0.12402312578E-01  0.10347747033E-01  0.59221449207E-02  0.17211221555E-01  0.51100000000E-03 0.  1.
         11    1    4    4    0    0  0.84433587805E-01  0.77303566592E-01 -0.12032991418E-01  0.11510832360E+00  0.51100000000E-03 0. -1.
</event>
<event>
 8    1  0.1202249E+005  0.1043930E+01  0.7957747E-01            NaN
         13   -1    0    0    0    0  0.00000000000E+00  0.00000000000E+00  0.74505805969E-08  0.10566000000E+00  0.10566000000E+00 0. -1.
     999900   -1    0    0    0    0 -0.00000000000E+00 -0.00000000000E+00 -0.74505805969E-08  0.93827000000E+00  0.93827000000E+00 0. -1.
     999902    2    1    2    0    0  0.16814213708E-01  0.43471158292E-02 -0.18296226018E-01  0.10187036827E+01  0.10183912932E+01 0.  0.
     999903    2    3    3    0    0  0.91777404634E-01  0.45699205385E-01  0.76539126660E-01  0.12947749132E+00  0.19866390547E-01 0.  0.
         14    1    1    2    0    0 -0.16814213708E-01 -0.43471158292E-02  0.18296226018E-01  0.25226317312E-01  0.00000000000E+00 0. -1.
     999901    1    3    3    0    0 -0.74963190927E-01 -0.41352089556E-01 -0.94835352678E-01  0.88922619137E+00  0.88000000000E+00 0. -1.
        -11    1    4    4    0    0  0.55449213612E-01  0.38030812782E-01  0.47187772401E-01  0.82145632849E-01  0.51100000000E-03 0.  1.
         11    1    4    4    0    0  0.36328191023E-01  0.76683926030E-02  0.29351354259E-01  0.47331858467E-01  0.51100000000E-03 0. -1.
</event>
<event>
 8    1  0.1202249E+005  0.1043930E+01  0.7957747E-01            NaN
         13   -1    0    0    0    0  0.00000000000E+00  0.00000000000E+00  0.74505805969E-08  0.10566000000E+00  0.10566000000E+00 0.  1.
     999900   -1    0    0    0    0 -0.00000000000E+00 -0.00000000000E+00 -0.74505805969E-08  0.93827000000E+00  0.93827000000E+00 0.  1.
     999902    2    1    2    0    0 -0.14409586272E-01  0.29153484151E-02  0.17719782571E-01  0.10209055320E+01  0.10206458637E+01 0.  0.
     999903    2    3    3    0    0 -0.80184746263E-01 -0.91592550736E-01  0.49287194458E-01  0.13284325029E+00  0.19982810799E-01 0.  0.
         14    1    1    2    0    0  0.14409586272E-01 -0.29153484151E-02 -0.17719782571E-01  0.23024468013E-01  0.00000000000E+00 0. -1.
     999901    1    3    3    0    0  0.65775159990E-01  0.94507899151E-01 -0.31567411886E-01  0.88806228169E+00  0.88000000000E+00 0. -1.
        -11    1    4    4    0    0 -0.40546159617E-01 -0.58643716587E-01  0.34569063539E-01  0.79236089188E-01  0.51100000000E-03 0.  1.
         11    1    4    4    0    0 -0.39638586646E-01 -0.32948834149E-01  0.14718130919E-01  0.53607161105E-01  0.51100000000E-03 0. -1.
</event>
<event>
 8    1  0.1202249E+005  0.1043930E+01  0.7957747E-01            NaN
         13   -1    0    0    0    0  0.00000000000E+00  0.00000000000E+00  0.74505805969E-08  0.10566000000E+00  0.10566000000E+00 0. -1.
     999900   -1    0    0    0    0 -0.00000000000E+00 -0.00000000000E+00 -0.74505805969E-08  0.93827000000E+00  0.93827000000E+00 0.  1.
     999902    2    1    2    0    0 -0.12005509186E-01  0.62256830321E-02 -0.18991086235E-01  0.10206157825E+01  0.10203494611E+01 0.  0.
     999903    2    3    3    0    0  0.36923244144E-01 -0.12191973707E+00  0.10483591403E-01  0.12950185703E+00  0.20810503085E-01 0.  0.
         14    1    1    2    0    0  0.12005509186E-01 -0.62256830321E-02  0.18991086235E-01  0.23314217474E-01  0.00000000000E+00 0. -1.
     999901    1    3    3    0    0 -0.48928753331E-01  0.12814542011E+00 -0.29474677638E-01  0.89111392550E+00  0.88000000000E+00 0. -1.
        -11    1    4    4    0    0  0.12035400665E-01 -0.15968042831E-01  0.44914466927E-02  0.20500328666E-01  0.51100000000E-03 0.  1.
         11    1    4    4    0    0  0.24887843479E-01 -0.10595169424E+00  0.59921447105E-02  0.10900152836E+00  0.51100000000E-03 0. -1.
</event>
<event>
 7    1  0.2094632E+005  0.1043930E+01  0.7957747E-01            NaN
         13   -1    0    0    0    0  0.00000000000E+00  0.00000000000E+00  0.74505805969E-08  0.10566000000E+00  0.10566000000E+00 0. -1.
     999900   -1    0    0    0    0 -0.00000000000E+00 -0.00000000000E+00 -0.74505805969E-08  0.93827000000E+00  0.93827000000E+00 0. -1.
     999903    2    1    2    0    0  0.11545857712E-01 -0.76647102249E-01  0.54254352630E-01  0.96835658715E-01  0.20628255045E-01 0.  0.
         14    1    1    2    0    0 -0.58588450942E-03  0.35504824530E-01  0.48481881382E-01  0.60095163265E-01  0.00000000000E+00 0. -1.
     999901    1    1    2    0    0 -0.10959973203E-01  0.41142277718E-01 -0.10273623401E+00  0.88699917802E+00  0.88000000000E+00 0. -1.
        -11    1    3    3    0    0  0.72784548345E-02 -0.38624772112E-01  0.39781373764E-01  0.55925555384E-01  0.51100000000E-03 0.  1.
         11    1    3    3    0    0  0.42674028774E-02 -0.38022330136E-01  0.14472978866E-01  0.40910103331E-01  0.51100000000E-03 0. -1.
</event>
<event>
 8    1  0.1202249E+005  0.1043930E+01  0.7957747E-01            NaN
         13   -1    0    0    0    0  0.00000000000E+00  0.00000000000E+00  0.74505805969E-08  0.10566000000E+00  0.10566000000E+00 0.  1.
     999900   -1    0    0    0    0 -0.00000000000E+00 -0.00000000000E+00 -0.74505805969E-08  0.93827000000E+00  0.93827000000E+00 0. -1.
     999902    2    1    2    0    0  0.12651512458E-01 -0.17189610974E-02  0.18607193135E-01  0.10213635818E+01  0.10211142556E+01 0.  0.
     999903    2    3    3    0    0  0.64477575958E-01  0.11248877590E+00  0.18401087665E-01  0.13247135517E+00  0.19974418903E-01 0.  0.
         14    1    1    2    0    0 -0.12651512458E-01  0.17189610974E-02 -0.18607193135E-01  0.22566418216E-01  0.00000000000E+00 0. -1.
     999901    1    3    3    0    0 -0.51826063501E-01 -0.11420773699E+00  0.20610546999E-03  0.88889222661E+00  0.88000000000E+00 0. -1.
        -11    1    4    4    0    0  0.41768416949E-01  0.58969387838E-01  0.30072929843E-02  0.72327686874E-01  0.51100000000E-03 0.  1.
         11    1    4    4    0    0  0.22709159009E-01  0.53519388058E-01  0.15393794681E-01  0.60143668301E-01  0.51100000000E-03 0. -1.
</event>
<event>
 8    1  0.1202249E+005  0.1043930E+01  0.7957747E-01            NaN
         13   -1    0    0    0    0  0.00000000000E+00  0.00000000000E+00  0.74505805969E-08  0.10566000000E+00  0.10566000000E+00 0.  1.
     999900   -1    0    0    0    0 -0.00000000000E+00 -0.00000000000E+00 -0.74505805969E-08  0.93827000000E+00  0.93827000000E+00 0. -1.
     999902    2    1    2    0    0  0.13336228615E-01  0.19029203174E-01 -0.60726050250E-02  0.10199124627E+01  0.10196296335E+01 0.  0.
     999903    2    3    3    0    0  0.12811968191E+00  0.16693925839E-01  0.16573863398E-01  0.13216612661E+00  0.22357370686E-01 0.  0.
         14    1    1    2    0    0 -0.13336228615E-01 -0.19029203174E-01  0.60726050250E-02  0.24017537320E-01  0.00000000000E+00 0.  1.
     999901    1    3    3    0    0 -0.11478345329E+00  0.23352773344E-02 -0.22646468423E-01  0.88774633607E+00  0.88000000000E+00 0.  1.
        -11    1    4    4    0    0  0.11414714827E+00  0.95402325196E-02  0.19488493772E-01  0.11619229753E+00  0.51100000000E-03 0.  1.
         11    1    4    4    0    0  0.13972533633E-01  0.71536933199E-02 -0.29146303734E-02  0.15973829079E-01  0.51100000000E-03 0. -1.
</event>
<event>
 8    1  0.1202249E+005  0.1043930E+01  0.7957747E-01            NaN
         13   -1    0    0    0    0  0.00000000000E+00  0.00000000000E+00  0.74505805969E-08  0.10566000000E+00  0.10566000000E+00 0. -1.
     999900   -1    0    0    0    0 -0.00000000000E+00 -0.00000000000E+00 -0.74505805969E-08  0.93827000000E+00  0.93827000000E+00 0. -1.
     999902    2    1    2    0    0 -0.10065170667E-01 -0.11341955018E-01  0.14540629687E-01  0.10229210134E+01  0.10227052470E+01 0.  0.
     999903    2    3    3    0    0 -0.54109477374E-02  0.11439694634E+00 -0.62537256397E-01  0.13063578236E+00  0.62337394126E-02 0.  0.
         14    1    1    2    0    0  0.10065170667E-01  0.11341955018E-01 -0.14540629687E-01  0.21008986550E-01  0.00000000000E+00 0.  1.
     999901    1    3    3    0    0 -0.46542229297E-02 -0.12573890136E+00  0.77077886083E-01  0.89228523109E+00  0.88000000000E+00 0.  1.
        -11    1    4    4    0    0 -0.38661416764E-02  0.86769555662E-01 -0.50352709284E-01  0.10039700839E+00  0.51100000000E-03 0.  1.
         11    1    4    4    0    0 -0.15448060610E-02  0.27627390677E-01 -0.12184547113E-01  0.30238773962E-01  0.51100000000E-03 0. -1.
</event>
<event>
 8    1  0.1202249E+005  0.1043930E+01  0.7957747E-01            NaN
         13   -1    0    0    0    0  0.00000000000E+00  0.00000000000E+00  0.74505805969E-08  0.10566000000E+00  0.10566000000E+00 0. -1.
     999900   -1    0    0    0    0 -0.00000000000E+00 -0.00000000000E+00 -0.74505805969E-08  0.93827000000E+00  0.93827000000E+00 0. -1.
     999902    2    1    2    0    0  0.28579442468E-03  0.19599350104E-02 -0.23694489096E-01  0.10201528716E+01  0.10198757422E+01 0.  0.
     999903    2    3    3    0    0 -0.12771337958E+00 -0.13956655168E-01 -0.20817909136E-01  0.13074554018E+00  0.12470580928E-01 0.  0.
         14    1    1    2    0    0 -0.28579442468E-03 -0.19599350104E-02  0.23694489096E-01  0.23777128447E-01  0.00000000000E+00 0. -1.
     999901    1    3    3    0    0  0.12799917400E+00  0.15916590178E-01 -0.28765799600E-02  0.88940733137E+00  0.88000000000E+00 0. -1.
        -11    1    4    4    0    0 -0.47620536235E-01 -0.43880406625E-03 -0.11429568697E-01  0.48977588567E-01  0.51100000000E-03 0.  1.
         11    1    4    4    0    0 -0.80092843346E-01 -0.13517851101E-01 -0.93883404389E-02  0.81767951612E-01  0.51100000000E-03 0. -1.
</event>
<event>
 8    1  0.1202249E+005  0.1043930E+01  0.7957747E-01            NaN
         13   -1    0    0    0    0  0.00000000000E+00  0.00000000000E+00  0.74505805969E-08  0.10566000000E+00  0.10566000000E+00 0.  1.
     999900   -1    0    0    0    0 -0.00000000000E+00 -0.00000000000E+00 -0.74505805969E-08  0.93827000000E+00  0.93827000000E+00 0. -1.
     999902    2    1    2    0    0  0.19562354761E-01  0.11470274205E-01  0.46366170093E-02  0.10207837016E+01  0.10205212463E+01 0.  0.
     999903    2    3    3    0    0 -0.47844827488E-01  0.29431457030E-01 -0.11517481742E+00  0.12992955405E+00  0.21473524817E-01 0.  0.
         14    1    1    2    0    0 -0.19562354761E-01 -0.11470274205E-01 -0.46366170093E-02  0.23146298439E-01  0.00000000000E+00 0. -1.
     999901    1    3    3    0    0  0.67407182249E-01 -0.17961182825E-01  0.11981143443E+00  0.89085414751E+00  0.88000000000E+00 0.  1.
        -11    1    4    4    0    0 -0.15626474717E-01  0.21936339531E-01 -0.47695704152E-01  0.54777103060E-01  0.51100000000E-03 0.  1.
         11    1    4    4    0    0 -0.32218352771E-01  0.74951174990E-02 -0.67479113272E-01  0.75152450995E-01  0.51100000000E-03 0. -1.
</event>
<event>
 8    1  0.1202249E+005  0.1043930E+01  0.7957747E-01            NaN
         13   -1    0    0    0    0  0.00000000000E+00  0.00000000000E+00  0.74505805969E-08  0.10566000000E+00  0.10566000000E+00 0.  1.
     999900   -1    0    0    0    0 -0.00000000000E+00 -0.00000000000E+00 -0.74505805969E-08  0.93827000000E+00  0.93827000000E+00 0.  1.
     999902    2    1    2    0    0 -0.68637983441E-02  0.17158851405E-01  0.14353721537E-01  0.10205298455E+01  0.10202615343E+01 0.  0.
     999903    2    3    3    0    0  0.12941673830E-01 -0.35100753673E-02 -0.12660352460E+00  0.12885254596E+00  0.19867526444E-01 0.  0.
         14    1    1    2    0    0  0.68637983441E-02 -0.17158851405E-01 -0.14353721537E-01  0.23400154512E-01  0.00000000000E+00 0. -1.
     999901    1    3    3    0    0 -0.19805472174E-01  0.20668926772E-01  0.14095724614E+00  0.89167729953E+00  0.88000000000E+00 0. -1.
        -11    1    4    4    0    0  0.65525869071E-02  0.82080043998E-02 -0.50060146318E-01  0.51152586462E-01  0.51100000000E-03 0.  1.
         11    1    4    4    0    0  0.63890869231E-02 -0.11718079767E-01 -0.76543378284E-01  0.77699959493E-01  0.51100000000E-03 0. -1.
</event>
<event>
 8    1  0.1202249E+005  0.1043930E+01  0.7957747E-01            NaN
         13   -1    0    0    0    0  0.00000000000E+00  0.00000000000E+00  0.74505805969E-08  0.10566000000E+00  0.10566000000E+00 0. -1.
     999900   -1    0    0    0    0 -0.00000000000E+00 -0.00000000000E+00 -0.74505805969E-08  0.93827000000E+00  0.93827000000E+00 0.  1.
     999902    2    1    2    0    0  0.36811118798E-02 -0.16747556139E-01 -0.16434444615E-01  0.10201787434E+01  0.10199022239E+01 0.  0.
     999903    2    3    3    0    0 -0.10240048175E+00 -0.31641953855E-02  0.75723052271E-01  0.12892635689E+00  0.19802880056E-01 0.  0.
         14    1    1    2    0    0 -0.36811118798E-02  0.16747556139E-01  0.16434444615E-01  0.23751256622E-01  0.00000000000E+00 0. -1.
     999901    1    3    3    0    0  0.10608159363E+00 -0.13583360754E-01 -0.92157496887E-01  0.89125238649E+00  0.88000000000E+00 0.  1.
        -11    1    4    4    0    0 -0.71683176436E-01  0.68385725969E-02  0.53601382286E-01  0.89769778673E-01  0.51100000000E-03 0.  1.
         11    1    4    4    0    0 -0.30717305318E-01 -0.10002767982E-01  0.22121669986E-01  0.39156578212E-01  0.51100000000E-03 0. -1.
</event>
<event>
 8    1  0.1202249E+005  0.1043930E+01  0.7957747E-01            NaN
         13   -1    0    0    0    0  0.00000000000E+00  0.00000000000E+00  0.74505805969E-08  0.10566000000E+00  0.10566000000E+00 0. -1.
     999900   -1    0    0    0    0 -0.00000000000E+00 -0.00000000000E+00 -0.74505805969E-08  0.93827000000E+00  0.93827000000E+00 0. -1.
     999902    2    1    2    0    0  0.18137157884E-01 -0.97979493385E-02 -0.12570066428E-01  0.10197853758E+01  0.10194995095E+01 0.  0.
     999903    2    3    3    0    0  0.29961611638E-01  0.79905347206E-01  0.94231212980E-01  0.12872252034E+00  0.20184227956E-01 0.  0.
         14    1    1    2    0    0 -0.18137157884E-01  0.97979493385E-02  0.12570066428E-01  0.24144624192E-01  0.00000000000E+00 0. -1.
     999901    1    3    3    0    0 -0.11824453754E-01 -0.89703296544E-01 -0.10680127941E+00  0.89106285547E+00  0.88000000000E+00 0. -1.
        -11    1    4    4    0    0  0.19418828379E-01  0.24446687787E-01  0.34639957290E-01  0.46636029006E-01  0.51100000000E-03 0. -1.
         11    1    4    4    0    0  0.10542783259E-01  0.55458659418E-01  0.59591255690E-01  0.82086491331E-01  0.51100000000E-03 0.  1.
</event>
<event>
 8    1  0.1202249E+005  0.1043930E+01  0.7957747E-01            NaN
         13   -1    0    0    0    0  0.00000000000E+00  0.00000000000E+00  0.74505805969E-08  0.10566000000E+00  0.10566000000E+00 0. -1.
     999900   -1    0    0    0    0 -0.00000000000E+00 -0.00000000000E+00 -0.74505805969E-08  0.93827000000E+00  0.93827000000E+00 0.  1.
     999902    2    1    2    0    0 -0.17146601868E-01 -0.17253716921E-01 -0.21219843506E-03  0.10196042578E+01  0.10193140345E+01 0.  0.
     999903    2    3    3    0    0 -0.87649799440E-01 -0.95587755572E-01  0.21529281339E-01  0.13304934447E+00  0.20472219056E-01 0.  0.
         14    1    1    2    0    0  0.17146601868E-01  0.17253716921E-01  0.21219843506E-03  0.24325742155E-01  0.00000000000E+00 0. -1.
     999901    1    3    3    0    0  0.70503197572E-01  0.78334038651E-01 -0.21741479774E-01  0.88655491337E+00  0.88000000000E+00 0.  1.
        -11    1    4    4    0    0 -0.55130862029E-01 -0.55514716186E-01  0.22563766008E-01  0.81428989425E-01  0.51100000000E-03 0.  1.
         11    1    4    4    0    0 -0.32518937411E-01 -0.40073039386E-01 -0.10344846692E-02  0.51620355050E-01  0.51100000000E-03 0. -1.
</event>
<event>
 8    1  0.1202249E+005  0.1043930E+01  0.7957747E-01            NaN
         13   -1    0    0    0    0  0.00000000000E+00  0.00000000000E+00  0.74505805969E-08  0.10566000000E+00  0.10566000000E+00 0. -1.
     999900   -1    0    0    0    0 -0.00000000000E+00 -0.00000000000E+00 -0.74505805969E-08  0.93827000000E+00  0.93827000000E+00 0.  1.
     999902    2    1    2    0    0 -0.40067793370E-02  0.17044090016E-03  0.23553648659E-01  0.10200373715E+01  0.10197575112E+01 0.  0.
     999903    2    3    3    0    0  0.11651852178E+00  0.22174629202E-01  0.51925751050E-01  0.13109670493E+00  0.20537339734E-01 0.  0.
         14    1    1    2    0    0  0.40067793370E-02 -0.17044090016E-03 -0.23553648659E-01  0.23892628485E-01  0.00000000000E+00 0.  1.
     999901    1    3    3    0    0 -0.12052530112E+00 -0.22004188301E-01 -0.28372102390E-01  0.88894066658E+00  0.88000000000E+00 0.  1.
        -11    1    4    4    0    0  0.15073438398E-01  0.92501976823E-02  0.11656884226E-01  0.21187703348E-01  0.51100000000E-03 0. -1.
         11    1    4    4    0    0  0.10144508338E+00  0.12924431519E-01  0.40268866824E-01  0.10990900158E+00  0.51100000000E-03 0.  1.
</event>
<event>
 8    1  0.1202249E+005  0.1043930E+01  0.7957747E-01            NaN
         13   -1    0    0    0    0  0.00000000000E+00  0.00000000000E+00  0.74505805969E-08  0.10566000000E+00  0.10566000000E+00 0. -1.
     999900   -1    0    0    0    0 -0.00000000000E+00 -0.00000000000E+00 -0.74505805969E-08  0.93827000000E+00  0.93827000000E+00 0.  1.
     999902    2    1    2    0    0 -0.24505250490E-01  0.12603411059E-01  0.68802730382E-02  0.10155276862E+01  0.10151304301E+01 0.  0.
     999903    2    3    3    0    0  0.95540323558E-01 -0.64376650206E-01 -0.38198302114E-01  0.12290853583E+00  0.19367275944E-01 0.  0.
         14    1    1    2    0    0  0.24505250490E-01 -0.12603411059E-01 -0.68802730382E-02  0.28402313796E-01  0.00000000000E+00 0. -1.
     999901    1    3    3    0    0 -0.12004557405E+00  0.76980061265E-01  0.45078575152E-01  0.89261915038E+00  0.88000000000E+00 0.  1.
        -11    1    4    4    0    0  0.79319735579E-01 -0.43974336356E-01 -0.31262433605E-01  0.95932077984E-01  0.51100000000E-03 0.  1.
         11    1    4    4    0    0  0.16220587979E-01 -0.20402313851E-01 -0.69358685086E-02  0.26976457844E-01  0.51100000000E-03 0. -1.
</event>
<event>
 8    1  0.1202249E+005  0.1043930E+01  0.7957747E-01            NaN
         13   -1    0    0    0    0  0.00000000000E+00  0.00000000000E+00  0.74505805969E-08  0.10566000000E+00  0.10566000000E+00 0.  1.
     999900   -1    0    0    0    0 -0.00000000000E+00 -0.00000000000E+00 -0.74505805969E-08  0.93827000000E+00  0.93827000000E+00 0. -1.
     999902    2    1    2    0    0  0.11217399387E-01 -0.16383786163E-01  0.12535428522E-01  0.10204481886E+01  0.10201779797E+01 0.  0.
     999903    2    3    3    0    0 -0.73642311171E-01 -0.10001216053E+00 -0.35698685762E-01  0.13111056697E+00  0.22135093358E-01 0.  0.
         14    1    1    2    0    0 -0.11217399387E-01  0.16383786163E-01 -0.12535428522E-01  0.23481811392E-01  0.00000000000E+00 0. -1.
     999901    1    3    3    0    0  0.84859710558E-01  0.83628374368E-01  0.48234114284E-01  0.88933762164E+00  0.88000000000E+00 0.  1.
        -11    1    4    4    0    0 -0.67257751998E-01 -0.77510207950E-01 -0.26668555172E-01  0.10603259167E+00  0.51100000000E-03 0.  1.
         11    1    4    4    0    0 -0.63845591733E-02 -0.22501952581E-01 -0.90301305904E-02  0.25077975303E-01  0.51100000000E-03 0. -1.
</event>
<event>
 8    1  0.1202249E+005  0.1043930E+01  0.7957747E-01            NaN
         13   -1    0    0    0    0  0.00000000000E+00  0.00000000000E+00  0.74505805969E-08  0.10566000000E+00  0.10566000000E+00 0.  1.
     999900   -1    0    0    0    0 -0.00000000000E+00 -0.00000000000E+00 -0.74505805969E-08  0.93827000000E+00  0.93827000000E+00 0. -1.
     999902    2    1    2    0    0  0.26207799391E-02 -0.12979164576E-01  0.18618279739E-01  0.10210833910E+01  0.10208277641E+01 0.  0.
     999903    2    3    3    0    0  0.41523086036E-01  0.78567112586E-02 -0.12030234884E+00  0.12909322058E+00  0.20162090115E-01 0.  0.
         14    1    1    2    0    0 -0.26207799391E-02  0.12979164576E-01 -0.18618279739E-01  0.22846608961E-01  0.00000000000E+00 0. -1.
     999901    1    3    3    0    0 -0.38902306097E-01 -0.20835875835E-01  0.13892062858E+00  0.89199017045E+00  0.88000000000E+00 0.  1.
        -11    1    4    4    0    0  0.23848317079E-01 -0.53893888878E-02 -0.70139820972E-01  0.74280841050E-01  0.51100000000E-03 0. -1.
         11    1    4    4    0    0  0.17674768957E-01  0.13246100146E-01 -0.50162527871E-01  0.54812379534E-01  0.51100000000E-03 0.  1.
</event>
<event>
 8    1  0.1202249E+005  0.1043930E+01  0.7957747E-01            NaN
         13   -1    0    0    0    0  0.00000000000E+00  0.00000000000E+00  0.74505805969E-08  0.10566000000E+00  0.10566000000E+00 0.  1.
     999900   -1    0    0    0    0 -0.00000000000E+00 -0.00000000000E+00 -0.74505805969E-08  0.93827000000E+00  0.93827000000E+00 0. -1.
     999902    2    1    2    0    0 -0.20817681192E-01 -0.14716689025E-01 -0.89798160391E-02  0.10169004998E+01  0.10165412105E+01 0.  0.
     999903    2    3    3    0    0  0.36063198212E-01  0.11707438309E+00  0.15012746006E-01  0.12494760631E+00  0.19482205732E-01 0.  0.
         14    1    1    2    0    0  0.20817681192E-01  0.14716689025E-01  0.89798160391E-02  0.27029500220E-01  0.00000000000E+00 0.  1.
     999901    1    3    3    0    0 -0.56880879403E-01 -0.13179107211E+00 -0.23992562045E-01  0.89195289347E+00  0.88000000000E+00 0.  1.
        -11    1    4    4    0    0 -0.52954418888E-03  0.13565571826E-01  0.58068705561E-02  0.14774505835E-01  0.51100000000E-03 0. -1.
         11    1    4    4    0    0  0.36592742401E-01  0.10350881126E+00  0.92058754501E-02  0.11017310048E+00  0.51100000000E-03 0.  1.
</event>
<event>
 8    1  0.1202249E+005  0.1043930E+01  0.7957747E-01            NaN
         13   -1    0    0    0    0  0.00000000000E+00  0.00000000000E+00  0.74505805969E-08  0.10566000000E+00  0.10566000000E+00 0. -1.
     999900   -1    0    0    0    0 -0.00000000000E+00 -0.00000000000E+00 -0.74505805969E-08  0.93827000000E+00  0.93827000000E+00 0. -1.
     999902    2    1    2    0    0  0.14333061014E-01 -0.99226131378E-02  0.17707837092E-01  0.10190812096E+01  0.10187782140E+01 0.  0.
     999903    2    3    3    0    0 -0.77973870426E-01  0.40781092301E-01 -0.88569672314E-01  0.12645231452E+00  0.20064372294E-01 0.  0.
         14    1    1    2    0    0 -0.14333061014E-01  0.99226131378E-02 -0.17707837092E-01  0.24848790393E-01  0.00000000000E+00 0. -1.
     999901    1    3    3    0    0  0.92306931440E-01 -0.50703705439E-01  0.10627750941E+00  0.89262889509E+00  0.88000000000E+00 0.  1.
        -11    1    4    4    0    0 -0.34794944513E-01  0.19603116206E-01 -0.26510718437E-01  0.47937977029E-01  0.51100000000E-03 0. -1.
         11    1    4    4    0    0 -0.43178925913E-01  0.21177976095E-01 -0.62058953877E-01  0.78514337492E-01  0.51100000000E-03 0.  1.
</event>
<event>
 8    1  0.1202249E+005  0.1043930E+01  0.7957747E-01            NaN
         13   -1    0    0    0    0  0.00000000000E+00  0.00000000000E+00  0.74505805969E-08  0.10566000000E+00  0.10566000000E+00 0.  1.
     999900   -1    0    0    0    0 -0.00000000000E+00 -0.00000000000E+00 -0.74505805969E-08  0.93827000000E+00  0.93827000000E+00 0. -1.
     999902    2    1    2    0    0  0.10106558293E-01  0.15969743012E-01  0.13546656207E-01  0.10206773204E+01  0.10204124192E+01 0.  0.
     999903    2    3    3    0    0  0.13918181751E-01 -0.46234152202E-01 -0.11539751331E+00  0.12909981292E+00  0.31919633531E-01 0.  0.
         14    1    1    2    0    0 -0.10106558293E-01 -0.15969743012E-01 -0.13546656207E-01  0.23252679561E-01  0.00000000000E+00 0. -1.
     999901    1    3    3    0    0 -0.38116234583E-02  0.62203895214E-01  0.12894416952E+00  0.89157750751E+00  0.88000000000E+00 0.  1.
        -11    1    4    4    0    0 -0.52568638048E-02 -0.20009793642E-01 -0.71825047967E-01  0.74747074158E-01  0.51100000000E-03 0. -1.
         11    1    4    4    0    0  0.19175045556E-01 -0.26224358560E-01 -0.43572465347E-01  0.54352738766E-01  0.51100000000E-03 0.  1.
</event>
<event>
 8    1  0.1202249E+005  0.1043930E+01  0.7957747E-01            NaN
         13   -1    0    0    0    0  0.00000000000E+00  0.00000000000E+00  0.74505805969E-08  0.10566000000E+00  0.10566000000E+00 0.  1.
     999900   -1    0    0    0    0 -0.00000000000E+00 -0.00000000000E+00 -0.74505805969E-08  0.93827000000E+00  0.93827000000E+00 0.  1.
     999902    2    1    2    0    0 -0.26479392250E-01 -0.11792343021E-01  0.65871123259E-02  0.10142044619E+01  0.10137687522E+01 0.  0.
     999903    2    3    3    0    0 -0.10249397509E+00  0.40801880088E-01  0.61217137549E-01  0.12767820239E+00  0.19605537150E-01 0.  0.
         14    1    1    2    0    0  0.26479392250E-01  0.11792343021E-01 -0.65871123259E-02  0.29725538122E-01  0.00000000000E+00 0. -1.
     999901    1    3    3    0    0  0.76014582840E-01 -0.52594223109E-01 -0.54630025223E-01  0.88652625949E+00  0.88000000000E+00 0.  1.
        -11    1    4    4    0    0 -0.57257285561E-01  0.25240728798E-01  0.45325503305E-01  0.77266768477E-01  0.51100000000E-03 0.  1.
         11    1    4    4    0    0 -0.45236689529E-01  0.15561151290E-01  0.15891634243E-01  0.50411433911E-01  0.51100000000E-03 0. -1.
</event>
<event>
 8    1  0.1202249E+005  0.1043930E+01  0.7957747E-01            NaN
         13   -1    0    0    0    0  0.00000000000E+00  0.00000000000E+00  0.74505805969E-08  0.10566000000E+00  0.10566000000E+00 0.  1.
     999900   -1    0    0    0    0 -0.00000000000E+00 -0.00000000000E+00 -0.74505805969E-08  0.93827000000E+00  0.93827000000E+00 0.  1.
     999902    2    1    2    0    0 -0.68655426776E-02  0.15984739130E-01  0.78928142621E-02  0.10248264904E+01  0.10246484233E+01 0.  0.
     999903    2    3    3    0    0 -0.99742980344E-01 -0.64107361511E-01 -0.58839709357E-01  0.13381908713E+00  0.19672843069E-01 0.  0.
         14    1    1    2    0    0  0.68655426776E-02 -0.15984739130E-01 -0.78928142621E-02  0.19103509581E-01  0.00000000000E+00 0. -1.
     999901    1    3    3    0    0  0.92877437667E-01  0.80092100641E-01  0.66732523619E-01  0.89100740329E+00  0.88000000000E+00 0. -1.
        -11    1    4    4    0    0 -0.35011428987E-01 -0.11799243808E-01 -0.17172008344E-01  0.40745077073E-01  0.51100000000E-03 0. -1.
         11    1    4    4    0    0 -0.64731551358E-01 -0.52308117703E-01 -0.41667701013E-01  0.93074010054E-01  0.51100000000E-03 0.  1.
</event>
<event>
 8    1  0.1202249E+005  0.1043930E+01  0.7957747E-01            NaN
         13   -1    0    0    0    0  0.00000000000E+00  0.00000000000E+00  0.74505805969E-08  0.10566000000E+00  0.10566000000E+00 0.  1.
     999900   -1    0    0    0    0 -0.00000000000E+00 -0.00000000000E+00 -0.74505805969E-08  0.93827000000E+00  0.93827000000E+00 0.  1.
     999902    2    1    2    0    0  0.14073713233E-01 -0.19136817732E-01 -0.63910759842E-02  0.10193305478E+01  0.10190336759E+01 0.  0.
     999903    2    3    3    0    0  0.65046938783E-01 -0.82044033686E-01 -0.78865293101E-01  0.13264678246E+00  0.20325027250E-01 0.  0.
         14    1    1    2    0    0 -0.14073713233E-01  0.19136817732E-01  0.63910759842E-02  0.24599452215E-01  0.00000000000E+00 0.  1.
     999901    1    3    3    0    0 -0.50973225550E-01  0.62907215954E-01  0.72474217117E-01  0.88668376532E+00  0.88000000000E+00 0. -1.
        -11    1    4    4    0    0  0.38499543475E-01 -0.63398061415E-01 -0.56448213340E-01  0.93210465879E-01  0.51100000000E-03 0. -1.
         11    1    4    4    0    0  0.26547395308E-01 -0.18645972271E-01 -0.22417079761E-01  0.39436316582E-01  0.51100000000E-03 0.  1.
</event>
<event>
 8    1  0.1202249E+005  0.1043930E+01  0.7957747E-01            NaN
         13   -1    0    0    0    0  0.00000000000E+00  0.00000000000E+00  0.74505805969E-08  0.10566000000E+00  0.10566000000E+00 0. -1.
     999900   -1    0    0    0    0 -0.00000000000E+00 -0.00000000000E+00 -0.74505805969E-08  0.93827000000E+00  0.93827000000E+00 0. -1.
     999902    2    1    2    0    0  0.20296983054E-01  0.32686240687E-02 -0.14687293033E-01  0.10186640545E+01  0.10183506704E+01 0.  0.
     999903    2    3    3    0    0 -0.78555801014E-01 -0.69400911018E-01 -0.70940150488E-01  0.12837358607E+00  0.21442302228E-01 0.  0.
         14    1    1    2    0    0 -0.20296983054E-01 -0.32686240687E-02  0.14687293033E-01  0.25265945481E-01  0.00000000000E+00 0. -1.
     999901    1    3    3    0    0  0.98852784069E-01  0.72669535087E-01  0.56252857456E-01  0.89029046845E+00  0.88000000000E+00 0. -1.
        -11    1    4    4    0    0 -0.71023682443E-01 -0.56713162320E-01 -0.67502315090E-01  0.11321470714E+00  0.51100000000E-03 0. -1.
         11    1    4    4    0    0 -0.75321185714E-02 -0.12687748698E-01 -0.34378353978E-02  0.15158878930E-01  0.51100000000E-03 0.  1.
</event>
<event>
 8    1  0.1202249E+005  0.1043930E+01  0.7957747E-01            NaN
         13   -1    0    0    0    0  0.00000000000E+00  0.00000000000E+00  0.74505805969E-08  0.10566000000E+00  0.10566000000E+00 0.  1.
     999900   -1    0    0    0    0 -0.00000000000E+00 -0.00000000000E+00 -0.74505805969E-08  0.93827000000E+00  0.93827000000E+00 0.  1.
     999902    2    1    2    0    0  0.19448113913E-01  0.41302265554E-03  0.13161831438E-01  0.10204431201E+01  0.10201727931E+01 0.  0.
     999903    2    3    3    0    0 -0.21693035214E-01  0.98058432908E-01 -0.78960087472E-01  0.12931256384E+00  0.20024977175E-01 0.  0.
         14    1    1    2    0    0 -0.19448113913E-01 -0.41302265554E-03 -0.13161831438E-01  0.23486879940E-01  0.00000000000E+00 0. -1.
     999901    1    3    3    0    0  0.41141149127E-01 -0.97645410252E-01  0.92121918910E-01  0.89113055623E+00  0.88000000000E+00 0. -1.
        -11    1    4    4    0    0 -0.91344161476E-02  0.19402923581E-01 -0.25780599647E-01  0.33538208673E-01  0.51100000000E-03 0. -1.
         11    1    4    4    0    0 -0.12558619066E-01  0.78655509327E-01 -0.53179487825E-01  0.95774355162E-01  0.51100000000E-03 0.  1.
</event>
<event>
 8    1  0.1202249E+005  0.1043930E+01  0.7957747E-01            NaN
         13   -1    0    0    0    0  0.00000000000E+00  0.00000000000E+00  0.74505805969E-08  0.10566000000E+00  0.10566000000E+00 0.  1.
     999900   -1    0    0    0    0 -0.00000000000E+00 -0.00000000000E+00 -0.74505805969E-08  0.93827000000E+00  0.93827000000E+00 0.  1.
     999902    2    1    2    0    0 -0.75289256134E-02  0.10742995992E-01  0.20845154240E-01  0.10193004012E+01  0.10190027923E+01 0.  0.
     999903    2    3    3    0    0 -0.10440688010E+00  0.41544754544E-01  0.66874649746E-01  0.13225316406E+00  0.19796903323E-01 0.  0.
         14    1    1    2    0    0  0.75289256134E-02 -0.10742995992E-01 -0.20845154240E-01  0.24629598841E-01  0.00000000000E+00 0. -1.
     999901    1    3    3    0    0  0.96877954490E-01 -0.30801758552E-01 -0.46029495506E-01  0.88704723710E+00  0.88000000000E+00 0. -1.
        -11    1    4    4    0    0 -0.99459563581E-01  0.35716944712E-01  0.58075116010E-01  0.12058559262E+00  0.51100000000E-03 0.  1.
         11    1    4    4    0    0 -0.49473165216E-02  0.58278098321E-02  0.87995337357E-02  0.11667571434E-01  0.51100000000E-03 0. -1.
</event>
<event>
 8    1  0.1202249E+005  0.1043930E+01  0.7957747E-01            NaN
         13   -1    0    0    0    0  0.00000000000E+00  0.00000000000E+00  0.74505805969E-08  0.10566000000E+00  0.10566000000E+00 0.  1.
     999900   -1    0    0    0    0 -0.00000000000E+00 -0.00000000000E+00 -0.74505805969E-08  0.93827000000E+00  0.93827000000E+00 0.  1.
     999902    2    1    2    0    0  0.14135726257E-01 -0.16787448880E-01 -0.29947119024E-02  0.10217803838E+01  0.10215402818E+01 0.  0.
     999903    2    3    3    0    0  0.43397128026E-01 -0.12575986570E+00  0.40664582366E-02  0.13454812711E+00  0.19692838406E-01 0.  0.
         14    1    1    2    0    0 -0.14135726257E-01  0.16787448880E-01  0.29947119024E-02  0.22149616161E-01  0.00000000000E+00 0. -1.
     999901    1    3    3    0    0 -0.29261401769E-01  0.10897241682E+00 -0.70611701390E-02  0.88723225673E+00  0.88000000000E+00 0.  1.
        -11    1    4    4    0    0  0.12298816594E-01 -0.33513236187E-01  0.98234175976E-02  0.37029158020E-01  0.51100000000E-03 0. -1.
         11    1    4    4    0    0  0.31098311432E-01 -0.92246629510E-01 -0.57569593610E-02  0.97518969088E-01  0.51100000000E-03 0.  1.
</event>
<event>
 8    1  0.1202249E+005  0.1043930E+01  0.7957747E-01            NaN
         13   -1    0    0    0    0  0.00000000000E+00  0.00000000000E+00  0.74505805969E-08  0.10566000000E+00  0.10566000000E+00 0. -1.
     999900   -1    0    0    0    0 -0.00000000000E+00 -0.00000000000E+00 -0.74505805969E-08  0.93827000000E+00  0.93827000000E+00 0.  1.
     999902    2    1    2    0    0 -0.10658262182E-01 -0.15273814909E-02 -0.21317739659E-01  0.10200474233E+01  0.10197678011E+01 0.  0.
     999903    2    3    3    0    0 -0.65332383282E-01  0.10358617503E+00 -0.44377977868E-01  0.13180765054E+00  0.20135437863E-01 0.  0.
         14    1    1    2    0    0  0.10658262182E-01  0.15273814909E-02  0.21317739659E-01  0.23882576727E-01  0.00000000000E+00 0. -1.
     999901    1    3    3    0    0  0.54674121100E-01 -0.10511355652E+00  0.23060238209E-01  0.88823977274E+00  0.88000000000E+00 0.  1.
        -11    1    4    4    0    0 -0.55211833101E-02  0.16513314727E-01 -0.51926411234E-03  0.17427099145E-01  0.51100000000E-03 0.  1.
         11    1    4    4    0    0 -0.59811199972E-01  0.87072860303E-01 -0.43858713756E-01  0.11438055139E+00  0.51100000000E-03 0. -1.
</event>
<event>
 8    1  0.1269138E+005  0.1043930E+01  0.7957747E-01            NaN
         13   -1    0    0    0    0  0.00000000000E+00  0.00000000000E+00  0.74505805969E-08  0.10566000000E+00  0.10566000000E+00 0. -1.
     999900   -1    0    0    0    0 -0.00000000000E+00 -0.00000000000E+00 -0.74505805969E-08  0.93827000000E+00  0.93827000000E+00 0.  1.
     999902    2    1    2    0    0 -0.13354389966E-01  0.12393469825E-01  0.16763954306E-01  0.10191718096E+01  0.10188710466E+01 0.  0.
     999903    2    3    3    0    0 -0.76634607324E-01 -0.90927685064E-01 -0.45077655176E-01  0.12872022106E+00  0.19904606549E-01 0.  0.
         14    1    1    2    0    0  0.13354389966E-01 -0.12393469825E-01 -0.16763954306E-01  0.24758190355E-01  0.00000000000E+00 0.  1.
     999901    1    3    3    0    0  0.63280217358E-01  0.10332115489E+00  0.61841609482E-01  0.89045158859E+00  0.88000000000E+00 0. -1.
        -11    1    4    4    0    0 -0.23705413264E-01 -0.30724683147E-01 -0.51072393570E-02  0.39144575452E-01  0.51100000000E-03 0.  1.
         11    1    4    4    0    0 -0.52929194060E-01 -0.60203001917E-01 -0.39970415819E-01  0.89575645605E-01  0.51100000000E-03 0. -1.
</event>
<event>
 8    1  0.1202249E+005  0.1043930E+01  0.7957747E-01            NaN
         13   -1    0    0    0    0  0.00000000000E+00  0.00000000000E+00  0.74505805969E-08  0.10566000000E+00  0.10566000000E+00 0.  1.
     999900   -1    0    0    0    0 -0.00000000000E+00 -0.00000000000E+00 -0.74505805969E-08  0.93827000000E+00  0.93827000000E+00 0. -1.
     999902    2    1    2    0    0 -0.19715159351E-01  0.95186346304E-02 -0.83013939429E-02  0.10205162208E+01  0.10202475934E+01 0.  0.
     999903    2    3    3    0    0 -0.92714403890E-01 -0.81524138731E-01 -0.33485402712E-01  0.13245546245E+00  0.34366138180E-01 0.  0.
         14    1    1    2    0    0  0.19715159351E-01 -0.95186346304E-02  0.83013939429E-02  0.23413779166E-01  0.00000000000E+00 0. -1.
     999901    1    3    3    0    0  0.72999244539E-01  0.91042773361E-01  0.25184008769E-01  0.88806075838E+00  0.88000000000E+00 0. -1.
        -11    1    4    4    0    0 -0.15746409052E-01 -0.15490213318E-01 -0.20632680827E-01  0.30230195927E-01  0.51100000000E-03 0.  1.
         11    1    4    4    0    0 -0.76967994838E-01 -0.66033925413E-01 -0.12852721886E-01  0.10222526652E+00  0.51100000000E-03 0. -1.
</event>
<event>
 7    1  0.1202249E+005  0.1043930E+01  0.7957747E-01            NaN
         13   -1    0    0    0    0  0.00000000000E+00  0.00000000000E+00  0.74505805969E-08  0.10566000000E+00  0.10566000000E+00 0.  1.
     999900   -1    0    0    0    0 -0.00000000000E+00 -0.00000000000E+00 -0.74505805969E-08  0.93827000000E+00  0.93827000000E+00 0. -1.
     999903    2    1    2    0    0  0.18941548261E-01  0.40079698651E-01 -0.96506464920E-01  0.10826885221E+00  0.21059014542E-01 0.  0.
         14    1    1    2    0    0 -0.25014376483E-01 -0.40928716385E-01 -0.10662597650E-01  0.49138272705E-01  0.00000000000E+00 0. -1.
     999901    1    1    2    0    0  0.60728282220E-02  0.84901773393E-03  0.10716906257E+00  0.88652287508E+00  0.88000000000E+00 0.  1.
        -11    1    3    3    0    0  0.10389127312E-01  0.34533441633E-02 -0.15824053343E-01  0.19248930813E-01  0.51100000000E-03 0. -1.
         11    1    3    3    0    0  0.85524209491E-02  0.36626354488E-01 -0.80682411576E-01  0.89019921399E-01  0.51100000000E-03 0.  1.
</event>
<event>
 8    1  0.1202249E+005  0.1043930E+01  0.7957747E-01            NaN
         13   -1    0    0    0    0  0.00000000000E+00  0.00000000000E+00  0.74505805969E-08  0.10566000000E+00  0.10566000000E+00 0.  1.
     999900   -1    0    0    0    0 -0.00000000000E+00 -0.00000000000E+00 -0.74505805969E-08  0.93827000000E+00  0.93827000000E+00 0. -1.
     999902    2    1    2    0    0  0.26406169390E-01 -0.39768100363E-02 -0.74506211060E-02  0.10162061374E+01  0.10158278896E+01 0.  0.
     999903    2    3    3    0    0 -0.72478979331E-01 -0.91974957606E-01 -0.41353587341E-01  0.12566059805E+00  0.19179975131E-01 0.  0.
         14    1    1    2    0    0 -0.26406169390E-01  0.39768100363E-02  0.74506211060E-02  0.27723862552E-01  0.00000000000E+00 0.  1.
     999901    1    3    3    0    0  0.98885148722E-01  0.87998147570E-01  0.33902966235E-01  0.89054553939E+00  0.88000000000E+00 0. -1.
        -11    1    4    4    0    0 -0.57507675643E-01 -0.65674749619E-01 -0.38000631318E-01  0.95208269583E-01  0.51100000000E-03 0.  1.
         11    1    4    4    0    0 -0.14971303688E-01 -0.26300207987E-01 -0.33529560228E-02  0.30452328472E-01  0.51100000000E-03 0. -1.
</event>
<event>
 8    1  0.1202249E+005  0.1043930E+01  0.7957747E-01            NaN
         13   -1    0    0    0    0  0.00000000000E+00  0.00000000000E+00  0.74505805969E-08  0.10566000000E+00  0.10566000000E+00 0.  1.
     999900   -1    0    0    0    0 -0.00000000000E+00 -0.00000000000E+00 -0.74505805969E-08  0.93827000000E+00  0.93827000000E+00 0.  1.
     999902    2    1    2    0    0 -0.19661484327E-01  0.13896912759E-01  0.44693924676E-02  0.10194417657E+01  0.10191476046E+01 0.  0.
     999903    2    3    3    0    0  0.31786238089E-01  0.12153863603E+00 -0.30286204004E-01  0.13071145778E+00  0.19652634997E-01 0.  0.
         14    1    1    2    0    0  0.19661484327E-01 -0.13896912759E-01 -0.44693924676E-02  0.24488234301E-01  0.00000000000E+00 0. -1.
     999901    1    3    3    0    0 -0.51447722416E-01 -0.10764172327E+00  0.34755596471E-01  0.88873030792E+00  0.88000000000E+00 0.  1.
        -11    1    4    4    0    0  0.21881073589E-01  0.98285230521E-01 -0.16884607431E-01  0.10209857496E+00  0.51100000000E-03 0. -1.
         11    1    4    4    0    0  0.99051645009E-02  0.23253405507E-01 -0.13401596572E-01  0.28612882818E-01  0.51100000000E-03 0.  1.
</event>
<event>
 8    1  0.1202249E+005  0.1043930E+01  0.7957747E-01            NaN
         13   -1    0    0    0    0  0.00000000000E+00  0.00000000000E+00  0.74505805969E-08  0.10566000000E+00  0.10566000000E+00 0.  1.
     999900   -1    0    0    0    0 -0.00000000000E+00 -0.00000000000E+00 -0.74505805969E-08  0.93827000000E+00  0.93827000000E+00 0. -1.
     999902    2    1    2    0    0 -0.72580194428E-02  0.20813639490E-01 -0.95819690017E-02  0.10198945977E+01  0.10196113425E+01 0.  0.
     999903    2    3    3    0    0  0.19094268733E-01 -0.10767407670E+00  0.61086701645E-01  0.12737143421E+00  0.23099767206E-01 0.  0.
         14    1    1    2    0    0  0.72580194428E-02 -0.20813639490E-01  0.95819690017E-02  0.24035402326E-01  0.00000000000E+00 0. -1.
     999901    1    3    3    0    0 -0.26352288176E-01  0.12848771619E+00 -0.70668670647E-01  0.89252316346E+00  0.88000000000E+00 0. -1.
        -11    1    4    4    0    0  0.12357494743E-01 -0.73902573677E-01  0.53596470273E-01  0.92125679477E-01  0.51100000000E-03 0.  1.
         11    1    4    4    0    0  0.67367739898E-02 -0.33771503018E-01  0.74902313727E-02  0.35245754736E-01  0.51100000000E-03 0. -1.
</event>
<event>
 8    1  0.1202249E+005  0.1043930E+01  0.7957747E-01            NaN
         13   -1    0    0    0    0  0.00000000000E+00  0.00000000000E+00  0.74505805969E-08  0.10566000000E+00  0.10566000000E+00 0.  1.
     999900   -1    0    0    0    0 -0.00000000000E+00 -0.00000000000E+00 -0.74505805969E-08  0.93827000000E+00  0.93827000000E+00 0.  1.
     999902    2    1    2    0    0  0.13282561275E-01 -0.18405561926E-01  0.39924547450E-02  0.10208837240E+01  0.10206235579E+01 0.  0.
     999903    2    3    3    0    0 -0.56843829907E-01  0.76198212893E-01  0.85205474718E-01  0.12933274979E+00  0.20726760486E-01 0.  0.
         14    1    1    2    0    0 -0.13282561275E-01  0.18405561926E-01 -0.39924547450E-02  0.23046276027E-01  0.00000000000E+00 0. -1.
     999901    1    3    3    0    0  0.70126391182E-01 -0.94603774819E-01 -0.81213019973E-01  0.89155097418E+00  0.88000000000E+00 0.  1.
        -11    1    4    4    0    0 -0.19837216720E-01  0.43330651147E-01  0.45294146876E-01  0.65748622482E-01  0.51100000000E-03 0. -1.
         11    1    4    4    0    0 -0.37006613187E-01  0.32867561746E-01  0.39911327842E-01  0.63584127310E-01  0.51100000000E-03 0.  1.
</event>
<event>
 8    1  0.1202249E+005  0.1043930E+01  0.7957747E-01            NaN
         13   -1    0    0    0    0  0.00000000000E+00  0.00000000000E+00  0.74505805969E-08  0.10566000000E+00  0.10566000000E+00 0. -1.
     999900   -1    0    0    0    0 -0.00000000000E+00 -0.00000000000E+00 -0.74505805969E-08  0.93827000000E+00  0.93827000000E+00 0. -1.
     999902    2    1    2    0    0  0.15046256043E-01 -0.17940578640E-01  0.38060222497E-02  0.10202078587E+01  0.10199320247E+01 0.  0.
     999903    2    3    3    0    0 -0.11984015857E+00 -0.22815065205E-02  0.44511350704E-01  0.12886254112E+00  0.16044478329E-01 0.  0.
         14    1    1    2    0    0 -0.15046256043E-01  0.17940578640E-01 -0.38060222497E-02  0.23722141308E-01  0.00000000000E+00 0.  1.
     999901    1    3    3    0    0  0.13488641461E+00 -0.15659072120E-01 -0.40705328454E-01  0.89134531757E+00  0.88000000000E+00 0. -1.
        -11    1    4    4    0    0 -0.87190332701E-01 -0.15497216701E-03  0.24754634543E-01  0.90637912516E-01  0.51100000000E-03 0.  1.
         11    1    4    4    0    0 -0.32649825870E-01 -0.21265343535E-02  0.19756716160E-01  0.38224628607E-01  0.51100000000E-03 0. -1.
</event>
<event>
 7    1  0.1202249E+005  0.1043930E+01  0.7957747E-01            NaN
         13   -1    0    0    0    0  0.00000000000E+00  0.00000000000E+00  0.74505805969E-08  0.10566000000E+00  0.10566000000E+00 0.  1.
     999900   -1    0    0    0    0 -0.00000000000E+00 -0.00000000000E+00 -0.74505805969E-08  0.93827000000E+00  0.93827000000E+00 0.  1.
     999903    2    1    2    0    0 -0.87968682324E-01 -0.25946031169E-01 -0.29129223164E-01  0.98051127562E-01  0.18810273016E-01 0.  0.
         14    1    1    2    0    0  0.43517012915E-01 -0.25249271602E-01 -0.34462481018E-01  0.60982938003E-01  0.00000000000E+00 0. -1.
     999901    1    1    2    0    0  0.44451669408E-01  0.51195302771E-01  0.63591704182E-01  0.88489593444E+00  0.88000000000E+00 0. -1.
        -11    1    3    3    0    0 -0.11789832953E-01 -0.89375868393E-02 -0.94153869062E-02  0.17543980482E-01  0.51100000000E-03 0.  1.
         11    1    3    3    0    0 -0.76178849371E-01 -0.17008444330E-01 -0.19713836258E-01  0.80507147080E-01  0.51100000000E-03 0. -1.
</event>
<event>
 8    1  0.1202249E+005  0.1043930E+01  0.7957747E-01            NaN
         13   -1    0    0    0    0  0.00000000000E+00  0.00000000000E+00  0.74505805969E-08  0.10566000000E+00  0.10566000000E+00 0. -1.
     999900   -1    0    0    0    0 -0.00000000000E+00 -0.00000000000E+00 -0.74505805969E-08  0.93827000000E+00  0.93827000000E+00 0. -1.
     999902    2    1    2    0    0  0.18000612525E-01 -0.12616680436E-01 -0.71724943361E-02  0.10208075574E+01  0.10205456491E+01 0.  0.
     999903    2    3    3    0    0 -0.11303258794E+00 -0.88243825995E-02  0.57537303492E-01  0.12874733574E+00  0.20275588821E-01 0.  0.
         14    1    1    2    0    0 -0.18000612525E-01  0.12616680436E-01  0.71724943361E-02  0.23122442594E-01  0.00000000000E+00 0.  1.
     999901    1    3    3    0    0  0.13103320046E+00 -0.37922978365E-02 -0.64709797828E-01  0.89206022167E+00  0.88000000000E+00 0. -1.
        -11    1    4    4    0    0 -0.41481903583E-01  0.54621028740E-02  0.16073741222E-01  0.44824202955E-01  0.51100000000E-03 0. -1.
         11    1    4    4    0    0 -0.71550684357E-01 -0.14286485473E-01  0.41463562270E-01  0.83923132783E-01  0.51100000000E-03 0.  1.
</event>
<event>
 8    1  0.1202249E+005  0.1043930E+01  0.7957747E-01            NaN
         13   -1    0    0    0    0  0.00000000000E+00  0.00000000000E+00  0.74505805969E-08  0.10566000000E+00  0.10566000000E+00 0. -1.
     999900   -1    0    0    0    0 -0.00000000000E+00 -0.00000000000E+00 -0.74505805969E-08  0.93827000000E+00  0.93827000000E+00 0. -1.
     999902    2    1    2    0    0 -0.87469418591E-02  0.20047471320E-01  0.10440996206E-01  0.10196931582E+01  0.10194050777E+01 0.  0.
     999903    2    3    3    0    0  0.36256271075E-01  0.31879040349E-01  0.12079305098E+00  0.13158119951E+00  0.19795466470E-01 0.  0.
         14    1    1    2    0    0  0.87469418591E-02 -0.20047471320E-01 -0.10440996206E-01  0.24236841791E-01  0.00000000000E+00 0. -1.
     999901    1    3    3    0    0 -0.45003212934E-01 -0.11831569028E-01 -0.11035205477E+00  0.88811195870E+00  0.88000000000E+00 0. -1.
        -11    1    4    4    0    0  0.16572729043E-01  0.27302994744E-01  0.75779551606E-01  0.82236916483E-01  0.51100000000E-03 0.  1.
         11    1    4    4    0    0  0.19683542032E-01  0.45760456050E-02  0.45013499372E-01  0.49344283023E-01  0.51100000000E-03 0. -1.
</event>
<event>
 8    1  0.1202249E+005  0.1043930E+01  0.7957747E-01            NaN
         13   -1    0    0    0    0  0.00000000000E+00  0.00000000000E+00  0.74505805969E-08  0.10566000000E+00  0.10566000000E+00 0.  1.
     999900   -1    0    0    0    0 -0.00000000000E+00 -0.00000000000E+00 -0.74505805969E-08  0.93827000000E+00  0.93827000000E+00 0. -1.
     999902    2    1    2    0    0  0.90243426608E-02  0.21899935080E-01 -0.29654853129E-02  0.10200586779E+01  0.10197793223E+01 0.  0.
     999903    2    3    3    0    0 -0.15843837869E-01 -0.94286671695E-01 -0.83427590803E-01  0.12843549266E+00  0.19862255881E-01 0.  0.
         14    1    1    2    0    0 -0.90243426608E-02 -0.21899935080E-01  0.29654853129E-02  0.23871322127E-01  0.00000000000E+00 0.  1.
     999901    1    3    3    0    0  0.24868180530E-01  0.11618660678E+00  0.80462105490E-01  0.89162318522E+00  0.88000000000E+00 0.  1.
        -11    1    4    4    0    0 -0.66123254780E-02 -0.77379066259E-01 -0.60249576730E-01  0.98293007689E-01  0.51100000000E-03 0.  1.
         11    1    4    4    0    0 -0.92315123912E-02 -0.16907605437E-01 -0.23178014073E-01  0.30142484967E-01  0.51100000000E-03 0. -1.
</event>
<event>
 8    1  0.1202249E+005  0.1043930E+01  0.7957747E-01            NaN
         13   -1    0    0    0    0  0.00000000000E+00  0.00000000000E+00  0.74505805969E-08  0.10566000000E+00  0.10566000000E+00 0. -1.
     999900   -1    0    0    0    0 -0.00000000000E+00 -0.00000000000E+00 -0.74505805969E-08  0.93827000000E+00  0.93827000000E+00 0.  1.
     999902    2    1    2    0    0 -0.20558555367E-01 -0.66342809821E-02 -0.10772053918E-01  0.10197907161E+01  0.10195049777E+01 0.  0.
     999903    2    3    3    0    0 -0.17190527574E-01  0.12507394951E+00 -0.23102373265E-01  0.12989721774E+00  0.20014006179E-01 0.  0.
         14    1    1    2    0    0  0.20558555367E-01  0.66342809821E-02  0.10772053918E-01  0.24139283928E-01  0.00000000000E+00 0.  1.
     999901    1    3    3    0    0 -0.33680277933E-02 -0.13170823049E+00  0.12330319347E-01  0.88989349833E+00  0.88000000000E+00 0. -1.
        -11    1    4    4    0    0 -0.10580316076E-01  0.45596512334E-01  0.19303925452E-03  0.46811146220E-01  0.51100000000E-03 0.  1.
         11    1    4    4    0    0 -0.66102114979E-02  0.79477437174E-01 -0.23295412520E-01  0.83086071524E-01  0.51100000000E-03 0. -1.
</event>
<event>
 8    1  0.1202249E+005  0.1043930E+01  0.7957747E-01            NaN
         13   -1    0    0    0    0  0.00000000000E+00  0.00000000000E+00  0.74505805969E-08  0.10566000000E+00  0.10566000000E+00 0. -1.
     999900   -1    0    0    0    0 -0.00000000000E+00 -0.00000000000E+00 -0.74505805969E-08  0.93827000000E+00  0.93827000000E+00 0.  1.
     999902    2    1    2    0    0  0.45008368364E-02 -0.29539383722E-01  0.25806899637E-02  0.10139384565E+01  0.10134947957E+01 0.  0.
     999903    2    3    3    0    0  0.58673770554E-01 -0.79374715597E-01 -0.77757823466E-01  0.12721835193E+00  0.19881477062E-01 0.  0.
         14    1    1    2    0    0 -0.45008368364E-02  0.29539383722E-01 -0.25806899637E-02  0.29991543534E-01  0.00000000000E+00 0.  1.
     999901    1    3    3    0    0 -0.54172933717E-01  0.49835331875E-01  0.80338513429E-01  0.88672010454E+00  0.88000000000E+00 0. -1.
        -11    1    4    4    0    0  0.77284735610E-03 -0.79792474685E-02 -0.24886878577E-02  0.84095405018E-02  0.51100000000E-03 0. -1.
         11    1    4    4    0    0  0.57900923198E-01 -0.71395468128E-01 -0.75269135608E-01  0.11880881143E+00  0.51100000000E-03 0.  1.
</event>
<event>
 7    1  0.1202249E+005  0.1043930E+01  0.7957747E-01            NaN
         13   -1    0    0    0    0  0.00000000000E+00  0.00000000000E+00  0.74505805969E-08  0.10566000000E+00  0.10566000000E+00 0.  1.
     999900   -1    0    0    0    0 -0.00000000000E+00 -0.00000000000E+00 -0.74505805969E-08  0.93827000000E+00  0.93827000000E+00 0. -1.
     999902    2    1    2    0    0  0.19006534215E-01  0.77129348887E-02 -0.11526476923E-01  0.10204013499E+01  0.10201300493E+01 0.  0.
         14    1    1    2    0    0 -0.19006534215E-01 -0.77129348887E-02  0.11526476923E-01  0.23528650147E-01  0.00000000000E+00 0. -1.
     999901    1    3    3    0    0 -0.72077611413E-01  0.85418527871E-01 -0.91986315354E-02  0.88711674643E+00  0.88000000000E+00 0. -1.
        -11    1    3    3    0    0  0.82018165705E-01 -0.74406242154E-01  0.16653485918E-01  0.11198601739E+00  0.51100000000E-03 0.  1.
         11    1    3    3    0    0  0.90659799232E-02 -0.32993508276E-02 -0.18981331306E-01  0.21298586033E-01  0.51100000000E-03 0. -1.
</event>
<event>
 8    1  0.1202249E+005  0.1043930E+01  0.7957747E-01            NaN
         13   -1    0    0    0    0  0.00000000000E+00  0.00000000000E+00  0.74505805969E-08  0.10566000000E+00  0.10566000000E+00 0.  1.
     999900   -1    0    0    0    0 -0.00000000000E+00 -0.00000000000E+00 -0.74505805969E-08  0.93827000000E+00  0.93827000000E+00 0.  1.
     999902    2    1    2    0    0 -0.11245978643E-01 -0.20088689584E-01 -0.61596254191E-02  0.10200979109E+01  0.10198194837E+01 0.  0.
     999903    2    3    3    0    0  0.93374850462E-01  0.64194115345E-01 -0.57017364229E-01  0.12845021216E+00  0.20217072927E-01 0.  0.
         14    1    1    2    0    0  0.11245978643E-01  0.20088689584E-01  0.61596254191E-02  0.23832089085E-01  0.00000000000E+00 0.  1.
     999901    1    3    3    0    0 -0.10462082911E+00 -0.84282804929E-01  0.50857738810E-01  0.89164769875E+00  0.88000000000E+00 0.  1.
        -11    1    4    4    0    0  0.66437637811E-01  0.36748540944E-01 -0.44498456041E-01  0.88004481082E-01  0.51100000000E-03 0.  1.
         11    1    4    4    0    0  0.26937212651E-01  0.27445574401E-01 -0.12518908189E-01  0.40445731083E-01  0.51100000000E-03 0. -1.
</event>
<event>
 8    1  0.1202249E+005  0.1043930E+01  0.7957747E-01            NaN
         13   -1    0    0    0    0  0.00000000000E+00  0.00000000000E+00  0.74505805969E-08  0.10566000000E+00  0.10566000000E+00 0. -1.
     999900   -1    0    0    0    0 -0.00000000000E+00 -0.00000000000E+00 -0.74505805969E-08  0.93827000000E+00  0.93827000000E+00 0. -1.
     999902    2    1    2    0    0 -0.84300378277E-02 -0.23162189295E-01 -0.20764586149E-02  0.10191941105E+01  0.10188938956E+01 0.  0.
     999903    2    3    3    0    0 -0.52522058628E-01 -0.63163471639E-01  0.10039034073E+00  0.13125061347E+00  0.20007804273E-01 0.  0.
         14    1    1    2    0    0  0.84300378277E-02  0.23162189295E-01  0.20764586149E-02  0.24735889535E-01  0.00000000000E+00 0.  1.
     999901    1    3    3    0    0  0.44092020800E-01  0.40001282344E-01 -0.10246679935E+00  0.88794349700E+00  0.88000000000E+00 0. -1.
        -11    1    4    4    0    0 -0.33822503244E-01 -0.37780957359E-01  0.76098793773E-01  0.91447525934E-01  0.51100000000E-03 0.  1.
         11    1    4    4    0    0 -0.18699555384E-01 -0.25382514280E-01  0.24291546959E-01  0.39803087536E-01  0.51100000000E-03 0. -1.
</event>
<event>
 8    1  0.1202249E+005  0.1043930E+01  0.7957747E-01            NaN
         13   -1    0    0    0    0  0.00000000000E+00  0.00000000000E+00  0.74505805969E-08  0.10566000000E+00  0.10566000000E+00 0. -1.
     999900   -1    0    0    0    0 -0.00000000000E+00 -0.00000000000E+00 -0.74505805969E-08  0.93827000000E+00  0.93827000000E+00 0. -1.
     999902    2    1    2    0    0 -0.17457787702E-01  0.78517392776E-03 -0.91129631452E-02  0.10242211962E+01  0.10240315531E+01 0.  0.
     999903    2    3    3    0    0  0.24933252861E-01 -0.11989609659E+00 -0.50553541247E-01  0.13400869861E+00  0.20147696981E-01 0.  0.
         14    1    1    2    0    0  0.17457787702E-01 -0.78517392776E-03  0.91129631452E-02  0.19708803790E-01  0.00000000000E+00 0. -1.
     999901    1    3    3    0    0 -0.42391040563E-01  0.12068127052E+00  0.41440578102E-01  0.89021249760E+00  0.88000000000E+00 0.  1.
        -11    1    4    4    0    0  0.10231103789E-01 -0.89124658696E-01 -0.32490009616E-01  0.95413532155E-01  0.51100000000E-03 0.  1.
         11    1    4    4    0    0  0.14702149072E-01 -0.30771437896E-01 -0.18063531631E-01  0.38595166453E-01  0.51100000000E-03 0. -1.
</event>
<event>
 8    1  0.1202249E+005  0.1043930E+01  0.7957747E-01            NaN
         13   -1    0    0    0    0  0.00000000000E+00  0.00000000000E+00  0.74505805969E-08  0.10566000000E+00  0.10566000000E+00 0. -1.
     999900   -1    0    0    0    0 -0.00000000000E+00 -0.00000000000E+00 -0.74505805969E-08  0.93827000000E+00  0.93827000000E+00 0.  1.
     999902    2    1    2    0    0 -0.82994148344E-02  0.18610771304E-01  0.92339459258E-02  0.10215579895E+01  0.10213129878E+01 0.  0.
     999903    2    3    3    0    0 -0.11037811814E+00  0.28533319117E-01 -0.64551274077E-01  0.13253449304E+00  0.20026122846E-01 0.  0.
         14    1    1    2    0    0  0.82994148344E-02 -0.18610771304E-01 -0.92339459258E-02  0.22372010470E-01  0.00000000000E+00 0.  1.
     999901    1    3    3    0    0  0.10207870330E+00 -0.99225478136E-02  0.73785220003E-01  0.88902349649E+00  0.88000000000E+00 0. -1.
        -11    1    4    4    0    0 -0.72835872912E-01  0.17788914070E-01 -0.52965526080E-01  0.91799335077E-01  0.51100000000E-03 0. -1.
         11    1    4    4    0    0 -0.37542245226E-01  0.10744405047E-01 -0.11585747997E-01  0.40735157961E-01  0.51100000000E-03 0.  1.
</event>
<event>
 8    1  0.1202249E+005  0.1043930E+01  0.7957747E-01            NaN
         13   -1    0    0    0    0  0.00000000000E+00  0.00000000000E+00  0.74505805969E-08  0.10566000000E+00  0.10566000000E+00 0. -1.
     999900   -1    0    0    0    0 -0.00000000000E+00 -0.00000000000E+00 -0.74505805969E-08  0.93827000000E+00  0.93827000000E+00 0. -1.
     999902    2    1    2    0    0  0.10267774910E-01 -0.11835750990E-01  0.16993177722E-01  0.10208154961E+01  0.10205537696E+01 0.  0.
     999903    2    3    3    0    0  0.64535374882E-01  0.10983636369E+00  0.21599219308E-01  0.13077600732E+00  0.20174152234E-01 0.  0.
         14    1    1    2    0    0 -0.10267774910E-01  0.11835750990E-01 -0.16993177722E-01  0.23114503936E-01  0.00000000000E+00 0.  1.
     999901    1    3    3    0    0 -0.54267599973E-01 -0.12167211468E+00 -0.46060415859E-02  0.89003948874E+00  0.88000000000E+00 0.  1.
        -11    1    4    4    0    0  0.57612142231E-01  0.10611430914E+00  0.22576211473E-01  0.12283872347E+00  0.51100000000E-03 0. -1.
         11    1    4    4    0    0  0.69232326519E-02  0.37220545424E-02 -0.97699216521E-03  0.79372838590E-02  0.51100000000E-03 0.  1.
</event>
<event>
 8    1  0.1202249E+005  0.1043930E+01  0.7957747E-01            NaN
         13   -1    0    0    0    0  0.00000000000E+00  0.00000000000E+00  0.74505805969E-08  0.10566000000E+00  0.10566000000E+00 0.  1.
     999900   -1    0    0    0    0 -0.00000000000E+00 -0.00000000000E+00 -0.74505805969E-08  0.93827000000E+00  0.93827000000E+00 0. -1.
     999902    2    1    2    0    0 -0.59084098518E-02  0.10716585252E-01 -0.20251416698E-01  0.10202683351E+01  0.10199939222E+01 0.  0.
     999903    2    3    3    0    0  0.64200597996E-01 -0.29964401681E-01  0.10433733137E+00  0.12780400988E+00  0.20688259306E-01 0.  0.
         14    1    1    2    0    0  0.59084098518E-02 -0.10716585252E-01  0.20251416698E-01  0.23661664877E-01  0.00000000000E+00 0.  1.
     999901    1    3    3    0    0 -0.70109007848E-01  0.40680986933E-01 -0.12458874807E+00  0.89246432524E+00  0.88000000000E+00 0. -1.
        -11    1    4    4    0    0  0.54210911248E-01 -0.15920175854E-01  0.82129835500E-01  0.99688745091E-01  0.51100000000E-03 0.  1.
         11    1    4    4    0    0  0.99896867483E-02 -0.14044225827E-01  0.22207495873E-01  0.28115264793E-01  0.51100000000E-03 0. -1.
</event>
<event>
 8    1  0.1202249E+005  0.1043930E+01  0.7957747E-01            NaN
         13   -1    0    0    0    0  0.00000000000E+00  0.00000000000E+00  0.74505805969E-08  0.10566000000E+00  0.10566000000E+00 0.  1.
     999900   -1    0    0    0    0 -0.00000000000E+00 -0.00000000000E+00 -0.74505805969E-08  0.93827000000E+00  0.93827000000E+00 0.  1.
     999902    2    1    2    0    0  0.10315153086E-01 -0.20564370420E-01 -0.48997383600E-02  0.10204076032E+01  0.10201364485E+01 0.  0.
     999903    2    3    3    0    0 -0.32939991998E-01 -0.64991042620E-01 -0.10844471534E+00  0.13216985406E+00  0.19993382535E-01 0.  0.
         14    1    1    2    0    0 -0.10315153086E-01  0.20564370420E-01  0.48997383600E-02  0.23522396773E-01  0.00000000000E+00 0.  1.
     999901    1    3    3    0    0  0.43255145083E-01  0.44426672200E-01  0.10354497698E+00  0.88823774916E+00  0.88000000000E+00 0. -1.
        -11    1    4    4    0    0 -0.15216855859E-01 -0.50168665982E-01 -0.73957830208E-01  0.90655774878E-01  0.51100000000E-03 0.  1.
         11    1    4    4    0    0 -0.17723136139E-01 -0.14822376639E-01 -0.34486885130E-01  0.41514079187E-01  0.51100000000E-03 0. -1.
</event>
<event>
 8    1  0.1202249E+005  0.1043930E+01  0.7957747E-01            NaN
         13   -1    0    0    0    0  0.00000000000E+00  0.00000000000E+00  0.74505805969E-08  0.10566000000E+00  0.10566000000E+00 0. -1.
     999900   -1    0    0    0    0 -0.00000000000E+00 -0.00000000000E+00 -0.74505805969E-08  0.93827000000E+00  0.93827000000E+00 0. -1.
     999902    2    1    2    0    0 -0.11526170677E-01  0.14245028837E-01 -0.14858469483E-01  0.10203387395E+01  0.10200659762E+01 0.  0.
     999903    2    3    3    0    0  0.90708814327E-01  0.85033293865E-01 -0.37888139018E-01  0.13129805634E+00  0.18571980434E-01 0.  0.
         14    1    1    2    0    0  0.11526170677E-01 -0.14245028837E-01  0.14858469483E-01  0.23591260509E-01  0.00000000000E+00 0. -1.
     999901    1    3    3    0    0 -0.10223498500E+00 -0.70788265028E-01  0.23029669535E-01  0.88904068315E+00  0.88000000000E+00 0. -1.
        -11    1    4    4    0    0  0.45492411996E-01  0.33623692634E-01 -0.10403733432E-01  0.57520527170E-01  0.51100000000E-03 0. -1.
         11    1    4    4    0    0  0.45216402331E-01  0.51409601231E-01 -0.27484405586E-01  0.73777529166E-01  0.51100000000E-03 0.  1.
</event>
<event>
 8    1  0.1202249E+005  0.1043930E+01  0.7957747E-01            NaN
         13   -1    0    0    0    0  0.00000000000E+00  0.00000000000E+00  0.74505805969E-08  0.10566000000E+00  0.10566000000E+00 0.  1.
     999900   -1    0    0    0    0 -0.00000000000E+00 -0.00000000000E+00 -0.74505805969E-08  0.93827000000E+00  0.93827000000E+00 0. -1.
     999902    2    1    2    0    0  0.17536576544E-01 -0.91525438306E-02 -0.12333119292E-01  0.10206189209E+01  0.10203526721E+01 0.  0.
     999903    2    3    3    0    0 -0.22715382546E-01  0.12005235598E+00  0.36089674280E-01  0.12895817083E+00  0.19979701034E-01 0.  0.
         14    1    1    2    0    0 -0.17536576544E-01  0.91525438306E-02  0.12333119292E-01  0.23311079060E-01  0.00000000000E+00 0. -1.
     999901    1    3    3    0    0  0.40251959090E-01 -0.12920489981E+00 -0.48422793572E-01  0.89166075011E+00  0.88000000000E+00 0. -1.
        -11    1    4    4    0    0 -0.15328598033E-01  0.38641429752E-01  0.17602595266E-01  0.45146854730E-01  0.51100000000E-03 0. -1.
         11    1    4    4    0    0 -0.73867845133E-02  0.81410926231E-01  0.18487079014E-01  0.83811316102E-01  0.51100000000E-03 0.  1.
</event>
<event>
 8    1  0.1202249E+005  0.1043930E+01  0.7957747E-01            NaN
         13   -1    0    0    0    0  0.00000000000E+00  0.00000000000E+00  0.74505805969E-08  0.10566000000E+00  0.10566000000E+00 0.  1.
     999900   -1    0    0    0    0 -0.00000000000E+00 -0.00000000000E+00 -0.74505805969E-08  0.93827000000E+00  0.93827000000E+00 0. -1.
     999902    2    1    2    0    0 -0.52110436322E-02 -0.38356470050E-02  0.22868811560E-01  0.10201634330E+01  0.10198865527E+01 0.  0.
     999903    2    3    3    0    0  0.53369406039E-01  0.34009764454E-01  0.11480289065E+00  0.13262987357E+00  0.20149989646E-01 0.  0.
         14    1    1    2    0    0  0.52110436322E-02  0.38356470050E-02 -0.22868811560E-01  0.23766566977E-01  0.00000000000E+00 0. -1.
     999901    1    3    3    0    0 -0.58580449672E-01 -0.37845411459E-01 -0.91934079092E-01  0.88753355945E+00  0.88000000000E+00 0. -1.
        -11    1    4    4    0    0  0.33296275667E-01  0.94096830538E-02  0.57130620753E-01  0.66793360876E-01  0.51100000000E-03 0.  1.
         11    1    4    4    0    0  0.20073130373E-01  0.24600081400E-01  0.57672269899E-01  0.65836512697E-01  0.51100000000E-03 0. -1.
</event>
<event>
 8    1  0.1202249E+005  0.1043930E+01  0.7957747E-01            NaN
         13   -1    0    0    0    0  0.00000000000E+00  0.00000000000E+00  0.74505805969E-08  0.10566000000E+00  0.10566000000E+00 0. -1.
     999900   -1    0    0    0    0 -0.00000000000E+00 -0.00000000000E+00 -0.74505805969E-08  0.93827000000E+00  0.93827000000E+00 0. -1.
     999902    2    1    2    0    0 -0.53472015132E-02 -0.21122322997E-01 -0.90180168166E-02  0.10203488694E+01  0.10200763430E+01 0.  0.
     999903    2    3    3    0    0  0.91211731537E-01  0.58918758577E-01 -0.67588116036E-01  0.12952865252E+00  0.20457720103E-01 0.  0.
         14    1    1    2    0    0  0.53472015132E-02  0.21122322997E-01  0.90180168166E-02  0.23581130595E-01  0.00000000000E+00 0. -1.
     999901    1    3    3    0    0 -0.96558933050E-01 -0.80041081574E-01  0.58570099220E-01  0.89082021689E+00  0.88000000000E+00 0. -1.
        -11    1    4    4    0    0  0.72060184028E-01  0.49118222165E-01 -0.44286231280E-01  0.97810026443E-01  0.51100000000E-03 0.  1.
         11    1    4    4    0    0  0.19151547508E-01  0.98005364124E-02 -0.23301884756E-01  0.31718626075E-01  0.51100000000E-03 0. -1.
</event>
<event>
 8    1  0.1202249E+005  0.1043930E+01  0.7957747E-01            NaN
         13   -1    0    0    0    0  0.00000000000E+00  0.00000000000E+00  0.74505805969E-08  0.10566000000E+00  0.10566000000E+00 0.  1.
     999900   -1    0    0    0    0 -0.00000000000E+00 -0.00000000000E+00 -0.74505805969E-08  0.93827000000E+00  0.93827000000E+00 0. -1.
     999902    2    1    2    0    0 -0.24289096183E-01  0.16501713804E-02 -0.40466604661E-02  0.10192508849E+01  0.10189520635E+01 0.  0.
     999903    2    3    3    0    0 -0.12331428942E+00 -0.21187835899E-01 -0.38464308921E-01  0.13273402780E+00  0.21988194784E-01 0.  0.
         14    1    1    2    0    0  0.24289096183E-01 -0.16501713804E-02  0.40466604661E-02  0.24679115055E-01  0.00000000000E+00 0.  1.
     999901    1    3    3    0    0  0.99025193240E-01  0.22838007279E-01  0.34417648455E-01  0.88651685714E+00  0.88000000000E+00 0.  1.
        -11    1    4    4    0    0 -0.70458996200E-01 -0.17350474846E-02 -0.25362530856E-01  0.74906606035E-01  0.51100000000E-03 0. -1.
         11    1    4    4    0    0 -0.52855293223E-01 -0.19452788414E-01 -0.13101778066E-01  0.57827421768E-01  0.51100000000E-03 0.  1.
</event>
<event>
 8    1  0.1202249E+005  0.1043930E+01  0.7957747E-01            NaN
         13   -1    0    0    0    0  0.00000000000E+00  0.00000000000E+00  0.74505805969E-08  0.10566000000E+00  0.10566000000E+00 0. -1.
     999900   -1    0    0    0    0 -0.00000000000E+00 -0.00000000000E+00 -0.74505805969E-08  0.93827000000E+00  0.93827000000E+00 0.  1.
     999902    2    1    2    0    0 -0.22699493256E-01  0.61232651656E-02 -0.45164699695E-04  0.10204190789E+01  0.10201481918E+01 0.  0.
     999903    2    3    3    0    0  0.57907773688E-01 -0.51442739482E-01 -0.10107849044E+00  0.12911716077E+00  0.21324030512E-01 0.  0.
         14    1    1    2    0    0  0.22699493256E-01 -0.61232651656E-02  0.45164699695E-04  0.23510921084E-01  0.00000000000E+00 0. -1.
     999901    1    3    3    0    0 -0.80607266944E-01  0.57566004648E-01  0.10103332574E+00  0.89130191814E+00  0.88000000000E+00 0. -1.
        -11    1    4    4    0    0  0.51754149948E-01 -0.35928118986E-01 -0.72812171486E-01  0.96287045901E-01  0.51100000000E-03 0.  1.
         11    1    4    4    0    0  0.61536237400E-02 -0.15514620496E-01 -0.28266318955E-01  0.32830114873E-01  0.51100000000E-03 0. -1.
</event>
<event>
 8    1  0.1202249E+005  0.1043930E+01  0.7957747E-01            NaN
         13   -1    0    0    0    0  0.00000000000E+00  0.00000000000E+00  0.74505805969E-08  0.10566000000E+00  0.10566000000E+00 0.  1.
     999900   -1    0    0    0    0 -0.00000000000E+00 -0.00000000000E+00 -0.74505805969E-08  0.93827000000E+00  0.93827000000E+00 0.  1.
     999902    2    1    2    0    0 -0.17276419089E-01  0.50254344631E-03  0.16091826803E-01  0.10203148757E+01  0.10200415538E+01 0.  0.
     999903    2    3    3    0    0  0.81410120460E-01 -0.10377138738E-01 -0.95536668015E-01  0.12772408399E+00  0.21234264132E-01 0.  0.
         14    1    1    2    0    0  0.17276419089E-01 -0.50254344631E-03 -0.16091826803E-01  0.23615124313E-01  0.00000000000E+00 0. -1.
     999901    1    3    3    0    0 -0.98686539549E-01  0.10879682184E-01  0.11162849482E+00  0.89259079170E+00  0.88000000000E+00 0. -1.
        -11    1    4    4    0    0  0.31142476983E-01 -0.10962040982E-01 -0.26589227170E-01  0.42394201698E-01  0.51100000000E-03 0.  1.
         11    1    4    4    0    0  0.50267643477E-01  0.58490224465E-03 -0.68947440845E-01  0.85329882289E-01  0.51100000000E-03 0. -1.
</event>
<event>
 8    1  0.1202249E+005  0.1043930E+01  0.7957747E-01            NaN
         13   -1    0    0    0    0  0.00000000000E+00  0.00000000000E+00  0.74505805969E-08  0.10566000000E+00  0.10566000000E+00 0.  1.
     999900   -1    0    0    0    0 -0.00000000000E+00 -0.00000000000E+00 -0.74505805969E-08  0.93827000000E+00  0.93827000000E+00 0. -1.
     999902    2    1    2    0    0  0.12248904695E-02  0.22003499066E-02  0.22713203575E-01  0.10210776147E+01  0.10208218570E+01 0.  0.
     999903    2    3    3    0    0 -0.60916899198E-01  0.60678386120E-01 -0.94416289942E-01  0.12922527212E+00  0.19798989846E-01 0.  0.
         14    1    1    2    0    0 -0.12248904695E-02 -0.22003499066E-02 -0.22713203575E-01  0.22852385281E-01  0.00000000000E+00 0. -1.
     999901    1    3    3    0    0  0.62141789668E-01 -0.58478036214E-01  0.11712949352E+00  0.89185234260E+00  0.88000000000E+00 0.  1.
        -11    1    4    4    0    0 -0.31650663389E-01  0.36116781624E-01 -0.38763013514E-01  0.61717248363E-01  0.51100000000E-03 0.  1.
         11    1    4    4    0    0 -0.29266235810E-01  0.24561604496E-01 -0.55653276427E-01  0.67508023760E-01  0.51100000000E-03 0. -1.
</event>
<event>
 8    1  0.1202249E+005  0.1043930E+01  0.7957747E-01            NaN
         13   -1    0    0    0    0  0.00000000000E+00  0.00000000000E+00  0.74505805969E-08  0.10566000000E+00  0.10566000000E+00 0.  1.
     999900   -1    0    0    0    0 -0.00000000000E+00 -0.00000000000E+00 -0.74505805969E-08  0.93827000000E+00  0.93827000000E+00 0.  1.
     999902    2    1    2    0    0 -0.18335448367E-02 -0.17086932590E-01 -0.24446072184E-01  0.10140479720E+01  0.10136075937E+01 0.  0.
     999903    2    3    3    0    0  0.12140727645E+00 -0.80201549445E-02  0.17779134924E-01  0.12441126266E+00  0.18921283763E-01 0.  0.
         14    1    1    2    0    0  0.18335448367E-02  0.17086932590E-01  0.24446072184E-01  0.29882027997E-01  0.00000000000E+00 0.  1.
     999901    1    3    3    0    0 -0.12324082128E+00 -0.90667776453E-02 -0.42225207108E-01  0.88963670934E+00  0.88000000000E+00 0. -1.
        -11    1    4    4    0    0  0.93949285304E-02 -0.55315709557E-02 -0.31239527363E-03  0.10918867667E-01  0.51100000000E-03 0.  1.
         11    1    4    4    0    0  0.11201234792E+00 -0.24885839889E-02  0.18091530198E-01  0.11349239500E+00  0.51100000000E-03 0. -1.
</event>
<event>
 8    1  0.1202249E+005  0.1043930E+01  0.7957747E-01            NaN
         13   -1    0    0    0    0  0.00000000000E+00  0.00000000000E+00  0.74505805969E-08  0.10566000000E+00  0.10566000000E+00 0.  1.
     999900   -1    0    0    0    0 -0.00000000000E+00 -0.00000000000E+00 -0.74505805969E-08  0.93827000000E+00  0.93827000000E+00 0.  1.
     999902    2    1    2    0    0  0.16775485487E-01  0.14518047336E-01  0.78438474101E-02  0.10203988174E+01  0.10201274577E+01 0.  0.
     999903    2    3    3    0    0  0.93720633664E-01  0.60932492361E-01  0.70188895253E-01  0.13362840658E+00  0.20826527046E-01 0.  0.
         14    1    1    2    0    0 -0.16775485487E-01 -0.14518047336E-01 -0.78438474101E-02  0.23531182588E-01  0.00000000000E+00 0.  1.
     999901    1    3    3    0    0 -0.76945148177E-01 -0.46414445025E-01 -0.62345047843E-01  0.88677041083E+00  0.88000000000E+00 0.  1.
        -11    1    4    4    0    0  0.47991047371E-01  0.41812591762E-01  0.33279738592E-01  0.71827818979E-01  0.51100000000E-03 0.  1.
         11    1    4    4    0    0  0.45729586293E-01  0.19119900600E-01  0.36909156662E-01  0.61800587602E-01  0.51100000000E-03 0. -1.
</event>
<event>
 7    1  0.2131725E+005  0.1043930E+01  0.7957747E-01            NaN
         13   -1    0    0    0    0  0.00000000000E+00  0.00000000000E+00  0.74505805969E-08  0.10566000000E+00  0.10566000000E+00 0. -1.
     999900   -1    0    0    0    0 -0.00000000000E+00 -0.00000000000E+00 -0.74505805969E-08  0.93827000000E+00  0.93827000000E+00 0.  1.
     999903    2    1    2    0    0  0.40381667166E-01 -0.24339188506E-01  0.88768681054E-01  0.10239883097E+00  0.19559312562E-01 0.  0.
         14    1    1    2    0    0 -0.46126136380E-01 -0.30884495652E-01 -0.24248120535E-02  0.55563947326E-01  0.00000000000E+00 0.  1.
     999901    1    1    2    0    0  0.57444692139E-02  0.55223684157E-01 -0.86343869000E-01  0.88596722170E+00  0.88000000000E+00 0.  1.
        -11    1    3    3    0    0  0.12379816572E-01 -0.18740760694E-01  0.37717140931E-01  0.43901250674E-01  0.51100000000E-03 0.  1.
         11    1    3    3    0    0  0.28001850594E-01 -0.55984278120E-02  0.51051540123E-01  0.58497580297E-01  0.51100000000E-03 0. -1.
</event>
<event>
 8    1  0.1202249E+005  0.1043930E+01  0.7957747E-01            NaN
         13   -1    0    0    0    0  0.00000000000E+00  0.00000000000E+00  0.74505805969E-08  0.10566000000E+00  0.10566000000E+00 0. -1.
     999900   -1    0    0    0    0 -0.00000000000E+00 -0.00000000000E+00 -0.74505805969E-08  0.93827000000E+00  0.93827000000E+00 0. -1.
     999902    2    1    2    0    0 -0.76393443374E-02  0.63374267708E-02  0.21803991081E-01  0.10199730263E+01  0.10196916386E+01 0.  0.
     999903    2    3    3    0    0  0.11890503194E+00 -0.21465688589E-01  0.44096735031E-01  0.13020706901E+00  0.20252811472E-01 0.  0.
         14    1    1    2    0    0  0.76393443374E-02 -0.63374267708E-02 -0.21803991081E-01  0.23956973662E-01  0.00000000000E+00 0.  1.
     999901    1    3    3    0    0 -0.12654437628E+00  0.27803115360E-01 -0.22292743950E-01  0.88976595733E+00  0.88000000000E+00 0. -1.
        -11    1    4    4    0    0  0.31637129987E-01 -0.56277532706E-02  0.21540441599E-01  0.38688904688E-01  0.51100000000E-03 0. -1.
         11    1    4    4    0    0  0.87267901951E-01 -0.15837935318E-01  0.22556293431E-01  0.91518164320E-01  0.51100000000E-03 0.  1.
</event>
<event>
 8    1  0.1202249E+005  0.1043930E+01  0.7957747E-01            NaN
         13   -1    0    0    0    0  0.00000000000E+00  0.00000000000E+00  0.74505805969E-08  0.10566000000E+00  0.10566000000E+00 0. -1.
     999900   -1    0    0    0    0 -0.00000000000E+00 -0.00000000000E+00 -0.74505805969E-08  0.93827000000E+00  0.93827000000E+00 0. -1.
     999902    2    1    2    0    0 -0.11580676549E-01 -0.21120377367E-01  0.11102089554E-02  0.10198174520E+01  0.10195323537E+01 0.  0.
     999903    2    3    3    0    0 -0.11008000018E+00  0.48234306461E-01  0.46527994413E-01  0.13044971914E+00  0.20201985095E-01 0.  0.
         14    1    1    2    0    0  0.11580676549E-01  0.21120377367E-01 -0.11102089554E-02  0.24112548049E-01  0.00000000000E+00 0. -1.
     999901    1    3    3    0    0  0.98499323628E-01 -0.69354683829E-01 -0.45417785458E-01  0.88936773281E+00  0.88000000000E+00 0.  1.
        -11    1    4    4    0    0 -0.87024138918E-01  0.28832887612E-01  0.36698399117E-01  0.98750036867E-01  0.51100000000E-03 0.  1.
         11    1    4    4    0    0 -0.23055861258E-01  0.19401418849E-01  0.98295952965E-02  0.31699682276E-01  0.51100000000E-03 0. -1.
</event>
<event>
 7    1  0.1202249E+005  0.1043930E+01  0.7957747E-01            NaN
         13   -1    0    0    0    0  0.00000000000E+00  0.00000000000E+00  0.74505805969E-08  0.10566000000E+00  0.10566000000E+00 0. -1.
     999900   -1    0    0    0    0 -0.00000000000E+00 -0.00000000000E+00 -0.74505805969E-08  0.93827000000E+00  0.93827000000E+00 0. -1.
     999903    2    1    2    0    0  0.27260171322E-01 -0.22140422125E-01 -0.79682354977E-01  0.91938728207E-01  0.29498081587E-01 0.  0.
         14    1    1    2    0    0  0.35571131477E-01  0.22111417552E-01 -0.44435195770E-01  0.61063137847E-01  0.00000000000E+00 0.  1.
     999901    1    1    2    0    0 -0.62831302799E-01  0.29004573588E-04  0.12411755075E+00  0.89092813395E+00  0.88000000000E+00 0.  1.
        -11    1    3    3    0    0 -0.90248498944E-03 -0.15261346938E-01 -0.16962520385E-01  0.22841002788E-01  0.51100000000E-03 0.  1.
         11    1    3    3    0    0  0.28162656311E-01 -0.68790751870E-02 -0.62719834591E-01  0.69097725419E-01  0.51100000000E-03 0. -1.
</event>
<event>
 8    1  0.1202249E+005  0.1043930E+01  0.7957747E-01            NaN
         13   -1    0    0    0    0  0.00000000000E+00  0.00000000000E+00  0.74505805969E-08  0.10566000000E+00  0.10566000000E+00 0. -1.
     999900   -1    0    0    0    0 -0.00000000000E+00 -0.00000000000E+00 -0.74505805969E-08  0.93827000000E+00  0.93827000000E+00 0. -1.
     999902    2    1    2    0    0 -0.14593980809E-01  0.25035913437E-02  0.17921589486E-01  0.10206827289E+01  0.10204179523E+01 0.  0.
     999903    2    3    3    0    0 -0.28166967190E-01 -0.12527317662E+00 -0.14369179281E-01  0.13076485505E+00  0.20155078295E-01 0.  0.
         14    1    1    2    0    0  0.14593980809E-01 -0.25035913437E-02 -0.17921589486E-01  0.23247271134E-01  0.00000000000E+00 0.  1.
     999901    1    3    3    0    0  0.13572986381E-01  0.12777676797E+00  0.32290768768E-01  0.88991787382E+00  0.88000000000E+00 0.  1.
        -11    1    4    4    0    0 -0.31133429807E-01 -0.11028996056E+00 -0.14233243354E-01  0.11548165304E+00  0.51100000000E-03 0. -1.
         11    1    4    4    0    0  0.29664626166E-02 -0.14983216062E-01 -0.13593592692E-03  0.15283202007E-01  0.51100000000E-03 0.  1.
</event>
<event>
 8    1  0.1202249E+005  0.1043930E+01  0.7957747E-01            NaN
         13   -1    0    0    0    0  0.00000000000E+00  0.00000000000E+00  0.74505805969E-08  0.10566000000E+00  0.10566000000E+00 0.  1.
     999900   -1    0    0    0    0 -0.00000000000E+00 -0.00000000000E+00 -0.74505805969E-08  0.93827000000E+00  0.93827000000E+00 0.  1.
     999902    2    1    2    0    0 -0.18780681001E-01 -0.39648401482E-03 -0.13356002736E-01  0.10208810524E+01  0.10206208253E+01 0.  0.
     999903    2    3    3    0    0  0.97367971204E-01 -0.54796165097E-02 -0.83884059607E-01  0.13043703140E+00  0.21604066549E-01 0.  0.
         14    1    1    2    0    0  0.18780681001E-01  0.39648401482E-03  0.13356002736E-01  0.23048947645E-01  0.00000000000E+00 0.  1.
     999901    1    3    3    0    0 -0.11614865220E+00  0.50831324949E-02  0.70528056872E-01  0.89044402095E+00  0.88000000000E+00 0. -1.
        -11    1    4    4    0    0  0.57285301090E-01 -0.13686478669E-01 -0.47100914637E-01  0.75416726924E-01  0.51100000000E-03 0.  1.
         11    1    4    4    0    0  0.40082670114E-01  0.82068621597E-02 -0.36783144971E-01  0.55020304479E-01  0.51100000000E-03 0. -1.
</event>
<event>
 8    1  0.1202249E+005  0.1043930E+01  0.7957747E-01            NaN
         13   -1    0    0    0    0  0.00000000000E+00  0.00000000000E+00  0.74505805969E-08  0.10566000000E+00  0.10566000000E+00 0.  1.
     999900   -1    0    0    0    0 -0.00000000000E+00 -0.00000000000E+00 -0.74505805969E-08  0.93827000000E+00  0.93827000000E+00 0.  1.
     999902    2    1    2    0    0 -0.79185953685E-02  0.26952949402E-01 -0.38015938127E-02  0.10155818475E+01  0.10151861264E+01 0.  0.
     999903    2    3    3    0    0  0.12363304695E+00  0.11097237996E-01  0.74367888253E-03  0.12565044696E+00  0.19473129529E-01 0.  0.
         14    1    1    2    0    0  0.79185953685E-02 -0.26952949402E-01  0.38015938127E-02  0.28348152490E-01  0.00000000000E+00 0.  1.
     999901    1    3    3    0    0 -0.13155164232E+00  0.15855711406E-01 -0.45452726952E-02  0.88993140055E+00  0.88000000000E+00 0.  1.
        -11    1    4    4    0    0  0.71607891799E-01  0.15955982685E-01  0.17503721131E-02  0.73386705028E-01  0.51100000000E-03 0.  1.
         11    1    4    4    0    0  0.52025155151E-01 -0.48587446892E-02 -0.10066932306E-02  0.52263741932E-01  0.51100000000E-03 0. -1.
</event>
<event>
 8    1  0.1202249E+005  0.1043930E+01  0.7957747E-01            NaN
         13   -1    0    0    0    0  0.00000000000E+00  0.00000000000E+00  0.74505805969E-08  0.10566000000E+00  0.10566000000E+00 0.  1.
     999900   -1    0    0    0    0 -0.00000000000E+00 -0.00000000000E+00 -0.74505805969E-08  0.93827000000E+00  0.93827000000E+00 0. -1.
     999902    2    1    2    0    0 -0.13050238233E-01 -0.14288405442E-02  0.20492155700E-01  0.10195932223E+01  0.10193027324E+01 0.  0.
     999903    2    3    3    0    0 -0.70197644816E-01 -0.98138616742E-01  0.50298168193E-01  0.13195196297E+00  0.17958768753E-01 0.  0.
         14    1    1    2    0    0  0.13050238233E-01  0.14288405442E-02 -0.20492155700E-01  0.24336777693E-01  0.00000000000E+00 0. -1.
     999901    1    3    3    0    0  0.57147406583E-01  0.96709776198E-01 -0.29806012493E-01  0.88764125933E+00  0.88000000000E+00 0. -1.
        -11    1    4    4    0    0 -0.27342986524E-01 -0.51289786470E-01  0.29170464659E-01  0.65034285093E-01  0.51100000000E-03 0. -1.
         11    1    4    4    0    0 -0.42854658292E-01 -0.46848830272E-01  0.21127703535E-01  0.66917677880E-01  0.51100000000E-03 0.  1.
</event>
<event>
 8    1  0.1202249E+005  0.1043930E+01  0.7957747E-01            NaN
         13   -1    0    0    0    0  0.00000000000E+00  0.00000000000E+00  0.74505805969E-08  0.10566000000E+00  0.10566000000E+00 0. -1.
     999900   -1    0    0    0    0 -0.00000000000E+00 -0.00000000000E+00 -0.74505805969E-08  0.93827000000E+00  0.93827000000E+00 0. -1.
     999902    2    1    2    0    0  0.62696493718E-02 -0.22822793485E-01  0.43117312541E-02  0.10198721648E+01  0.10195883744E+01 0.  0.
     999903    2    3    3    0    0  0.77251613083E-01 -0.15094387479E-01 -0.10220575193E+00  0.13057798312E+00  0.20222306768E-01 0.  0.
         14    1    1    2    0    0 -0.62696493718E-02  0.22822793485E-01 -0.43117312541E-02  0.24057835150E-01  0.00000000000E+00 0. -1.
     999901    1    3    3    0    0 -0.70981963711E-01 -0.77284060054E-02  0.10651748319E+00  0.88929418173E+00  0.88000000000E+00 0. -1.
        -11    1    4    4    0    0  0.39277254172E-01  0.10951220783E-02 -0.58339547243E-01  0.70339646581E-01  0.51100000000E-03 0.  1.
         11    1    4    4    0    0  0.37974358911E-01 -0.16189509558E-01 -0.43866204688E-01  0.60238336540E-01  0.51100000000E-03 0. -1.
</event>
<event>
 8    1  0.1202249E+005  0.1043930E+01  0.7957747E-01            NaN
         13   -1    0    0    0    0  0.00000000000E+00  0.00000000000E+00  0.74505805969E-08  0.10566000000E+00  0.10566000000E+00 0.  1.
     999900   -1    0    0    0    0 -0.00000000000E+00 -0.00000000000E+00 -0.74505805969E-08  0.93827000000E+00  0.93827000000E+00 0. -1.
     999902    2    1    2    0    0 -0.64094938499E-02  0.23102234686E-01 -0.65384436537E-03  0.10199462061E+01  0.10196641805E+01 0.  0.
     999903    2    3    3    0    0 -0.34528561004E-01  0.11326278879E+00  0.56857756134E-01  0.13302614674E+00  0.21034981179E-01 0.  0.
         14    1    1    2    0    0  0.64094938499E-02 -0.23102234686E-01  0.65384436537E-03  0.23983793931E-01  0.00000000000E+00 0. -1.
     999901    1    3    3    0    0  0.28119067154E-01 -0.90160554105E-01 -0.57511600499E-01  0.88692005933E+00  0.88000000000E+00 0.  1.
        -11    1    4    4    0    0 -0.19359873762E-01  0.46758869583E-01  0.14172268355E-01  0.52557691237E-01  0.51100000000E-03 0.  1.
         11    1    4    4    0    0 -0.15168687242E-01  0.66503919207E-01  0.42685487779E-01  0.80468455500E-01  0.51100000000E-03 0. -1.
</event>
<event>
 8    1  0.1202249E+005  0.1043930E+01  0.7957747E-01            NaN
         13   -1    0    0    0    0  0.00000000000E+00  0.00000000000E+00  0.74505805969E-08  0.10566000000E+00  0.10566000000E+00 0. -1.
     999900   -1    0    0    0    0 -0.00000000000E+00 -0.00000000000E+00 -0.74505805969E-08  0.93827000000E+00  0.93827000000E+00 0. -1.
     999902    2    1    2    0    0  0.65099305722E-02 -0.65005675537E-02  0.20392699539E-01  0.10215581702E+01  0.10213131725E+01 0.  0.
     999903    2    3    3    0    0 -0.97010011226E-01  0.32706522127E-01  0.81654401765E-01  0.13251004416E+00  0.20268488070E-01 0.  0.
         14    1    1    2    0    0 -0.65099305722E-02  0.65005675537E-02 -0.20392699539E-01  0.22371829811E-01  0.00000000000E+00 0.  1.
     999901    1    3    3    0    0  0.10351994180E+00 -0.39207089681E-01 -0.61261702226E-01  0.88904812603E+00  0.88000000000E+00 0. -1.
        -11    1    4    4    0    0 -0.66123329359E-01  0.21349349455E-01  0.42885993148E-01  0.81655121927E-01  0.51100000000E-03 0.  1.
         11    1    4    4    0    0 -0.30886681867E-01  0.11357172673E-01  0.38768408617E-01  0.50854922236E-01  0.51100000000E-03 0. -1.
</event>
<event>
 8    1  0.1202249E+005  0.1043930E+01  0.7957747E-01            NaN
         13   -1    0    0    0    0  0.00000000000E+00  0.00000000000E+00  0.74505805969E-08  0.10566000000E+00  0.10566000000E+00 0.  1.
     999900   -1    0    0    0    0 -0.00000000000E+00 -0.00000000000E+00 -0.74505805969E-08  0.93827000000E+00  0.93827000000E+00 0.  1.
     999902    2    1    2    0    0 -0.18974569515E-01  0.10146844220E-01  0.10434305600E-01  0.10200162494E+01  0.10197358881E+01 0.  0.
     999903    2    3    3    0    0  0.10301786207E+00  0.44887122062E-01  0.61163094266E-01  0.12947571112E+00  0.19887233037E-01 0.  0.
         14    1    1    2    0    0  0.18974569515E-01 -0.10146844220E-01 -0.10434305600E-01  0.23913750631E-01  0.00000000000E+00 0.  1.
     999901    1    3    3    0    0 -0.12199243158E+00 -0.34740277842E-01 -0.50728788665E-01  0.89054053825E+00  0.88000000000E+00 0.  1.
        -11    1    4    4    0    0  0.22585627563E-01  0.32709582648E-02  0.18426863700E-01  0.29336328454E-01  0.51100000000E-03 0.  1.
         11    1    4    4    0    0  0.80432234503E-01  0.41616163797E-01  0.42736230566E-01  0.10013938266E+00  0.51100000000E-03 0. -1.
</event>
<event>
 8    1  0.1202249E+005  0.1043930E+01  0.7957747E-01            NaN
         13   -1    0    0    0    0  0.00000000000E+00  0.00000000000E+00  0.74505805969E-08  0.10566000000E+00  0.10566000000E+00 0.  1.
     999900   -1    0    0    0    0 -0.00000000000E+00 -0.00000000000E+00 -0.74505805969E-08  0.93827000000E+00  0.93827000000E+00 0. -1.
     999902    2    1    2    0    0 -0.24295618698E-01  0.42675200961E-02 -0.24623592851E-04  0.10192624216E+01  0.10189638829E+01 0.  0.
     999903    2    3    3    0    0  0.53467920988E-02  0.10907331422E+00  0.67528152110E-01  0.12997826880E+00  0.20216898127E-01 0.  0.
         14    1    1    2    0    0  0.24295618698E-01 -0.42675200961E-02  0.24623592851E-04  0.24667578357E-01  0.00000000000E+00 0. -1.
     999901    1    3    3    0    0 -0.29642410797E-01 -0.10480579413E+00 -0.67552775703E-01  0.88928415285E+00  0.88000000000E+00 0. -1.
        -11    1    4    4    0    0  0.46500031129E-02  0.91404517658E-02  0.19635544586E-02  0.10454044889E-01  0.51100000000E-03 0.  1.
         11    1    4    4    0    0  0.69678898590E-03  0.99932862459E-01  0.65564597652E-01  0.11952422391E+00  0.51100000000E-03 0. -1.
</event>
<event>
 8    1  0.1202249E+005  0.1043930E+01  0.7957747E-01            NaN
         13   -1    0    0    0    0  0.00000000000E+00  0.00000000000E+00  0.74505805969E-08  0.10566000000E+00  0.10566000000E+00 0. -1.
     999900   -1    0    0    0    0 -0.00000000000E+00 -0.00000000000E+00 -0.74505805969E-08  0.93827000000E+00  0.93827000000E+00 0.  1.
     999902    2    1    2    0    0 -0.10008183807E-01 -0.16430014830E-03  0.22611523750E-01  0.10192020453E+01  0.10189020254E+01 0.  0.
     999903    2    3    3    0    0 -0.47608450193E-02 -0.94035407636E-01  0.89851560939E-01  0.13164329119E+00  0.19782051908E-01 0.  0.
         14    1    1    2    0    0  0.10008183807E-01  0.16430014830E-03 -0.22611523750E-01  0.24727954706E-01  0.00000000000E+00 0.  1.
     999901    1    3    3    0    0 -0.52473387879E-02  0.93871107488E-01 -0.67240037189E-01  0.88755875410E+00  0.88000000000E+00 0.  1.
        -11    1    4    4    0    0  0.69188785651E-02 -0.36808692350E-01  0.29733990987E-01  0.47823864902E-01  0.51100000000E-03 0.  1.
         11    1    4    4    0    0 -0.11679723584E-01 -0.57226715286E-01  0.60117569952E-01  0.83819426288E-01  0.51100000000E-03 0. -1.
</event>
<event>
 8    1  0.1202249E+005  0.1043930E+01  0.7957747E-01            NaN
         13   -1    0    0    0    0  0.00000000000E+00  0.00000000000E+00  0.74505805969E-08  0.10566000000E+00  0.10566000000E+00 0. -1.
     999900   -1    0    0    0    0 -0.00000000000E+00 -0.00000000000E+00 -0.74505805969E-08  0.93827000000E+00  0.93827000000E+00 0.  1.
     999902    2    1    2    0    0 -0.58518209191E-02  0.34480465693E-04  0.22537557799E-01  0.10206451013E+01  0.10203794570E+01 0.  0.
     999903    2    3    3    0    0 -0.29763417131E-01 -0.93143162740E-01  0.87788090410E-01  0.13300132721E+00  0.20520586213E-01 0.  0.
         14    1    1    2    0    0  0.58518209191E-02 -0.34480465693E-04 -0.22537557799E-01  0.23284898722E-01  0.00000000000E+00 0.  1.
     999901    1    3    3    0    0  0.23911596212E-01  0.93177643206E-01 -0.65250532611E-01  0.88764377406E+00  0.88000000000E+00 0.  1.
        -11    1    4    4    0    0 -0.29094672002E-01 -0.83771560549E-01  0.70390111202E-01  0.11322192001E+00  0.51100000000E-03 0.  1.
         11    1    4    4    0    0 -0.66874512883E-03 -0.93716021906E-02  0.17397979208E-01  0.19779407200E-01  0.51100000000E-03 0. -1.
</event>
<event>
 8    1  0.1202249E+005  0.1043930E+01  0.7957747E-01            NaN
         13   -1    0    0    0    0  0.00000000000E+00  0.00000000000E+00  0.74505805969E-08  0.10566000000E+00  0.10566000000E+00 0.  1.
     999900   -1    0    0    0    0 -0.00000000000E+00 -0.00000000000E+00 -0.74505805969E-08  0.93827000000E+00  0.93827000000E+00 0.  1.
     999902    2    1    2    0    0  0.17416363227E-01  0.87859585642E-02 -0.14127205492E-01  0.10198447200E+01  0.10195602740E+01 0.  0.
     999903    2    3    3    0    0 -0.62883997458E-01 -0.52142316350E-01  0.95695632102E-01  0.12730818954E+00  0.19403680836E-01 0.  0.
         14    1    1    2    0    0 -0.17416363227E-01 -0.87859585642E-02  0.14127205492E-01  0.24085279965E-01  0.00000000000E+00 0.  1.
     999901    1    3    3    0    0  0.80300360685E-01  0.60928274915E-01 -0.10982283759E+00  0.89253653049E+00  0.88000000000E+00 0.  1.
        -11    1    4    4    0    0 -0.24153545127E-01 -0.32397598061E-01  0.43451943508E-01  0.59340800617E-01  0.51100000000E-03 0.  1.
         11    1    4    4    0    0 -0.38730452331E-01 -0.19744718290E-01  0.52243688595E-01  0.67967388924E-01  0.51100000000E-03 0. -1.
</event>
<event>
 8    1  0.1202249E+005  0.1043930E+01  0.7957747E-01            NaN
         13   -1    0    0    0    0  0.00000000000E+00  0.00000000000E+00  0.74505805969E-08  0.10566000000E+00  0.10566000000E+00 0.  1.
     999900   -1    0    0    0    0 -0.00000000000E+00 -0.00000000000E+00 -0.74505805969E-08  0.93827000000E+00  0.93827000000E+00 0. -1.
     999902    2    1    2    0    0 -0.44902397128E-02  0.22846408707E-02  0.24471127285E-01  0.10189456468E+01  0.10186392949E+01 0.  0.
     999903    2    3    3    0    0  0.12506947272E+00 -0.91344695991E-02  0.24909997298E-01  0.12938603224E+00  0.19860156856E-01 0.  0.
         14    1    1    2    0    0  0.44902397128E-02 -0.22846408707E-02 -0.24471127285E-01  0.24984353247E-01  0.00000000000E+00 0. -1.
     999901    1    3    3    0    0 -0.12955971244E+00  0.11419110470E-01 -0.43887001334E-03  0.88955961452E+00  0.88000000000E+00 0. -1.
        -11    1    4    4    0    0  0.67585537711E-01 -0.61646443917E-02  0.34588446451E-02  0.67956106977E-01  0.51100000000E-03 0.  1.
         11    1    4    4    0    0  0.57483935013E-01 -0.29698252073E-02  0.21451152653E-01  0.61429925260E-01  0.51100000000E-03 0. -1.
</event>
<event>
 8    1  0.1202249E+005  0.1043930E+01  0.7957747E-01            NaN
         13   -1    0    0    0    0  0.00000000000E+00  0.00000000000E+00  0.74505805969E-08  0.10566000000E+00  0.10566000000E+00 0. -1.
     999900   -1    0    0    0    0 -0.00000000000E+00 -0.00000000000E+00 -0.74505805969E-08  0.93827000000E+00  0.93827000000E+00 0. -1.
     999902    2    1    2    0    0 -0.14193579253E-01 -0.14603879316E-01  0.11943298906E-01  0.10203212437E+01  0.10200480710E+01 0.  0.
     999903    2    3    3    0    0 -0.12339712704E+00 -0.44652315419E-01  0.82880555332E-02  0.13305483270E+00  0.20352307190E-01 0.  0.
         14    1    1    2    0    0  0.14193579253E-01  0.14603879316E-01 -0.11943298906E-01  0.23608756254E-01  0.00000000000E+00 0. -1.
     999901    1    3    3    0    0  0.10920354778E+00  0.30048436103E-01  0.36552433726E-02  0.88726641104E+00  0.88000000000E+00 0.  1.
        -11    1    4    4    0    0 -0.55158607872E-01 -0.17600417292E-01 -0.62003083377E-02  0.58231878346E-01  0.51100000000E-03 0. -1.
         11    1    4    4    0    0 -0.68238519165E-01 -0.27051898127E-01  0.14488363871E-01  0.74822954357E-01  0.51100000000E-03 0.  1.
</event>
<event>
 8    1  0.1202249E+005  0.1043930E+01  0.7957747E-01            NaN
         13   -1    0    0    0    0  0.00000000000E+00  0.00000000000E+00  0.74505805969E-08  0.10566000000E+00  0.10566000000E+00 0.  1.
     999900   -1    0    0    0    0 -0.00000000000E+00 -0.00000000000E+00 -0.74505805969E-08  0.93827000000E+00  0.93827000000E+00 0. -1.
     999902    2    1    2    0    0  0.13851740105E-01  0.76547429315E-02 -0.17695241527E-01  0.10201900049E+01  0.10199137507E+01 0.  0.
     999903    2    3    3    0    0  0.98019677601E-01  0.65899768387E-01 -0.58516709437E-01  0.13331734387E+00  0.19966777973E-01 0.  0.
         14    1    1    2    0    0 -0.13851740105E-01 -0.76547429315E-02  0.17695241527E-01  0.23739995071E-01  0.00000000000E+00 0.  1.
     999901    1    3    3    0    0 -0.84167937496E-01 -0.58245025456E-01  0.40821467911E-01  0.88687266106E+00  0.88000000000E+00 0.  1.
        -11    1    4    4    0    0  0.73259000519E-01  0.46219138033E-01 -0.51961957529E-01  0.10101186083E+00  0.51100000000E-03 0. -1.
         11    1    4    4    0    0  0.24760677081E-01  0.19680630354E-01 -0.65547519080E-02  0.32305483037E-01  0.51100000000E-03 0.  1.
</event>
<event>
 8    1  0.1202249E+005  0.1043930E+01  0.7957747E-01            NaN
         13   -1    0    0    0    0  0.00000000000E+00  0.00000000000E+00  0.74505805969E-08  0.10566000000E+00  0.10566000000E+00 0.  1.
     999900   -1    0    0    0    0 -0.00000000000E+00 -0.00000000000E+00 -0.74505805969E-08  0.93827000000E+00  0.93827000000E+00 0.  1.
     999902    2    1    2    0    0  0.54596476229E-02 -0.22451465416E-01  0.30347118611E-02  0.10206258045E+01  0.10203597147E+01 0.  0.
     999903    2    3    3    0    0  0.17130337492E-01  0.83501433253E-01 -0.92999595218E-01  0.12900659774E+00  0.26978504998E-01 0.  0.
         14    1    1    2    0    0 -0.54596476229E-02  0.22451465416E-01 -0.30347118611E-02  0.23304195493E-01  0.00000000000E+00 0.  1.
     999901    1    3    3    0    0 -0.11670689869E-01 -0.10595289867E+00  0.96034307079E-01  0.89161920677E+00  0.88000000000E+00 0. -1.
        -11    1    4    4    0    0  0.22095350183E-01  0.52441323232E-01 -0.50173242261E-01  0.75867728594E-01  0.51100000000E-03 0.  1.
         11    1    4    4    0    0 -0.49650126915E-02  0.31060110021E-01 -0.42826352957E-01  0.53138869147E-01  0.51100000000E-03 0. -1.
</event>
<event>
 8    1  0.1202249E+005  0.1043930E+01  0.7957747E-01            NaN
         13   -1    0    0    0    0  0.00000000000E+00  0.00000000000E+00  0.74505805969E-08  0.10566000000E+00  0.10566000000E+00 0. -1.
     999900   -1    0    0    0    0 -0.00000000000E+00 -0.00000000000E+00 -0.74505805969E-08  0.93827000000E+00  0.93827000000E+00 0.  1.
     999902    2    1    2    0    0 -0.23220375352E-01 -0.57321958143E-02 -0.13244424220E-02  0.10199759179E+01  0.10196945989E+01 0.  0.
     999903    2    3    3    0    0 -0.11029408987E+00  0.79272521833E-02 -0.70824739589E-01  0.13284644396E+00  0.20109856956E-01 0.  0.
         14    1    1    2    0    0  0.23220375352E-01  0.57321958143E-02  0.13244424220E-02  0.23954082075E-01  0.00000000000E+00 0. -1.
     999901    1    3    3    0    0  0.87073714515E-01 -0.13659447998E-01  0.69500297168E-01  0.88712947397E+00  0.88000000000E+00 0. -1.
        -11    1    4    4    0    0 -0.48770284920E-01 -0.28975228687E-02 -0.40208555518E-01  0.63276578509E-01  0.51100000000E-03 0. -1.
         11    1    4    4    0    0 -0.61523804947E-01  0.10824775052E-01 -0.30616184072E-01  0.69569865446E-01  0.51100000000E-03 0.  1.
</event>
<event>
 8    1  0.1202249E+005  0.1043930E+01  0.7957747E-01            NaN
         13   -1    0    0    0    0  0.00000000000E+00  0.00000000000E+00  0.74505805969E-08  0.10566000000E+00  0.10566000000E+00 0.  1.
     999900   -1    0    0    0    0 -0.00000000000E+00 -0.00000000000E+00 -0.74505805969E-08  0.93827000000E+00  0.93827000000E+00 0. -1.
     999902    2    1    2    0    0 -0.23465591703E-01  0.61858347941E-02  0.11141214050E-02  0.10196372066E+01  0.10193477783E+01 0.  0.
     999903    2    3    3    0    0  0.25074348416E-01  0.46890795612E-01 -0.11618588922E+00  0.12959658271E+00  0.21648180887E-01 0.  0.
         14    1    1    2    0    0  0.23465591703E-01 -0.61858347941E-02 -0.11141214050E-02  0.24292793429E-01  0.00000000000E+00 0.  1.
     999901    1    3    3    0    0 -0.48539940119E-01 -0.40704960818E-01  0.11730001063E+00  0.89004062386E+00  0.88000000000E+00 0. -1.
        -11    1    4    4    0    0  0.82037624909E-02  0.22818323541E-01 -0.76192384737E-01  0.79959478620E-01  0.51100000000E-03 0.  1.
         11    1    4    4    0    0  0.16870585925E-01  0.24072472070E-01 -0.39993504483E-01  0.49637104095E-01  0.51100000000E-03 0. -1.
</event>
<event>
 8    1  0.1202249E+005  0.1043930E+01  0.7957747E-01            NaN
         13   -1    0    0    0    0  0.00000000000E+00  0.00000000000E+00  0.74505805969E-08  0.10566000000E+00  0.10566000000E+00 0. -1.
     999900   -1    0    0    0    0 -0.00000000000E+00 -0.00000000000E+00 -0.74505805969E-08  0.93827000000E+00  0.93827000000E+00 0. -1.
     999902    2    1    2    0    0  0.22722236444E-01  0.56894856319E-02  0.61901532106E-02  0.10197021591E+01  0.10194142951E+01 0.  0.
     999903    2    3    3    0    0 -0.99515826972E-01 -0.76817818815E-01 -0.25810524120E-02  0.12738689340E+00  0.20405432429E-01 0.  0.
         14    1    1    2    0    0 -0.22722236444E-01 -0.56894856319E-02 -0.61901532106E-02  0.24227840856E-01  0.00000000000E+00 0.  1.
     999901    1    3    3    0    0  0.12223806342E+00  0.82507304447E-01  0.87712056226E-02  0.89231526575E+00  0.88000000000E+00 0.  1.
        -11    1    4    4    0    0 -0.18552485718E-01 -0.52211361155E-02 -0.30279133060E-03  0.19282318124E-01  0.51100000000E-03 0. -1.
         11    1    4    4    0    0 -0.80963341254E-01 -0.71596682699E-01 -0.22782610814E-02  0.10810457527E+00  0.51100000000E-03 0.  1.
</event>
<event>
 8    1  0.1202249E+005  0.1043930E+01  0.7957747E-01            NaN
         13   -1    0    0    0    0  0.00000000000E+00  0.00000000000E+00  0.74505805969E-08  0.10566000000E+00  0.10566000000E+00 0.  1.
     999900   -1    0    0    0    0 -0.00000000000E+00 -0.00000000000E+00 -0.74505805969E-08  0.93827000000E+00  0.93827000000E+00 0. -1.
     999902    2    1    2    0    0  0.94840941200E-03  0.22112682455E-01 -0.70763089655E-02  0.10206932973E+01  0.10204287642E+01 0.  0.
     999903    2    3    3    0    0 -0.43917127570E-02  0.13199973555E+00 -0.95751795096E-02  0.13383934891E+00  0.19444020374E-01 0.  0.
         14    1    1    2    0    0 -0.94840941200E-03 -0.22112682455E-01  0.70763089655E-02  0.23236702743E-01  0.00000000000E+00 0. -1.
     999901    1    3    3    0    0  0.53401221690E-02 -0.10988705309E+00  0.24988705441E-02  0.88685394835E+00  0.88000000000E+00 0. -1.
        -11    1    4    4    0    0 -0.72398356192E-03  0.12642046197E+00 -0.11290580214E-01  0.12692673351E+00  0.51100000000E-03 0. -1.
         11    1    4    4    0    0 -0.36677291950E-02  0.55792735833E-02  0.17154007045E-02  0.69126154054E-02  0.51100000000E-03 0.  1.
</event>
<event>
 8    1  0.1202249E+005  0.1043930E+01  0.7957747E-01            NaN
         13   -1    0    0    0    0  0.00000000000E+00  0.00000000000E+00  0.74505805969E-08  0.10566000000E+00  0.10566000000E+00 0. -1.
     999900   -1    0    0    0    0 -0.00000000000E+00 -0.00000000000E+00 -0.74505805969E-08  0.93827000000E+00  0.93827000000E+00 0.  1.
     999902    2    1    2    0    0  0.42615123351E-02  0.20060710229E-01 -0.10257238007E-01  0.10209995941E+01  0.10207420672E+01 0.  0.
     999903    2    3    3    0    0 -0.76276126452E-01  0.40822167567E-01 -0.98197501216E-01  0.13271425749E+00  0.22041507791E-01 0.  0.
         14    1    1    2    0    0 -0.42615123351E-02 -0.20060710229E-01  0.10257238007E-01  0.22930405880E-01  0.00000000000E+00 0.  1.
     999901    1    3    3    0    0  0.80537638787E-01 -0.20761457337E-01  0.87940263209E-01  0.88828533663E+00  0.88000000000E+00 0. -1.
        -11    1    4    4    0    0 -0.58063510934E-01  0.39344107090E-01 -0.84813122549E-01  0.11005842513E+00  0.51100000000E-03 0. -1.
         11    1    4    4    0    0 -0.18212615517E-01  0.14780604763E-02 -0.13384378667E-01  0.22655832363E-01  0.51100000000E-03 0.  1.
</event>
<event>
 8    1  0.1202249E+005  0.1043930E+01  0.7957747E-01            NaN
         13   -1    0    0    0    0  0.00000000000E+00  0.00000000000E+00  0.74505805969E-08  0.10566000000E+00  0.10566000000E+00 0. -1.
     999900   -1    0    0    0    0 -0.00000000000E+00 -0.00000000000E+00 -0.74505805969E-08  0.93827000000E+00  0.93827000000E+00 0.  1.
     999902    2    1    2    0    0  0.20833582349E-01 -0.11501462924E-01  0.72054090870E-03  0.10201215775E+01  0.10198437095E+01 0.  0.
     999903    2    3    3    0    0  0.55015116943E-01  0.63807623911E-01  0.99391081136E-01  0.13075342461E+00  0.10945093681E-01 0.  0.
         14    1    1    2    0    0 -0.20833582349E-01  0.11501462924E-01 -0.72054090870E-03  0.23808422503E-01  0.00000000000E+00 0.  1.
     999901    1    3    3    0    0 -0.34181534594E-01 -0.75309086834E-01 -0.98670540227E-01  0.88936815289E+00  0.88000000000E+00 0.  1.
        -11    1    4    4    0    0  0.13481567554E-01  0.13822682377E-01  0.29999758948E-01  0.35680048623E-01  0.51100000000E-03 0. -1.
         11    1    4    4    0    0  0.41533549389E-01  0.49984941533E-01  0.69391322188E-01  0.95073375984E-01  0.51100000000E-03 0.  1.
</event>
<event>
 8    1  0.1202249E+005  0.1043930E+01  0.7957747E-01            NaN
         13   -1    0    0    0    0  0.00000000000E+00  0.00000000000E+00  0.74505805969E-08  0.10566000000E+00  0.10566000000E+00 0. -1.
     999900   -1    0    0    0    0 -0.00000000000E+00 -0.00000000000E+00 -0.74505805969E-08  0.93827000000E+00  0.93827000000E+00 0. -1.
     999902    2    1    2    0    0  0.22316975660E-01 -0.51564139538E-04 -0.27066208846E-02  0.10214494338E+01  0.10212020221E+01 0.  0.
     999903    2    3    3    0    0  0.10069149087E+00  0.71635066072E-01 -0.47895060320E-01  0.13391152886E+00  0.19183371293E-01 0.  0.
         14    1    1    2    0    0 -0.22316975660E-01  0.51564139538E-04  0.27066208846E-02  0.22480566231E-01  0.00000000000E+00 0. -1.
     999901    1    3    3    0    0 -0.78374515212E-01 -0.71686630211E-01  0.45188439435E-01  0.88753790491E+00  0.88000000000E+00 0. -1.
        -11    1    4    4    0    0  0.41757427903E-01  0.41432990139E-01 -0.22910327868E-01  0.63130972596E-01  0.51100000000E-03 0.  1.
         11    1    4    4    0    0  0.58934062969E-01  0.30202075932E-01 -0.24984732452E-01  0.70780556267E-01  0.51100000000E-03 0. -1.
</event>
<event>
 8    1  0.1202249E+005  0.1043930E+01  0.7957747E-01            NaN
         13   -1    0    0    0    0  0.00000000000E+00  0.00000000000E+00  0.74505805969E-08  0.10566000000E+00  0.10566000000E+00 0.  1.
     999900   -1    0    0    0    0 -0.00000000000E+00 -0.00000000000E+00 -0.74505805969E-08  0.93827000000E+00  0.93827000000E+00 0. -1.
     999902    2    1    2    0    0 -0.17373529438E-01 -0.16462237976E-01  0.18244501657E-02  0.10199263873E+01  0.10196438898E+01 0.  0.
     999903    2    3    3    0    0  0.12610865603E+00 -0.27932958491E-02 -0.11314268082E-01  0.12810431791E+00  0.19274542201E-01 0.  0.
         14    1    1    2    0    0  0.17373529438E-01  0.16462237976E-01 -0.18244501657E-02  0.24003612702E-01  0.00000000000E+00 0. -1.
     999901    1    3    3    0    0 -0.14348218547E+00 -0.13668942127E-01  0.13138718248E-01  0.89182206939E+00  0.88000000000E+00 0.  1.
        -11    1    4    4    0    0  0.35660727044E-01 -0.69901865554E-02  0.28582386063E-02  0.36455189073E-01  0.51100000000E-03 0.  1.
         11    1    4    4    0    0  0.90447928990E-01  0.41968907063E-02 -0.14172506688E-01  0.91649128839E-01  0.51100000000E-03 0. -1.
</event>
<event>
 8    1  0.1202249E+005  0.1043930E+01  0.7957747E-01            NaN
         13   -1    0    0    0    0  0.00000000000E+00  0.00000000000E+00  0.74505805969E-08  0.10566000000E+00  0.10566000000E+00 0.  1.
     999900   -1    0    0    0    0 -0.00000000000E+00 -0.00000000000E+00 -0.74505805969E-08  0.93827000000E+00  0.93827000000E+00 0.  1.
     999902    2    1    2    0    0  0.20218023639E-01  0.57778255582E-02 -0.10059599380E-01  0.10206201890E+01  0.10203539694E+01 0.  0.
     999903    2    3    3    0    0 -0.12204773348E+00 -0.22773884882E-01 -0.26972227506E-01  0.12857715037E+00  0.19755593148E-01 0.  0.
         14    1    1    2    0    0 -0.20218023639E-01 -0.57778255582E-02  0.10059599380E-01  0.23309810976E-01  0.00000000000E+00 0.  1.
     999901    1    3    3    0    0  0.14226575712E+00  0.28551710440E-01  0.16912628126E-01  0.89204303865E+00  0.88000000000E+00 0.  1.
        -11    1    4    4    0    0 -0.10988489851E+00 -0.14941649525E-01 -0.26848946753E-01  0.11410114318E+00  0.51100000000E-03 0.  1.
         11    1    4    4    0    0 -0.12162834970E-01 -0.78322353568E-02 -0.12328075330E-03  0.14476007196E-01  0.51100000000E-03 0. -1.
</event>
<event>
 8    1  0.1202249E+005  0.1043930E+01  0.7957747E-01            NaN
         13   -1    0    0    0    0  0.00000000000E+00  0.00000000000E+00  0.74505805969E-08  0.10566000000E+00  0.10566000000E+00 0.  1.
     999900   -1    0    0    0    0 -0.00000000000E+00 -0.00000000000E+00 -0.74505805969E-08  0.93827000000E+00  0.93827000000E+00 0.  1.
     999902    2    1    2    0    0 -0.21645126474E-01 -0.13321626895E-02 -0.24108985457E-01  0.10115027069E+01  0.10109827876E+01 0.  0.
     999903    2    3    3    0    0 -0.77508274817E-01  0.91761770939E-01  0.21507617462E-01  0.12365809985E+00  0.20024804083E-01 0.  0.
         14    1    1    2    0    0  0.21645126474E-01  0.13321626895E-02  0.24108985457E-01  0.32427293092E-01  0.00000000000E+00 0. -1.
     999901    1    3    3    0    0  0.55863148343E-01 -0.93093933628E-01 -0.45616602919E-01  0.88784460706E+00  0.88000000000E+00 0.  1.
        -11    1    4    4    0    0 -0.86473718726E-02  0.16814112903E-01 -0.25161149487E-02  0.19080969275E-01  0.51100000000E-03 0.  1.
         11    1    4    4    0    0 -0.68860902945E-01  0.74947658036E-01  0.24023732410E-01  0.10457713058E+00  0.51100000000E-03 0. -1.
</event>
<event>
 8    1  0.1202249E+005  0.1043930E+01  0.7957747E-01            NaN
         13   -1    0    0    0    0  0.00000000000E+00  0.00000000000E+00  0.74505805969E-08  0.10566000000E+00  0.10566000000E+00 0.  1.
     999900   -1    0    0    0    0 -0.00000000000E+00 -0.00000000000E+00 -0.74505805969E-08  0.93827000000E+00  0.93827000000E+00 0. -1.
     999902    2    1    2    0    0 -0.10797108692E-01 -0.11397323207E-02  0.21409180987E-01  0.10199252176E+01  0.10196426923E+01 0.  0.
     999903    2    3    3    0    0  0.57708614100E-01  0.10068811879E+00  0.56636240650E-01  0.13071045671E+00  0.20228156858E-01 0.  0.
         14    1    1    2    0    0  0.10797108692E-01  0.11397323207E-02 -0.21409180987E-01  0.24004782366E-01  0.00000000000E+00 0. -1.
     999901    1    3    3    0    0 -0.68505722792E-01 -0.10182785112E+00 -0.35227059663E-01  0.88921476093E+00  0.88000000000E+00 0. -1.
        -11    1    4    4    0    0  0.32838640678E-01  0.75290859713E-01  0.42111282183E-01  0.92307697869E-01  0.51100000000E-03 0.  1.
         11    1    4    4    0    0  0.24869973422E-01  0.25397259082E-01  0.14524958467E-01  0.38402758838E-01  0.51100000000E-03 0. -1.
</event>
<event>
 8    1  0.1202249E+005  0.1043930E+01  0.7957747E-01            NaN
         13   -1    0    0    0    0  0.00000000000E+00  0.00000000000E+00  0.74505805969E-08  0.10566000000E+00  0.10566000000E+00 0. -1.
     999900   -1    0    0    0    0 -0.00000000000E+00 -0.00000000000E+00 -0.74505805969E-08  0.93827000000E+00  0.93827000000E+00 0. -1.
     999902    2    1    2    0    0 -0.23467499058E-01  0.35390060478E-02  0.13784564508E-02  0.10201571538E+01  0.10198801254E+01 0.  0.
     999903    2    3    3    0    0  0.15548613447E-02  0.93717749643E-01 -0.88702428129E-01  0.13062194362E+00  0.20212303392E-01 0.  0.
         14    1    1    2    0    0  0.23467499058E-01 -0.35390060478E-02 -0.13784564508E-02  0.23772846233E-01  0.00000000000E+00 0. -1.
     999901    1    3    3    0    0 -0.25022360402E-01 -0.90178743595E-01  0.90080884580E-01  0.88953521014E+00  0.88000000000E+00 0.  1.
        -11    1    4    4    0    0 -0.46196121586E-03  0.48387428459E-01 -0.32080185258E-01  0.58059934965E-01  0.51100000000E-03 0. -1.
         11    1    4    4    0    0  0.20168225605E-02  0.45330321184E-01 -0.56622242872E-01  0.72562008659E-01  0.51100000000E-03 0.  1.
</event>
<event>
 8    1  0.1202249E+005  0.1043930E+01  0.7957747E-01            NaN
         13   -1    0    0    0    0  0.00000000000E+00  0.00000000000E+00  0.74505805969E-08  0.10566000000E+00  0.10566000000E+00 0. -1.
     999900   -1    0    0    0    0 -0.00000000000E+00 -0.00000000000E+00 -0.74505805969E-08  0.93827000000E+00  0.93827000000E+00 0. -1.
     999902    2    1    2    0    0  0.23691351951E-01 -0.33873013965E-02 -0.17399247215E-02  0.10199345566E+01  0.10196522536E+01 0.  0.
     999903    2    3    3    0    0  0.36719884704E-01 -0.66312401923E-01 -0.10430015077E+00  0.13165086825E+00  0.26603478719E-01 0.  0.
         14    1    1    2    0    0 -0.23691351951E-01  0.33873013965E-02  0.17399247215E-02  0.23995443444E-01  0.00000000000E+00 0.  1.
     999901    1    3    3    0    0 -0.13028532753E-01  0.62925100526E-01  0.10256022605E+00  0.88828368830E+00  0.88000000000E+00 0.  1.
        -11    1    4    4    0    0  0.18934930301E-01 -0.53160533232E-01 -0.86368034125E-01  0.10317108276E+00  0.51100000000E-03 0.  1.
         11    1    4    4    0    0  0.17784954403E-01 -0.13151868690E-01 -0.17932116642E-01  0.28479785487E-01  0.51100000000E-03 0. -1.
</event>
<event>
 8    1  0.1202249E+005  0.1043930E+01  0.7957747E-01            NaN
         13   -1    0    0    0    0  0.00000000000E+00  0.00000000000E+00  0.74505805969E-08  0.10566000000E+00  0.10566000000E+00 0. -1.
     999900   -1    0    0    0    0 -0.00000000000E+00 -0.00000000000E+00 -0.74505805969E-08  0.93827000000E+00  0.93827000000E+00 0. -1.
     999902    2    1    2    0    0 -0.16803043693E-01  0.14185816430E-01  0.15193592254E-02  0.10218871300E+01  0.10216493617E+01 0.  0.
     999903    2    3    3    0    0  0.91270557705E-01  0.79069675005E-01  0.48447039254E-01  0.13166691816E+00  0.20167635369E-01 0.  0.
         14    1    1    2    0    0  0.16803043693E-01 -0.14185816430E-01 -0.15193592254E-02  0.22042869994E-01  0.00000000000E+00 0. -1.
     999901    1    3    3    0    0 -0.10807360140E+00 -0.64883858575E-01 -0.46927680029E-01  0.89022021184E+00  0.88000000000E+00 0. -1.
        -11    1    4    4    0    0  0.70439871039E-01  0.68388999221E-01  0.44997299296E-01  0.10799929959E+00  0.51100000000E-03 0.  1.
         11    1    4    4    0    0  0.20830686666E-01  0.10680675785E-01  0.34497399580E-02  0.23667618574E-01  0.51100000000E-03 0. -1.
</event>
<event>
 8    1  0.1202249E+005  0.1043930E+01  0.7957747E-01            NaN
         13   -1    0    0    0    0  0.00000000000E+00  0.00000000000E+00  0.74505805969E-08  0.10566000000E+00  0.10566000000E+00 0. -1.
     999900   -1    0    0    0    0 -0.00000000000E+00 -0.00000000000E+00 -0.74505805969E-08  0.93827000000E+00  0.93827000000E+00 0.  1.
     999902    2    1    2    0    0  0.15489143310E-01 -0.17635323331E-01 -0.13043058793E-03  0.10204579911E+01  0.10201880103E+01 0.  0.
     999903    2    3    3    0    0 -0.95722734914E-01 -0.71693822924E-01  0.48275969717E-01  0.13049530490E+00  0.19889925218E-01 0.  0.
         14    1    1    2    0    0 -0.15489143310E-01  0.17635323331E-01  0.13043058793E-03  0.23472008896E-01  0.00000000000E+00 0. -1.
     999901    1    3    3    0    0  0.11121187822E+00  0.54058499593E-01 -0.48406400305E-01  0.88996268620E+00  0.88000000000E+00 0.  1.
        -11    1    4    4    0    0 -0.25051366269E-01 -0.27473022271E-01  0.21403945464E-01  0.42903705051E-01  0.51100000000E-03 0. -1.
         11    1    4    4    0    0 -0.70671368645E-01 -0.44220800653E-01  0.26872024253E-01  0.87591599854E-01  0.51100000000E-03 0.  1.
</event>
<event>
 8    1  0.1202249E+005  0.1043930E+01  0.7957747E-01            NaN
         13   -1    0    0    0    0  0.00000000000E+00  0.00000000000E+00  0.74505805969E-08  0.10566000000E+00  0.10566000000E+00 0.  1.
     999900   -1    0    0    0    0 -0.00000000000E+00 -0.00000000000E+00 -0.74505805969E-08  0.93827000000E+00  0.93827000000E+00 0.  1.
     999902    2    1    2    0    0 -0.96894922451E-02  0.21017252330E-01  0.87405291577E-02  0.10191912044E+01  0.10188909182E+01 0.  0.
     999903    2    3    3    0    0  0.98387747735E-01 -0.74601867091E-01  0.23389971711E-01  0.12731772016E+00  0.20423604311E-01 0.  0.
         14    1    1    2    0    0  0.96894922451E-02 -0.21017252330E-01 -0.87405291577E-02  0.24738795553E-01  0.00000000000E+00 0. -1.
     999901    1    3    3    0    0 -0.10807723998E+00  0.95619119421E-01 -0.14649442553E-01  0.89187348428E+00  0.88000000000E+00 0.  1.
        -11    1    4    4    0    0  0.87927515209E-01 -0.70168062688E-01  0.26405261470E-01  0.11555216963E+00  0.51100000000E-03 0. -1.
         11    1    4    4    0    0  0.10460232526E-01 -0.44338044038E-02 -0.30152897595E-02  0.11765550532E-01  0.51100000000E-03 0.  1.
</event>
<event>
 8    1  0.1202249E+005  0.1043930E+01  0.7957747E-01            NaN
         13   -1    0    0    0    0  0.00000000000E+00  0.00000000000E+00  0.74505805969E-08  0.10566000000E+00  0.10566000000E+00 0.  1.
     999900   -1    0    0    0    0 -0.00000000000E+00 -0.00000000000E+00 -0.74505805969E-08  0.93827000000E+00  0.93827000000E+00 0.  1.
     999902    2    1    2    0    0 -0.16814240781E-01  0.68353724439E-02  0.14732438870E-01  0.10205529650E+01  0.10202851899E+01 0.  0.
     999903    2    3    3    0    0 -0.68156339285E-01  0.94728275746E-01 -0.54736604202E-01  0.13196581596E+00  0.28286886207E-01 0.  0.
         14    1    1    2    0    0  0.16814240781E-01 -0.68353724439E-02 -0.14732438870E-01  0.23377034982E-01  0.00000000000E+00 0. -1.
     999901    1    3    3    0    0  0.51342098504E-01 -0.87892903302E-01  0.69469043072E-01  0.88858714906E+00  0.88000000000E+00 0. -1.
        -11    1    4    4    0    0 -0.79094917407E-02  0.14473697777E-01  0.21005954690E-02  0.16634951436E-01  0.51100000000E-03 0.  1.
         11    1    4    4    0    0 -0.60246847544E-01  0.80254577968E-01 -0.56837199671E-01  0.11533086452E+00  0.51100000000E-03 0. -1.
</event>
<event>
 8    1  0.1202249E+005  0.1043930E+01  0.7957747E-01            NaN
         13   -1    0    0    0    0  0.00000000000E+00  0.00000000000E+00  0.74505805969E-08  0.10566000000E+00  0.10566000000E+00 0. -1.
     999900   -1    0    0    0    0 -0.00000000000E+00 -0.00000000000E+00 -0.74505805969E-08  0.93827000000E+00  0.93827000000E+00 0.  1.
     999902    2    1    2    0    0 -0.17541903482E-01 -0.16966959066E-01  0.33769479746E-02  0.10192926329E+01  0.10189948340E+01 0.  0.
     999903    2    3    3    0    0 -0.10788169931E+00  0.56505992293E-01 -0.42290401349E-01  0.13044784330E+00  0.19919175782E-01 0.  0.
         14    1    1    2    0    0  0.17541903482E-01  0.16966959066E-01 -0.33769479746E-02  0.24637367053E-01  0.00000000000E+00 0.  1.
     999901    1    3    3    0    0  0.90339795828E-01 -0.73472951359E-01  0.45667349324E-01  0.88884478965E+00  0.88000000000E+00 0.  1.
        -11    1    4    4    0    0 -0.72192606262E-01  0.39710029486E-01 -0.18718188472E-01  0.84494322539E-01  0.51100000000E-03 0.  1.
         11    1    4    4    0    0 -0.35689093048E-01  0.16795962806E-01 -0.23572212878E-01  0.45953520759E-01  0.51100000000E-03 0. -1.
</event>
<event>
 8    1  0.1202249E+005  0.1043930E+01  0.7957747E-01            NaN
         13   -1    0    0    0    0  0.00000000000E+00  0.00000000000E+00  0.74505805969E-08  0.10566000000E+00  0.10566000000E+00 0.  1.
     999900   -1    0    0    0    0 -0.00000000000E+00 -0.00000000000E+00 -0.74505805969E-08  0.93827000000E+00  0.93827000000E+00 0.  1.
     999902    2    1    2    0    0 -0.21542076202E-01  0.96811060645E-02 -0.58477486555E-02  0.10195993398E+01  0.10193089976E+01 0.  0.
     999903    2    3    3    0    0 -0.86359978263E-01  0.47189004617E-01 -0.86464697233E-01  0.13274687445E+00  0.21464873805E-01 0.  0.
         14    1    1    2    0    0  0.21542076202E-01 -0.96811060645E-02  0.58477486555E-02  0.24330660206E-01  0.00000000000E+00 0.  1.
     999901    1    3    3    0    0  0.64817902061E-01 -0.37507898552E-01  0.80616948578E-01  0.88685246534E+00  0.88000000000E+00 0. -1.
        -11    1    4    4    0    0 -0.17464508799E-01  0.19880040392E-01 -0.19660782794E-01  0.32970177049E-01  0.51100000000E-03 0.  1.
         11    1    4    4    0    0 -0.68895469464E-01  0.27308964225E-01 -0.66803914440E-01  0.99776697406E-01  0.51100000000E-03 0. -1.
</event>
<event>
 8    1  0.1202249E+005  0.1043930E+01  0.7957747E-01            NaN
         13   -1    0    0    0    0  0.00000000000E+00  0.00000000000E+00  0.74505805969E-08  0.10566000000E+00  0.10566000000E+00 0.  1.
     999900   -1    0    0    0    0 -0.00000000000E+00 -0.00000000000E+00 -0.74505805969E-08  0.93827000000E+00  0.93827000000E+00 0.  1.
     999902    2    1    2    0    0 -0.85957859368E-02 -0.93042486894E-02 -0.22218910775E-01  0.10183539062E+01  0.10180326820E+01 0.  0.
     999903    2    3    3    0    0  0.59545036485E-02 -0.33364256711E-01 -0.12439386446E+00  0.13199601227E+00  0.28292825984E-01 0.  0.
         14    1    1    2    0    0  0.85957859368E-02  0.93042486894E-02  0.22218910775E-01  0.25576093829E-01  0.00000000000E+00 0.  1.
     999901    1    3    3    0    0 -0.14550289585E-01  0.24060008021E-01  0.10217495368E+00  0.88635789390E+00  0.88000000000E+00 0. -1.
        -11    1    4    4    0    0 -0.44892289525E-02 -0.56321581264E-04 -0.24226201078E-02  0.51270418269E-02  0.51100000000E-03 0. -1.
         11    1    4    4    0    0  0.10443732601E-01 -0.33307935130E-01 -0.12197124435E+00  0.12686897045E+00  0.51100000000E-03 0.  1.
</event>
<event>
 8    1  0.1202249E+005  0.1043930E+01  0.7957747E-01            NaN
         13   -1    0    0    0    0  0.00000000000E+00  0.00000000000E+00  0.74505805969E-08  0.10566000000E+00  0.10566000000E+00 0.  1.
     999900   -1    0    0    0    0 -0.00000000000E+00 -0.00000000000E+00 -0.74505805969E-08  0.93827000000E+00  0.93827000000E+00 0.  1.
     999902    2    1    2    0    0  0.67445264835E-03  0.21949753526E-01 -0.70984333203E-02  0.10208511282E+01  0.10205902173E+01 0.  0.
     999903    2    3    3    0    0 -0.65452596511E-01  0.64256123390E-01 -0.94408756016E-01  0.13305289214E+00  0.19420790720E-01 0.  0.
         14    1    1    2    0    0 -0.67445264835E-03 -0.21949753526E-01  0.70984333203E-02  0.23078871762E-01  0.00000000000E+00 0. -1.
     999901    1    3    3    0    0  0.66127049160E-01 -0.42306369864E-01  0.87310322696E-01  0.88779823609E+00  0.88000000000E+00 0. -1.
        -11    1    4    4    0    0 -0.56207280986E-01  0.43690791871E-01 -0.70908602305E-01  0.10048101677E+00  0.51100000000E-03 0. -1.
         11    1    4    4    0    0 -0.92453155249E-02  0.20565331518E-01 -0.23500153711E-01  0.32571875369E-01  0.51100000000E-03 0.  1.
</event>
<event>
 8    1  0.1202249E+005  0.1043930E+01  0.7957747E-01            NaN
         13   -1    0    0    0    0  0.00000000000E+00  0.00000000000E+00  0.74505805969E-08  0.10566000000E+00  0.10566000000E+00 0. -1.
     999900   -1    0    0    0    0 -0.00000000000E+00 -0.00000000000E+00 -0.74505805969E-08  0.93827000000E+00  0.93827000000E+00 0.  1.
     999902    2    1    2    0    0  0.23203413722E-01 -0.81022978162E-02  0.19370772742E-02  0.10192764423E+01  0.10189782470E+01 0.  0.
     999903    2    3    3    0    0  0.10807425457E+00 -0.17575200503E-01 -0.71199979749E-01  0.13212266499E+00  0.19950672000E-01 0.  0.
         14    1    1    2    0    0 -0.23203413722E-01  0.81022978162E-02 -0.19370772742E-02  0.24653557687E-01  0.00000000000E+00 0.  1.
     999901    1    3    3    0    0 -0.84870840850E-01  0.94729026866E-02  0.73137057024E-01  0.88715377733E+00  0.88000000000E+00 0. -1.
        -11    1    4    4    0    0  0.26332254692E-01 -0.13079812729E-01 -0.17630526927E-01  0.34286524159E-01  0.51100000000E-03 0. -1.
         11    1    4    4    0    0  0.81741999880E-01 -0.44953877736E-02 -0.53569452823E-01  0.97836140829E-01  0.51100000000E-03 0.  1.
</event>
<event>
 8    1  0.1202249E+005  0.1043930E+01  0.7957747E-01            NaN
         13   -1    0    0    0    0  0.00000000000E+00  0.00000000000E+00  0.74505805969E-08  0.10566000000E+00  0.10566000000E+00 0.  1.
     999900   -1    0    0    0    0 -0.00000000000E+00 -0.00000000000E+00 -0.74505805969E-08  0.93827000000E+00  0.93827000000E+00 0.  1.
     999902    2    1    2    0    0  0.13923381872E-01  0.17205307486E-01  0.60993831213E-02  0.10209716542E+01  0.10207134921E+01 0.  0.
     999903    2    3    3    0    0 -0.72412663066E-01 -0.83400324293E-01 -0.62376039012E-01  0.12841113005E+00  0.19986000411E-01 0.  0.
         14    1    1    2    0    0 -0.13923381872E-01 -0.17205307486E-01 -0.60993831213E-02  0.22958345823E-01  0.00000000000E+00 0. -1.
     999901    1    3    3    0    0  0.86336044938E-01  0.10060563178E+00  0.68475422133E-01  0.89256052413E+00  0.88000000000E+00 0. -1.
        -11    1    4    4    0    0 -0.39116154976E-01 -0.39986731270E-01 -0.20757549069E-01  0.59666986032E-01  0.51100000000E-03 0.  1.
         11    1    4    4    0    0 -0.33296508090E-01 -0.43413593023E-01 -0.41618489942E-01  0.68744144014E-01  0.51100000000E-03 0. -1.
</event>
<event>
 8    1  0.1202249E+005  0.1043930E+01  0.7957747E-01            NaN
         13   -1    0    0    0    0  0.00000000000E+00  0.00000000000E+00  0.74505805969E-08  0.10566000000E+00  0.10566000000E+00 0. -1.
     999900   -1    0    0    0    0 -0.00000000000E+00 -0.00000000000E+00 -0.74505805969E-08  0.93827000000E+00  0.93827000000E+00 0.  1.
     999902    2    1    2    0    0  0.16737970803E-01 -0.16531565053E-01 -0.54133456178E-02  0.10197896475E+01  0.10195038835E+01 0.  0.
     999903    2    3    3    0    0  0.10486317558E+00 -0.57537229241E-01  0.53299224686E-01  0.13249337106E+00  0.20170961321E-01 0.  0.
         14    1    1    2    0    0 -0.16737970803E-01  0.16531565053E-01  0.54133456178E-02  0.24140352534E-01  0.00000000000E+00 0. -1.
     999901    1    3    3    0    0 -0.88125204779E-01  0.41005664188E-01 -0.58712570304E-01  0.88729627641E+00  0.88000000000E+00 0.  1.
        -11    1    4    4    0    0  0.45603925812E-01 -0.13910390675E-01  0.22417479361E-01  0.52687963711E-01  0.51100000000E-03 0.  1.
         11    1    4    4    0    0  0.59259249770E-01 -0.43626838566E-01  0.30881745325E-01  0.79805407348E-01  0.51100000000E-03 0. -1.
</event>
<event>
 8    1  0.1202249E+005  0.1043930E+01  0.7957747E-01            NaN
         13   -1    0    0    0    0  0.00000000000E+00  0.00000000000E+00  0.74505805969E-08  0.10566000000E+00  0.10566000000E+00 0. -1.
     999900   -1    0    0    0    0 -0.00000000000E+00 -0.00000000000E+00 -0.74505805969E-08  0.93827000000E+00  0.93827000000E+00 0.  1.
     999902    2    1    2    0    0 -0.12931037509E-01 -0.13099574567E-01 -0.14184882987E-01  0.10206916375E+01  0.10204270662E+01 0.  0.
     999903    2    3    3    0    0 -0.44945016072E-01 -0.12329411267E+00  0.84474730867E-02  0.13295296281E+00  0.19586674838E-01 0.  0.
         14    1    1    2    0    0  0.12931037509E-01  0.13099574567E-01  0.14184882987E-01  0.23238362470E-01  0.00000000000E+00 0. -1.
     999901    1    3    3    0    0  0.32013978563E-01  0.11019453810E+00 -0.22632356074E-01  0.88773867472E+00  0.88000000000E+00 0.  1.
        -11    1    4    4    0    0 -0.20444996321E-01 -0.80277640411E-01  0.98564167628E-02  0.83426060059E-01  0.51100000000E-03 0.  1.
         11    1    4    4    0    0 -0.24500019752E-01 -0.43016472254E-01 -0.14089436761E-02  0.49526902753E-01  0.51100000000E-03 0. -1.
</event>
<event>
 8    1  0.1202249E+005  0.1043930E+01  0.7957747E-01            NaN
         13   -1    0    0    0    0  0.00000000000E+00  0.00000000000E+00  0.74505805969E-08  0.10566000000E+00  0.10566000000E+00 0. -1.
     999900   -1    0    0    0    0 -0.00000000000E+00 -0.00000000000E+00 -0.74505805969E-08  0.93827000000E+00  0.93827000000E+00 0.  1.
     999902    2    1    2    0    0  0.11374778738E-01  0.19607472330E-01 -0.16780972219E-02  0.10211999632E+01  0.10209469674E+01 0.  0.
     999903    2    3    3    0    0  0.13010678706E+00  0.12661269252E-01 -0.15445992393E-01  0.13309237148E+00  0.19670203002E-01 0.  0.
         14    1    1    2    0    0 -0.11374778738E-01 -0.19607472330E-01  0.16780972219E-02  0.22730036798E-01  0.00000000000E+00 0. -1.
     999901    1    3    3    0    0 -0.11873200832E+00  0.69462030783E-02  0.13767895171E-01  0.88810759172E+00  0.88000000000E+00 0.  1.
        -11    1    4    4    0    0  0.46505395585E-01 -0.45602078616E-02 -0.29496532198E-02  0.46824233996E-01  0.51100000000E-03 0. -1.
         11    1    4    4    0    0  0.83601391479E-01  0.17221477114E-01 -0.12496339173E-01  0.86268137483E-01  0.51100000000E-03 0.  1.
</event>
<event>
 8    1  0.1202249E+005  0.1043930E+01  0.7957747E-01            NaN
         13   -1    0    0    0    0  0.00000000000E+00  0.00000000000E+00  0.74505805969E-08  0.10566000000E+00  0.10566000000E+00 0. -1.
     999900   -1    0    0    0    0 -0.00000000000E+00 -0.00000000000E+00 -0.74505805969E-08  0.93827000000E+00  0.93827000000E+00 0. -1.
     999902    2    1    2    0    0 -0.15627212830E-01 -0.11039394374E-01 -0.14104511264E-01  0.10201599506E+01  0.10198829882E+01 0.  0.
     999903    2    3    3    0    0 -0.68412185805E-01 -0.10419275750E+00 -0.43494603083E-01  0.13318329934E+00  0.17596955510E-01 0.  0.
         14    1    1    2    0    0  0.15627212830E-01  0.11039394374E-01  0.14104511264E-01  0.23770049369E-01  0.00000000000E+00 0. -1.
     999901    1    3    3    0    0  0.52784972975E-01  0.93153363131E-01  0.29390091819E-01  0.88697665129E+00  0.88000000000E+00 0. -1.
        -11    1    4    4    0    0 -0.41888933932E-01 -0.73299519097E-01 -0.22516955307E-01  0.87377209174E-01  0.51100000000E-03 0.  1.
         11    1    4    4    0    0 -0.26523251874E-01 -0.30893238408E-01 -0.20977647775E-01  0.45806090168E-01  0.51100000000E-03 0. -1.
</event>
<event>
 8    1  0.1202249E+005  0.1043930E+01  0.7957747E-01            NaN
         13   -1    0    0    0    0  0.00000000000E+00  0.00000000000E+00  0.74505805969E-08  0.10566000000E+00  0.10566000000E+00 0.  1.
     999900   -1    0    0    0    0 -0.00000000000E+00 -0.00000000000E+00 -0.74505805969E-08  0.93827000000E+00  0.93827000000E+00 0. -1.
     999902    2    1    2    0    0  0.17310289708E-01  0.12115060530E-01  0.88168655502E-02  0.10210355042E+01  0.10207787923E+01 0.  0.
     999903    2    3    3    0    0 -0.10737973485E-01 -0.55437582142E-01  0.11693011574E+00  0.13140718882E+00  0.20163524444E-01 0.  0.
         14    1    1    2    0    0 -0.17310289708E-01 -0.12115060530E-01 -0.88168655502E-02  0.22894495835E-01  0.00000000000E+00 0.  1.
     999901    1    3    3    0    0  0.28048263193E-01  0.67552642672E-01 -0.10811325019E+00  0.88962831535E+00  0.88000000000E+00 0.  1.
        -11    1    4    4    0    0  0.59299513019E-02 -0.17068169436E-01  0.32919810693E-01  0.37556115180E-01  0.51100000000E-03 0.  1.
         11    1    4    4    0    0 -0.16667924787E-01 -0.38369412706E-01  0.84010305046E-01  0.93851073638E-01  0.51100000000E-03 0. -1.
</event>
<event>
 8    1  0.1202249E+005  0.1043930E+01  0.7957747E-01            NaN
         13   -1    0    0    0    0  0.00000000000E+00  0.00000000000E+00  0.74505805969E-08  0.10566000000E+00  0.10566000000E+00 0. -1.
     999900   -1    0    0    0    0 -0.00000000000E+00 -0.00000000000E+00 -0.74505805969E-08  0.93827000000E+00  0.93827000000E+00 0.  1.
     999902    2    1    2    0    0  0.96891444478E-02  0.20494900323E-01 -0.70155014638E-02  0.10201994770E+01  0.10199234458E+01 0.  0.
     999903    2    3    3    0    0 -0.48501254574E-02  0.35312719405E-01 -0.12556484789E+00  0.13200754639E+00  0.19721800315E-01 0.  0.
         14    1    1    2    0    0 -0.96891444478E-02 -0.20494900323E-01  0.70155014638E-02  0.23730522965E-01  0.00000000000E+00 0. -1.
     999901    1    3    3    0    0  0.14539269905E-01 -0.14817819082E-01  0.11854934643E+00  0.88819193065E+00  0.88000000000E+00 0. -1.
        -11    1    4    4    0    0 -0.94809183266E-02  0.73666982878E-02 -0.29557011134E-01  0.31906646395E-01  0.51100000000E-03 0.  1.
         11    1    4    4    0    0  0.46307928692E-02  0.27946021118E-01 -0.96007836759E-01  0.10010089999E+00  0.51100000000E-03 0. -1.
</event>
<event>
 8    1  0.1202249E+005  0.1043930E+01  0.7957747E-01            NaN
         13   -1    0    0    0    0  0.00000000000E+00  0.00000000000E+00  0.74505805969E-08  0.10566000000E+00  0.10566000000E+00 0. -1.
     999900   -1    0    0    0    0 -0.00000000000E+00 -0.00000000000E+00 -0.74505805969E-08  0.93827000000E+00  0.93827000000E+00 0.  1.
     999902    2    1    2    0    0  0.17235029885E-01  0.13534343696E-03  0.17728230446E-01  0.10192044115E+01  0.10189044497E+01 0.  0.
     999903    2    3    3    0    0  0.98276795564E-01 -0.73879376489E-01  0.43725858493E-01  0.13200554808E+00  0.19925441191E-01 0.  0.
         14    1    1    2    0    0 -0.17235029885E-01 -0.13534343696E-03 -0.17728230446E-01  0.24725588521E-01  0.00000000000E+00 0.  1.
     999901    1    3    3    0    0 -0.81041765679E-01  0.74014719926E-01 -0.25997628047E-01  0.88719886340E+00  0.88000000000E+00 0. -1.
        -11    1    4    4    0    0  0.88139176179E-01 -0.63824543967E-01  0.44787531238E-01  0.11767867634E+00  0.51100000000E-03 0. -1.
         11    1    4    4    0    0  0.10137619385E-01 -0.10054832522E-01 -0.10616727448E-02  0.14326871740E-01  0.51100000000E-03 0.  1.
</event>
<event>
 8    1  0.1202249E+005  0.1043930E+01  0.7957747E-01            NaN
         13   -1    0    0    0    0  0.00000000000E+00  0.00000000000E+00  0.74505805969E-08  0.10566000000E+00  0.10566000000E+00 0.  1.
     999900   -1    0    0    0    0 -0.00000000000E+00 -0.00000000000E+00 -0.74505805969E-08  0.93827000000E+00  0.93827000000E+00 0. -1.
     999902    2    1    2    0    0 -0.32248082173E-02 -0.19363362937E-01 -0.12572835707E-01  0.10206187278E+01  0.10203524745E+01 0.  0.
     999903    2    3    3    0    0  0.18400984441E-01  0.10199059408E+00  0.72611387466E-01  0.12795372366E+00  0.18948992074E-01 0.  0.
         14    1    1    2    0    0  0.32248082173E-02  0.19363362937E-01  0.12572835707E-01  0.23311272166E-01  0.00000000000E+00 0.  1.
     999901    1    3    3    0    0 -0.21625792658E-01 -0.12135395702E+00 -0.85184223173E-01  0.89266500417E+00  0.88000000000E+00 0.  1.
        -11    1    4    4    0    0  0.20897846663E-01  0.69963347546E-01  0.54066004213E-01  0.90856942099E-01  0.51100000000E-03 0. -1.
         11    1    4    4    0    0 -0.24968622222E-02  0.32027246534E-01  0.18545383252E-01  0.37096781565E-01  0.51100000000E-03 0.  1.
</event>
<event>
 8    1  0.1202249E+005  0.1043930E+01  0.7957747E-01            NaN
         13   -1    0    0    0    0  0.00000000000E+00  0.00000000000E+00  0.74505805969E-08  0.10566000000E+00  0.10566000000E+00 0.  1.
     999900   -1    0    0    0    0 -0.00000000000E+00 -0.00000000000E+00 -0.74505805969E-08  0.93827000000E+00  0.93827000000E+00 0. -1.
     999902    2    1    2    0    0  0.21365087355E-01  0.14018744151E-01 -0.20401028937E-02  0.10182949817E+01  0.10179722568E+01 0.  0.
     999903    2    3    3    0    0 -0.37237873088E-01 -0.90054818398E-01 -0.78515690027E-01  0.12693976133E+00  0.21271105207E-01 0.  0.
         14    1    1    2    0    0 -0.21365087355E-01 -0.14018744151E-01  0.20401028937E-02  0.25635018335E-01  0.00000000000E+00 0. -1.
     999901    1    3    3    0    0  0.58602960443E-01  0.10407356255E+00  0.76475587133E-01  0.89135522034E+00  0.88000000000E+00 0. -1.
        -11    1    4    4    0    0 -0.13936178353E-01 -0.30558289626E-01 -0.40385795492E-01  0.52529037022E-01  0.51100000000E-03 0.  1.
         11    1    4    4    0    0 -0.23301694735E-01 -0.59496528773E-01 -0.38129894535E-01  0.74410724306E-01  0.51100000000E-03 0. -1.
</event>
<event>
 8    1  0.1202249E+005  0.1043930E+01  0.7957747E-01            NaN
         13   -1    0    0    0    0  0.00000000000E+00  0.00000000000E+00  0.74505805969E-08  0.10566000000E+00  0.10566000000E+00 0. -1.
     999900   -1    0    0    0    0 -0.00000000000E+00 -0.00000000000E+00 -0.74505805969E-08  0.93827000000E+00  0.93827000000E+00 0. -1.
     999902    2    1    2    0    0  0.98702206320E-02 -0.22677272033E-01 -0.27863299719E-02  0.10190413770E+01  0.10187373972E+01 0.  0.
     999903    2    3    3    0    0 -0.15988631618E-01  0.12319131364E+00 -0.99683541138E-02  0.12663008949E+00  0.22451623177E-01 0.  0.
         14    1    1    2    0    0 -0.98702206320E-02  0.22677272033E-01  0.27863299719E-02  0.24888623042E-01  0.00000000000E+00 0. -1.
     999901    1    3    3    0    0  0.25858852250E-01 -0.14586858567E+00  0.71820241419E-02  0.89241128747E+00  0.88000000000E+00 0. -1.
        -11    1    4    4    0    0 -0.14666943717E-01  0.11918737681E+00 -0.13840739696E-01  0.12088249346E+00  0.51100000000E-03 0. -1.
         11    1    4    4    0    0 -0.13216879012E-02  0.40039368338E-02  0.38723855818E-02  0.57475960341E-02  0.51100000000E-03 0.  1.
</event>
<event>
 8    1  0.1202249E+005  0.1043930E+01  0.7957747E-01            NaN
         13   -1    0    0    0    0  0.00000000000E+00  0.00000000000E+00  0.74505805969E-08  0.10566000000E+00  0.10566000000E+00 0. -1.
     999900   -1    0    0    0    0 -0.00000000000E+00 -0.00000000000E+00 -0.74505805969E-08  0.93827000000E+00  0.93827000000E+00 0.  1.
     999902    2    1    2    0    0 -0.34342048773E-02  0.22095696540E-01  0.76027759611E-02  0.10203118762E+01  0.10200384841E+01 0.  0.
     999903    2    3    3    0    0 -0.12645058986E+00 -0.23297071640E-01  0.92969351513E-02  0.13059483999E+00  0.20882385053E-01 0.  0.
         14    1    1    2    0    0  0.34342048773E-02 -0.22095696540E-01 -0.76027759611E-02  0.23618123783E-01  0.00000000000E+00 0.  1.
     999901    1    3    3    0    0  0.12301638498E+00  0.45392768180E-01 -0.16941591902E-02  0.88971703623E+00  0.88000000000E+00 0. -1.
        -11    1    4    4    0    0 -0.11363635139E+00 -0.26965962698E-01  0.65546331275E-02  0.11697695430E+00  0.51100000000E-03 0.  1.
         11    1    4    4    0    0 -0.12814238474E-01  0.36688910588E-02  0.27423020238E-02  0.13617885690E-01  0.51100000000E-03 0. -1.
</event>
<event>
 8    1  0.1202249E+005  0.1043930E+01  0.7957747E-01            NaN
         13   -1    0    0    0    0  0.00000000000E+00  0.00000000000E+00  0.74505805969E-08  0.10566000000E+00  0.10566000000E+00 0. -1.
     999900   -1    0    0    0    0 -0.00000000000E+00 -0.00000000000E+00 -0.74505805969E-08  0.93827000000E+00  0.93827000000E+00 0. -1.
     999902    2    1    2    0    0  0.50540430040E-02  0.16478148304E-01  0.17827671236E-01  0.10191328513E+01  0.10188311293E+01 0.  0.
     999903    2    3    3    0    0 -0.75275015179E-01 -0.21694092391E-01 -0.97795955330E-01  0.12712461110E+00  0.21439596882E-01 0.  0.
         14    1    1    2    0    0 -0.50540430040E-02 -0.16478148304E-01 -0.17827671236E-01  0.24797148706E-01  0.00000000000E+00 0.  1.
     999901    1    3    3    0    0  0.80329058183E-01  0.38172240695E-01  0.11562362657E+00  0.89200824019E+00  0.88000000000E+00 0.  1.
        -11    1    4    4    0    0 -0.72517143124E-01 -0.15494892961E-01 -0.86479700865E-01  0.11392026834E+00  0.51100000000E-03 0.  1.
         11    1    4    4    0    0 -0.27578720547E-02 -0.61991994295E-02 -0.11316254464E-01  0.13204342768E-01  0.51100000000E-03 0. -1.
</event>
<event>
 8    1  0.1202249E+005  0.1043930E+01  0.7957747E-01            NaN
         13   -1    0    0    0    0  0.00000000000E+00  0.00000000000E+00  0.74505805969E-08  0.10566000000E+00  0.10566000000E+00 0.  1.
     999900   -1    0    0    0    0 -0.00000000000E+00 -0.00000000000E+00 -0.74505805969E-08  0.93827000000E+00  0.93827000000E+00 0.  1.
     999902    2    1    2    0    0  0.20178182092E-01  0.92926559378E-02 -0.67321733358E-02  0.10207171879E+01  0.10204532047E+01 0.  0.
     999903    2    3    3    0    0  0.28214199767E-02 -0.50354469798E-01  0.11777947308E+00  0.12978386443E+00  0.20695751933E-01 0.  0.
         14    1    1    2    0    0 -0.20178182092E-01 -0.92926559378E-02  0.67321733358E-02  0.23212812081E-01  0.00000000000E+00 0. -1.
     999901    1    3    3    0    0  0.17356762115E-01  0.59647125736E-01 -0.12451164642E+00  0.89093332348E+00  0.88000000000E+00 0.  1.
        -11    1    4    4    0    0 -0.86148293388E-02 -0.14794810840E-01  0.39044997837E-01  0.42636541715E-01  0.51100000000E-03 0.  1.
         11    1    4    4    0    0  0.11436249316E-01 -0.35559658958E-01  0.78734475248E-01  0.87147322720E-01  0.51100000000E-03 0. -1.
</event>
<event>
 8    1  0.1202249E+005  0.1043930E+01  0.7957747E-01            NaN
         13   -1    0    0    0    0  0.00000000000E+00  0.00000000000E+00  0.74505805969E-08  0.10566000000E+00  0.10566000000E+00 0. -1.
     999900   -1    0    0    0    0 -0.00000000000E+00 -0.00000000000E+00 -0.74505805969E-08  0.93827000000E+00  0.93827000000E+00 0.  1.
     999902    2    1    2    0    0  0.13761363592E-01 -0.35234380166E-02  0.18979151564E-01  0.10202235043E+01  0.10199480383E+01 0.  0.
     999903    2    3    3    0    0 -0.47253163410E-01 -0.14818309169E-01  0.12078788865E+00  0.13218332191E+00  0.20743018299E-01 0.  0.
         14    1    1    2    0    0 -0.13761363592E-01  0.35234380166E-02 -0.18979151564E-01  0.23706495680E-01  0.00000000000E+00 0.  1.
     999901    1    3    3    0    0  0.61014527002E-01  0.11294871153E-01 -0.10180873709E+00  0.88804018241E+00  0.88000000000E+00 0.  1.
        -11    1    4    4    0    0 -0.46585763273E-03  0.25748639162E-02  0.14676497582E-01  0.14916690309E-01  0.51100000000E-03 0.  1.
         11    1    4    4    0    0 -0.46787305778E-01 -0.17393173085E-01  0.10611139107E+00  0.11726663160E+00  0.51100000000E-03 0. -1.
</event>
<event>
 8    1  0.1202249E+005  0.1043930E+01  0.7957747E-01            NaN
         13   -1    0    0    0    0  0.00000000000E+00  0.00000000000E+00  0.74505805969E-08  0.10566000000E+00  0.10566000000E+00 0.  1.
     999900   -1    0    0    0    0 -0.00000000000E+00 -0.00000000000E+00 -0.74505805969E-08  0.93827000000E+00  0.93827000000E+00 0.  1.
     999902    2    1    2    0    0 -0.17086032173E-01  0.85344192367E-02 -0.12355652437E-01  0.10211828913E+01  0.10209295110E+01 0.  0.
     999903    2    3    3    0    0  0.54574246191E-01  0.41358215563E-01 -0.11126247745E+00  0.13214118410E+00  0.19826833006E-01 0.  0.
         14    1    1    2    0    0  0.17086032173E-01 -0.85344192367E-02  0.12355652437E-01  0.22747108701E-01  0.00000000000E+00 0.  1.
     999901    1    3    3    0    0 -0.71660278363E-01 -0.32823796326E-01  0.98906825009E-01  0.88904170720E+00  0.88000000000E+00 0. -1.
        -11    1    4    4    0    0  0.36177281721E-01  0.26916607951E-01 -0.54439346784E-01  0.70690898251E-01  0.51100000000E-03 0.  1.
         11    1    4    4    0    0  0.18396964470E-01  0.14441607612E-01 -0.56823130661E-01  0.61450285852E-01  0.51100000000E-03 0. -1.
</event>
<event>
 8    1  0.1202249E+005  0.1043930E+01  0.7957747E-01            NaN
         13   -1    0    0    0    0  0.00000000000E+00  0.00000000000E+00  0.74505805969E-08  0.10566000000E+00  0.10566000000E+00 0. -1.
     999900   -1    0    0    0    0 -0.00000000000E+00 -0.00000000000E+00 -0.74505805969E-08  0.93827000000E+00  0.93827000000E+00 0. -1.
     999902    2    1    2    0    0 -0.22449182453E-01  0.56332098119E-02 -0.13888005733E-02  0.10207432018E+01  0.10204798167E+01 0.  0.
     999903    2    3    3    0    0 -0.12286851648E+00  0.47451767644E-01  0.12137203616E-01  0.13394232940E+00  0.21092493912E-01 0.  0.
         14    1    1    2    0    0  0.22449182453E-01 -0.56332098119E-02  0.13888005733E-02  0.23186798240E-01  0.00000000000E+00 0. -1.
     999901    1    3    3    0    0  0.10041933403E+00 -0.41818557832E-01 -0.13526004190E-01  0.88680087236E+00  0.88000000000E+00 0. -1.
        -11    1    4    4    0    0 -0.42562277958E-01  0.75630730668E-02 -0.14160633385E-02  0.43255218594E-01  0.51100000000E-03 0.  1.
         11    1    4    4    0    0 -0.80306238522E-01  0.39888694577E-01  0.13553266955E-01  0.90687110809E-01  0.51100000000E-03 0. -1.
</event>
<event>
 8    1  0.1202249E+005  0.1043930E+01  0.7957747E-01            NaN
         13   -1    0    0    0    0  0.00000000000E+00  0.00000000000E+00  0.74505805969E-08  0.10566000000E+00  0.10566000000E+00 0. -1.
     999900   -1    0    0    0    0 -0.00000000000E+00 -0.00000000000E+00 -0.74505805969E-08  0.93827000000E+00  0.93827000000E+00 0.  1.
     999902    2    1    2    0    0 -0.64877790415E-02 -0.16008306309E-01  0.14804580547E-01  0.10211806538E+01  0.10209272231E+01 0.  0.
     999903    2    3    3    0    0  0.12178724426E+00 -0.21475752168E-01  0.40312069077E-01  0.13149812247E+00  0.19322331708E-01 0.  0.
         14    1    1    2    0    0  0.64877790415E-02  0.16008306309E-01 -0.14804580547E-01  0.22749346209E-01  0.00000000000E+00 0. -1.
     999901    1    3    3    0    0 -0.12827502331E+00  0.54674458586E-02 -0.25507488530E-01  0.88968253132E+00  0.88000000000E+00 0.  1.
        -11    1    4    4    0    0  0.87278626759E-01 -0.22227407153E-01  0.34725417943E-01  0.96528400433E-01  0.51100000000E-03 0.  1.
         11    1    4    4    0    0  0.34508617506E-01  0.75165498594E-03  0.55866511337E-02  0.34969722036E-01  0.51100000000E-03 0. -1.
</event>
<event>
 8    1  0.1202249E+005  0.1043930E+01  0.7957747E-01            NaN
         13   -1    0    0    0    0  0.00000000000E+00  0.00000000000E+00  0.74505805969E-08  0.10566000000E+00  0.10566000000E+00 0.  1.
     999900   -1    0    0    0    0 -0.00000000000E+00 -0.00000000000E+00 -0.74505805969E-08  0.93827000000E+00  0.93827000000E+00 0. -1.
     999902    2    1    2    0    0  0.14696806266E-01  0.15178325894E-01  0.15597337251E-01  0.10176687239E+01  0.10173298271E+01 0.  0.
     999903    2    3    3    0    0  0.60689393032E-01 -0.67654033300E-01  0.90117643809E-01  0.12945152422E+00  0.19396823192E-01 0.  0.
         14    1    1    2    0    0 -0.14696806266E-01 -0.15178325894E-01 -0.15597337251E-01  0.26261276068E-01  0.00000000000E+00 0.  1.
     999901    1    3    3    0    0 -0.45992586767E-01  0.82832359194E-01 -0.74520306558E-01  0.88821719971E+00  0.88000000000E+00 0. -1.
        -11    1    4    4    0    0  0.25298145075E-01 -0.41462369066E-01  0.52675288871E-01  0.71652434511E-01  0.51100000000E-03 0.  1.
         11    1    4    4    0    0  0.35391247958E-01 -0.26191664234E-01  0.37442354938E-01  0.57799089714E-01  0.51100000000E-03 0. -1.
</event>
<event>
 8    1  0.1202249E+005  0.1043930E+01  0.7957747E-01            NaN
         13   -1    0    0    0    0  0.00000000000E+00  0.00000000000E+00  0.74505805969E-08  0.10566000000E+00  0.10566000000E+00 0.  1.
     999900   -1    0    0    0    0 -0.00000000000E+00 -0.00000000000E+00 -0.74505805969E-08  0.93827000000E+00  0.93827000000E+00 0.  1.
     999902    2    1    2    0    0 -0.20675552976E-01  0.52869090297E-02  0.71850262141E-02  0.10214121293E+01  0.10211638867E+01 0.  0.
     999903    2    3    3    0    0  0.19008937846E-01  0.27494696168E-01 -0.12438017115E+00  0.13047024246E+00  0.20850879063E-01 0.  0.
         14    1    1    2    0    0  0.20675552976E-01 -0.52869090297E-02 -0.71850262141E-02  0.22517870673E-01  0.00000000000E+00 0. -1.
     999901    1    3    3    0    0 -0.39684490821E-01 -0.22207787138E-01  0.13156519736E+00  0.89094188687E+00  0.88000000000E+00 0. -1.
        -11    1    4    4    0    0  0.75220163904E-02  0.21911683317E-01 -0.51437752973E-01  0.56416364188E-01  0.51100000000E-03 0. -1.
         11    1    4    4    0    0  0.11486921455E-01  0.55830128512E-02 -0.72942418172E-01  0.74053878270E-01  0.51100000000E-03 0.  1.
</event>
<event>
 8    1  0.1202249E+005  0.1043930E+01  0.7957747E-01            NaN
         13   -1    0    0    0    0  0.00000000000E+00  0.00000000000E+00  0.74505805969E-08  0.10566000000E+00  0.10566000000E+00 0. -1.
     999900   -1    0    0    0    0 -0.00000000000E+00 -0.00000000000E+00 -0.74505805969E-08  0.93827000000E+00  0.93827000000E+00 0.  1.
     999902    2    1    2    0    0  0.12216978705E-01 -0.80131894145E-02 -0.17251201436E-01  0.10213231487E+01  0.10210729183E+01 0.  0.
     999903    2    3    3    0    0 -0.82567341497E-01 -0.46953242224E-01 -0.90141021468E-01  0.13238371270E+00  0.19444042783E-01 0.  0.
         14    1    1    2    0    0 -0.12216978705E-01  0.80131894145E-02  0.17251201436E-01  0.22606851268E-01  0.00000000000E+00 0. -1.
     999901    1    3    3    0    0  0.94784320202E-01  0.38940052809E-01  0.72889820032E-01  0.88893943603E+00  0.88000000000E+00 0.  1.
        -11    1    4    4    0    0 -0.28086760284E-01 -0.22608077565E-01 -0.44382832250E-01  0.57184684960E-01  0.51100000000E-03 0.  1.
         11    1    4    4    0    0 -0.54480581213E-01 -0.24345164659E-01 -0.45758189218E-01  0.75199027740E-01  0.51100000000E-03 0. -1.
</event>
<event>
 8    1  0.1202249E+005  0.1043930E+01  0.7957747E-01            NaN
         13   -1    0    0    0    0  0.00000000000E+00  0.00000000000E+00  0.74505805969E-08  0.10566000000E+00  0.10566000000E+00 0.  1.
     999900   -1    0    0    0    0 -0.00000000000E+00 -0.00000000000E+00 -0.74505805969E-08  0.93827000000E+00  0.93827000000E+00 0.  1.
     999902    2    1    2    0    0  0.28155543623E-02 -0.21369455373E-01 -0.34017717871E-02  0.10221090692E+01  0.10218761159E+01 0.  0.
     999903    2    3    3    0    0 -0.30534657006E-01  0.10696093676E+00  0.63508326350E-01  0.12966417602E+00  0.20161442301E-01 0.  0.
         14    1    1    2    0    0 -0.28155543623E-02  0.21369455373E-01  0.34017717871E-02  0.21820930791E-01  0.00000000000E+00 0. -1.
     999901    1    3    3    0    0  0.33350211368E-01 -0.12833039214E+00 -0.66910098137E-01  0.89244489319E+00  0.88000000000E+00 0. -1.
        -11    1    4    4    0    0 -0.15257582704E-01  0.23165217017E-01  0.13015638310E-01  0.30644560219E-01  0.51100000000E-03 0. -1.
         11    1    4    4    0    0 -0.15277074302E-01  0.83795719746E-01  0.50492688040E-01  0.99019615802E-01  0.51100000000E-03 0.  1.
</event>
<event>
 8    1  0.1202249E+005  0.1043930E+01  0.7957747E-01            NaN
         13   -1    0    0    0    0  0.00000000000E+00  0.00000000000E+00  0.74505805969E-08  0.10566000000E+00  0.10566000000E+00 0.  1.
     999900   -1    0    0    0    0 -0.00000000000E+00 -0.00000000000E+00 -0.74505805969E-08  0.93827000000E+00  0.93827000000E+00 0.  1.
     999902    2    1    2    0    0 -0.15410615595E-01  0.41734032421E-02  0.19774436307E-01  0.10185147939E+01  0.10181976492E+01 0.  0.
     999903    2    3    3    0    0  0.12241541201E+00  0.13456990806E-01 -0.22740085726E-01  0.12672463731E+00  0.19375203334E-01 0.  0.
         14    1    1    2    0    0  0.15410615595E-01 -0.41734032421E-02 -0.19774436307E-01  0.25415206057E-01  0.00000000000E+00 0. -1.
     999901    1    3    3    0    0 -0.13782602760E+00 -0.92835875634E-02  0.42514522033E-01  0.89179015663E+00  0.88000000000E+00 0. -1.
        -11    1    4    4    0    0  0.88751316785E-01  0.17164319141E-01 -0.11994823004E-01  0.91189621024E-01  0.51100000000E-03 0.  1.
         11    1    4    4    0    0  0.33664095223E-01 -0.37073283353E-02 -0.10745262722E-01  0.35535016287E-01  0.51100000000E-03 0. -1.
</event>
<event>
 8    1  0.1202249E+005  0.1043930E+01  0.7957747E-01            NaN
         13   -1    0    0    0    0  0.00000000000E+00  0.00000000000E+00  0.74505805969E-08  0.10566000000E+00  0.10566000000E+00 0.  1.
     999900   -1    0    0    0    0 -0.00000000000E+00 -0.00000000000E+00 -0.74505805969E-08  0.93827000000E+00  0.93827000000E+00 0. -1.
     999902    2    1    2    0    0  0.21430729749E-01  0.98187557437E-02  0.69747522063E-02  0.10193468491E+01  0.10190503753E+01 0.  0.
     999903    2    3    3    0    0 -0.12062249492E+00  0.26998080350E-02  0.35280493873E-01  0.12747745668E+00  0.21182857923E-01 0.  0.
         14    1    1    2    0    0 -0.21430729749E-01 -0.98187557437E-02 -0.69747522063E-02  0.24583150942E-01  0.00000000000E+00 0. -1.
     999901    1    3    3    0    0  0.14205322466E+00  0.71189477087E-02 -0.28305741666E-01  0.89186939238E+00  0.88000000000E+00 0.  1.
        -11    1    4    4    0    0 -0.61729135841E-01  0.88690730218E-02  0.25864256160E-01  0.67515683627E-01  0.51100000000E-03 0. -1.
         11    1    4    4    0    0 -0.58893359075E-01 -0.61692649868E-02  0.94162377121E-02  0.59961773050E-01  0.51100000000E-03 0.  1.
</event>
<event>
 8    1  0.1202249E+005  0.1043930E+01  0.7957747E-01            NaN
         13   -1    0    0    0    0  0.00000000000E+00  0.00000000000E+00  0.74505805969E-08  0.10566000000E+00  0.10566000000E+00 0.  1.
     999900   -1    0    0    0    0 -0.00000000000E+00 -0.00000000000E+00 -0.74505805969E-08  0.93827000000E+00  0.93827000000E+00 0.  1.
     999902    2    1    2    0    0 -0.27863526811E-03  0.11366626141E-01 -0.21238814470E-01  0.10198392327E+01  0.10195546555E+01 0.  0.
     999903    2    3    3    0    0  0.35518615609E-01 -0.12031143640E+00 -0.24413838137E-01  0.12931655694E+00  0.19756584264E-01 0.  0.
         14    1    1    2    0    0  0.27863526811E-03 -0.11366626141E-01  0.21238814470E-01  0.24090767268E-01  0.00000000000E+00 0.  1.
     999901    1    3    3    0    0 -0.35797250877E-01  0.13167806254E+00  0.31750236669E-02  0.89052267579E+00  0.88000000000E+00 0.  1.
        -11    1    4    4    0    0  0.14123769875E-01 -0.80528250294E-01 -0.13852333346E-01  0.82924231869E-01  0.51100000000E-03 0. -1.
         11    1    4    4    0    0  0.21394845734E-01 -0.39783186110E-01 -0.10561504791E-01  0.46392325071E-01  0.51100000000E-03 0.  1.
</event>
<event>
 8    1  0.1202249E+005  0.1043930E+01  0.7957747E-01            NaN
         13   -1    0    0    0    0  0.00000000000E+00  0.00000000000E+00  0.74505805969E-08  0.10566000000E+00  0.10566000000E+00 0.  1.
     999900   -1    0    0    0    0 -0.00000000000E+00 -0.00000000000E+00 -0.74505805969E-08  0.93827000000E+00  0.93827000000E+00 0. -1.
     999902    2    1    2    0    0 -0.22311114466E-01 -0.28549386675E-02  0.65417972888E-02  0.10205049789E+01  0.10202360905E+01 0.  0.
     999903    2    3    3    0    0  0.84812443759E-01 -0.95113398544E-01 -0.61212577480E-02  0.12913107690E+00  0.19941314520E-01 0.  0.
         14    1    1    2    0    0  0.22311114466E-01  0.28549386675E-02 -0.65417972888E-02  0.23425021138E-01  0.00000000000E+00 0.  1.
     999901    1    3    3    0    0 -0.10712355823E+00  0.92258459876E-01  0.12663055037E-01  0.89137390197E+00  0.88000000000E+00 0. -1.
        -11    1    4    4    0    0  0.61604099378E-01 -0.71057790391E-01  0.42146037498E-02  0.94139782458E-01  0.51100000000E-03 0.  1.
         11    1    4    4    0    0  0.23208344381E-01 -0.24055608153E-01 -0.10335861498E-01  0.34991294437E-01  0.51100000000E-03 0. -1.
</event>
<event>
 8    1  0.1202249E+005  0.1043930E+01  0.7957747E-01            NaN
         13   -1    0    0    0    0  0.00000000000E+00  0.00000000000E+00  0.74505805969E-08  0.10566000000E+00  0.10566000000E+00 0.  1.
     999900   -1    0    0    0    0 -0.00000000000E+00 -0.00000000000E+00 -0.74505805969E-08  0.93827000000E+00  0.93827000000E+00 0.  1.
     999902    2    1    2    0    0 -0.45243602894E-02  0.12185419186E-01  0.19872395198E-01  0.10201841295E+01  0.10199077368E+01 0.  0.
     999903    2    3    3    0    0  0.85326736214E-01 -0.85707691308E-01 -0.37289738437E-01  0.12837485044E+00  0.21520161951E-01 0.  0.
         14    1    1    2    0    0  0.45243602894E-02 -0.12185419186E-01 -0.19872395198E-01  0.23745870540E-01  0.00000000000E+00 0. -1.
     999901    1    3    3    0    0 -0.89851096503E-01  0.97893110495E-01  0.57162133635E-01  0.89180927902E+00  0.88000000000E+00 0. -1.
        -11    1    4    4    0    0  0.50670898738E-01 -0.63054542846E-01 -0.18915424280E-01  0.83075085008E-01  0.51100000000E-03 0. -1.
         11    1    4    4    0    0  0.34655837476E-01 -0.22653148462E-01 -0.18374314157E-01  0.45299765431E-01  0.51100000000E-03 0.  1.
</event>
<event>
 8    1  0.1202249E+005  0.1043930E+01  0.7957747E-01            NaN
         13   -1    0    0    0    0  0.00000000000E+00  0.00000000000E+00  0.74505805969E-08  0.10566000000E+00  0.10566000000E+00 0.  1.
     999900   -1    0    0    0    0 -0.00000000000E+00 -0.00000000000E+00 -0.74505805969E-08  0.93827000000E+00  0.93827000000E+00 0.  1.
     999902    2    1    2    0    0  0.23808075419E-02 -0.34362760366E-02  0.24280646658E-01  0.10192921016E+01  0.10189942896E+01 0.  0.
     999903    2    3    3    0    0 -0.19596500985E-01 -0.39153801377E-01  0.12372547849E+00  0.13269861056E+00  0.19592963116E-01 0.  0.
         14    1    1    2    0    0 -0.23808075419E-02  0.34362760366E-02 -0.24280646658E-01  0.24637898443E-01  0.00000000000E+00 0. -1.
     999901    1    3    3    0    0  0.21977308527E-01  0.35717525341E-01 -0.99444831830E-01  0.88659349100E+00  0.88000000000E+00 0.  1.
        -11    1    4    4    0    0 -0.17788684328E-01 -0.33212654474E-01  0.78826390259E-01  0.87369208704E-01  0.51100000000E-03 0. -1.
         11    1    4    4    0    0 -0.18078166571E-02 -0.59411469032E-02  0.44899088228E-01  0.45329401853E-01  0.51100000000E-03 0.  1.
</event>
<event>
 8    1  0.1202249E+005  0.1043930E+01  0.7957747E-01            NaN
         13   -1    0    0    0    0  0.00000000000E+00  0.00000000000E+00  0.74505805969E-08  0.10566000000E+00  0.10566000000E+00 0. -1.
     999900   -1    0    0    0    0 -0.00000000000E+00 -0.00000000000E+00 -0.74505805969E-08  0.93827000000E+00  0.93827000000E+00 0. -1.
     999902    2    1    2    0    0 -0.39694880906E-02  0.22932289277E-01  0.46856080950E-02  0.10201897041E+01  0.10199134427E+01 0.  0.
     999903    2    3    3    0    0 -0.23172095301E-01 -0.26401307298E-01  0.12361430407E+00  0.13061307523E+00  0.23351749855E-01 0.  0.
         14    1    1    2    0    0  0.39694880906E-02 -0.22932289277E-01 -0.46856080950E-02  0.23740295920E-01  0.00000000000E+00 0.  1.
     999901    1    3    3    0    0  0.19202607210E-01  0.49333596575E-01 -0.11892869598E+00  0.88957662885E+00  0.88000000000E+00 0. -1.
        -11    1    4    4    0    0 -0.19242213746E-01 -0.74784060556E-02  0.84429990763E-01  0.86918777075E-01  0.51100000000E-03 0. -1.
         11    1    4    4    0    0 -0.39298815553E-02 -0.18922901243E-01  0.39184313309E-01  0.43694298151E-01  0.51100000000E-03 0.  1.
</event>
<event>
 8    1  0.1202249E+005  0.1043930E+01  0.7957747E-01            NaN
         13   -1    0    0    0    0  0.00000000000E+00  0.00000000000E+00  0.74505805969E-08  0.10566000000E+00  0.10566000000E+00 0. -1.
     999900   -1    0    0    0    0 -0.00000000000E+00 -0.00000000000E+00 -0.74505805969E-08  0.93827000000E+00  0.93827000000E+00 0. -1.
     999902    2    1    2    0    0  0.13773473059E-01  0.18025456977E-01 -0.58965819047E-02  0.10204908162E+01  0.10202215988E+01 0.  0.
     999903    2    3    3    0    0 -0.14302362306E-01  0.38894525274E-01  0.12225248700E+00  0.13052117941E+00  0.19307149771E-01 0.  0.
         14    1    1    2    0    0 -0.13773473059E-01 -0.18025456977E-01  0.58965819047E-02  0.23439183806E-01  0.00000000000E+00 0. -1.
     999901    1    3    3    0    0  0.28075835365E-01 -0.20869068296E-01 -0.12814906890E+00  0.88996963679E+00  0.88000000000E+00 0. -1.
        -11    1    4    4    0    0 -0.11371308765E-01  0.26694356246E-01  0.55826807568E-01  0.62918907195E-01  0.51100000000E-03 0.  1.
         11    1    4    4    0    0 -0.29310535408E-02  0.12200169028E-01  0.66425679432E-01  0.67602272211E-01  0.51100000000E-03 0. -1.
</event>
<event>
 8    1  0.1202249E+005  0.1043930E+01  0.7957747E-01            NaN
         13   -1    0    0    0    0  0.00000000000E+00  0.00000000000E+00  0.74505805969E-08  0.10566000000E+00  0.10566000000E+00 0.  1.
     999900   -1    0    0    0    0 -0.00000000000E+00 -0.00000000000E+00 -0.74505805969E-08  0.93827000000E+00  0.93827000000E+00 0. -1.
     999902    2    1    2    0    0  0.24302519798E-01 -0.11972148664E-02  0.28427863671E-02  0.10194325057E+01  0.10191381194E+01 0.  0.
     999903    2    3    3    0    0 -0.47478750488E-01  0.10455264180E+00  0.54214951152E-01  0.12871667995E+00  0.21053173478E-01 0.  0.
         14    1    1    2    0    0 -0.24302519798E-01  0.11972148664E-02 -0.28427863671E-02  0.24497494286E-01  0.00000000000E+00 0.  1.
     999901    1    3    3    0    0  0.71781270286E-01 -0.10574985667E+00 -0.51372164785E-01  0.89071582576E+00  0.88000000000E+00 0. -1.
        -11    1    4    4    0    0 -0.12459009382E-01  0.50794058978E-01  0.19937285619E-01  0.55973384935E-01  0.51100000000E-03 0.  1.
         11    1    4    4    0    0 -0.35019741106E-01  0.53758582824E-01  0.34277665533E-01  0.72743295016E-01  0.51100000000E-03 0. -1.
</event>
<event>
 8    1  0.1202249E+005  0.1043930E+01  0.7957747E-01            NaN
         13   -1    0    0    0    0  0.00000000000E+00  0.00000000000E+00  0.74505805969E-08  0.10566000000E+00  0.10566000000E+00 0. -1.
     999900   -1    0    0    0    0 -0.00000000000E+00 -0.00000000000E+00 -0.74505805969E-08  0.93827000000E+00  0.93827000000E+00 0.  1.
     999902    2    1    2    0    0 -0.14692155467E-01  0.18812498599E-01 -0.51057811978E-03  0.10200546942E+01  0.10197752443E+01 0.  0.
     999903    2    3    3    0    0 -0.11383443013E+00 -0.56067267790E-01 -0.25556313363E-01  0.13097457472E+00  0.19984946113E-01 0.  0.
         14    1    1    2    0    0  0.14692155467E-01 -0.18812498599E-01  0.51057811978E-03  0.23875305774E-01  0.00000000000E+00 0.  1.
     999901    1    3    3    0    0  0.99142274663E-01  0.74879766388E-01  0.25045735243E-01  0.88908011950E+00  0.88000000000E+00 0.  1.
        -11    1    4    4    0    0 -0.10548939050E+00 -0.49232393821E-01 -0.18005607602E-01  0.11779772126E+00  0.51100000000E-03 0.  1.
         11    1    4    4    0    0 -0.83450396336E-02 -0.68348739689E-02 -0.75507057611E-02  0.13176853462E-01  0.51100000000E-03 0. -1.
</event>
<event>
 8    1  0.1202249E+005  0.1043930E+01  0.7957747E-01            NaN
         13   -1    0    0    0    0  0.00000000000E+00  0.00000000000E+00  0.74505805969E-08  0.10566000000E+00  0.10566000000E+00 0.  1.
     999900   -1    0    0    0    0 -0.00000000000E+00 -0.00000000000E+00 -0.74505805969E-08  0.93827000000E+00  0.93827000000E+00 0.  1.
     999902    2    1    2    0    0  0.39329072413E-03 -0.23212418868E-01 -0.63007901479E-02  0.10198744180E+01  0.10195906814E+01 0.  0.
     999903    2    3    3    0    0 -0.58954670904E-01 -0.75212105259E-01 -0.89665055170E-01  0.13241977208E+00  0.19043632036E-01 0.  0.
         14    1    1    2    0    0 -0.39329072413E-03  0.23212418868E-01  0.63007901479E-02  0.24055581967E-01  0.00000000000E+00 0. -1.
     999901    1    3    3    0    0  0.59347961628E-01  0.51999686392E-01  0.83364265023E-01  0.88745464595E+00  0.88000000000E+00 0. -1.
        -11    1    4    4    0    0 -0.49868243568E-01 -0.71779331712E-01 -0.83657510499E-01  0.12098741406E+00  0.51100000000E-03 0.  1.
         11    1    4    4    0    0 -0.90864273360E-02 -0.34327735471E-02 -0.60075446718E-02  0.11432358022E-01  0.51100000000E-03 0. -1.
</event>
<event>
 8    1  0.1202249E+005  0.1043930E+01  0.7957747E-01            NaN
         13   -1    0    0    0    0  0.00000000000E+00  0.00000000000E+00  0.74505805969E-08  0.10566000000E+00  0.10566000000E+00 0. -1.
     999900   -1    0    0    0    0 -0.00000000000E+00 -0.00000000000E+00 -0.74505805969E-08  0.93827000000E+00  0.93827000000E+00 0. -1.
     999902    2    1    2    0    0  0.21025590143E-01 -0.10325387832E-01  0.16467555098E-02  0.10204480734E+01  0.10201778617E+01 0.  0.
     999903    2    3    3    0    0  0.10523427124E+00 -0.56768502836E-01 -0.55524705000E-01  0.13336485247E+00  0.20156295530E-01 0.  0.
         14    1    1    2    0    0 -0.21025590143E-01  0.10325387832E-01 -0.16467555098E-02  0.23481926634E-01  0.00000000000E+00 0. -1.
     999901    1    3    3    0    0 -0.84208681102E-01  0.46443115004E-01  0.57171460510E-01  0.88708322090E+00  0.88000000000E+00 0.  1.
        -11    1    4    4    0    0  0.32240163062E-01 -0.28217650932E-01 -0.21003782648E-01  0.47718800749E-01  0.51100000000E-03 0.  1.
         11    1    4    4    0    0  0.72994108183E-01 -0.28550851904E-01 -0.34520922352E-01  0.85646051718E-01  0.51100000000E-03 0. -1.
</event>
<event>
 8    1  0.1202249E+005  0.1043930E+01  0.7957747E-01            NaN
         13   -1    0    0    0    0  0.00000000000E+00  0.00000000000E+00  0.74505805969E-08  0.10566000000E+00  0.10566000000E+00 0. -1.
     999900   -1    0    0    0    0 -0.00000000000E+00 -0.00000000000E+00 -0.74505805969E-08  0.93827000000E+00  0.93827000000E+00 0. -1.
     999902    2    1    2    0    0 -0.20150727950E-01 -0.10613181390E-01  0.87200616247E-02  0.10195428942E+01  0.10192511870E+01 0.  0.
     999903    2    3    3    0    0  0.10343426351E+00 -0.24349494284E-01  0.69741965728E-01  0.12870867323E+00  0.20259221195E-01 0.  0.
         14    1    1    2    0    0  0.20150727950E-01  0.10613181390E-01 -0.87200616247E-02  0.24387105833E-01  0.00000000000E+00 0.  1.
     999901    1    3    3    0    0 -0.12358499146E+00  0.13736312894E-01 -0.61021904103E-01  0.89083422093E+00  0.88000000000E+00 0.  1.
        -11    1    4    4    0    0  0.57136895453E-01 -0.23567841631E-01  0.37742654355E-01  0.72421247296E-01  0.51100000000E-03 0.  1.
         11    1    4    4    0    0  0.46297368053E-01 -0.78165265304E-03  0.31999311373E-01  0.56287425939E-01  0.51100000000E-03 0. -1.
</event>
<event>
 8    1  0.1202249E+005  0.1043930E+01  0.7957747E-01            NaN
         13   -1    0    0    0    0  0.00000000000E+00  0.00000000000E+00  0.74505805969E-08  0.10566000000E+00  0.10566000000E+00 0.  1.
     999900   -1    0    0    0    0 -0.00000000000E+00 -0.00000000000E+00 -0.74505805969E-08  0.93827000000E+00  0.93827000000E+00 0.  1.
     999902    2    1    2    0    0 -0.20519452071E-02  0.17230335804E-01  0.18493126959E-01  0.10185707671E+01  0.10182550352E+01 0.  0.
     999903    2    3    3    0    0  0.10925522496E+00  0.66976593721E-01 -0.53810047392E-02  0.12984474039E+00  0.20202304509E-01 0.  0.
         14    1    1    2    0    0  0.20519452071E-02 -0.17230335804E-01 -0.18493126959E-01  0.25359232949E-01  0.00000000000E+00 0. -1.
     999901    1    3    3    0    0 -0.11130717016E+00 -0.49746257918E-01  0.23874131698E-01  0.88872602666E+00  0.88000000000E+00 0. -1.
        -11    1    4    4    0    0  0.22478508875E-01  0.48407587855E-02 -0.13209169973E-02  0.23037409784E-01  0.51100000000E-03 0. -1.
         11    1    4    4    0    0  0.86776716080E-01  0.62135834936E-01 -0.40600877419E-02  0.10680733060E+00  0.51100000000E-03 0.  1.
</event>
<event>
 8    1  0.1202249E+005  0.1043930E+01  0.7957747E-01            NaN
         13   -1    0    0    0    0  0.00000000000E+00  0.00000000000E+00  0.74505805969E-08  0.10566000000E+00  0.10566000000E+00 0. -1.
     999900   -1    0    0    0    0 -0.00000000000E+00 -0.00000000000E+00 -0.74505805969E-08  0.93827000000E+00  0.93827000000E+00 0. -1.
     999902    2    1    2    0    0  0.15723599679E-01 -0.59800633152E-02  0.16577018267E-01  0.10203124159E+01  0.10200390364E+01 0.  0.
     999903    2    3    3    0    0 -0.10002565717E+00  0.77452908675E-01 -0.95000317172E-02  0.12843856618E+00  0.20053167483E-01 0.  0.
         14    1    1    2    0    0 -0.15723599679E-01  0.59800633152E-02 -0.16577018267E-01  0.23617584101E-01  0.00000000000E+00 0.  1.
     999901    1    3    3    0    0  0.11574925685E+00 -0.83432971991E-01  0.26077049984E-01  0.89187384972E+00  0.88000000000E+00 0. -1.
        -11    1    4    4    0    0 -0.79234783415E-01  0.53925004142E-01 -0.13467939881E-01  0.96786897358E-01  0.51100000000E-03 0.  1.
         11    1    4    4    0    0 -0.20790873751E-01  0.23527904534E-01  0.39679081636E-02  0.31651668823E-01  0.51100000000E-03 0. -1.
</event>
<event>
 8    1  0.1202249E+005  0.1043930E+01  0.7957747E-01            NaN
         13   -1    0    0    0    0  0.00000000000E+00  0.00000000000E+00  0.74505805969E-08  0.10566000000E+00  0.10566000000E+00 0. -1.
     999900   -1    0    0    0    0 -0.00000000000E+00 -0.00000000000E+00 -0.74505805969E-08  0.93827000000E+00  0.93827000000E+00 0. -1.
     999902    2    1    2    0    0 -0.37165340477E-02 -0.21483416698E-01 -0.89513550341E-02  0.10203614494E+01  0.10200892171E+01 0.  0.
     999903    2    3    3    0    0 -0.11333901465E+00 -0.32996077734E-01 -0.56229449333E-01  0.13222584729E+00  0.19683758061E-01 0.  0.
         14    1    1    2    0    0  0.37165340477E-02  0.21483416698E-01  0.89513550341E-02  0.23568550556E-01  0.00000000000E+00 0. -1.
     999901    1    3    3    0    0  0.10962248060E+00  0.11512661036E-01  0.47278094299E-01  0.88813560216E+00  0.88000000000E+00 0.  1.
        -11    1    4    4    0    0 -0.28163905657E-01 -0.14699732244E-01 -0.21884441627E-01  0.38580793359E-01  0.51100000000E-03 0. -1.
         11    1    4    4    0    0 -0.85175108991E-01 -0.18296345490E-01 -0.34345007706E-01  0.93645053929E-01  0.51100000000E-03 0.  1.
</event>
<event>
 8    1  0.1202249E+005  0.1043930E+01  0.7957747E-01            NaN
         13   -1    0    0    0    0  0.00000000000E+00  0.00000000000E+00  0.74505805969E-08  0.10566000000E+00  0.10566000000E+00 0.  1.
     999900   -1    0    0    0    0 -0.00000000000E+00 -0.00000000000E+00 -0.74505805969E-08  0.93827000000E+00  0.93827000000E+00 0. -1.
     999902    2    1    2    0    0 -0.21618277049E-01 -0.50156160017E-02  0.27952270018E-02  0.10215621749E+01  0.10213172659E+01 0.  0.
     999903    2    3    3    0    0 -0.78035711189E-01  0.92596949653E-01 -0.50749116847E-01  0.13275503236E+00  0.19612711424E-01 0.  0.
         14    1    1    2    0    0  0.21618277049E-01  0.50156160017E-02 -0.27952270018E-02  0.22367825116E-01  0.00000000000E+00 0.  1.
     999901    1    3    3    0    0  0.56417434141E-01 -0.97612565655E-01  0.53544343849E-01  0.88880714253E+00  0.88000000000E+00 0.  1.
        -11    1    4    4    0    0 -0.16619742293E-01  0.89770731456E-02 -0.87722753717E-02  0.20833089361E-01  0.51100000000E-03 0.  1.
         11    1    4    4    0    0 -0.61415968897E-01  0.83619876508E-01 -0.41976841475E-01  0.11192194300E+00  0.51100000000E-03 0. -1.
</event>
<event>
 8    1  0.1202249E+005  0.1043930E+01  0.7957747E-01            NaN
         13   -1    0    0    0    0  0.00000000000E+00  0.00000000000E+00  0.74505805969E-08  0.10566000000E+00  0.10566000000E+00 0.  1.
     999900   -1    0    0    0    0 -0.00000000000E+00 -0.00000000000E+00 -0.74505805969E-08  0.93827000000E+00  0.93827000000E+00 0.  1.
     999902    2    1    2    0    0 -0.30538984771E-02  0.75168274693E-02  0.22313845095E-01  0.10201868605E+01  0.10199105322E+01 0.  0.
     999903    2    3    3    0    0 -0.40052420974E-01 -0.76027511115E-01 -0.92809139765E-01  0.12799750344E+00  0.19632768307E-01 0.  0.
         14    1    1    2    0    0  0.30538984771E-02 -0.75168274693E-02 -0.22313845095E-01  0.23743139515E-01  0.00000000000E+00 0. -1.
     999901    1    3    3    0    0  0.36998522497E-01  0.83544338584E-01  0.11512298486E+00  0.89218935704E+00  0.88000000000E+00 0. -1.
        -11    1    4    4    0    0 -0.37398749992E-02 -0.13241625131E-01 -0.64069797137E-02  0.15186764342E-01  0.51100000000E-03 0. -1.
         11    1    4    4    0    0 -0.36312545975E-01 -0.62785885984E-01 -0.86402160051E-01  0.11281073910E+00  0.51100000000E-03 0.  1.
</event>
<event>
 8    1  0.1202249E+005  0.1043930E+01  0.7957747E-01            NaN
         13   -1    0    0    0    0  0.00000000000E+00  0.00000000000E+00  0.74505805969E-08  0.10566000000E+00  0.10566000000E+00 0.  1.
     999900   -1    0    0    0    0 -0.00000000000E+00 -0.00000000000E+00 -0.74505805969E-08  0.93827000000E+00  0.93827000000E+00 0. -1.
     999902    2    1    2    0    0  0.73101405032E-02  0.26454404655E-01 -0.19341281846E-01  0.10103538349E+01  0.10097957778E+01 0.  0.
     999903    2    3    3    0    0 -0.68817515257E-01  0.97422698321E-01  0.22748065715E-01  0.12322169600E+00  0.20954219560E-01 0.  0.
         14    1    1    2    0    0 -0.73101405032E-02 -0.26454404655E-01  0.19341281846E-01  0.33576165107E-01  0.00000000000E+00 0.  1.
     999901    1    3    3    0    0  0.76127655760E-01 -0.70968293665E-01 -0.42089347561E-01  0.88713213889E+00  0.88000000000E+00 0. -1.
        -11    1    4    4    0    0 -0.35335672177E-01  0.34167890593E-01  0.45061192326E-02  0.49362138399E-01  0.51100000000E-03 0.  1.
         11    1    4    4    0    0 -0.33481843080E-01  0.63254807728E-01  0.18241946482E-01  0.73859557602E-01  0.51100000000E-03 0. -1.
</event>
<event>
 8    1  0.1202249E+005  0.1043930E+01  0.7957747E-01            NaN
         13   -1    0    0    0    0  0.00000000000E+00  0.00000000000E+00  0.74505805969E-08  0.10566000000E+00  0.10566000000E+00 0.  1.
     999900   -1    0    0    0    0 -0.00000000000E+00 -0.00000000000E+00 -0.74505805969E-08  0.93827000000E+00  0.93827000000E+00 0.  1.
     999902    2    1    2    0    0 -0.17289482548E-01  0.10529826265E-01 -0.99491571784E-02  0.10213736444E+01  0.10211245430E+01 0.  0.
     999903    2    3    3    0    0  0.11701929082E+00  0.49766208090E-01 -0.15595546299E-01  0.13030113225E+00  0.23769184025E-01 0.  0.
         14    1    1    2    0    0  0.17289482548E-01 -0.10529826265E-01  0.99491571784E-02  0.22556355568E-01  0.00000000000E+00 0. -1.
     999901    1    3    3    0    0 -0.13430877337E+00 -0.39236381825E-01  0.56463891207E-02  0.89107251219E+00  0.88000000000E+00 0.  1.
        -11    1    4    4    0    0  0.11609338191E+00  0.46298932825E-01 -0.12639317661E-01  0.12562355661E+00  0.51100000000E-03 0.  1.
         11    1    4    4    0    0  0.92590891044E-03  0.34672752656E-02 -0.29562286378E-02  0.46775756367E-02  0.51100000000E-03 0. -1.
</event>
<event>
 8    1  0.1202249E+005  0.1043930E+01  0.7957747E-01            NaN
         13   -1    0    0    0    0  0.00000000000E+00  0.00000000000E+00  0.74505805969E-08  0.10566000000E+00  0.10566000000E+00 0. -1.
     999900   -1    0    0    0    0 -0.00000000000E+00 -0.00000000000E+00 -0.74505805969E-08  0.93827000000E+00  0.93827000000E+00 0. -1.
     999902    2    1    2    0    0  0.80310643415E-02  0.15925307405E-01  0.16908718271E-01  0.10193532190E+01  0.10190569007E+01 0.  0.
     999903    2    3    3    0    0 -0.32924901357E-02 -0.12432279302E+00 -0.20403525373E-01  0.12739472441E+00  0.18604155589E-01 0.  0.
         14    1    1    2    0    0 -0.80310643415E-02 -0.15925307405E-01 -0.16908718271E-01  0.24576780993E-01  0.00000000000E+00 0.  1.
     999901    1    3    3    0    0  0.11323554477E-01  0.14024810042E+00  0.37312243644E-01  0.89195849460E+00  0.88000000000E+00 0.  1.
        -11    1    4    4    0    0  0.36161217469E-02 -0.97242538503E-01 -0.20477562104E-01  0.99442341594E-01  0.51100000000E-03 0.  1.
         11    1    4    4    0    0 -0.69086118826E-02 -0.27080254514E-01  0.74036731015E-04  0.27952382816E-01  0.51100000000E-03 0. -1.
</event>
<event>
 8    1  0.1202249E+005  0.1043930E+01  0.7957747E-01            NaN
         13   -1    0    0    0    0  0.00000000000E+00  0.00000000000E+00  0.74505805969E-08  0.10566000000E+00  0.10566000000E+00 0.  1.
     999900   -1    0    0    0    0 -0.00000000000E+00 -0.00000000000E+00 -0.74505805969E-08  0.93827000000E+00  0.93827000000E+00 0. -1.
     999902    2    1    2    0    0 -0.17208613127E-01 -0.71480543364E-03  0.87978133512E-02  0.10245896579E+01  0.10244071057E+01 0.  0.
     999903    2    3    3    0    0  0.96152065041E-01 -0.89037916109E-01  0.10795045292E-01  0.13293075217E+00  0.19521315381E-01 0.  0.
         14    1    1    2    0    0  0.17208613127E-01  0.71480543364E-03 -0.87978133512E-02  0.19340342094E-01  0.00000000000E+00 0. -1.
     999901    1    3    3    0    0 -0.11336067817E+00  0.88323110676E-01 -0.19972319405E-02  0.89165890573E+00  0.88000000000E+00 0. -1.
        -11    1    4    4    0    0  0.23829458314E-02 -0.42136410169E-02  0.40069346220E-02  0.63047480140E-02  0.51100000000E-03 0. -1.
         11    1    4    4    0    0  0.93769119210E-01 -0.84824275092E-01  0.67881106696E-02  0.12662600416E+00  0.51100000000E-03 0.  1.
</event>
<event>
 8    1  0.1202249E+005  0.1043930E+01  0.7957747E-01            NaN
         13   -1    0    0    0    0  0.00000000000E+00  0.00000000000E+00  0.74505805969E-08  0.10566000000E+00  0.10566000000E+00 0. -1.
     999900   -1    0    0    0    0 -0.00000000000E+00 -0.00000000000E+00 -0.74505805969E-08  0.93827000000E+00  0.93827000000E+00 0.  1.
     999902    2    1    2    0    0  0.16016632442E-02  0.17564739249E-01 -0.15790321456E-01  0.10202568160E+01  0.10199821326E+01 0.  0.
     999903    2    3    3    0    0 -0.10038166051E+00  0.23365289969E-01  0.76020605774E-01  0.12960340916E+00  0.19887096900E-01 0.  0.
         14    1    1    2    0    0 -0.16016632442E-02 -0.17564739249E-01  0.15790321456E-01  0.23673184022E-01  0.00000000000E+00 0. -1.
     999901    1    3    3    0    0  0.10198332375E+00 -0.58005507199E-02 -0.91810927230E-01  0.89065340681E+00  0.88000000000E+00 0.  1.
        -11    1    4    4    0    0 -0.60479398535E-01  0.19965372118E-01  0.36856160208E-01  0.73586761018E-01  0.51100000000E-03 0. -1.
         11    1    4    4    0    0 -0.39902261972E-01  0.33999178514E-02  0.39164445567E-01  0.56016648145E-01  0.51100000000E-03 0.  1.
</event>
<event>
 8    1  0.1202249E+005  0.1043930E+01  0.7957747E-01            NaN
         13   -1    0    0    0    0  0.00000000000E+00  0.00000000000E+00  0.74505805969E-08  0.10566000000E+00  0.10566000000E+00 0. -1.
     999900   -1    0    0    0    0 -0.00000000000E+00 -0.00000000000E+00 -0.74505805969E-08  0.93827000000E+00  0.93827000000E+00 0.  1.
     999902    2    1    2    0    0  0.67184213143E-02  0.11056535926E-02  0.22312984482E-01  0.10206012853E+01  0.10203346287E+01 0.  0.
     999903    2    3    3    0    0 -0.66700417601E-01 -0.55707013295E-01  0.98146941131E-01  0.13247472108E+00  0.19092213944E-01 0.  0.
         14    1    1    2    0    0 -0.67184213143E-02 -0.11056535926E-02 -0.22312984482E-01  0.23328714737E-01  0.00000000000E+00 0.  1.
     999901    1    3    3    0    0  0.73418838916E-01  0.56812666887E-01 -0.75833956649E-01  0.88812656418E+00  0.88000000000E+00 0.  1.
        -11    1    4    4    0    0 -0.14493397064E-01 -0.41691824317E-02  0.22549197304E-01  0.27132417154E-01  0.51100000000E-03 0. -1.
         11    1    4    4    0    0 -0.52207020538E-01 -0.51537830863E-01  0.75597743827E-01  0.10534230393E+00  0.51100000000E-03 0.  1.
</event>
<event>
 7    1  0.1202249E+005  0.1043930E+01  0.7957747E-01            NaN
         13   -1    0    0    0    0  0.00000000000E+00  0.00000000000E+00  0.74505805969E-08  0.10566000000E+00  0.10566000000E+00 0.  1.
     999900   -1    0    0    0    0 -0.00000000000E+00 -0.00000000000E+00 -0.74505805969E-08  0.93827000000E+00  0.93827000000E+00 0. -1.
     999903    2    1    2    0    0  0.89192502957E-01  0.35671172802E-01 -0.49572968811E-01  0.11009482876E+00  0.20872396341E-01 0.  0.
         14    1    1    2    0    0  0.35954293096E-01  0.16845342275E-01  0.15972547761E-01  0.42797184842E-01  0.00000000000E+00 0. -1.
     999901    1    1    2    0    0 -0.12514679605E+00 -0.52516515077E-01  0.33600421051E-01  0.89103798640E+00  0.88000000000E+00 0. -1.
        -11    1    3    3    0    0  0.44993967267E-02  0.12501219425E-02  0.20266150069E-02  0.51162159025E-02  0.51100000000E-03 0.  1.
         11    1    3    3    0    0  0.84693106231E-01  0.34421050860E-01 -0.51599583818E-01  0.10497861285E+00  0.51100000000E-03 0. -1.
</event>
<event>
 8    1  0.1202249E+005  0.1043930E+01  0.7957747E-01            NaN
         13   -1    0    0    0    0  0.00000000000E+00  0.00000000000E+00  0.74505805969E-08  0.10566000000E+00  0.10566000000E+00 0.  1.
     999900   -1    0    0    0    0 -0.00000000000E+00 -0.00000000000E+00 -0.74505805969E-08  0.93827000000E+00  0.93827000000E+00 0. -1.
     999902    2    1    2    0    0  0.21486491708E-01 -0.29625463080E-02  0.10898028369E-01  0.10196562893E+01  0.10193673211E+01 0.  0.
     999903    2    3    3    0    0 -0.11239773434E+00  0.50476706678E-01  0.27674354949E-01  0.12776942159E+00  0.19442391050E-01 0.  0.
         14    1    1    2    0    0 -0.21486491708E-01  0.29625463080E-02 -0.10898028369E-01  0.24273710653E-01  0.00000000000E+00 0. -1.
     999901    1    3    3    0    0  0.13388422605E+00 -0.53439252986E-01 -0.16776326580E-01  0.89188686776E+00  0.88000000000E+00 0. -1.
        -11    1    4    4    0    0 -0.18213489642E-01  0.16396499725E-01  0.38414387656E-02  0.24811170488E-01  0.51100000000E-03 0.  1.
         11    1    4    4    0    0 -0.94184244697E-01  0.34080206954E-01  0.23832916183E-01  0.10295825110E+00  0.51100000000E-03 0. -1.
</event>
<event>
 8    1  0.1202249E+005  0.1043930E+01  0.7957747E-01            NaN
         13   -1    0    0    0    0  0.00000000000E+00  0.00000000000E+00  0.74505805969E-08  0.10566000000E+00  0.10566000000E+00 0. -1.
     999900   -1    0    0    0    0 -0.00000000000E+00 -0.00000000000E+00 -0.74505805969E-08  0.93827000000E+00  0.93827000000E+00 0. -1.
     999902    2    1    2    0    0 -0.12257195230E-01  0.98757571747E-03  0.21681803137E-01  0.10190038144E+01  0.10186989050E+01 0.  0.
     999903    2    3    3    0    0 -0.80835623138E-01 -0.52751747389E-01  0.87978164043E-01  0.13221966757E+00  0.20609180550E-01 0.  0.
         14    1    1    2    0    0  0.12257195230E-01 -0.98757571747E-03 -0.21681803137E-01  0.24926185589E-01  0.00000000000E+00 0.  1.
     999901    1    3    3    0    0  0.68578427908E-01  0.53739323106E-01 -0.66296360905E-01  0.88678414684E+00  0.88000000000E+00 0. -1.
        -11    1    4    4    0    0 -0.31659597336E-01 -0.13693154222E-01  0.42186622895E-01  0.54495915886E-01  0.51100000000E-03 0.  1.
         11    1    4    4    0    0 -0.49176025802E-01 -0.39058593167E-01  0.45791541148E-01  0.77723751683E-01  0.51100000000E-03 0. -1.
</event>
<event>
 8    1  0.1202249E+005  0.1043930E+01  0.7957747E-01            NaN
         13   -1    0    0    0    0  0.00000000000E+00  0.00000000000E+00  0.74505805969E-08  0.10566000000E+00  0.10566000000E+00 0. -1.
     999900   -1    0    0    0    0 -0.00000000000E+00 -0.00000000000E+00 -0.74505805969E-08  0.93827000000E+00  0.93827000000E+00 0. -1.
     999902    2    1    2    0    0  0.14075962094E-01 -0.25133019205E-02 -0.20790936056E-01  0.10186968389E+01  0.10183842778E+01 0.  0.
     999903    2    3    3    0    0 -0.88977605935E-01  0.87234692651E-01 -0.27986944173E-01  0.12812032737E+00  0.10229529868E-01 0.  0.
         14    1    1    2    0    0 -0.14075962094E-01  0.25133019205E-02  0.20790936056E-01  0.25233161068E-01  0.00000000000E+00 0.  1.
     999901    1    3    3    0    0  0.10305356803E+00 -0.89747994572E-01  0.71960081171E-02  0.89057651156E+00  0.88000000000E+00 0.  1.
        -11    1    4    4    0    0 -0.54133276079E-01  0.47332265704E-01 -0.19096649342E-01  0.74402272094E-01  0.51100000000E-03 0. -1.
         11    1    4    4    0    0 -0.34844329856E-01  0.39902426947E-01 -0.88902948309E-02  0.53718055275E-01  0.51100000000E-03 0.  1.
</event>
<event>
 8    1  0.1202249E+005  0.1043930E+01  0.7957747E-01            NaN
         13   -1    0    0    0    0  0.00000000000E+00  0.00000000000E+00  0.74505805969E-08  0.10566000000E+00  0.10566000000E+00 0.  1.
     999900   -1    0    0    0    0 -0.00000000000E+00 -0.00000000000E+00 -0.74505805969E-08  0.93827000000E+00  0.93827000000E+00 0. -1.
     999902    2    1    2    0    0  0.12978940049E-01  0.15398031718E-02 -0.19794050839E-01  0.10202102123E+01  0.10199344337E+01 0.  0.
     999903    2    3    3    0    0 -0.20357174222E-02  0.10237032997E+00 -0.81413997081E-01  0.13218473249E+00  0.18993050783E-01 0.  0.
         14    1    1    2    0    0 -0.12978940049E-01 -0.15398031718E-02  0.19794050839E-01  0.23719787672E-01  0.00000000000E+00 0.  1.
     999901    1    3    3    0    0  0.15014657471E-01 -0.10083052680E+00  0.61619946242E-01  0.88802547984E+00  0.88000000000E+00 0. -1.
        -11    1    4    4    0    0 -0.82831948066E-02  0.42327472466E-01 -0.41196070965E-01  0.59645650516E-01  0.51100000000E-03 0. -1.
         11    1    4    4    0    0  0.62474773844E-02  0.60042857504E-01 -0.40217926116E-01  0.72539081970E-01  0.51100000000E-03 0.  1.
</event>
<event>
 8    1  0.1202249E+005  0.1043930E+01  0.7957747E-01            NaN
         13   -1    0    0    0    0  0.00000000000E+00  0.00000000000E+00  0.74505805969E-08  0.10566000000E+00  0.10566000000E+00 0. -1.
     999900   -1    0    0    0    0 -0.00000000000E+00 -0.00000000000E+00 -0.74505805969E-08  0.93827000000E+00  0.93827000000E+00 0. -1.
     999902    2    1    2    0    0 -0.97267762183E-02  0.17229186411E-01  0.14470046151E-01  0.10194180177E+01  0.10191232789E+01 0.  0.
     999903    2    3    3    0    0 -0.10703971028E+00  0.62974103702E-01 -0.37766522217E-01  0.13133521545E+00  0.19984776791E-01 0.  0.
         14    1    1    2    0    0  0.97267762183E-02 -0.17229186411E-01 -0.14470046151E-01  0.24511982286E-01  0.00000000000E+00 0.  1.
     999901    1    3    3    0    0  0.97312934065E-01 -0.45744917290E-01  0.52236568368E-01  0.88808280226E+00  0.88000000000E+00 0.  1.
        -11    1    4    4    0    0 -0.59688547156E-01  0.39445131697E-01 -0.12117070422E-01  0.72565319490E-01  0.51100000000E-03 0.  1.
         11    1    4    4    0    0 -0.47351163128E-01  0.23528972005E-01 -0.25649451796E-01  0.58769895964E-01  0.51100000000E-03 0. -1.
</event>
<event>
 8    1  0.1202249E+005  0.1043930E+01  0.7957747E-01            NaN
         13   -1    0    0    0    0  0.00000000000E+00  0.00000000000E+00  0.74505805969E-08  0.10566000000E+00  0.10566000000E+00 0.  1.
     999900   -1    0    0    0    0 -0.00000000000E+00 -0.00000000000E+00 -0.74505805969E-08  0.93827000000E+00  0.93827000000E+00 0.  1.
     999902    2    1    2    0    0 -0.74744010473E-02 -0.20339612743E-01 -0.11307996359E-01  0.10194874695E+01  0.10191944187E+01 0.  0.
     999903    2    3    3    0    0  0.12620103817E+00  0.15243796191E-01 -0.23140842489E-02  0.12863608315E+00  0.19565570333E-01 0.  0.
         14    1    1    2    0    0  0.74744010473E-02  0.20339612743E-01  0.11307996359E-01  0.24442530540E-01  0.00000000000E+00 0. -1.
     999901    1    3    3    0    0 -0.13367543922E+00 -0.35583408934E-01 -0.89939121101E-02  0.89085138631E+00  0.88000000000E+00 0. -1.
        -11    1    4    4    0    0  0.44077169658E-01 -0.34757099507E-02  0.23111159964E-02  0.44277305958E-01  0.51100000000E-03 0. -1.
         11    1    4    4    0    0  0.82123868517E-01  0.18719506142E-01 -0.46252002453E-02  0.84358777188E-01  0.51100000000E-03 0.  1.
</event>
<event>
 8    1  0.1202249E+005  0.1043930E+01  0.7957747E-01            NaN
         13   -1    0    0    0    0  0.00000000000E+00  0.00000000000E+00  0.74505805969E-08  0.10566000000E+00  0.10566000000E+00 0.  1.
     999900   -1    0    0    0    0 -0.00000000000E+00 -0.00000000000E+00 -0.74505805969E-08  0.93827000000E+00  0.93827000000E+00 0. -1.
     999902    2    1    2    0    0  0.22205386277E-01  0.56083932619E-02  0.86795937767E-03  0.10210108681E+01  0.10207535972E+01 0.  0.
     999903    2    3    3    0    0 -0.48850355171E-01  0.27120366793E-01  0.11614370803E+00  0.13039300298E+00  0.19776319598E-01 0.  0.
         14    1    1    2    0    0 -0.22205386277E-01 -0.56083932619E-02 -0.86795937767E-03  0.22919131925E-01  0.00000000000E+00 0.  1.
     999901    1    3    3    0    0  0.71055741449E-01 -0.21511973531E-01 -0.11527574865E+00  0.89061786509E+00  0.88000000000E+00 0. -1.
        -11    1    4    4    0    0 -0.11736000606E-01  0.40345043450E-03  0.12777131661E-01  0.17361241227E-01  0.51100000000E-03 0.  1.
         11    1    4    4    0    0 -0.37114354565E-01  0.26716916359E-01  0.10336657637E+00  0.11303176175E+00  0.51100000000E-03 0. -1.
</event>
<event>
 8    1  0.1202249E+005  0.1043930E+01  0.7957747E-01            NaN
         13   -1    0    0    0    0  0.00000000000E+00  0.00000000000E+00  0.74505805969E-08  0.10566000000E+00  0.10566000000E+00 0.  1.
     999900   -1    0    0    0    0 -0.00000000000E+00 -0.00000000000E+00 -0.74505805969E-08  0.93827000000E+00  0.93827000000E+00 0. -1.
     999902    2    1    2    0    0  0.16612835351E-02 -0.24757576795E-01 -0.70431037463E-03  0.10191067543E+01  0.10188043891E+01 0.  0.
     999903    2    3    3    0    0  0.10806724165E+00 -0.57182762813E-01  0.42940072736E-01  0.13103105217E+00  0.19413647400E-01 0.  0.
         14    1    1    2    0    0 -0.16612835351E-02  0.24757576795E-01  0.70431037463E-03  0.24823245655E-01  0.00000000000E+00 0. -1.
     999901    1    3    3    0    0 -0.10640595812E+00  0.32425186018E-01 -0.43644383110E-01  0.88807570217E+00  0.88000000000E+00 0. -1.
        -11    1    4    4    0    0  0.96957074277E-01 -0.49359251771E-01  0.31518095362E-01  0.11327250966E+00  0.51100000000E-03 0. -1.
         11    1    4    4    0    0  0.11110167377E-01 -0.78235110423E-02  0.11421977374E-01  0.17758542516E-01  0.51100000000E-03 0.  1.
</event>
<event>
 8    1  0.1253947E+005  0.1043930E+01  0.7957747E-01            NaN
         13   -1    0    0    0    0  0.00000000000E+00  0.00000000000E+00  0.74505805969E-08  0.10566000000E+00  0.10566000000E+00 0.  1.
     999900   -1    0    0    0    0 -0.00000000000E+00 -0.00000000000E+00 -0.74505805969E-08  0.93827000000E+00  0.93827000000E+00 0.  1.
     999902    2    1    2    0    0  0.17341001308E-01 -0.34934953381E-02  0.17270227877E-01  0.10192080339E+01  0.10189081611E+01 0.  0.
     999903    2    3    3    0    0 -0.70394735828E-02  0.61505067283E-01  0.11393228435E+00  0.13119746311E+00  0.19994534745E-01 0.  0.
         14    1    1    2    0    0 -0.17341001308E-01  0.34934953381E-02 -0.17270227877E-01  0.24721966082E-01  0.00000000000E+00 0. -1.
     999901    1    3    3    0    0  0.24380474891E-01 -0.64998562622E-01 -0.96662056475E-01  0.88801057080E+00  0.88000000000E+00 0.  1.
        -11    1    4    4    0    0  0.43002449043E-02  0.35587495814E-01  0.74355574783E-01  0.82546802402E-01  0.51100000000E-03 0. -1.
         11    1    4    4    0    0 -0.11339718487E-01  0.25917571470E-01  0.39576709570E-01  0.48650660711E-01  0.51100000000E-03 0.  1.
</event>
<event>
 8    1  0.1202249E+005  0.1043930E+01  0.7957747E-01            NaN
         13   -1    0    0    0    0  0.00000000000E+00  0.00000000000E+00  0.74505805969E-08  0.10566000000E+00  0.10566000000E+00 0. -1.
     999900   -1    0    0    0    0 -0.00000000000E+00 -0.00000000000E+00 -0.74505805969E-08  0.93827000000E+00  0.93827000000E+00 0. -1.
     999902    2    1    2    0    0 -0.77632728478E-02  0.20460275851E-01  0.35568959380E-02  0.10217592354E+01  0.10215186696E+01 0.  0.
     999903    2    3    3    0    0  0.78534296191E-01 -0.95324920453E-01  0.34416558818E-01  0.12945558705E+00  0.17882207925E-01 0.  0.
         14    1    1    2    0    0  0.77632728478E-02 -0.20460275851E-01 -0.35568959380E-02  0.22170764577E-01  0.00000000000E+00 0.  1.
     999901    1    3    3    0    0 -0.86297569039E-01  0.11578519630E+00 -0.30859662880E-01  0.89230364837E+00  0.88000000000E+00 0.  1.
        -11    1    4    4    0    0  0.23047905604E-01 -0.16668302203E-01  0.58093551560E-02  0.29035288519E-01  0.51100000000E-03 0.  1.
         11    1    4    4    0    0  0.55486390588E-01 -0.78656618250E-01  0.28607203662E-01  0.10042029853E+00  0.51100000000E-03 0. -1.
</event>
<event>
 8    1  0.1202249E+005  0.1043930E+01  0.7957747E-01            NaN
         13   -1    0    0    0    0  0.00000000000E+00  0.00000000000E+00  0.74505805969E-08  0.10566000000E+00  0.10566000000E+00 0.  1.
     999900   -1    0    0    0    0 -0.00000000000E+00 -0.00000000000E+00 -0.74505805969E-08  0.93827000000E+00  0.93827000000E+00 0. -1.
     999902    2    1    2    0    0  0.26504003198E-02 -0.10956314358E-01 -0.20670311532E-01  0.10203858452E+01  0.10201141828E+01 0.  0.
     999903    2    3    3    0    0 -0.74332730061E-01  0.36489546606E-01 -0.10097881450E+00  0.13211394554E+00  0.20013292051E-01 0.  0.
         14    1    1    2    0    0 -0.26504003198E-02  0.10956314358E-01  0.20670311532E-01  0.23544154795E-01  0.00000000000E+00 0.  1.
     999901    1    3    3    0    0  0.76983130381E-01 -0.47445860964E-01  0.80308502966E-01  0.88827189967E+00  0.88000000000E+00 0.  1.
        -11    1    4    4    0    0 -0.59759171636E-01  0.29441338299E-01 -0.67059689461E-01  0.94526261256E-01  0.51100000000E-03 0. -1.
         11    1    4    4    0    0 -0.14573558426E-01  0.70482083068E-02 -0.33919125038E-01  0.37587684284E-01  0.51100000000E-03 0.  1.
</event>
<event>
 8    1  0.1202249E+005  0.1043930E+01  0.7957747E-01            NaN
         13   -1    0    0    0    0  0.00000000000E+00  0.00000000000E+00  0.74505805969E-08  0.10566000000E+00  0.10566000000E+00 0.  1.
     999900   -1    0    0    0    0 -0.00000000000E+00 -0.00000000000E+00 -0.74505805969E-08  0.93827000000E+00  0.93827000000E+00 0.  1.
     999902    2    1    2    0    0  0.20921088258E-01 -0.49854610848E-02  0.87474987737E-02  0.10207122161E+01  0.10204481185E+01 0.  0.
     999903    2    3    3    0    0  0.12550201407E+00  0.29160516992E-01 -0.27201610426E-01  0.13313379344E+00  0.19585404188E-01 0.  0.
         14    1    1    2    0    0 -0.20921088258E-01  0.49854610848E-02 -0.87474987737E-02  0.23217783937E-01  0.00000000000E+00 0.  1.
     999901    1    3    3    0    0 -0.10458092581E+00 -0.34145978077E-01  0.35949109200E-01  0.88757842263E+00  0.88000000000E+00 0. -1.
        -11    1    4    4    0    0  0.31055676471E-01  0.12802523869E-01 -0.13918143122E-01  0.36363931133E-01  0.51100000000E-03 0.  1.
         11    1    4    4    0    0  0.94446337601E-01  0.16357993123E-01 -0.13283467304E-01  0.96769862302E-01  0.51100000000E-03 0. -1.
</event>
<event>
 8    1  0.1202249E+005  0.1043930E+01  0.7957747E-01            NaN
         13   -1    0    0    0    0  0.00000000000E+00  0.00000000000E+00  0.74505805969E-08  0.10566000000E+00  0.10566000000E+00 0.  1.
     999900   -1    0    0    0    0 -0.00000000000E+00 -0.00000000000E+00 -0.74505805969E-08  0.93827000000E+00  0.93827000000E+00 0. -1.
     999902    2    1    2    0    0 -0.18421576192E-01 -0.10973128142E-01  0.75239348152E-02  0.10212061446E+01  0.10209532879E+01 0.  0.
     999903    2    3    3    0    0 -0.11822057212E+00  0.96742326945E-03 -0.57667928582E-01  0.13308881256E+00  0.20248517524E-01 0.  0.
         14    1    1    2    0    0  0.18421576192E-01  0.10973128142E-01 -0.75239348152E-02  0.22723855433E-01  0.00000000000E+00 0.  1.
     999901    1    3    3    0    0  0.99798995928E-01 -0.11940551411E-01  0.65191863397E-01  0.88811733201E+00  0.88000000000E+00 0.  1.
        -11    1    4    4    0    0 -0.85905716165E-01  0.81931130428E-02 -0.35948948982E-01  0.93485331604E-01  0.51100000000E-03 0.  1.
         11    1    4    4    0    0 -0.32314855955E-01 -0.72256897734E-02 -0.21718979600E-01  0.39603480958E-01  0.51100000000E-03 0. -1.
</event>
<event>
 8    1  0.1202249E+005  0.1043930E+01  0.7957747E-01            NaN
         13   -1    0    0    0    0  0.00000000000E+00  0.00000000000E+00  0.74505805969E-08  0.10566000000E+00  0.10566000000E+00 0. -1.
     999900   -1    0    0    0    0 -0.00000000000E+00 -0.00000000000E+00 -0.74505805969E-08  0.93827000000E+00  0.93827000000E+00 0. -1.
     999902    2    1    2    0    0  0.28926899780E-02 -0.23215070654E-01 -0.19592488956E-02  0.10204535050E+01  0.10201834198E+01 0.  0.
     999903    2    3    3    0    0  0.11430970944E+00 -0.44404672734E-01  0.44107291747E-01  0.13198016403E+00  0.20852478997E-01 0.  0.
         14    1    1    2    0    0 -0.28926899780E-02  0.23215070654E-01  0.19592488956E-02  0.23476494990E-01  0.00000000000E+00 0.  1.
     999901    1    3    3    0    0 -0.11141701946E+00  0.21189602079E-01 -0.46066540643E-01  0.88847334098E+00  0.88000000000E+00 0. -1.
        -11    1    4    4    0    0  0.56963172586E-01 -0.30957683828E-01  0.29847501543E-01  0.71374475048E-01  0.51100000000E-03 0. -1.
         11    1    4    4    0    0  0.57346536852E-01 -0.13446988906E-01  0.14259790204E-01  0.60605688984E-01  0.51100000000E-03 0.  1.
</event>
<event>
 8    1  0.1202249E+005  0.1043930E+01  0.7957747E-01            NaN
         13   -1    0    0    0    0  0.00000000000E+00  0.00000000000E+00  0.74505805969E-08  0.10566000000E+00  0.10566000000E+00 0. -1.
     999900   -1    0    0    0    0 -0.00000000000E+00 -0.00000000000E+00 -0.74505805969E-08  0.93827000000E+00  0.93827000000E+00 0.  1.
     999902    2    1    2    0    0  0.31014209795E-02  0.21067465494E-01 -0.82356189039E-02  0.10210983918E+01  0.10208431042E+01 0.  0.
     999903    2    3    3    0    0  0.59138438063E-01 -0.41348555218E-01 -0.10806713887E+00  0.13149047855E+00  0.20104267489E-01 0.  0.
         14    1    1    2    0    0 -0.31014209795E-02 -0.21067465494E-01  0.82356189039E-02  0.22831608203E-01  0.00000000000E+00 0. -1.
     999901    1    3    3    0    0 -0.56037017083E-01  0.62416020712E-01  0.99831519968E-01  0.88960791324E+00  0.88000000000E+00 0. -1.
        -11    1    4    4    0    0  0.45325131243E-01 -0.22125193328E-01 -0.82037123749E-01  0.96302868576E-01  0.51100000000E-03 0.  1.
         11    1    4    4    0    0  0.13813306820E-01 -0.19223361890E-01 -0.26030015123E-01  0.35187609978E-01  0.51100000000E-03 0. -1.
</event>
<event>
 8    1  0.1202249E+005  0.1043930E+01  0.7957747E-01            NaN
         13   -1    0    0    0    0  0.00000000000E+00  0.00000000000E+00  0.74505805969E-08  0.10566000000E+00  0.10566000000E+00 0.  1.
     999900   -1    0    0    0    0 -0.00000000000E+00 -0.00000000000E+00 -0.74505805969E-08  0.93827000000E+00  0.93827000000E+00 0.  1.
     999902    2    1    2    0    0 -0.97841989335E-02  0.13876416592E-01 -0.13100114001E-01  0.10224847564E+01  0.10222598391E+01 0.  0.
     999903    2    3    3    0    0 -0.29800756725E-01  0.65122988355E-01 -0.11282334530E+00  0.13514513903E+00  0.20149755431E-01 0.  0.
         14    1    1    2    0    0  0.97841989335E-02 -0.13876416592E-01  0.13100114001E-01  0.21445243600E-01  0.00000000000E+00 0.  1.
     999901    1    3    3    0    0  0.20016557792E-01 -0.51246571763E-01  0.99723231298E-01  0.88733961738E+00  0.88000000000E+00 0. -1.
        -11    1    4    4    0    0 -0.16292369398E-01  0.51528025249E-01 -0.71837902743E-01  0.89897297391E-01  0.51100000000E-03 0.  1.
         11    1    4    4    0    0 -0.13508387328E-01  0.13594963106E-01 -0.40985442556E-01  0.45247841634E-01  0.51100000000E-03 0. -1.
</event>
<event>
 8    1  0.1202249E+005  0.1043930E+01  0.7957747E-01            NaN
         13   -1    0    0    0    0  0.00000000000E+00  0.00000000000E+00  0.74505805969E-08  0.10566000000E+00  0.10566000000E+00 0. -1.
     999900   -1    0    0    0    0 -0.00000000000E+00 -0.00000000000E+00 -0.74505805969E-08  0.93827000000E+00  0.93827000000E+00 0.  1.
     999902    2    1    2    0    0 -0.28274518922E-03  0.11898914516E-01 -0.20409108989E-01  0.10203038314E+01  0.10200302508E+01 0.  0.
     999903    2    3    3    0    0  0.31082152451E-01  0.78867034691E-02  0.12266767832E+00  0.12818790751E+00  0.18880678939E-01 0.  0.
         14    1    1    2    0    0  0.28274518922E-03 -0.11898914516E-01  0.20409108989E-01  0.23626168568E-01  0.00000000000E+00 0. -1.
     999901    1    3    3    0    0 -0.31364897640E-01  0.40122110469E-02 -0.14307678730E+00  0.89211592392E+00  0.88000000000E+00 0.  1.
        -11    1    4    4    0    0  0.25300940080E-01  0.13627539276E-01  0.88124626461E-01  0.92693356319E-01  0.51100000000E-03 0.  1.
         11    1    4    4    0    0  0.57812123708E-02 -0.57408358070E-02  0.34543051854E-01  0.35494551196E-01  0.51100000000E-03 0. -1.
</event>
<event>
 8    1  0.1202249E+005  0.1043930E+01  0.7957747E-01            NaN
         13   -1    0    0    0    0  0.00000000000E+00  0.00000000000E+00  0.74505805969E-08  0.10566000000E+00  0.10566000000E+00 0.  1.
     999900   -1    0    0    0    0 -0.00000000000E+00 -0.00000000000E+00 -0.74505805969E-08  0.93827000000E+00  0.93827000000E+00 0.  1.
     999902    2    1    2    0    0 -0.11793446346E-01 -0.20768087168E-01 -0.31895870121E-03  0.10200448465E+01  0.10197651634E+01 0.  0.
     999903    2    3    3    0    0  0.37415927913E-01 -0.12477031865E+00  0.17338548448E-02  0.13255273913E+00  0.24487513561E-01 0.  0.
         14    1    1    2    0    0  0.11793446346E-01  0.20768087168E-01  0.31895870121E-03  0.23885153464E-01  0.00000000000E+00 0.  1.
     999901    1    3    3    0    0 -0.49209374259E-01  0.10400223148E+00 -0.20528135460E-02  0.88749210741E+00  0.88000000000E+00 0.  1.
        -11    1    4    4    0    0  0.16935724963E-01 -0.40131088848E-01  0.11139414526E-01  0.44962993107E-01  0.51100000000E-03 0.  1.
         11    1    4    4    0    0  0.20480202950E-01 -0.84639229801E-01 -0.94055596809E-02  0.87589746021E-01  0.51100000000E-03 0. -1.
</event>
<event>
 8    1  0.1202249E+005  0.1043930E+01  0.7957747E-01            NaN
         13   -1    0    0    0    0  0.00000000000E+00  0.00000000000E+00  0.74505805969E-08  0.10566000000E+00  0.10566000000E+00 0. -1.
     999900   -1    0    0    0    0 -0.00000000000E+00 -0.00000000000E+00 -0.74505805969E-08  0.93827000000E+00  0.93827000000E+00 0.  1.
     999902    2    1    2    0    0  0.21720926560E-01  0.77369525270E-02  0.13965275949E-02  0.10208300135E+01  0.10205686195E+01 0.  0.
     999903    2    3    3    0    0  0.11828065124E+00  0.59808488090E-01 -0.16587957743E-02  0.13401291839E+00  0.19731776076E-01 0.  0.
         14    1    1    2    0    0 -0.21720926560E-01 -0.77369525270E-02 -0.13965275949E-02  0.23099986458E-01  0.00000000000E+00 0. -1.
     999901    1    3    3    0    0 -0.96559724682E-01 -0.52071535563E-01  0.30553233692E-02  0.88681709515E+00  0.88000000000E+00 0. -1.
        -11    1    4    4    0    0  0.27659564218E-01  0.14415277676E-01  0.79818024495E-02  0.32199720722E-01  0.51100000000E-03 0. -1.
         11    1    4    4    0    0  0.90621087024E-01  0.45393210414E-01 -0.96405982237E-02  0.10181319767E+00  0.51100000000E-03 0.  1.
</event>
<event>
 8    1  0.1202249E+005  0.1043930E+01  0.7957747E-01            NaN
         13   -1    0    0    0    0  0.00000000000E+00  0.00000000000E+00  0.74505805969E-08  0.10566000000E+00  0.10566000000E+00 0.  1.
     999900   -1    0    0    0    0 -0.00000000000E+00 -0.00000000000E+00 -0.74505805969E-08  0.93827000000E+00  0.93827000000E+00 0. -1.
     999902    2    1    2    0    0  0.19991552166E-01 -0.11158056897E-01 -0.76161709899E-02  0.10198017914E+01  0.10195163183E+01 0.  0.
     999903    2    3    3    0    0 -0.96992384068E-01 -0.96150609640E-02  0.79357428755E-01  0.12780850146E+00  0.23182743196E-01 0.  0.
         14    1    1    2    0    0 -0.19991552166E-01  0.11158056897E-01  0.76161709899E-02  0.24128208642E-01  0.00000000000E+00 0.  1.
     999901    1    3    3    0    0  0.11698393623E+00 -0.15429959330E-02 -0.86973599745E-01  0.89199328990E+00  0.88000000000E+00 0. -1.
        -11    1    4    4    0    0 -0.28513513697E-01  0.14403149783E-03  0.36934247888E-01  0.46663058156E-01  0.51100000000E-03 0. -1.
         11    1    4    4    0    0 -0.68478870371E-01 -0.97590924619E-02  0.42423180867E-01  0.81145443303E-01  0.51100000000E-03 0.  1.
</event>
<event>
 8    1  0.1202249E+005  0.1043930E+01  0.7957747E-01            NaN
         13   -1    0    0    0    0  0.00000000000E+00  0.00000000000E+00  0.74505805969E-08  0.10566000000E+00  0.10566000000E+00 0. -1.
     999900   -1    0    0    0    0 -0.00000000000E+00 -0.00000000000E+00 -0.74505805969E-08  0.93827000000E+00  0.93827000000E+00 0.  1.
     999902    2    1    2    0    0  0.46782757011E-02 -0.23262755000E-01  0.56915629322E-02  0.10195284443E+01  0.10192363871E+01 0.  0.
     999903    2    3    3    0    0  0.88733702221E-01 -0.62888915270E-01 -0.70729304282E-01  0.13134169799E+00  0.20477342937E-01 0.  0.
         14    1    1    2    0    0 -0.46782757011E-02  0.23262755000E-01 -0.56915629322E-02  0.24401555736E-01  0.00000000000E+00 0. -1.
     999901    1    3    3    0    0 -0.84055426520E-01  0.39626160270E-01  0.76420867215E-01  0.88818674627E+00  0.88000000000E+00 0.  1.
        -11    1    4    4    0    0  0.43037874587E-01 -0.39907311703E-01 -0.45735660595E-01  0.74410106487E-01  0.51100000000E-03 0. -1.
         11    1    4    4    0    0  0.45695827634E-01 -0.22981603567E-01 -0.24993643688E-01  0.56931591506E-01  0.51100000000E-03 0.  1.
</event>
<event>
 7    1  0.1202249E+005  0.1043930E+01  0.7957747E-01            NaN
         13   -1    0    0    0    0  0.00000000000E+00  0.00000000000E+00  0.74505805969E-08  0.10566000000E+00  0.10566000000E+00 0.  1.
     999900   -1    0    0    0    0 -0.00000000000E+00 -0.00000000000E+00 -0.74505805969E-08  0.93827000000E+00  0.93827000000E+00 0. -1.
     999902    2    1    2    0    0  0.36027866150E-02  0.20850913904E-01  0.59432445081E-02  0.10219513095E+01  0.10217149388E+01 0.  0.
         14    1    1    2    0    0 -0.36027866150E-02 -0.20850913904E-01 -0.59432445081E-02  0.21978690527E-01  0.00000000000E+00 0.  1.
     999901    1    3    3    0    0 -0.13976544332E-01  0.12005355544E+00  0.79943649630E-01  0.89185154991E+00  0.88000000000E+00 0. -1.
        -11    1    3    3    0    0  0.22966763250E-01 -0.44946713259E-01 -0.23111736819E-01  0.55516598840E-01  0.51100000000E-03 0. -1.
         11    1    3    3    0    0 -0.53874323032E-02 -0.54255928279E-01 -0.50888668303E-01  0.74583160720E-01  0.51100000000E-03 0.  1.
</event>
<event>
 8    1  0.1202249E+005  0.1043930E+01  0.7957747E-01            NaN
         13   -1    0    0    0    0  0.00000000000E+00  0.00000000000E+00  0.74505805969E-08  0.10566000000E+00  0.10566000000E+00 0.  1.
     999900   -1    0    0    0    0 -0.00000000000E+00 -0.00000000000E+00 -0.74505805969E-08  0.93827000000E+00  0.93827000000E+00 0. -1.
     999902    2    1    2    0    0 -0.18603083571E-01  0.85020943175E-02 -0.12010693570E-01  0.10202104493E+01  0.10199346762E+01 0.  0.
     999903    2    3    3    0    0  0.11608477313E+00 -0.39057353536E-01 -0.33218850032E-01  0.12844113734E+00  0.19811167208E-01 0.  0.
         14    1    1    2    0    0  0.18603083571E-01 -0.85020943175E-02  0.12010693570E-01  0.23719550716E-01  0.00000000000E+00 0.  1.
     999901    1    3    3    0    0 -0.13468785670E+00  0.47559447853E-01  0.21208156462E-01  0.89176931194E+00  0.88000000000E+00 0.  1.
        -11    1    4    4    0    0  0.64093790512E-01 -0.15707810121E-01 -0.93597743977E-02  0.66652950263E-01  0.51100000000E-03 0. -1.
         11    1    4    4    0    0  0.51990982619E-01 -0.23349543415E-01 -0.23859075634E-01  0.61788187078E-01  0.51100000000E-03 0.  1.
</event>
<event>
 8    1  0.1202249E+005  0.1043930E+01  0.7957747E-01            NaN
         13   -1    0    0    0    0  0.00000000000E+00  0.00000000000E+00  0.74505805969E-08  0.10566000000E+00  0.10566000000E+00 0.  1.
     999900   -1    0    0    0    0 -0.00000000000E+00 -0.00000000000E+00 -0.74505805969E-08  0.93827000000E+00  0.93827000000E+00 0.  1.
     999902    2    1    2    0    0  0.22564637441E-01 -0.10129224293E-02  0.12748584210E-01  0.10179932447E+01  0.10176627786E+01 0.  0.
     999903    2    3    3    0    0  0.36319298688E-01 -0.11587110415E+00 -0.38305508108E-01  0.12895549921E+00  0.20420690248E-01 0.  0.
         14    1    1    2    0    0 -0.22564637441E-01  0.10129224293E-02 -0.12748584210E-01  0.25936755272E-01  0.00000000000E+00 0.  1.
     999901    1    3    3    0    0 -0.13754661248E-01  0.11485818172E+00  0.51054092318E-01  0.88903774552E+00  0.88000000000E+00 0. -1.
        -11    1    4    4    0    0  0.22368776554E-01 -0.92053413076E-01 -0.23397530800E-01  0.97580216192E-01  0.51100000000E-03 0.  1.
         11    1    4    4    0    0  0.13950522134E-01 -0.23817691076E-01 -0.14907977307E-01  0.31375283017E-01  0.51100000000E-03 0. -1.
</event>
<event>
 8    1  0.1202249E+005  0.1043930E+01  0.7957747E-01            NaN
         13   -1    0    0    0    0  0.00000000000E+00  0.00000000000E+00  0.74505805969E-08  0.10566000000E+00  0.10566000000E+00 0.  1.
     999900   -1    0    0    0    0 -0.00000000000E+00 -0.00000000000E+00 -0.74505805969E-08  0.93827000000E+00  0.93827000000E+00 0.  1.
     999902    2    1    2    0    0  0.23383905184E-01  0.44467304309E-02  0.11769755972E-02  0.10200979689E+01  0.10198195431E+01 0.  0.
     999903    2    3    3    0    0 -0.11944357375E+00 -0.36355962647E-01  0.12300005498E-01  0.12758003057E+00  0.23170039607E-01 0.  0.
         14    1    1    2    0    0 -0.23383905184E-01 -0.44467304309E-02 -0.11769755972E-02  0.23832031066E-01  0.00000000000E+00 0. -1.
     999901    1    3    3    0    0  0.14282747894E+00  0.40802693078E-01 -0.11123029900E-01  0.89251793836E+00  0.88000000000E+00 0.  1.
        -11    1    4    4    0    0 -0.77723762223E-01 -0.19648395569E-01 -0.26520491004E-02  0.80214320092E-01  0.51100000000E-03 0. -1.
         11    1    4    4    0    0 -0.41719811528E-01 -0.16707567078E-01  0.14952054598E-01  0.47365710481E-01  0.51100000000E-03 0.  1.
</event>
<event>
 8    1  0.1202249E+005  0.1043930E+01  0.7957747E-01            NaN
         13   -1    0    0    0    0  0.00000000000E+00  0.00000000000E+00  0.74505805969E-08  0.10566000000E+00  0.10566000000E+00 0.  1.
     999900   -1    0    0    0    0 -0.00000000000E+00 -0.00000000000E+00 -0.74505805969E-08  0.93827000000E+00  0.93827000000E+00 0.  1.
     999902    2    1    2    0    0  0.19115667488E-01  0.76586433402E-02  0.12574564182E-01  0.10198015267E+01  0.10195160472E+01 0.  0.
     999903    2    3    3    0    0 -0.89488184156E-01 -0.10836176458E-01 -0.87363053678E-01  0.12731937983E+00  0.21268838897E-01 0.  0.
         14    1    1    2    0    0 -0.19115667488E-01 -0.76586433402E-02 -0.12574564182E-01  0.24128473339E-01  0.00000000000E+00 0. -1.
     999901    1    3    3    0    0  0.10860385164E+00  0.18494819799E-01  0.99937617860E-01  0.89248214683E+00  0.88000000000E+00 0.  1.
        -11    1    4    4    0    0 -0.57111930627E-01  0.25350995838E-02 -0.48236742029E-01  0.74801361969E-01  0.51100000000E-03 0. -1.
         11    1    4    4    0    0 -0.32376253529E-01 -0.13371276042E-01 -0.39126311649E-01  0.52518017859E-01  0.51100000000E-03 0.  1.
</event>
<event>
 8    1  0.1202249E+005  0.1043930E+01  0.7957747E-01            NaN
         13   -1    0    0    0    0  0.00000000000E+00  0.00000000000E+00  0.74505805969E-08  0.10566000000E+00  0.10566000000E+00 0.  1.
     999900   -1    0    0    0    0 -0.00000000000E+00 -0.00000000000E+00 -0.74505805969E-08  0.93827000000E+00  0.93827000000E+00 0.  1.
     999902    2    1    2    0    0 -0.82483093471E-02  0.63205607899E-03 -0.19996980986E-01  0.10222894512E+01  0.10220603743E+01 0.  0.
     999903    2    3    3    0    0  0.34519864134E-01  0.74013679671E-01 -0.10465004060E+00  0.13415651083E+00  0.19408570326E-01 0.  0.
         14    1    1    2    0    0  0.82483093471E-02 -0.63205607899E-03  0.19996980986E-01  0.21640548757E-01  0.00000000000E+00 0.  1.
     999901    1    3    3    0    0 -0.42768173481E-01 -0.73381623592E-01  0.84653059615E-01  0.88813294041E+00  0.88000000000E+00 0. -1.
        -11    1    4    4    0    0  0.99239526960E-02  0.27856451765E-01 -0.24279015592E-01  0.38264846285E-01  0.51100000000E-03 0. -1.
         11    1    4    4    0    0  0.24595911438E-01  0.46157227906E-01 -0.80371025008E-01  0.95891664546E-01  0.51100000000E-03 0.  1.
</event>
<event>
 8    1  0.1202249E+005  0.1043930E+01  0.7957747E-01            NaN
         13   -1    0    0    0    0  0.00000000000E+00  0.00000000000E+00  0.74505805969E-08  0.10566000000E+00  0.10566000000E+00 0. -1.
     999900   -1    0    0    0    0 -0.00000000000E+00 -0.00000000000E+00 -0.74505805969E-08  0.93827000000E+00  0.93827000000E+00 0. -1.
     999902    2    1    2    0    0 -0.16151069449E-01 -0.16286786580E-01  0.97649604218E-02  0.10190006816E+01  0.10186956946E+01 0.  0.
     999903    2    3    3    0    0  0.69908931819E-01  0.88474331070E-01  0.55856328439E-01  0.12742587840E+00  0.20061382099E-01 0.  0.
         14    1    1    2    0    0  0.16151069449E-01  0.16286786580E-01 -0.97649604218E-02  0.24929318352E-01  0.00000000000E+00 0.  1.
     999901    1    3    3    0    0 -0.86060001269E-01 -0.10476111765E+00 -0.46091368018E-01  0.89157480325E+00  0.88000000000E+00 0.  1.
        -11    1    4    4    0    0  0.35348989325E-01  0.34794399235E-01  0.33162449597E-01  0.59667499099E-01  0.51100000000E-03 0.  1.
         11    1    4    4    0    0  0.34559942494E-01  0.53679931834E-01  0.22693878843E-01  0.67758379296E-01  0.51100000000E-03 0. -1.
</event>
<event>
 8    1  0.1202249E+005  0.1043930E+01  0.7957747E-01            NaN
         13   -1    0    0    0    0  0.00000000000E+00  0.00000000000E+00  0.74505805969E-08  0.10566000000E+00  0.10566000000E+00 0.  1.
     999900   -1    0    0    0    0 -0.00000000000E+00 -0.00000000000E+00 -0.74505805969E-08  0.93827000000E+00  0.93827000000E+00 0.  1.
     999902    2    1    2    0    0  0.10973818934E-01 -0.20060392476E-01 -0.12721647645E-02  0.10210288548E+01  0.10207719921E+01 0.  0.
     999903    2    3    3    0    0  0.72020860412E-01  0.98630522242E-01 -0.40073105986E-01  0.13011932654E+00  0.20253421014E-01 0.  0.
         14    1    1    2    0    0 -0.10973818934E-01  0.20060392476E-01  0.12721647645E-02  0.22901145200E-01  0.00000000000E+00 0.  1.
     999901    1    3    3    0    0 -0.61047041478E-01 -0.11869091472E+00  0.38800941222E-01  0.89090952826E+00  0.88000000000E+00 0. -1.
        -11    1    4    4    0    0  0.36658821705E-01  0.63010552887E-01 -0.30481462159E-01  0.79016325150E-01  0.51100000000E-03 0.  1.
         11    1    4    4    0    0  0.35362038707E-01  0.35619969355E-01 -0.95916438274E-02  0.51103001387E-01  0.51100000000E-03 0. -1.
</event>
<event>
 8    1  0.1202249E+005  0.1043930E+01  0.7957747E-01            NaN
         13   -1    0    0    0    0  0.00000000000E+00  0.00000000000E+00  0.74505805969E-08  0.10566000000E+00  0.10566000000E+00 0. -1.
     999900   -1    0    0    0    0 -0.00000000000E+00 -0.00000000000E+00 -0.74505805969E-08  0.93827000000E+00  0.93827000000E+00 0.  1.
     999902    2    1    2    0    0 -0.33869289330E-02  0.22100905632E-01  0.64586406614E-02  0.10206569393E+01  0.10203915681E+01 0.  0.
     999903    2    3    3    0    0 -0.11136920641E+00  0.67126133148E-01  0.18351680673E-01  0.13283438504E+00  0.19979283758E-01 0.  0.
         14    1    1    2    0    0  0.33869289330E-02 -0.22100905632E-01 -0.64586406614E-02  0.23273060747E-01  0.00000000000E+00 0. -1.
     999901    1    3    3    0    0  0.10798227747E+00 -0.45025227517E-01 -0.11893040011E-01  0.88782255421E+00  0.88000000000E+00 0. -1.
        -11    1    4    4    0    0 -0.90905788331E-01  0.61850725094E-01  0.19482157816E-01  0.11166552799E+00  0.51100000000E-03 0. -1.
         11    1    4    4    0    0 -0.20463418076E-01  0.52754080540E-02 -0.11304771436E-02  0.21168857056E-01  0.51100000000E-03 0.  1.
</event>
<event>
 8    1  0.1202249E+005  0.1043930E+01  0.7957747E-01            NaN
         13   -1    0    0    0    0  0.00000000000E+00  0.00000000000E+00  0.74505805969E-08  0.10566000000E+00  0.10566000000E+00 0.  1.
     999900   -1    0    0    0    0 -0.00000000000E+00 -0.00000000000E+00 -0.74505805969E-08  0.93827000000E+00  0.93827000000E+00 0. -1.
     999902    2    1    2    0    0 -0.14687523024E-01 -0.10704418239E-01 -0.14841530161E-01  0.10204655818E+01  0.10201957777E+01 0.  0.
     999903    2    3    3    0    0  0.40444617884E-01  0.11755016689E+00 -0.29267111655E-01  0.12934444025E+00  0.20484422053E-01 0.  0.
         14    1    1    2    0    0  0.14687523024E-01  0.10704418239E-01  0.14841530161E-01  0.23464418168E-01  0.00000000000E+00 0.  1.
     999901    1    3    3    0    0 -0.55132140908E-01 -0.12825458513E+00  0.14425581493E-01  0.89112114158E+00  0.88000000000E+00 0. -1.
        -11    1    4    4    0    0  0.11991984577E-01  0.57061074260E-01 -0.62484945235E-02  0.58643658605E-01  0.51100000000E-03 0. -1.
         11    1    4    4    0    0  0.28452633307E-01  0.60489092635E-01 -0.23018617131E-01  0.70700781647E-01  0.51100000000E-03 0.  1.
</event>
<event>
 8    1  0.1202249E+005  0.1043930E+01  0.7957747E-01            NaN
         13   -1    0    0    0    0  0.00000000000E+00  0.00000000000E+00  0.74505805969E-08  0.10566000000E+00  0.10566000000E+00 0. -1.
     999900   -1    0    0    0    0 -0.00000000000E+00 -0.00000000000E+00 -0.74505805969E-08  0.93827000000E+00  0.93827000000E+00 0.  1.
     999902    2    1    2    0    0 -0.53363189450E-02 -0.13597958760E-01  0.19035102951E-01  0.10199359189E+01  0.10196536484E+01 0.  0.
     999903    2    3    3    0    0  0.73972757176E-01  0.10310589384E+00  0.79610147092E-02  0.12862657072E+00  0.19458231958E-01 0.  0.
         14    1    1    2    0    0  0.53363189450E-02  0.13597958760E-01 -0.19035102951E-01  0.23994081076E-01  0.00000000000E+00 0.  1.
     999901    1    3    3    0    0 -0.79309076121E-01 -0.11670385260E+00  0.11074088242E-01  0.89130934820E+00  0.88000000000E+00 0.  1.
        -11    1    4    4    0    0  0.36466637425E-01  0.66645649579E-01  0.71867359056E-02  0.76310998860E-01  0.51100000000E-03 0.  1.
         11    1    4    4    0    0  0.37506119751E-01  0.36460244261E-01  0.77427880367E-03  0.52315571860E-01  0.51100000000E-03 0. -1.
</event>
<event>
 8    1  0.1202249E+005  0.1043930E+01  0.7957747E-01            NaN
         13   -1    0    0    0    0  0.00000000000E+00  0.00000000000E+00  0.74505805969E-08  0.10566000000E+00  0.10566000000E+00 0. -1.
     999900   -1    0    0    0    0 -0.00000000000E+00 -0.00000000000E+00 -0.74505805969E-08  0.93827000000E+00  0.93827000000E+00 0. -1.
     999902    2    1    2    0    0 -0.10611662612E-01  0.10592212456E-01 -0.17500555509E-01  0.10208850051E+01  0.10206248683E+01 0.  0.
     999903    2    3    3    0    0  0.95284329121E-01 -0.14497598682E-01  0.82668269762E-01  0.12854131946E+00  0.19988602770E-01 0.  0.
         14    1    1    2    0    0  0.10611662612E-01 -0.10592212456E-01  0.17500555509E-01  0.23044994927E-01  0.00000000000E+00 0.  1.
     999901    1    3    3    0    0 -0.10589599173E+00  0.25089811138E-01 -0.10016882527E+00  0.89234368561E+00  0.88000000000E+00 0.  1.
        -11    1    4    4    0    0  0.69358628065E-01 -0.91044814929E-02  0.70757525000E-01  0.99500750427E-01  0.51100000000E-03 0. -1.
         11    1    4    4    0    0  0.25925701057E-01 -0.53931171894E-02  0.11910744762E-01  0.29040569038E-01  0.51100000000E-03 0.  1.
</event>
<event>
 8    1  0.1202249E+005  0.1043930E+01  0.7957747E-01            NaN
         13   -1    0    0    0    0  0.00000000000E+00  0.00000000000E+00  0.74505805969E-08  0.10566000000E+00  0.10566000000E+00 0.  1.
     999900   -1    0    0    0    0 -0.00000000000E+00 -0.00000000000E+00 -0.74505805969E-08  0.93827000000E+00  0.93827000000E+00 0.  1.
     999902    2    1    2    0    0 -0.50132329459E-02 -0.22836019324E-01 -0.71329106669E-02  0.10194862953E+01  0.10191932161E+01 0.  0.
     999903    2    3    3    0    0 -0.17114629595E-01 -0.12676710812E+00 -0.27255610250E-01  0.13305917591E+00  0.24475819819E-01 0.  0.
         14    1    1    2    0    0  0.50132329459E-02  0.22836019324E-01  0.71329106669E-02  0.24443704664E-01  0.00000000000E+00 0. -1.
     999901    1    3    3    0    0  0.12101396649E-01  0.10393108880E+00  0.20122699583E-01  0.88642711943E+00  0.88000000000E+00 0. -1.
        -11    1    4    4    0    0 -0.67718675061E-02 -0.78498259867E-01 -0.51233748171E-02  0.78957869033E-01  0.51100000000E-03 0. -1.
         11    1    4    4    0    0 -0.10342762088E-01 -0.48268848253E-01 -0.22132235433E-01  0.54101306875E-01  0.51100000000E-03 0.  1.
</event>
<event>
 7    1  0.1202249E+005  0.1043930E+01  0.7957747E-01            NaN
         13   -1    0    0    0    0  0.00000000000E+00  0.00000000000E+00  0.74505805969E-08  0.10566000000E+00  0.10566000000E+00 0.  1.
     999900   -1    0    0    0    0 -0.00000000000E+00 -0.00000000000E+00 -0.74505805969E-08  0.93827000000E+00  0.93827000000E+00 0. -1.
     999903    2    1    2    0    0 -0.60504672638E-01  0.14598039946E-01 -0.96617638322E-01  0.11771147530E+00  0.25438262558E-01 0.  0.
         14    1    1    2    0    0  0.49809429587E-02  0.13102382653E-01  0.39810918174E-01  0.42206533022E-01  0.00000000000E+00 0.  1.
     999901    1    1    2    0    0  0.55523729679E-01 -0.27700422599E-01  0.56806720148E-01  0.88401199167E+00  0.88000000000E+00 0.  1.
        -11    1    3    3    0    0 -0.18366268931E-01  0.10789489322E-01 -0.52121921127E-01  0.56308868726E-01  0.51100000000E-03 0. -1.
         11    1    3    3    0    0 -0.42138403706E-01  0.38085506240E-02 -0.44495717195E-01  0.61402606577E-01  0.51100000000E-03 0.  1.
</event>
<event>
 8    1  0.1202249E+005  0.1043930E+01  0.7957747E-01            NaN
         13   -1    0    0    0    0  0.00000000000E+00  0.00000000000E+00  0.74505805969E-08  0.10566000000E+00  0.10566000000E+00 0. -1.
     999900   -1    0    0    0    0 -0.00000000000E+00 -0.00000000000E+00 -0.74505805969E-08  0.93827000000E+00  0.93827000000E+00 0.  1.
     999902    2    1    2    0    0 -0.21317719859E-01  0.90178593825E-02 -0.53209059511E-02  0.10201796525E+01  0.10199031544E+01 0.  0.
     999903    2    3    3    0    0  0.87168696011E-01 -0.25315012414E-01 -0.89256100810E-01  0.12889228834E+00  0.20182642151E-01 0.  0.
         14    1    1    2    0    0  0.21317719859E-01 -0.90178593825E-02  0.53209059511E-02  0.23750347533E-01  0.00000000000E+00 0. -1.
     999901    1    3    3    0    0 -0.10848641587E+00  0.34332871796E-01  0.83935194859E-01  0.89128736413E+00  0.88000000000E+00 0. -1.
        -11    1    4    4    0    0  0.73774471534E-01 -0.14834613767E-01 -0.66126100933E-01  0.10017814513E+00  0.51100000000E-03 0.  1.
         11    1    4    4    0    0  0.13394224477E-01 -0.10480398647E-01 -0.23129999876E-01  0.28714143212E-01  0.51100000000E-03 0. -1.
</event>
<event>
 8    1  0.1202249E+005  0.1043930E+01  0.7957747E-01            NaN
         13   -1    0    0    0    0  0.00000000000E+00  0.00000000000E+00  0.74505805969E-08  0.10566000000E+00  0.10566000000E+00 0.  1.
     999900   -1    0    0    0    0 -0.00000000000E+00 -0.00000000000E+00 -0.74505805969E-08  0.93827000000E+00  0.93827000000E+00 0. -1.
     999902    2    1    2    0    0  0.21508136273E-02 -0.10917771016E-01  0.20125061217E-01  0.10209334391E+01  0.10206744071E+01 0.  0.
     999903    2    3    3    0    0 -0.73928377114E-02 -0.64941014083E-01  0.11551848502E+00  0.13407973226E+00  0.18996443430E-01 0.  0.
         14    1    1    2    0    0 -0.21508136273E-02  0.10917771016E-01 -0.20125061217E-01  0.22996560878E-01  0.00000000000E+00 0. -1.
     999901    1    3    3    0    0  0.95436513387E-02  0.54023243067E-01 -0.95393423798E-01  0.88685370686E+00  0.88000000000E+00 0. -1.
        -11    1    4    4    0    0 -0.67738662691E-02 -0.22946159716E-01  0.58953930060E-01  0.63625769154E-01  0.51100000000E-03 0. -1.
         11    1    4    4    0    0 -0.61897144228E-03 -0.41994854367E-01  0.56564554955E-01  0.70453963105E-01  0.51100000000E-03 0.  1.
</event>
<event>
 8    1  0.1202249E+005  0.1043930E+01  0.7957747E-01            NaN
         13   -1    0    0    0    0  0.00000000000E+00  0.00000000000E+00  0.74505805969E-08  0.10566000000E+00  0.10566000000E+00 0.  1.
     999900   -1    0    0    0    0 -0.00000000000E+00 -0.00000000000E+00 -0.74505805969E-08  0.93827000000E+00  0.93827000000E+00 0. -1.
     999902    2    1    2    0    0 -0.75432503534E-02 -0.55958140779E-02 -0.21921392654E-01  0.10200812848E+01  0.10198024644E+01 0.  0.
     999903    2    3    3    0    0  0.18481109116E-01 -0.37207860968E-01  0.11927624822E+00  0.12788547524E+00  0.20047320894E-01 0.  0.
         14    1    1    2    0    0  0.75432503534E-02  0.55958140779E-02  0.21921392654E-01  0.23848715206E-01  0.00000000000E+00 0.  1.
     999901    1    3    3    0    0 -0.26024359470E-01  0.31612046890E-01 -0.14119764088E+00  0.89219580955E+00  0.88000000000E+00 0. -1.
        -11    1    4    4    0    0  0.57149678052E-02 -0.17223082805E-01  0.79734615088E-01  0.81775090355E-01  0.51100000000E-03 0. -1.
         11    1    4    4    0    0  0.12766141311E-01 -0.19984778163E-01  0.39541633136E-01  0.46110384886E-01  0.51100000000E-03 0.  1.
</event>
<event>
 8    1  0.1202249E+005  0.1043930E+01  0.7957747E-01            NaN
         13   -1    0    0    0    0  0.00000000000E+00  0.00000000000E+00  0.74505805969E-08  0.10566000000E+00  0.10566000000E+00 0. -1.
     999900   -1    0    0    0    0 -0.00000000000E+00 -0.00000000000E+00 -0.74505805969E-08  0.93827000000E+00  0.93827000000E+00 0. -1.
     999902    2    1    2    0    0  0.10040630442E-01 -0.13871176436E-01  0.16156289577E-01  0.10203874961E+01  0.10201158722E+01 0.  0.
     999903    2    3    3    0    0 -0.10399826827E+00 -0.24695751550E-01  0.73337119838E-01  0.13112280596E+00  0.19731628089E-01 0.  0.
         14    1    1    2    0    0 -0.10040630442E-01  0.13871176436E-01 -0.16156289577E-01  0.23542503866E-01  0.00000000000E+00 0.  1.
     999901    1    3    3    0    0  0.11403889872E+00  0.10824575114E-01 -0.57180830261E-01  0.88926469018E+00  0.88000000000E+00 0. -1.
        -11    1    4    4    0    0 -0.55178515435E-01 -0.48180113169E-02  0.30738668495E-01  0.63348312215E-01  0.51100000000E-03 0.  1.
         11    1    4    4    0    0 -0.48819752839E-01 -0.19877740233E-01  0.42598451343E-01  0.67774493741E-01  0.51100000000E-03 0. -1.
</event>
<event>
 8    1  0.1202249E+005  0.1043930E+01  0.7957747E-01            NaN
         13   -1    0    0    0    0  0.00000000000E+00  0.00000000000E+00  0.74505805969E-08  0.10566000000E+00  0.10566000000E+00 0. -1.
     999900   -1    0    0    0    0 -0.00000000000E+00 -0.00000000000E+00 -0.74505805969E-08  0.93827000000E+00  0.93827000000E+00 0.  1.
     999902    2    1    2    0    0 -0.95011610941E-03  0.23696256010E-01  0.42066849022E-02  0.10198444967E+01  0.10195600453E+01 0.  0.
     999903    2    3    3    0    0 -0.54727101477E-01 -0.44211728524E-01 -0.10605105649E+00  0.12874392550E+00  0.19453513693E-01 0.  0.
         14    1    1    2    0    0  0.95011610941E-03 -0.23696256010E-01 -0.42066849022E-02  0.24085503262E-01  0.00000000000E+00 0.  1.
     999901    1    3    3    0    0  0.53776985367E-01  0.67907984534E-01  0.11025774140E+00  0.89110057124E+00  0.88000000000E+00 0. -1.
        -11    1    4    4    0    0 -0.41341290802E-01 -0.42742535780E-01 -0.84529261225E-01  0.10335126421E+00  0.51100000000E-03 0.  1.
         11    1    4    4    0    0 -0.13385810675E-01 -0.14691927433E-02 -0.21521795269E-01  0.25392661289E-01  0.51100000000E-03 0. -1.
</event>
<event>
 8    1  0.1202249E+005  0.1043930E+01  0.7957747E-01            NaN
         13   -1    0    0    0    0  0.00000000000E+00  0.00000000000E+00  0.74505805969E-08  0.10566000000E+00  0.10566000000E+00 0. -1.
     999900   -1    0    0    0    0 -0.00000000000E+00 -0.00000000000E+00 -0.74505805969E-08  0.93827000000E+00  0.93827000000E+00 0.  1.
     999902    2    1    2    0    0 -0.14018800511E-01 -0.22496614432E-02  0.19031742931E-01  0.10201856326E+01  0.10199092754E+01 0.  0.
     999903    2    3    3    0    0  0.89180974386E-01 -0.90436892860E-01  0.17348581261E-01  0.12977560662E+00  0.20215266998E-01 0.  0.
         14    1    1    2    0    0  0.14018800511E-01  0.22496614432E-02 -0.19031742931E-01  0.23744367403E-01  0.00000000000E+00 0.  1.
     999901    1    3    3    0    0 -0.10319977490E+00  0.88187231416E-01  0.16831616706E-02  0.89041002598E+00  0.88000000000E+00 0. -1.
        -11    1    4    4    0    0  0.62544391341E-01 -0.49665364223E-01  0.92075940674E-02  0.80395834476E-01  0.51100000000E-03 0. -1.
         11    1    4    4    0    0  0.26636583045E-01 -0.40771528637E-01  0.81409871934E-02  0.49379772146E-01  0.51100000000E-03 0.  1.
</event>
<event>
 8    1  0.1202249E+005  0.1043930E+01  0.7957747E-01            NaN
         13   -1    0    0    0    0  0.00000000000E+00  0.00000000000E+00  0.74505805969E-08  0.10566000000E+00  0.10566000000E+00 0.  1.
     999900   -1    0    0    0    0 -0.00000000000E+00 -0.00000000000E+00 -0.74505805969E-08  0.93827000000E+00  0.93827000000E+00 0. -1.
     999902    2    1    2    0    0  0.20119543772E-01 -0.62706623344E-02 -0.10794986287E-01  0.10202519727E+01  0.10199771756E+01 0.  0.
     999903    2    3    3    0    0 -0.82166954767E-01 -0.60861353985E-01  0.74955056156E-01  0.12851448825E+00  0.21028561115E-01 0.  0.
         14    1    1    2    0    0 -0.20119543772E-01  0.62706623344E-02  0.10794986287E-01  0.23678027296E-01  0.00000000000E+00 0.  1.
     999901    1    3    3    0    0  0.10228649854E+00  0.54590691651E-01 -0.85750042444E-01  0.89173748445E+00  0.88000000000E+00 0.  1.
        -11    1    4    4    0    0 -0.55479943237E-02 -0.71672321568E-02  0.14543464728E-01  0.17144181085E-01  0.51100000000E-03 0. -1.
         11    1    4    4    0    0 -0.76618960443E-01 -0.53694121828E-01  0.60411591429E-01  0.11137030717E+00  0.51100000000E-03 0.  1.
</event>
<event>
 8    1  0.1202249E+005  0.1043930E+01  0.7957747E-01            NaN
         13   -1    0    0    0    0  0.00000000000E+00  0.00000000000E+00  0.74505805969E-08  0.10566000000E+00  0.10566000000E+00 0. -1.
     999900   -1    0    0    0    0 -0.00000000000E+00 -0.00000000000E+00 -0.74505805969E-08  0.93827000000E+00  0.93827000000E+00 0.  1.
     999902    2    1    2    0    0 -0.15698169995E-01 -0.15061064937E-01  0.25923945161E-02  0.10220213550E+01  0.10217865047E+01 0.  0.
     999903    2    3    3    0    0  0.10395221832E+00  0.49899293007E-01  0.56318993590E-01  0.12993245189E+00  0.20361971400E-01 0.  0.
         14    1    1    2    0    0  0.15698169995E-01  0.15061064937E-01 -0.25923945161E-02  0.21908645042E-01  0.00000000000E+00 0.  1.
     999901    1    3    3    0    0 -0.11965038831E+00 -0.64960357945E-01 -0.53726599074E-01  0.89208890307E+00  0.88000000000E+00 0.  1.
        -11    1    4    4    0    0  0.28643585616E-01  0.53015225327E-02  0.93316419920E-02  0.30592512178E-01  0.51100000000E-03 0. -1.
         11    1    4    4    0    0  0.75308632703E-01  0.44597770475E-01  0.46987351598E-01  0.99339939713E-01  0.51100000000E-03 0.  1.
</event>
<event>
 8    1  0.1202249E+005  0.1043930E+01  0.7957747E-01            NaN
         13   -1    0    0    0    0  0.00000000000E+00  0.00000000000E+00  0.74505805969E-08  0.10566000000E+00  0.10566000000E+00 0.  1.
     999900   -1    0    0    0    0 -0.00000000000E+00 -0.00000000000E+00 -0.74505805969E-08  0.93827000000E+00  0.93827000000E+00 0.  1.
     999902    2    1    2    0    0 -0.14121778602E-01  0.15815479674E-01  0.10692740206E-01  0.10201836588E+01  0.10199072551E+01 0.  0.
     999903    2    3    3    0    0  0.42833430521E-01 -0.11887791400E+00 -0.22963623104E-02  0.12802060029E+00  0.20428891596E-01 0.  0.
         14    1    1    2    0    0  0.14121778602E-01 -0.15815479674E-01 -0.10692740206E-01  0.23746341220E-01  0.00000000000E+00 0.  1.
     999901    1    3    3    0    0 -0.56955209123E-01  0.13469339368E+00  0.12989102517E-01  0.89216305849E+00  0.88000000000E+00 0.  1.
        -11    1    4    4    0    0  0.83754922790E-02 -0.52264055395E-01 -0.29828754419E-02  0.53017346445E-01  0.51100000000E-03 0.  1.
         11    1    4    4    0    0  0.34457938242E-01 -0.66613858607E-01  0.68651313149E-03  0.75003253847E-01  0.51100000000E-03 0. -1.
</event>
<event>
 8    1  0.1202249E+005  0.1043930E+01  0.7957747E-01            NaN
         13   -1    0    0    0    0  0.00000000000E+00  0.00000000000E+00  0.74505805969E-08  0.10566000000E+00  0.10566000000E+00 0.  1.
     999900   -1    0    0    0    0 -0.00000000000E+00 -0.00000000000E+00 -0.74505805969E-08  0.93827000000E+00  0.93827000000E+00 0.  1.
     999902    2    1    2    0    0 -0.23213721082E-02 -0.16541918290E-01  0.15281536201E-01  0.10212904510E+01  0.10210394881E+01 0.  0.
     999903    2    3    3    0    0  0.12022122746E+00  0.38420534000E-01 -0.24932159906E-01  0.13019298092E+00  0.19982960696E-01 0.  0.
         14    1    1    2    0    0  0.23213721082E-02  0.16541918290E-01 -0.15281536201E-01  0.22639548976E-01  0.00000000000E+00 0. -1.
     999901    1    3    3    0    0 -0.12254259957E+00 -0.54962452290E-01  0.40213696107E-01  0.89109747010E+00  0.88000000000E+00 0.  1.
        -11    1    4    4    0    0  0.82951821996E-01  0.19348847772E-01 -0.23224157695E-01  0.88289327239E-01  0.51100000000E-03 0. -1.
         11    1    4    4    0    0  0.37269405465E-01  0.19071686228E-01 -0.17080022104E-02  0.41903653681E-01  0.51100000000E-03 0.  1.
</event>
<event>
 8    1  0.1202249E+005  0.1043930E+01  0.7957747E-01            NaN
         13   -1    0    0    0    0  0.00000000000E+00  0.00000000000E+00  0.74505805969E-08  0.10566000000E+00  0.10566000000E+00 0. -1.
     999900   -1    0    0    0    0 -0.00000000000E+00 -0.00000000000E+00 -0.74505805969E-08  0.93827000000E+00  0.93827000000E+00 0. -1.
     999902    2    1    2    0    0 -0.24109352889E-01 -0.12770236864E-02  0.55221642489E-02  0.10191633695E+01  0.10188623989E+01 0.  0.
     999903    2    3    3    0    0 -0.97904718228E-01  0.46888964074E-01 -0.71467330043E-01  0.13141729067E+00  0.19468338923E-01 0.  0.
         14    1    1    2    0    0  0.24109352889E-01  0.12770236864E-02 -0.55221642489E-02  0.24766630457E-01  0.00000000000E+00 0. -1.
     999901    1    3    3    0    0  0.73795365339E-01 -0.48165987760E-01  0.76989494292E-01  0.88774607887E+00  0.88000000000E+00 0.  1.
        -11    1    4    4    0    0 -0.88200116289E-01  0.36793265922E-01 -0.66981408672E-01  0.11670379239E+00  0.51100000000E-03 0. -1.
         11    1    4    4    0    0 -0.97046019390E-02  0.10095698152E-01 -0.44859213711E-02  0.14713498276E-01  0.51100000000E-03 0.  1.
</event>
<event>
 8    1  0.1202249E+005  0.1043930E+01  0.7957747E-01            NaN
         13   -1    0    0    0    0  0.00000000000E+00  0.00000000000E+00  0.74505805969E-08  0.10566000000E+00  0.10566000000E+00 0.  1.
     999900   -1    0    0    0    0 -0.00000000000E+00 -0.00000000000E+00 -0.74505805969E-08  0.93827000000E+00  0.93827000000E+00 0. -1.
     999902    2    1    2    0    0  0.11848575618E-01  0.13114359727E-01 -0.12402561799E-01  0.10223383647E+01  0.10221103332E+01 0.  0.
     999903    2    3    3    0    0  0.28875153752E-01 -0.85569447450E-01  0.91856416812E-01  0.13054335868E+00  0.21167483204E-01 0.  0.
         14    1    1    2    0    0 -0.11848575618E-01 -0.13114359727E-01  0.12402561799E-01  0.21591635288E-01  0.00000000000E+00 0.  1.
     999901    1    3    3    0    0 -0.17026578134E-01  0.98683807176E-01 -0.10425897861E+00  0.89179500603E+00  0.88000000000E+00 0. -1.
        -11    1    4    4    0    0  0.21623354335E-01 -0.55420161607E-01  0.46078956454E-01  0.75249552252E-01  0.51100000000E-03 0. -1.
         11    1    4    4    0    0  0.72517994174E-02 -0.30149285842E-01  0.45777460358E-01  0.55293806429E-01  0.51100000000E-03 0.  1.
</event>
<event>
 8    1  0.1202249E+005  0.1043930E+01  0.7957747E-01            NaN
         13   -1    0    0    0    0  0.00000000000E+00  0.00000000000E+00  0.74505805969E-08  0.10566000000E+00  0.10566000000E+00 0.  1.
     999900   -1    0    0    0    0 -0.00000000000E+00 -0.00000000000E+00 -0.74505805969E-08  0.93827000000E+00  0.93827000000E+00 0. -1.
     999902    2    1    2    0    0  0.18329763255E-01  0.15440297201E-01 -0.24684760315E-02  0.10198369227E+01  0.10195522903E+01 0.  0.
     999903    2    3    3    0    0 -0.27333910834E-01 -0.12292039821E+00 -0.93837973673E-02  0.12782981803E+00  0.19895721814E-01 0.  0.
         14    1    1    2    0    0 -0.18329763255E-01 -0.15440297201E-01  0.24684760315E-02  0.24093077274E-01  0.00000000000E+00 0. -1.
     999901    1    3    3    0    0  0.45663674089E-01  0.13836069541E+00  0.69153213358E-02  0.89200710470E+00  0.88000000000E+00 0. -1.
        -11    1    4    4    0    0 -0.57076244774E-02 -0.67006300372E-01 -0.72409968722E-03  0.67254789481E-01  0.51100000000E-03 0. -1.
         11    1    4    4    0    0 -0.21626286357E-01 -0.55914097836E-01 -0.86596976801E-02  0.60575028546E-01  0.51100000000E-03 0.  1.
</event>
<event>
 8    1  0.1202249E+005  0.1043930E+01  0.7957747E-01            NaN
         13   -1    0    0    0    0  0.00000000000E+00  0.00000000000E+00  0.74505805969E-08  0.10566000000E+00  0.10566000000E+00 0. -1.
     999900   -1    0    0    0    0 -0.00000000000E+00 -0.00000000000E+00 -0.74505805969E-08  0.93827000000E+00  0.93827000000E+00 0.  1.
     999902    2    1    2    0    0 -0.59136881957E-02 -0.13030648658E-01 -0.18712719192E-01  0.10203729337E+01  0.10201009697E+01 0.  0.
     999903    2    3    3    0    0  0.62524119358E-01  0.55351771910E-01 -0.99546484174E-01  0.13138812703E+00  0.19500083556E-01 0.  0.
         14    1    1    2    0    0  0.59136881957E-02  0.13030648658E-01  0.18712719192E-01  0.23557066288E-01  0.00000000000E+00 0. -1.
     999901    1    3    3    0    0 -0.68437807553E-01 -0.68382420568E-01  0.80833764982E-01  0.88898480668E+00  0.88000000000E+00 0. -1.
        -11    1    4    4    0    0  0.20928557735E-01  0.73042006771E-02 -0.24348257495E-01  0.32931058903E-01  0.51100000000E-03 0.  1.
         11    1    4    4    0    0  0.41595561623E-01  0.48047571233E-01 -0.75198226679E-01  0.98457068130E-01  0.51100000000E-03 0. -1.
</event>
<event>
 8    1  0.1202249E+005  0.1043930E+01  0.7957747E-01            NaN
         13   -1    0    0    0    0  0.00000000000E+00  0.00000000000E+00  0.74505805969E-08  0.10566000000E+00  0.10566000000E+00 0. -1.
     999900   -1    0    0    0    0 -0.00000000000E+00 -0.00000000000E+00 -0.74505805969E-08  0.93827000000E+00  0.93827000000E+00 0.  1.
     999902    2    1    2    0    0  0.18053791468E-01 -0.38848171281E-03  0.12563186285E-01  0.10219317284E+01  0.10216949317E+01 0.  0.
     999903    2    3    3    0    0 -0.12799027522E+00 -0.58731377899E-02 -0.23425029908E-02  0.12975398240E+00  0.20361835100E-01 0.  0.
         14    1    1    2    0    0 -0.18053791468E-01  0.38848171281E-03 -0.12563186285E-01  0.21998271615E-01  0.00000000000E+00 0.  1.
     999901    1    3    3    0    0  0.14604406669E+00  0.54846560771E-02  0.14905689276E-01  0.89217774599E+00  0.88000000000E+00 0. -1.
        -11    1    4    4    0    0 -0.58151942540E-01  0.12148063190E-02  0.82890724154E-02  0.58754523384E-01  0.51100000000E-03 0.  1.
         11    1    4    4    0    0 -0.69838332681E-01 -0.70879441090E-02 -0.10631575406E-01  0.70999459011E-01  0.51100000000E-03 0. -1.
</event>
<event>
 8    1  0.1202249E+005  0.1043930E+01  0.7957747E-01            NaN
         13   -1    0    0    0    0  0.00000000000E+00  0.00000000000E+00  0.74505805969E-08  0.10566000000E+00  0.10566000000E+00 0.  1.
     999900   -1    0    0    0    0 -0.00000000000E+00 -0.00000000000E+00 -0.74505805969E-08  0.93827000000E+00  0.93827000000E+00 0. -1.
     999902    2    1    2    0    0 -0.12615917862E-01 -0.12107649327E-01 -0.15557786150E-01  0.10205248453E+01  0.10202564181E+01 0.  0.
     999903    2    3    3    0    0 -0.10501081676E+00  0.72365667987E-01 -0.26012315381E-01  0.13160310756E+00  0.19459594759E-01 0.  0.
         14    1    1    2    0    0  0.12615917862E-01  0.12107649327E-01  0.15557786150E-01  0.23405154680E-01  0.00000000000E+00 0.  1.
     999901    1    3    3    0    0  0.92394898897E-01 -0.84473317314E-01  0.10454529231E-01  0.88892173776E+00  0.88000000000E+00 0.  1.
        -11    1    4    4    0    0 -0.73585094780E-01  0.42677168570E-01 -0.23699756277E-01  0.88306548225E-01  0.51100000000E-03 0.  1.
         11    1    4    4    0    0 -0.31425721980E-01  0.29688499417E-01 -0.23125591045E-02  0.43296559334E-01  0.51100000000E-03 0. -1.
</event>
<event>
 8    1  0.1202249E+005  0.1043930E+01  0.7957747E-01            NaN
         13   -1    0    0    0    0  0.00000000000E+00  0.00000000000E+00  0.74505805969E-08  0.10566000000E+00  0.10566000000E+00 0.  1.
     999900   -1    0    0    0    0 -0.00000000000E+00 -0.00000000000E+00 -0.74505805969E-08  0.93827000000E+00  0.93827000000E+00 0. -1.
     999902    2    1    2    0    0  0.21395281991E-01 -0.57810077848E-02  0.84865238823E-02  0.10201981811E+01  0.10199221193E+01 0.  0.
     999903    2    3    3    0    0 -0.43112566023E-01  0.42568520837E-01  0.11366139464E+00  0.13027644697E+00  0.19551667163E-01 0.  0.
         14    1    1    2    0    0 -0.21395281991E-01  0.57810077848E-02 -0.84865238823E-02  0.23731818938E-01  0.00000000000E+00 0. -1.
     999901    1    3    3    0    0  0.64507848015E-01 -0.48349528622E-01 -0.10517487075E+00  0.88992173409E+00  0.88000000000E+00 0. -1.
        -11    1    4    4    0    0 -0.17818157477E-01  0.27215703371E-01  0.73600096635E-01  0.80469973229E-01  0.51100000000E-03 0. -1.
         11    1    4    4    0    0 -0.25294408546E-01  0.15352817467E-01  0.40061298001E-01  0.49806473740E-01  0.51100000000E-03 0.  1.
</event>
<event>
 8    1  0.1202249E+005  0.1043930E+01  0.7957747E-01            NaN
         13   -1    0    0    0    0  0.00000000000E+00  0.00000000000E+00  0.74505805969E-08  0.10566000000E+00  0.10566000000E+00 0.  1.
     999900   -1    0    0    0    0 -0.00000000000E+00 -0.00000000000E+00 -0.74505805969E-08  0.93827000000E+00  0.93827000000E+00 0.  1.
     999902    2    1    2    0    0  0.11853545217E-01 -0.17919612293E-01  0.96835520916E-02  0.10203632815E+01  0.10200910920E+01 0.  0.
     999903    2    3    3    0    0  0.11283255248E+00  0.55993449885E-01 -0.28437640544E-01  0.13069304711E+00  0.20137572688E-01 0.  0.
         14    1    1    2    0    0 -0.11853545217E-01  0.17919612293E-01 -0.96835520916E-02  0.23566718483E-01  0.00000000000E+00 0. -1.
     999901    1    3    3    0    0 -0.10097900726E+00 -0.73913062178E-01  0.38121192635E-01  0.88967023441E+00  0.88000000000E+00 0. -1.
        -11    1    4    4    0    0  0.53300406630E-01  0.34474283105E-01 -0.70328812628E-02  0.63868083441E-01  0.51100000000E-03 0.  1.
         11    1    4    4    0    0  0.59532145847E-01  0.21519166780E-01 -0.21404759281E-01  0.66824963665E-01  0.51100000000E-03 0. -1.
</event>
<event>
 8    1  0.1202249E+005  0.1043930E+01  0.7957747E-01            NaN
         13   -1    0    0    0    0  0.00000000000E+00  0.00000000000E+00  0.74505805969E-08  0.10566000000E+00  0.10566000000E+00 0. -1.
     999900   -1    0    0    0    0 -0.00000000000E+00 -0.00000000000E+00 -0.74505805969E-08  0.93827000000E+00  0.93827000000E+00 0. -1.
     999902    2    1    2    0    0 -0.15554268421E-01  0.37643372487E-02 -0.18914892673E-01  0.10191534251E+01  0.10188522097E+01 0.  0.
     999903    2    3    3    0    0 -0.11601045128E+00 -0.18001099013E-02  0.55864400051E-01  0.13026965855E+00  0.19689782725E-01 0.  0.
         14    1    1    2    0    0  0.15554268421E-01 -0.37643372487E-02  0.18914892673E-01  0.24776574942E-01  0.00000000000E+00 0. -1.
     999901    1    3    3    0    0  0.10045618286E+00  0.55644471500E-02 -0.74779292724E-01  0.88888376651E+00  0.88000000000E+00 0. -1.
        -11    1    4    4    0    0 -0.94898454199E-01 -0.40795726783E-02  0.53176659542E-01  0.10885944040E+00  0.51100000000E-03 0.  1.
         11    1    4    4    0    0 -0.21111997078E-01  0.22794627770E-02  0.26877405092E-02  0.21410218150E-01  0.51100000000E-03 0. -1.
</event>
<event>
 8    1  0.1202249E+005  0.1043930E+01  0.7957747E-01            NaN
         13   -1    0    0    0    0  0.00000000000E+00  0.00000000000E+00  0.74505805969E-08  0.10566000000E+00  0.10566000000E+00 0. -1.
     999900   -1    0    0    0    0 -0.00000000000E+00 -0.00000000000E+00 -0.74505805969E-08  0.93827000000E+00  0.93827000000E+00 0. -1.
     999902    2    1    2    0    0  0.46719299724E-02 -0.14295249976E-01 -0.18310270329E-01  0.10202351250E+01  0.10199599322E+01 0.  0.
     999903    2    3    3    0    0 -0.52495890555E-01  0.60475655852E-01  0.97607882797E-01  0.12765691202E+00  0.18864382514E-01 0.  0.
         14    1    1    2    0    0 -0.46719299724E-02  0.14295249976E-01  0.18310270329E-01  0.23694874995E-01  0.00000000000E+00 0. -1.
     999901    1    3    3    0    0  0.57167820527E-01 -0.74770905828E-01 -0.11591815313E+00  0.89257821298E+00  0.88000000000E+00 0. -1.
        -11    1    4    4    0    0 -0.23795756749E-01  0.26231897261E-01  0.28983722888E-01  0.45767540754E-01  0.51100000000E-03 0. -1.
         11    1    4    4    0    0 -0.28700133806E-01  0.34243758591E-01  0.68624159910E-01  0.81889371271E-01  0.51100000000E-03 0.  1.
</event>
<event>
 8    1  0.1202249E+005  0.1043930E+01  0.7957747E-01            NaN
         13   -1    0    0    0    0  0.00000000000E+00  0.00000000000E+00  0.74505805969E-08  0.10566000000E+00  0.10566000000E+00 0. -1.
     999900   -1    0    0    0    0 -0.00000000000E+00 -0.00000000000E+00 -0.74505805969E-08  0.93827000000E+00  0.93827000000E+00 0.  1.
     999902    2    1    2    0    0 -0.65522328034E-02 -0.19313055254E-01  0.13557119700E-01  0.10194407911E+01  0.10191466063E+01 0.  0.
     999903    2    3    3    0    0  0.10673873524E+00  0.50404340867E-01  0.47248438482E-01  0.12880592556E+00  0.20610588059E-01 0.  0.
         14    1    1    2    0    0  0.65522328034E-02  0.19313055254E-01 -0.13557119700E-01  0.24489208899E-01  0.00000000000E+00 0.  1.
     999901    1    3    3    0    0 -0.11329096805E+00 -0.69717396121E-01 -0.33691318782E-01  0.89063486554E+00  0.88000000000E+00 0. -1.
        -11    1    4    4    0    0  0.23739659459E-01  0.35095891951E-02  0.49351786452E-02  0.24505218971E-01  0.51100000000E-03 0. -1.
         11    1    4    4    0    0  0.82999075783E-01  0.46894751672E-01  0.42313259837E-01  0.10430070659E+00  0.51100000000E-03 0.  1.
</event>
<event>
 8    1  0.1202249E+005  0.1043930E+01  0.7957747E-01            NaN
         13   -1    0    0    0    0  0.00000000000E+00  0.00000000000E+00  0.74505805969E-08  0.10566000000E+00  0.10566000000E+00 0. -1.
     999900   -1    0    0    0    0 -0.00000000000E+00 -0.00000000000E+00 -0.74505805969E-08  0.93827000000E+00  0.93827000000E+00 0.  1.
     999902    2    1    2    0    0 -0.23249915041E-01 -0.37725228478E-02  0.14400733267E-02  0.10203320279E+01  0.10200591075E+01 0.  0.
     999903    2    3    3    0    0 -0.38086611009E-01  0.90983174514E-01  0.84095830109E-01  0.13127030679E+00  0.20766723900E-01 0.  0.
         14    1    1    2    0    0  0.23249915041E-01  0.37725228478E-02 -0.14400733267E-02  0.23597972142E-01  0.00000000000E+00 0.  1.
     999901    1    3    3    0    0  0.14836695968E-01 -0.94755697362E-01 -0.82655756782E-01  0.88906172106E+00  0.88000000000E+00 0.  1.
        -11    1    4    4    0    0 -0.28530200262E-01  0.45098574240E-01  0.51613122899E-01  0.74243042111E-01  0.51100000000E-03 0. -1.
         11    1    4    4    0    0 -0.95564107473E-02  0.45884600274E-01  0.32482707210E-01  0.57027264684E-01  0.51100000000E-03 0.  1.
</event>
<event>
 8    1  0.1202249E+005  0.1043930E+01  0.7957747E-01            NaN
         13   -1    0    0    0    0  0.00000000000E+00  0.00000000000E+00  0.74505805969E-08  0.10566000000E+00  0.10566000000E+00 0.  1.
     999900   -1    0    0    0    0 -0.00000000000E+00 -0.00000000000E+00 -0.74505805969E-08  0.93827000000E+00  0.93827000000E+00 0. -1.
     999902    2    1    2    0    0  0.17321794251E-01 -0.39025597822E-03  0.16143805105E-01  0.10202483763E+01  0.10199734948E+01 0.  0.
     999903    2    3    3    0    0 -0.26433803757E-01  0.11246223705E+00  0.58943470938E-01  0.13093288174E+00  0.17960679622E-01 0.  0.
         14    1    1    2    0    0 -0.17321794251E-01  0.39025597822E-03 -0.16143805105E-01  0.23681623658E-01  0.00000000000E+00 0. -1.
     999901    1    3    3    0    0  0.43755598008E-01 -0.11285249303E+00 -0.42799665834E-01  0.88931549460E+00  0.88000000000E+00 0. -1.
        -11    1    4    4    0    0 -0.23939410605E-01  0.77330368719E-01  0.34166489090E-01  0.87867464992E-01  0.51100000000E-03 0. -1.
         11    1    4    4    0    0 -0.24943931519E-02  0.35131868329E-01  0.24776981848E-01  0.43065416751E-01  0.51100000000E-03 0.  1.
</event>
<event>
 8    1  0.1202249E+005  0.1043930E+01  0.7957747E-01            NaN
         13   -1    0    0    0    0  0.00000000000E+00  0.00000000000E+00  0.74505805969E-08  0.10566000000E+00  0.10566000000E+00 0.  1.
     999900   -1    0    0    0    0 -0.00000000000E+00 -0.00000000000E+00 -0.74505805969E-08  0.93827000000E+00  0.93827000000E+00 0.  1.
     999902    2    1    2    0    0  0.72522182713E-02  0.24864520314E-02  0.19782857072E-01  0.10227135312E+01  0.10224934368E+01 0.  0.
     999903    2    3    3    0    0 -0.12270301219E+00 -0.38500444566E-01  0.23201823812E-01  0.13221929938E+00  0.20132189842E-01 0.  0.
         14    1    1    2    0    0 -0.72522182713E-02 -0.24864520314E-02 -0.19782857072E-01  0.21216468780E-01  0.00000000000E+00 0. -1.
     999901    1    3    3    0    0  0.12995523046E+00  0.40986896597E-01 -0.34189667408E-02  0.89049423185E+00  0.88000000000E+00 0.  1.
        -11    1    4    4    0    0 -0.46828742504E-01 -0.64430285499E-02  0.14196476861E-01  0.49358330783E-01  0.51100000000E-03 0.  1.
         11    1    4    4    0    0 -0.75874269682E-01 -0.32057416016E-01  0.90053469518E-02  0.82860968592E-01  0.51100000000E-03 0. -1.
</event>
<event>
 8    1  0.1202249E+005  0.1043930E+01  0.7957747E-01            NaN
         13   -1    0    0    0    0  0.00000000000E+00  0.00000000000E+00  0.74505805969E-08  0.10566000000E+00  0.10566000000E+00 0. -1.
     999900   -1    0    0    0    0 -0.00000000000E+00 -0.00000000000E+00 -0.74505805969E-08  0.93827000000E+00  0.93827000000E+00 0.  1.
     999902    2    1    2    0    0  0.35402750513E-03  0.17875250472E-01 -0.16808857449E-01  0.10193904889E+01  0.10190950796E+01 0.  0.
     999903    2    3    3    0    0 -0.32523665336E-01  0.96892483153E-01 -0.82373465033E-01  0.13281089097E+00  0.20184224546E-01 0.  0.
         14    1    1    2    0    0 -0.35402750513E-03 -0.17875250472E-01  0.16808857449E-01  0.24539511072E-01  0.00000000000E+00 0. -1.
     999901    1    3    3    0    0  0.32877692841E-01 -0.79017232681E-01  0.65564607584E-01  0.88657959796E+00  0.88000000000E+00 0. -1.
        -11    1    4    4    0    0 -0.20898546249E-01  0.46507459542E-01 -0.52052675752E-01  0.72865871314E-01  0.51100000000E-03 0. -1.
         11    1    4    4    0    0 -0.11625119087E-01  0.50385023611E-01 -0.30320789280E-01  0.59945019657E-01  0.51100000000E-03 0.  1.
</event>
<event>
 8    1  0.1202249E+005  0.1043930E+01  0.7957747E-01            NaN
         13   -1    0    0    0    0  0.00000000000E+00  0.00000000000E+00  0.74505805969E-08  0.10566000000E+00  0.10566000000E+00 0. -1.
     999900   -1    0    0    0    0 -0.00000000000E+00 -0.00000000000E+00 -0.74505805969E-08  0.93827000000E+00  0.93827000000E+00 0. -1.
     999902    2    1    2    0    0  0.20460443307E-01 -0.76284651697E-02  0.15688628037E-01  0.10170421538E+01  0.10166866707E+01 0.  0.
     999903    2    3    3    0    0  0.40361343820E-01 -0.31627595296E-01  0.11869860990E+00  0.13048529698E+00  0.17541661188E-01 0.  0.
         14    1    1    2    0    0 -0.20460443307E-01  0.76284651697E-02 -0.15688628037E-01  0.26887846155E-01  0.00000000000E+00 0.  1.
     999901    1    3    3    0    0 -0.19900900514E-01  0.23999130126E-01 -0.10300998186E+00  0.88655685686E+00  0.88000000000E+00 0. -1.
        -11    1    4    4    0    0  0.23203862951E-01 -0.22328437581E-01  0.53690614835E-01  0.62609277452E-01  0.51100000000E-03 0. -1.
         11    1    4    4    0    0  0.17157480869E-01 -0.92991577152E-02  0.65007995064E-01  0.67876019530E-01  0.51100000000E-03 0.  1.
</event>
<event>
 8    1  0.1202249E+005  0.1043930E+01  0.7957747E-01            NaN
         13   -1    0    0    0    0  0.00000000000E+00  0.00000000000E+00  0.74505805969E-08  0.10566000000E+00  0.10566000000E+00 0. -1.
     999900   -1    0    0    0    0 -0.00000000000E+00 -0.00000000000E+00 -0.74505805969E-08  0.93827000000E+00  0.93827000000E+00 0.  1.
     999902    2    1    2    0    0  0.21289805820E-02  0.17763260688E-01 -0.14672812923E-01  0.10207922078E+01  0.10205299477E+01 0.  0.
     999903    2    3    3    0    0 -0.37066635960E-02 -0.36513352233E-01 -0.12536350795E+00  0.13217956136E+00  0.20210469330E-01 0.  0.
         14    1    1    2    0    0 -0.21289805820E-02 -0.17763260688E-01  0.14672812923E-01  0.23137792195E-01  0.00000000000E+00 0.  1.
     999901    1    3    3    0    0  0.58356441779E-02  0.54276612921E-01  0.11069069503E+00  0.88861264644E+00  0.88000000000E+00 0. -1.
        -11    1    4    4    0    0 -0.94325216447E-02 -0.28115432353E-01 -0.10852017131E+00  0.11250039423E+00  0.51100000000E-03 0.  1.
         11    1    4    4    0    0  0.57258580488E-02 -0.83979198802E-02 -0.16843336640E-01  0.19679167129E-01  0.51100000000E-03 0. -1.
</event>
<event>
 7    1  0.1202249E+005  0.1043930E+01  0.7957747E-01            NaN
         13   -1    0    0    0    0  0.00000000000E+00  0.00000000000E+00  0.74505805969E-08  0.10566000000E+00  0.10566000000E+00 0.  1.
     999900   -1    0    0    0    0 -0.00000000000E+00 -0.00000000000E+00 -0.74505805969E-08  0.93827000000E+00  0.93827000000E+00 0. -1.
     999902    2    1    2    0    0 -0.19587112162E-01 -0.21055135007E-02 -0.15309502971E-01  0.10189806707E+01  0.10186751878E+01 0.  0.
         14    1    1    2    0    0  0.19587112162E-01  0.21055135007E-02  0.15309502971E-01  0.24949329273E-01  0.00000000000E+00 0.  1.
     999901    1    3    3    0    0  0.61225855262E-01 -0.23807502664E-01  0.72909435624E-01  0.88545535649E+00  0.88000000000E+00 0.  1.
        -11    1    3    3    0    0 -0.23434251436E-01  0.27606012023E-01 -0.58071521907E-01  0.68438430854E-01  0.51100000000E-03 0. -1.
         11    1    3    3    0    0 -0.57378715988E-01 -0.59040228593E-02 -0.30147416688E-01  0.65086883382E-01  0.51100000000E-03 0.  1.
</event>
<event>
 8    1  0.1202249E+005  0.1043930E+01  0.7957747E-01            NaN
         13   -1    0    0    0    0  0.00000000000E+00  0.00000000000E+00  0.74505805969E-08  0.10566000000E+00  0.10566000000E+00 0. -1.
     999900   -1    0    0    0    0 -0.00000000000E+00 -0.00000000000E+00 -0.74505805969E-08  0.93827000000E+00  0.93827000000E+00 0.  1.
     999902    2    1    2    0    0 -0.10050146720E-01  0.12690539063E-02 -0.21370059634E-01  0.10202805730E+01  0.10200064472E+01 0.  0.
     999903    2    3    3    0    0  0.97214241656E-01 -0.62223285522E-01 -0.58140206510E-01  0.13073632463E+00  0.19732129178E-01 0.  0.
         14    1    1    2    0    0  0.10050146720E-01 -0.12690539063E-02  0.21370059634E-01  0.23649426963E-01  0.00000000000E+00 0. -1.
     999901    1    3    3    0    0 -0.10726438838E+00  0.63492339428E-01  0.36770146876E-01  0.88954424841E+00  0.88000000000E+00 0. -1.
        -11    1    4    4    0    0  0.76236915027E-01 -0.46263441581E-01 -0.53420730874E-01  0.10395387846E+00  0.51100000000E-03 0. -1.
         11    1    4    4    0    0  0.20977326629E-01 -0.15959843941E-01 -0.47194756358E-02  0.26782446161E-01  0.51100000000E-03 0.  1.
</event>
<event>
 8    1  0.1202249E+005  0.1043930E+01  0.7957747E-01            NaN
         13   -1    0    0    0    0  0.00000000000E+00  0.00000000000E+00  0.74505805969E-08  0.10566000000E+00  0.10566000000E+00 0.  1.
     999900   -1    0    0    0    0 -0.00000000000E+00 -0.00000000000E+00 -0.74505805969E-08  0.93827000000E+00  0.93827000000E+00 0.  1.
     999902    2    1    2    0    0 -0.19306837373E-01 -0.13647423164E-01 -0.11016653510E-01  0.10178460436E+01  0.10175117668E+01 0.  0.
     999903    2    3    3    0    0 -0.46717055191E-01  0.88172161568E-01  0.76327333395E-01  0.12725774367E+00  0.20294289332E-01 0.  0.
         14    1    1    2    0    0  0.19306837373E-01  0.13647423164E-01  0.11016653510E-01  0.26083956427E-01  0.00000000000E+00 0.  1.
     999901    1    3    3    0    0  0.27410217818E-01 -0.10181958473E+00 -0.87343986905E-01  0.89058829990E+00  0.88000000000E+00 0.  1.
        -11    1    4    4    0    0 -0.43193357195E-02  0.25450575229E-01  0.23763095574E-01  0.35090372937E-01  0.51100000000E-03 0. -1.
         11    1    4    4    0    0 -0.42397719471E-01  0.62721586339E-01  0.52564237821E-01  0.92167370733E-01  0.51100000000E-03 0.  1.
</event>
<event>
 8    1  0.1202249E+005  0.1043930E+01  0.7957747E-01            NaN
         13   -1    0    0    0    0  0.00000000000E+00  0.00000000000E+00  0.74505805969E-08  0.10566000000E+00  0.10566000000E+00 0. -1.
     999900   -1    0    0    0    0 -0.00000000000E+00 -0.00000000000E+00 -0.74505805969E-08  0.93827000000E+00  0.93827000000E+00 0.  1.
     999902    2    1    2    0    0 -0.11513662359E-01 -0.17364340473E-01 -0.10667415721E-01  0.10205231955E+01  0.10202547299E+01 0.  0.
     999903    2    3    3    0    0  0.23964867116E-01  0.51345431191E-02 -0.12802393547E+00  0.13173892548E+00  0.19087641163E-01 0.  0.
         14    1    1    2    0    0  0.11513662359E-01  0.17364340473E-01  0.10667415721E-01  0.23406804548E-01  0.00000000000E+00 0. -1.
     999901    1    3    3    0    0 -0.35478529475E-01 -0.22498883592E-01  0.11735651975E+00  0.88878426997E+00  0.88000000000E+00 0. -1.
        -11    1    4    4    0    0  0.44928602714E-02  0.68939483208E-02 -0.15782033077E-01  0.17805785742E-01  0.51100000000E-03 0.  1.
         11    1    4    4    0    0  0.19472006845E-01 -0.17594052018E-02 -0.11224190239E+00  0.11393313974E+00  0.51100000000E-03 0. -1.
</event>
<event>
 8    1  0.1202249E+005  0.1043930E+01  0.7957747E-01            NaN
         13   -1    0    0    0    0  0.00000000000E+00  0.00000000000E+00  0.74505805969E-08  0.10566000000E+00  0.10566000000E+00 0. -1.
     999900   -1    0    0    0    0 -0.00000000000E+00 -0.00000000000E+00 -0.74505805969E-08  0.93827000000E+00  0.93827000000E+00 0. -1.
     999902    2    1    2    0    0 -0.77282195624E-02 -0.11220163371E-01  0.18185366500E-01  0.10212072141E+01  0.10209543815E+01 0.  0.
     999903    2    3    3    0    0  0.11901713256E-01 -0.12688096738E+00  0.32972255132E-01  0.13329876843E+00  0.20999080811E-01 0.  0.
         14    1    1    2    0    0  0.77282195624E-02  0.11220163371E-01 -0.18185366500E-01  0.22722785885E-01  0.00000000000E+00 0. -1.
     999901    1    3    3    0    0 -0.19629932819E-01  0.11566080401E+00 -0.14786888632E-01  0.88790844569E+00  0.88000000000E+00 0. -1.
        -11    1    4    4    0    0  0.27572992530E-02 -0.83804293971E-01  0.12663312085E-01  0.84802022270E-01  0.51100000000E-03 0. -1.
         11    1    4    4    0    0  0.91444140034E-02 -0.43076673407E-01  0.20308943047E-01  0.48496746158E-01  0.51100000000E-03 0.  1.
</event>
<event>
 8    1  0.1202249E+005  0.1043930E+01  0.7957747E-01            NaN
         13   -1    0    0    0    0  0.00000000000E+00  0.00000000000E+00  0.74505805969E-08  0.10566000000E+00  0.10566000000E+00 0.  1.
     999900   -1    0    0    0    0 -0.00000000000E+00 -0.00000000000E+00 -0.74505805969E-08  0.93827000000E+00  0.93827000000E+00 0. -1.
     999902    2    1    2    0    0 -0.19943372228E-01  0.10619302348E-01 -0.63623633147E-02  0.10204568804E+01  0.10201868737E+01 0.  0.
     999903    2    3    3    0    0 -0.12811943427E-01  0.12790406346E+00 -0.25389738700E-01  0.13244302154E+00  0.19311130939E-01 0.  0.
         14    1    1    2    0    0  0.19943372228E-01 -0.10619302348E-01  0.63623633147E-02  0.23473119630E-01  0.00000000000E+00 0. -1.
     999901    1    3    3    0    0 -0.71314288015E-02 -0.11728476111E+00  0.19027375385E-01  0.88801385883E+00  0.88000000000E+00 0.  1.
        -11    1    4    4    0    0 -0.12724632450E-01  0.12065433494E+00 -0.28353723192E-01  0.12459365775E+00  0.51100000000E-03 0. -1.
         11    1    4    4    0    0 -0.87310977306E-04  0.72497285220E-02  0.29639844920E-02  0.78493637906E-02  0.51100000000E-03 0.  1.
</event>
<event>
 8    1  0.1202249E+005  0.1043930E+01  0.7957747E-01            NaN
         13   -1    0    0    0    0  0.00000000000E+00  0.00000000000E+00  0.74505805969E-08  0.10566000000E+00  0.10566000000E+00 0. -1.
     999900   -1    0    0    0    0 -0.00000000000E+00 -0.00000000000E+00 -0.74505805969E-08  0.93827000000E+00  0.93827000000E+00 0. -1.
     999902    2    1    2    0    0  0.83437385585E-02 -0.13231300278E-01  0.17313740527E-01  0.10205965285E+01  0.10203297620E+01 0.  0.
     999903    2    3    3    0    0  0.37481168660E-01  0.10429340599E+00 -0.62438821163E-01  0.12873245956E+00  0.19786035906E-01 0.  0.
         14    1    1    2    0    0 -0.83437385585E-02  0.13231300278E-01 -0.17313740527E-01  0.23333471478E-01  0.00000000000E+00 0.  1.
     999901    1    3    3    0    0 -0.29137430101E-01 -0.11752470627E+00  0.79752561691E-01  0.89186406897E+00  0.88000000000E+00 0.  1.
        -11    1    4    4    0    0  0.35860783348E-01  0.74604686281E-01 -0.44042956686E-01  0.93765122258E-01  0.51100000000E-03 0.  1.
         11    1    4    4    0    0  0.16203853115E-02  0.29688719714E-01 -0.18395864477E-01  0.34967337297E-01  0.51100000000E-03 0. -1.
</event>
<event>
 8    1  0.1202249E+005  0.1043930E+01  0.7957747E-01            NaN
         13   -1    0    0    0    0  0.00000000000E+00  0.00000000000E+00  0.74505805969E-08  0.10566000000E+00  0.10566000000E+00 0.  1.
     999900   -1    0    0    0    0 -0.00000000000E+00 -0.00000000000E+00 -0.74505805969E-08  0.93827000000E+00  0.93827000000E+00 0. -1.
     999902    2    1    2    0    0 -0.98422574618E-02  0.17824767483E-02 -0.20512912972E-01  0.10211083687E+01  0.10208533067E+01 0.  0.
     999903    2    3    3    0    0 -0.55630257801E-01 -0.10159006022E+00  0.57683277086E-01  0.13043611334E+00  0.16460658878E-01 0.  0.
         14    1    1    2    0    0  0.98422574618E-02 -0.17824767483E-02  0.20512912972E-01  0.22821631271E-01  0.00000000000E+00 0.  1.
     999901    1    3    3    0    0  0.45788000339E-01  0.10337253697E+00 -0.78196190058E-01  0.89067225539E+00  0.88000000000E+00 0. -1.
        -11    1    4    4    0    0 -0.37203541105E-01 -0.52991492413E-01  0.36317291443E-01  0.74238861236E-01  0.51100000000E-03 0. -1.
         11    1    4    4    0    0 -0.18426716695E-01 -0.48598567805E-01  0.21365985643E-01  0.56197252107E-01  0.51100000000E-03 0.  1.
</event>
<event>
 8    1  0.1202249E+005  0.1043930E+01  0.7957747E-01            NaN
         13   -1    0    0    0    0  0.00000000000E+00  0.00000000000E+00  0.74505805969E-08  0.10566000000E+00  0.10566000000E+00 0. -1.
     999900   -1    0    0    0    0 -0.00000000000E+00 -0.00000000000E+00 -0.74505805969E-08  0.93827000000E+00  0.93827000000E+00 0.  1.
     999902    2    1    2    0    0 -0.97829923795E-02 -0.19709703984E-02 -0.21038611075E-01  0.10206444933E+01  0.10203788350E+01 0.  0.
     999903    2    3    3    0    0  0.99776974879E-01  0.32476584093E-01  0.71112682364E-01  0.12841028569E+00  0.20542995071E-01 0.  0.
         14    1    1    2    0    0  0.97829923795E-02  0.19709703984E-02  0.21038611075E-01  0.23285506655E-01  0.00000000000E+00 0. -1.
     999901    1    3    3    0    0 -0.10955996726E+00 -0.34447554491E-01 -0.92151293439E-01  0.89223420766E+00  0.88000000000E+00 0.  1.
        -11    1    4    4    0    0  0.33115018640E-01  0.83965781770E-03  0.22374698589E-01  0.39977465437E-01  0.51100000000E-03 0.  1.
         11    1    4    4    0    0  0.66661956239E-01  0.31636926275E-01  0.48737983775E-01  0.88432820249E-01  0.51100000000E-03 0. -1.
</event>
<event>
 8    1  0.1202249E+005  0.1043930E+01  0.7957747E-01            NaN
         13   -1    0    0    0    0  0.00000000000E+00  0.00000000000E+00  0.74505805969E-08  0.10566000000E+00  0.10566000000E+00 0.  1.
     999900   -1    0    0    0    0 -0.00000000000E+00 -0.00000000000E+00 -0.74505805969E-08  0.93827000000E+00  0.93827000000E+00 0. -1.
     999902    2    1    2    0    0 -0.16561751823E-01 -0.12682405211E-01 -0.15414711110E-01  0.10179926072E+01  0.10176621247E+01 0.  0.
     999903    2    3    3    0    0 -0.11854216996E+00  0.56085647460E-02  0.49690408422E-01  0.12952581445E+00  0.14969898618E-01 0.  0.
         14    1    1    2    0    0  0.16561751823E-01  0.12682405211E-01  0.15414711110E-01  0.25937392776E-01  0.00000000000E+00 0. -1.
     999901    1    3    3    0    0  0.10198041813E+00 -0.18290969957E-01 -0.65105119532E-01  0.88846679277E+00  0.88000000000E+00 0. -1.
        -11    1    4    4    0    0 -0.11218592367E+00  0.66216101721E-02  0.43282491559E-01  0.12042907617E+00  0.51100000000E-03 0. -1.
         11    1    4    4    0    0 -0.63562462882E-02 -0.10130454261E-02  0.64079168625E-02  0.90967382851E-02  0.51100000000E-03 0.  1.
</event>
<event>
 7    1  0.1335772E+005  0.1043930E+01  0.7957747E-01            NaN
         13   -1    0    0    0    0  0.00000000000E+00  0.00000000000E+00  0.74505805969E-08  0.10566000000E+00  0.10566000000E+00 0. -1.
     999900   -1    0    0    0    0 -0.00000000000E+00 -0.00000000000E+00 -0.74505805969E-08  0.93827000000E+00  0.93827000000E+00 0. -1.
     999903    2    1    2    0    0  0.59865130698E-01 -0.83394592559E-02  0.73427148919E-01  0.97966533522E-01  0.23505638427E-01 0.  0.
         14    1    1    2    0    0 -0.57082603075E-01 -0.16380826438E-01  0.14797342534E-01  0.61202258085E-01  0.00000000000E+00 0.  1.
     999901    1    1    2    0    0 -0.27825276224E-02  0.24720285693E-01 -0.88224491453E-01  0.88476120839E+00  0.88000000000E+00 0. -1.
        -11    1    3    3    0    0  0.27012582247E-01  0.71080403969E-02  0.38662947492E-01  0.47699983938E-01  0.51100000000E-03 0. -1.
         11    1    3    3    0    0  0.32852548451E-01 -0.15447499653E-01  0.34764201427E-01  0.50266549584E-01  0.51100000000E-03 0.  1.
</event>
<event>
 8    1  0.1202249E+005  0.1043930E+01  0.7957747E-01            NaN
         13   -1    0    0    0    0  0.00000000000E+00  0.00000000000E+00  0.74505805969E-08  0.10566000000E+00  0.10566000000E+00 0. -1.
     999900   -1    0    0    0    0 -0.00000000000E+00 -0.00000000000E+00 -0.74505805969E-08  0.93827000000E+00  0.93827000000E+00 0. -1.
     999902    2    1    2    0    0  0.12204764612E-01  0.21380949919E-02  0.21216809457E-01  0.10193600848E+01  0.10190639341E+01 0.  0.
     999903    2    3    3    0    0 -0.83853579712E-01 -0.25130623001E-01 -0.89669244889E-01  0.12679831912E+00  0.19346038637E-01 0.  0.
         14    1    1    2    0    0 -0.12204764612E-01 -0.21380949919E-02 -0.21216809457E-01  0.24569915201E-01  0.00000000000E+00 0.  1.
     999901    1    3    3    0    0  0.96058344324E-01  0.27268717993E-01  0.11088605435E+00  0.89256176567E+00  0.88000000000E+00 0.  1.
        -11    1    4    4    0    0 -0.56819566142E-01 -0.22405187480E-01 -0.51212033255E-01  0.79708148854E-01  0.51100000000E-03 0. -1.
         11    1    4    4    0    0 -0.27034013570E-01 -0.27254355210E-02 -0.38457211634E-01  0.47090170271E-01  0.51100000000E-03 0.  1.
</event>
<event>
 8    1  0.1202249E+005  0.1043930E+01  0.7957747E-01            NaN
         13   -1    0    0    0    0  0.00000000000E+00  0.00000000000E+00  0.74505805969E-08  0.10566000000E+00  0.10566000000E+00 0. -1.
     999900   -1    0    0    0    0 -0.00000000000E+00 -0.00000000000E+00 -0.74505805969E-08  0.93827000000E+00  0.93827000000E+00 0. -1.
     999902    2    1    2    0    0  0.10248201778E-01 -0.62844703619E-02 -0.15284127359E-01  0.10244845698E+01  0.10243000093E+01 0.  0.
     999903    2    3    3    0    0 -0.10573744348E+00  0.75626437901E-01  0.16806545821E-01  0.13252499777E+00  0.19510253376E-01 0.  0.
         14    1    1    2    0    0 -0.10248201778E-01  0.62844703619E-02  0.15284127359E-01  0.19445430222E-01  0.00000000000E+00 0. -1.
     999901    1    3    3    0    0  0.11598564526E+00 -0.81910908263E-01 -0.32090673180E-01  0.89195957201E+00  0.88000000000E+00 0. -1.
        -11    1    4    4    0    0 -0.54600957223E-01  0.30721695788E-01  0.10152357956E-02  0.62660824655E-01  0.51100000000E-03 0.  1.
         11    1    4    4    0    0 -0.51136486258E-01  0.44904742113E-01  0.15791310025E-01  0.69864173110E-01  0.51100000000E-03 0. -1.
</event>
<event>
 8    1  0.1202249E+005  0.1043930E+01  0.7957747E-01            NaN
         13   -1    0    0    0    0  0.00000000000E+00  0.00000000000E+00  0.74505805969E-08  0.10566000000E+00  0.10566000000E+00 0.  1.
     999900   -1    0    0    0    0 -0.00000000000E+00 -0.00000000000E+00 -0.74505805969E-08  0.93827000000E+00  0.93827000000E+00 0. -1.
     999902    2    1    2    0    0  0.20603124543E-01 -0.98304716512E-02  0.96536005285E-03  0.10210813932E+01  0.10208257210E+01 0.  0.
     999903    2    3    3    0    0  0.33950067131E-01 -0.12702664380E+00 -0.74351935944E-02  0.13317168327E+00  0.19774727020E-01 0.  0.
         14    1    1    2    0    0 -0.20603124543E-01  0.98304716512E-02 -0.96536005285E-03  0.22848606825E-01  0.00000000000E+00 0. -1.
     999901    1    3    3    0    0 -0.13346942588E-01  0.11719617215E+00  0.84005536472E-02  0.88790970991E+00  0.88000000000E+00 0. -1.
        -11    1    4    4    0    0  0.32227748436E-01 -0.89711666373E-01 -0.14506092791E-02  0.95337171349E-01  0.51100000000E-03 0.  1.
         11    1    4    4    0    0  0.17223186950E-02 -0.37314977424E-01 -0.59845843152E-02  0.37834511921E-01  0.51100000000E-03 0. -1.
</event>
<event>
 8    1  0.1202249E+005  0.1043930E+01  0.7957747E-01            NaN
         13   -1    0    0    0    0  0.00000000000E+00  0.00000000000E+00  0.74505805969E-08  0.10566000000E+00  0.10566000000E+00 0.  1.
     999900   -1    0    0    0    0 -0.00000000000E+00 -0.00000000000E+00 -0.74505805969E-08  0.93827000000E+00  0.93827000000E+00 0.  1.
     999902    2    1    2    0    0 -0.62037973199E-02 -0.46322131297E-02  0.21174991604E-01  0.10213839412E+01  0.10211350697E+01 0.  0.
     999903    2    3    3    0    0  0.37778561967E-01 -0.11725169978E+00 -0.38176267022E-01  0.13113668978E+00  0.23753382821E-01 0.  0.
         14    1    1    2    0    0  0.62037973199E-02  0.46322131297E-02 -0.21174991604E-01  0.22546058838E-01  0.00000000000E+00 0. -1.
     999901    1    3    3    0    0 -0.43982359286E-01  0.11261948665E+00  0.59351258626E-01  0.89024725139E+00  0.88000000000E+00 0. -1.
        -11    1    4    4    0    0  0.75382766489E-03 -0.60375941677E-02 -0.80630191342E-02  0.10114059424E-01  0.51100000000E-03 0.  1.
         11    1    4    4    0    0  0.37024734302E-01 -0.11121410561E+00 -0.30113247888E-01  0.12102263035E+00  0.51100000000E-03 0. -1.
</event>
<event>
 8    1  0.1202249E+005  0.1043930E+01  0.7957747E-01            NaN
         13   -1    0    0    0    0  0.00000000000E+00  0.00000000000E+00  0.74505805969E-08  0.10566000000E+00  0.10566000000E+00 0. -1.
     999900   -1    0    0    0    0 -0.00000000000E+00 -0.00000000000E+00 -0.74505805969E-08  0.93827000000E+00  0.93827000000E+00 0.  1.
     999902    2    1    2    0    0  0.78910997278E-03 -0.22160627090E-01 -0.72610102949E-02  0.10205967971E+01  0.10203300367E+01 0.  0.
     999903    2    3    3    0    0  0.64238738490E-01  0.10766070137E+00 -0.21268781715E-01  0.12870238050E+00  0.19862012170E-01 0.  0.
         14    1    1    2    0    0 -0.78910997278E-03  0.22160627090E-01  0.72610102949E-02  0.23333202911E-01  0.00000000000E+00 0. -1.
     999901    1    3    3    0    0 -0.63449628517E-01 -0.12982132846E+00  0.14007771420E-01  0.89189441659E+00  0.88000000000E+00 0.  1.
        -11    1    4    4    0    0  0.37152160148E-01  0.62844603102E-01 -0.24249060941E-02  0.73047028915E-01  0.51100000000E-03 0.  1.
         11    1    4    4    0    0  0.27086578341E-01  0.44816098273E-01 -0.18843875621E-01  0.55655351585E-01  0.51100000000E-03 0. -1.
</event>
<event>
 8    1  0.1202249E+005  0.1043930E+01  0.7957747E-01            NaN
         13   -1    0    0    0    0  0.00000000000E+00  0.00000000000E+00  0.74505805969E-08  0.10566000000E+00  0.10566000000E+00 0.  1.
     999900   -1    0    0    0    0 -0.00000000000E+00 -0.00000000000E+00 -0.74505805969E-08  0.93827000000E+00  0.93827000000E+00 0.  1.
     999902    2    1    2    0    0  0.11028086842E-01 -0.18206100680E-01 -0.85352152684E-02  0.10209968210E+01  0.10207392310E+01 0.  0.
     999903    2    3    3    0    0 -0.90871493097E-01 -0.60354671150E-01 -0.71805092727E-01  0.13186066503E+00  0.18192005193E-01 0.  0.
         14    1    1    2    0    0 -0.11028086842E-01  0.18206100680E-01  0.85352152684E-02  0.22933179043E-01  0.00000000000E+00 0. -1.
     999901    1    3    3    0    0  0.10189957994E+00  0.42148570470E-01  0.63269877459E-01  0.88913615593E+00  0.88000000000E+00 0. -1.
        -11    1    4    4    0    0 -0.81765260486E-01 -0.49497603114E-01 -0.56658387281E-01  0.11111257583E+00  0.51100000000E-03 0. -1.
         11    1    4    4    0    0 -0.91062326112E-02 -0.10857068036E-01 -0.15146705446E-01  0.20748089203E-01  0.51100000000E-03 0.  1.
</event>
<event>
 8    1  0.1202249E+005  0.1043930E+01  0.7957747E-01            NaN
         13   -1    0    0    0    0  0.00000000000E+00  0.00000000000E+00  0.74505805969E-08  0.10566000000E+00  0.10566000000E+00 0. -1.
     999900   -1    0    0    0    0 -0.00000000000E+00 -0.00000000000E+00 -0.74505805969E-08  0.93827000000E+00  0.93827000000E+00 0. -1.
     999902    2    1    2    0    0  0.24286794240E-02  0.20312398523E-01 -0.12502910013E-01  0.10199547049E+01  0.10196728815E+01 0.  0.
     999903    2    3    3    0    0  0.12158251063E+00  0.39488656217E-01  0.21256749732E-01  0.13107615357E+00  0.19683692867E-01 0.  0.
         14    1    1    2    0    0 -0.24286794240E-02 -0.20312398523E-01  0.12502910013E-01  0.23975295124E-01  0.00000000000E+00 0.  1.
     999901    1    3    3    0    0 -0.11915383120E+00 -0.19176257694E-01 -0.33759659744E-01  0.88887855131E+00  0.88000000000E+00 0. -1.
        -11    1    4    4    0    0  0.46971117625E-01  0.10835942370E-01 -0.61692593884E-03  0.48211463955E-01  0.51100000000E-03 0. -1.
         11    1    4    4    0    0  0.74611393001E-01  0.28652713847E-01  0.21873675670E-01  0.82864689613E-01  0.51100000000E-03 0.  1.
</event>
<event>
 8    1  0.1202249E+005  0.1043930E+01  0.7957747E-01            NaN
         13   -1    0    0    0    0  0.00000000000E+00  0.00000000000E+00  0.74505805969E-08  0.10566000000E+00  0.10566000000E+00 0.  1.
     999900   -1    0    0    0    0 -0.00000000000E+00 -0.00000000000E+00 -0.74505805969E-08  0.93827000000E+00  0.93827000000E+00 0.  1.
     999902    2    1    2    0    0 -0.21908194286E-01 -0.30255241416E-02  0.13841395955E-01  0.10178396375E+01  0.10175051944E+01 0.  0.
     999903    2    3    3    0    0  0.43083454099E-01 -0.60479771413E-01 -0.10002244599E+00  0.12627366721E+00  0.20653391030E-01 0.  0.
         14    1    1    2    0    0  0.21908194286E-01  0.30255241416E-02 -0.13841395955E-01  0.26090362497E-01  0.00000000000E+00 0. -1.
     999901    1    3    3    0    0 -0.64991648385E-01  0.57454247272E-01  0.11386384194E+00  0.89156597030E+00  0.88000000000E+00 0. -1.
        -11    1    4    4    0    0  0.76445574696E-02 -0.37439783383E-02 -0.21437828359E-01  0.23071589422E-01  0.51100000000E-03 0.  1.
         11    1    4    4    0    0  0.35438896629E-01 -0.56735793075E-01 -0.78584617630E-01  0.10320207778E+00  0.51100000000E-03 0. -1.
</event>
<event>
 8    1  0.1202249E+005  0.1043930E+01  0.7957747E-01            NaN
         13   -1    0    0    0    0  0.00000000000E+00  0.00000000000E+00  0.74505805969E-08  0.10566000000E+00  0.10566000000E+00 0. -1.
     999900   -1    0    0    0    0 -0.00000000000E+00 -0.00000000000E+00 -0.74505805969E-08  0.93827000000E+00  0.93827000000E+00 0. -1.
     999902    2    1    2    0    0 -0.20346703393E-01 -0.21265905859E-02  0.12331319512E-01  0.10200433475E+01  0.10197636288E+01 0.  0.
     999903    2    3    3    0    0  0.66889298629E-01 -0.53445652822E-01  0.95479916534E-01  0.13034820006E+00  0.23315718338E-01 0.  0.
         14    1    1    2    0    0  0.20346703393E-01  0.21265905859E-02 -0.12331319512E-01  0.23886652494E-01  0.00000000000E+00 0. -1.
     999901    1    3    3    0    0 -0.87236002021E-01  0.51319062236E-01 -0.83148597022E-01  0.88969514744E+00  0.88000000000E+00 0. -1.
        -11    1    4    4    0    0  0.50514188806E-01 -0.31303934896E-01  0.76618629491E-01  0.96965432588E-01  0.51100000000E-03 0. -1.
         11    1    4    4    0    0  0.16375109822E-01 -0.22141717925E-01  0.18861287043E-01  0.33382767475E-01  0.51100000000E-03 0.  1.
</event>
<event>
 8    1  0.1202249E+005  0.1043930E+01  0.7957747E-01            NaN
         13   -1    0    0    0    0  0.00000000000E+00  0.00000000000E+00  0.74505805969E-08  0.10566000000E+00  0.10566000000E+00 0.  1.
     999900   -1    0    0    0    0 -0.00000000000E+00 -0.00000000000E+00 -0.74505805969E-08  0.93827000000E+00  0.93827000000E+00 0.  1.
     999902    2    1    2    0    0 -0.13756421709E-02 -0.16652884433E-01  0.18902140685E-01  0.10187010112E+01  0.10183885547E+01 0.  0.
     999903    2    3    3    0    0 -0.11537532167E+00  0.25349901994E-01 -0.44912890791E-01  0.12806499174E+00  0.20721775204E-01 0.  0.
         14    1    1    2    0    0  0.13756421709E-02  0.16652884433E-01 -0.18902140685E-01  0.25228988759E-01  0.00000000000E+00 0. -1.
     999901    1    3    3    0    0  0.11399967950E+00 -0.42002786427E-01  0.63815031476E-01  0.89063601950E+00  0.88000000000E+00 0. -1.
        -11    1    4    4    0    0 -0.84540376476E-01  0.13493903301E-01 -0.23811199793E-01  0.88861662361E-01  0.51100000000E-03 0.  1.
         11    1    4    4    0    0 -0.30834945197E-01  0.11855998693E-01 -0.21101690998E-01  0.39203329377E-01  0.51100000000E-03 0. -1.
</event>
<event>
 8    1  0.1202249E+005  0.1043930E+01  0.7957747E-01            NaN
         13   -1    0    0    0    0  0.00000000000E+00  0.00000000000E+00  0.74505805969E-08  0.10566000000E+00  0.10566000000E+00 0. -1.
     999900   -1    0    0    0    0 -0.00000000000E+00 -0.00000000000E+00 -0.74505805969E-08  0.93827000000E+00  0.93827000000E+00 0. -1.
     999902    2    1    2    0    0  0.17061523841E-01 -0.98958921319E-02 -0.12296816129E-01  0.10206870233E+01  0.10204223457E+01 0.  0.
     999903    2    3    3    0    0 -0.78094666052E-01 -0.77179011591E-01 -0.66416278335E-01  0.13135545704E+00  0.28067015695E-01 0.  0.
         14    1    1    2    0    0 -0.17061523841E-01  0.98958921319E-02  0.12296816129E-01  0.23242976655E-01  0.00000000000E+00 0. -1.
     999901    1    3    3    0    0  0.95156189894E-01  0.67283119459E-01  0.54119462206E-01  0.88933156631E+00  0.88000000000E+00 0.  1.
        -11    1    4    4    0    0 -0.60198276417E-01 -0.72816347644E-01 -0.51218281044E-01  0.10746918815E+00  0.51100000000E-03 0.  1.
         11    1    4    4    0    0 -0.17896389635E-01 -0.43626639462E-02 -0.15197997291E-01  0.23886268887E-01  0.51100000000E-03 0. -1.
</event>
<event>
 8    1  0.1202249E+005  0.1043930E+01  0.7957747E-01            NaN
         13   -1    0    0    0    0  0.00000000000E+00  0.00000000000E+00  0.74505805969E-08  0.10566000000E+00  0.10566000000E+00 0. -1.
     999900   -1    0    0    0    0 -0.00000000000E+00 -0.00000000000E+00 -0.74505805969E-08  0.93827000000E+00  0.93827000000E+00 0.  1.
     999902    2    1    2    0    0 -0.10857487648E-01  0.20442444598E-01  0.30705823730E-02  0.10205803307E+01  0.10203131894E+01 0.  0.
     999903    2    3    3    0    0  0.10466300960E+00 -0.48373228742E-01  0.54030839273E-01  0.12890913013E+00  0.20097696402E-01 0.  0.
         14    1    1    2    0    0  0.10857487648E-01 -0.20442444598E-01 -0.30705823730E-02  0.23349669276E-01  0.00000000000E+00 0. -1.
     999901    1    3    3    0    0 -0.11552049725E+00  0.68815673340E-01 -0.50960256900E-01  0.89167120059E+00  0.88000000000E+00 0. -1.
        -11    1    4    4    0    0  0.33168581503E-01 -0.23720869012E-01  0.12633160752E-01  0.42693000564E-01  0.51100000000E-03 0. -1.
         11    1    4    4    0    0  0.71494428100E-01 -0.24652359730E-01  0.41397678522E-01  0.86216129567E-01  0.51100000000E-03 0.  1.
</event>
<event>
 8    1  0.1202249E+005  0.1043930E+01  0.7957747E-01            NaN
         13   -1    0    0    0    0  0.00000000000E+00  0.00000000000E+00  0.74505805969E-08  0.10566000000E+00  0.10566000000E+00 0.  1.
     999900   -1    0    0    0    0 -0.00000000000E+00 -0.00000000000E+00 -0.74505805969E-08  0.93827000000E+00  0.93827000000E+00 0. -1.
     999902    2    1    2    0    0  0.57508749390E-02  0.39680070727E-02  0.23287488010E-01  0.10196169430E+01  0.10193270259E+01 0.  0.
     999903    2    3    3    0    0  0.25842327228E-01  0.73805889729E-01 -0.99555789328E-01  0.12811738210E+00  0.19686878159E-01 0.  0.
         14    1    1    2    0    0 -0.57508749390E-02 -0.39680070727E-02 -0.23287488010E-01  0.24313056996E-01  0.00000000000E+00 0. -1.
     999901    1    3    3    0    0 -0.20091452289E-01 -0.69837882656E-01  0.12284327734E+00  0.89149956091E+00  0.88000000000E+00 0.  1.
        -11    1    4    4    0    0  0.21848441369E-01  0.52078798907E-01 -0.57432386849E-01  0.80549958821E-01  0.51100000000E-03 0. -1.
         11    1    4    4    0    0  0.39938858596E-02  0.21727090822E-01 -0.42123402478E-01  0.47567423277E-01  0.51100000000E-03 0.  1.
</event>
<event>
 7    1  0.1202249E+005  0.1043930E+01  0.7957747E-01            NaN
         13   -1    0    0    0    0  0.00000000000E+00  0.00000000000E+00  0.74505805969E-08  0.10566000000E+00  0.10566000000E+00 0. -1.
     999900   -1    0    0    0    0 -0.00000000000E+00 -0.00000000000E+00 -0.74505805969E-08  0.93827000000E+00  0.93827000000E+00 0. -1.
     999903    2    1    2    0    0  0.97518983535E-01  0.52184455936E-01 -0.24010159875E-01  0.11489571986E+00  0.19783050173E-01 0.  0.
         14    1    1    2    0    0 -0.41197025926E-01  0.10837004639E-01  0.14288851530E-01  0.44931135004E-01  0.00000000000E+00 0. -1.
     999901    1    1    2    0    0 -0.56321957609E-01 -0.63021460575E-01  0.97213083452E-02  0.88410314514E+00  0.88000000000E+00 0. -1.
        -11    1    3    3    0    0  0.64092507507E-01  0.42630509162E-01 -0.22044520871E-01  0.80071417193E-01  0.51100000000E-03 0. -1.
         11    1    3    3    0    0  0.33426476028E-01  0.95539467743E-02 -0.19656390048E-02  0.34824302668E-01  0.51100000000E-03 0.  1.
</event>
<event>
 8    1  0.1202249E+005  0.1043930E+01  0.7957747E-01            NaN
         13   -1    0    0    0    0  0.00000000000E+00  0.00000000000E+00  0.74505805969E-08  0.10566000000E+00  0.10566000000E+00 0.  1.
     999900   -1    0    0    0    0 -0.00000000000E+00 -0.00000000000E+00 -0.74505805969E-08  0.93827000000E+00  0.93827000000E+00 0.  1.
     999902    2    1    2    0    0 -0.15878237780E-01  0.37117084630E-02  0.15642561935E-01  0.10213338729E+01  0.10210838825E+01 0.  0.
     999903    2    3    3    0    0 -0.42814749124E-01 -0.62268181009E-01  0.10823175995E+00  0.13361112283E+00  0.20673392863E-01 0.  0.
         14    1    1    2    0    0  0.15878237780E-01 -0.37117084630E-02 -0.15642561935E-01  0.22596127070E-01  0.00000000000E+00 0. -1.
     999901    1    3    3    0    0  0.26936511345E-01  0.65979889472E-01 -0.92589198017E-01  0.88772275010E+00  0.88000000000E+00 0.  1.
        -11    1    4    4    0    0 -0.30796157585E-01 -0.31212614935E-01  0.72781763506E-01  0.84971035495E-01  0.51100000000E-03 0. -1.
         11    1    4    4    0    0 -0.12018591539E-01 -0.31055566074E-01  0.35449996445E-01  0.48640087333E-01  0.51100000000E-03 0.  1.
</event>
<event>
 8    1  0.1202249E+005  0.1043930E+01  0.7957747E-01            NaN
         13   -1    0    0    0    0  0.00000000000E+00  0.00000000000E+00  0.74505805969E-08  0.10566000000E+00  0.10566000000E+00 0.  1.
     999900   -1    0    0    0    0 -0.00000000000E+00 -0.00000000000E+00 -0.74505805969E-08  0.93827000000E+00  0.93827000000E+00 0. -1.
     999902    2    1    2    0    0 -0.55688106016E-02 -0.16580708547E-01  0.13831542482E-01  0.10216310513E+01  0.10213876648E+01 0.  0.
     999903    2    3    3    0    0 -0.40010573832E-02 -0.41159981118E-01  0.12608994993E+00  0.13415792573E+00  0.19736287832E-01 0.  0.
         14    1    1    2    0    0  0.55688106016E-02  0.16580708547E-01 -0.13831542482E-01  0.22298948739E-01  0.00000000000E+00 0.  1.
     999901    1    3    3    0    0 -0.15677532184E-02  0.24579272570E-01 -0.11225840745E+00  0.88747312553E+00  0.88000000000E+00 0. -1.
        -11    1    4    4    0    0  0.75646628618E-02 -0.98176902960E-02  0.33212945596E-01  0.35453801533E-01  0.51100000000E-03 0.  1.
         11    1    4    4    0    0 -0.11565720245E-01 -0.31342290822E-01  0.92877004337E-01  0.98704124201E-01  0.51100000000E-03 0. -1.
</event>
<event>
 8    1  0.1202249E+005  0.1043930E+01  0.7957747E-01            NaN
         13   -1    0    0    0    0  0.00000000000E+00  0.00000000000E+00  0.74505805969E-08  0.10566000000E+00  0.10566000000E+00 0.  1.
     999900   -1    0    0    0    0 -0.00000000000E+00 -0.00000000000E+00 -0.74505805969E-08  0.93827000000E+00  0.93827000000E+00 0. -1.
     999902    2    1    2    0    0  0.11975839542E-01  0.20705110546E-03  0.20009280440E-01  0.10206097318E+01  0.10203432706E+01 0.  0.
     999903    2    3    3    0    0 -0.12428044832E+00  0.13391538954E-01  0.30357585332E-01  0.12996575465E+00  0.18562091625E-01 0.  0.
         14    1    1    2    0    0 -0.11975839542E-01 -0.20705110546E-03 -0.20009280440E-01  0.23320268150E-01  0.00000000000E+00 0. -1.
     999901    1    3    3    0    0  0.13625628786E+00 -0.13184487848E-01 -0.10348304892E-01  0.89064397720E+00  0.88000000000E+00 0.  1.
        -11    1    4    4    0    0 -0.65347504955E-01  0.56555661296E-02  0.25323251337E-01  0.70312232303E-01  0.51100000000E-03 0. -1.
         11    1    4    4    0    0 -0.58932943364E-01  0.77359728240E-02  0.50343339947E-02  0.59653522351E-01  0.51100000000E-03 0.  1.
</event>
<event>
 8    1  0.1202249E+005  0.1043930E+01  0.7957747E-01            NaN
         13   -1    0    0    0    0  0.00000000000E+00  0.00000000000E+00  0.74505805969E-08  0.10566000000E+00  0.10566000000E+00 0.  1.
     999900   -1    0    0    0    0 -0.00000000000E+00 -0.00000000000E+00 -0.74505805969E-08  0.93827000000E+00  0.93827000000E+00 0. -1.
     999902    2    1    2    0    0  0.33151667887E-02  0.21536092732E-01 -0.83604761429E-02  0.10205913800E+01  0.10203244944E+01 0.  0.
     999903    2    3    3    0    0  0.74606721023E-01  0.10311654580E+00 -0.35311114881E-01  0.13353772158E+00  0.19653585231E-01 0.  0.
         14    1    1    2    0    0 -0.33151667887E-02 -0.21536092732E-01  0.83604761429E-02  0.23338619974E-01  0.00000000000E+00 0. -1.
     999901    1    3    3    0    0 -0.71291554234E-01 -0.81580453066E-01  0.26950638738E-01  0.88705365844E+00  0.88000000000E+00 0.  1.
        -11    1    4    4    0    0  0.43947315639E-01  0.45539676467E-01 -0.21649757870E-01  0.66889474669E-01  0.51100000000E-03 0. -1.
         11    1    4    4    0    0  0.30659405384E-01  0.57576869330E-01 -0.13661357011E-01  0.66648246914E-01  0.51100000000E-03 0.  1.
</event>
<event>
 8    1  0.1202249E+005  0.1043930E+01  0.7957747E-01            NaN
         13   -1    0    0    0    0  0.00000000000E+00  0.00000000000E+00  0.74505805969E-08  0.10566000000E+00  0.10566000000E+00 0. -1.
     999900   -1    0    0    0    0 -0.00000000000E+00 -0.00000000000E+00 -0.74505805969E-08  0.93827000000E+00  0.93827000000E+00 0.  1.
     999902    2    1    2    0    0 -0.20362840403E-01 -0.47380759430E-02  0.99008438724E-02  0.10207973101E+01  0.10205351669E+01 0.  0.
     999903    2    3    3    0    0  0.37752947985E-01  0.40917242485E-02  0.12423134783E+00  0.13145661364E+00  0.20134204659E-01 0.  0.
         14    1    1    2    0    0  0.20362840403E-01  0.47380759430E-02 -0.99008438724E-02  0.23132689907E-01  0.00000000000E+00 0.  1.
     999901    1    3    3    0    0 -0.58115788389E-01 -0.88298001915E-02 -0.11433050396E+00  0.88934069645E+00  0.88000000000E+00 0.  1.
        -11    1    4    4    0    0  0.10921398820E-01 -0.75345964449E-02  0.48157132514E-01  0.49954155270E-01  0.51100000000E-03 0. -1.
         11    1    4    4    0    0  0.26831549165E-01  0.11626320693E-01  0.76074215317E-01  0.81502458371E-01  0.51100000000E-03 0.  1.
</event>
<event>
 8    1  0.1202249E+005  0.1043930E+01  0.7957747E-01            NaN
         13   -1    0    0    0    0  0.00000000000E+00  0.00000000000E+00  0.74505805969E-08  0.10566000000E+00  0.10566000000E+00 0.  1.
     999900   -1    0    0    0    0 -0.00000000000E+00 -0.00000000000E+00 -0.74505805969E-08  0.93827000000E+00  0.93827000000E+00 0. -1.
     999902    2    1    2    0    0  0.10468822397E-01  0.12687068080E-01  0.63956537765E-02  0.10262817047E+01  0.10261299504E+01 0.  0.
     999903    2    3    3    0    0  0.19067337884E-01  0.15381012208E-01  0.13332843402E+00  0.13712866812E+00  0.20679975627E-01 0.  0.
         14    1    1    2    0    0 -0.10468822397E-01 -0.12687068080E-01 -0.63956537765E-02  0.17648295273E-01  0.00000000000E+00 0.  1.
     999901    1    3    3    0    0 -0.85985154868E-02 -0.26939441285E-02 -0.12693278024E+00  0.88915303661E+00  0.88000000000E+00 0. -1.
        -11    1    4    4    0    0  0.42845223592E-02  0.14758183910E-01  0.90904282771E-01  0.92195503530E-01  0.51100000000E-03 0.  1.
         11    1    4    4    0    0  0.14782815524E-01  0.62282829779E-03  0.42424151250E-01  0.44933164591E-01  0.51100000000E-03 0. -1.
</event>
<event>
 8    1  0.1202249E+005  0.1043930E+01  0.7957747E-01            NaN
         13   -1    0    0    0    0  0.00000000000E+00  0.00000000000E+00  0.74505805969E-08  0.10566000000E+00  0.10566000000E+00 0.  1.
     999900   -1    0    0    0    0 -0.00000000000E+00 -0.00000000000E+00 -0.74505805969E-08  0.93827000000E+00  0.93827000000E+00 0. -1.
     999902    2    1    2    0    0 -0.28431202777E-02 -0.22581303743E-01  0.48042425877E-02  0.10206688874E+01  0.10204037918E+01 0.  0.
     999903    2    3    3    0    0  0.81663370917E-01 -0.99496724610E-01  0.26870152084E-01  0.13300665809E+00  0.20006540550E-01 0.  0.
         14    1    1    2    0    0  0.28431202777E-02  0.22581303743E-01 -0.48042425877E-02  0.23261112581E-01  0.00000000000E+00 0. -1.
     999901    1    3    3    0    0 -0.84506491195E-01  0.76915420867E-01 -0.22065909496E-01  0.88766222933E+00  0.88000000000E+00 0.  1.
        -11    1    4    4    0    0  0.31696497941E-01 -0.47588511512E-01  0.36119872345E-02  0.57294345118E-01  0.51100000000E-03 0.  1.
         11    1    4    4    0    0  0.49966872975E-01 -0.51908213098E-01  0.23258164849E-01  0.75712312969E-01  0.51100000000E-03 0. -1.
</event>
<event>
 8    1  0.1202249E+005  0.1043930E+01  0.7957747E-01            NaN
         13   -1    0    0    0    0  0.00000000000E+00  0.00000000000E+00  0.74505805969E-08  0.10566000000E+00  0.10566000000E+00 0.  1.
     999900   -1    0    0    0    0 -0.00000000000E+00 -0.00000000000E+00 -0.74505805969E-08  0.93827000000E+00  0.93827000000E+00 0. -1.
     999902    2    1    2    0    0 -0.17116912608E-02 -0.21736562947E-01  0.11312080766E-01  0.10193663841E+01  0.10190703871E+01 0.  0.
     999903    2    3    3    0    0 -0.89028281052E-01  0.68739980267E-01 -0.57366574356E-01  0.12777962476E+00  0.19633872181E-01 0.  0.
         14    1    1    2    0    0  0.17116912608E-02  0.21736562947E-01 -0.11312080766E-01  0.24563615919E-01  0.00000000000E+00 0. -1.
     999901    1    3    3    0    0  0.87316589791E-01 -0.90476543214E-01  0.68678655122E-01  0.89158675932E+00  0.88000000000E+00 0.  1.
        -11    1    4    4    0    0 -0.32152237881E-01  0.32937702007E-01 -0.31439853762E-01  0.55743915721E-01  0.51100000000E-03 0. -1.
         11    1    4    4    0    0 -0.56876043170E-01  0.35802278259E-01 -0.25926720593E-01  0.72035709041E-01  0.51100000000E-03 0.  1.
</event>
<event>
 8    1  0.1202249E+005  0.1043930E+01  0.7957747E-01            NaN
         13   -1    0    0    0    0  0.00000000000E+00  0.00000000000E+00  0.74505805969E-08  0.10566000000E+00  0.10566000000E+00 0. -1.
     999900   -1    0    0    0    0 -0.00000000000E+00 -0.00000000000E+00 -0.74505805969E-08  0.93827000000E+00  0.93827000000E+00 0. -1.
     999902    2    1    2    0    0 -0.10887411665E-02  0.25937206065E-01 -0.22423532182E-02  0.10178732895E+01  0.10175397197E+01 0.  0.
     999903    2    3    3    0    0  0.87617053627E-02  0.23418740001E-01  0.12474520562E+00  0.12869995762E+00  0.19419266284E-01 0.  0.
         14    1    1    2    0    0  0.10887411665E-02 -0.25937206065E-01  0.22423532182E-02  0.26056710532E-01  0.00000000000E+00 0.  1.
     999901    1    3    3    0    0 -0.98504465292E-02  0.25184660636E-02 -0.12698755884E+00  0.88917333185E+00  0.88000000000E+00 0. -1.
        -11    1    4    4    0    0 -0.42995227444E-02  0.11862506308E-01  0.33486824979E-01  0.35788734539E-01  0.51100000000E-03 0.  1.
         11    1    4    4    0    0  0.13061228107E-01  0.11556233693E-01  0.91258380639E-01  0.92911223082E-01  0.51100000000E-03 0. -1.
</event>
<event>
 8    1  0.1202249E+005  0.1043930E+01  0.7957747E-01            NaN
         13   -1    0    0    0    0  0.00000000000E+00  0.00000000000E+00  0.74505805969E-08  0.10566000000E+00  0.10566000000E+00 0.  1.
     999900   -1    0    0    0    0 -0.00000000000E+00 -0.00000000000E+00 -0.74505805969E-08  0.93827000000E+00  0.93827000000E+00 0.  1.
     999902    2    1    2    0    0 -0.27474476012E-01 -0.46681157984E-02  0.12964173505E-01  0.10131938986E+01  0.10127275883E+01 0.  0.
     999903    2    3    3    0    0  0.93496324920E-01  0.18296650115E-01  0.74351023021E-01  0.12250334598E+00  0.20066513738E-01 0.  0.
         14    1    1    2    0    0  0.27474476012E-01  0.46681157984E-02 -0.12964173505E-01  0.30736101443E-01  0.00000000000E+00 0.  1.
     999901    1    3    3    0    0 -0.12097080093E+00 -0.22964765913E-01 -0.61386849516E-01  0.89069055257E+00  0.88000000000E+00 0.  1.
        -11    1    4    4    0    0  0.18680434864E-01 -0.43512218506E-02  0.14307595838E-01  0.23934498072E-01  0.51100000000E-03 0. -1.
         11    1    4    4    0    0  0.74815890056E-01  0.22647871966E-01  0.60043427184E-01  0.98568847911E-01  0.51100000000E-03 0.  1.
</event>
<event>
 8    1  0.1202249E+005  0.1043930E+01  0.7957747E-01            NaN
         13   -1    0    0    0    0  0.00000000000E+00  0.00000000000E+00  0.74505805969E-08  0.10566000000E+00  0.10566000000E+00 0.  1.
     999900   -1    0    0    0    0 -0.00000000000E+00 -0.00000000000E+00 -0.74505805969E-08  0.93827000000E+00  0.93827000000E+00 0.  1.
     999902    2    1    2    0    0  0.84301456811E-02 -0.12146593771E-02  0.21466501450E-01  0.10208355540E+01  0.10205742868E+01 0.  0.
     999903    2    3    3    0    0 -0.74952343574E-01 -0.95712660735E-01  0.47457817000E-01  0.13147732452E+00  0.15977335113E-01 0.  0.
         14    1    1    2    0    0 -0.84301456811E-02  0.12146593771E-02 -0.21466501450E-01  0.23094446044E-01  0.00000000000E+00 0. -1.
     999901    1    3    3    0    0  0.83382489255E-01  0.94498001357E-01 -0.25991315551E-01  0.88935822943E+00  0.88000000000E+00 0.  1.
        -11    1    4    4    0    0 -0.71433652304E-01 -0.89973272555E-01  0.48395695052E-01  0.12466098378E+00  0.51100000000E-03 0. -1.
         11    1    4    4    0    0 -0.35186912699E-02 -0.57393881793E-02 -0.93787805187E-03  0.68163407461E-02  0.51100000000E-03 0.  1.
</event>
<event>
 8    1  0.1202249E+005  0.1043930E+01  0.7957747E-01            NaN
         13   -1    0    0    0    0  0.00000000000E+00  0.00000000000E+00  0.74505805969E-08  0.10566000000E+00  0.10566000000E+00 0. -1.
     999900   -1    0    0    0    0 -0.00000000000E+00 -0.00000000000E+00 -0.74505805969E-08  0.93827000000E+00  0.93827000000E+00 0. -1.
     999902    2    1    2    0    0 -0.40748237880E-02  0.19811299255E-01 -0.12361857527E-01  0.10202254163E+01  0.10199499952E+01 0.  0.
     999903    2    3    3    0    0 -0.27761126652E-01  0.27852855727E-01 -0.12515590809E+00  0.13267361194E+00  0.19794550993E-01 0.  0.
         14    1    1    2    0    0  0.40748237880E-02 -0.19811299255E-01  0.12361857527E-01  0.23704583704E-01  0.00000000000E+00 0. -1.
     999901    1    3    3    0    0  0.23686302864E-01 -0.80415564716E-02  0.11279405057E+00  0.88755180436E+00  0.88000000000E+00 0.  1.
        -11    1    4    4    0    0 -0.15405872700E-01  0.16849679593E-01 -0.41239688021E-01  0.47140487960E-01  0.51100000000E-03 0. -1.
         11    1    4    4    0    0 -0.12355253952E-01  0.11003176133E-01 -0.83916220073E-01  0.85533123979E-01  0.51100000000E-03 0.  1.
</event>
<event>
 8    1  0.1202249E+005  0.1043930E+01  0.7957747E-01            NaN
         13   -1    0    0    0    0  0.00000000000E+00  0.00000000000E+00  0.74505805969E-08  0.10566000000E+00  0.10566000000E+00 0. -1.
     999900   -1    0    0    0    0 -0.00000000000E+00 -0.00000000000E+00 -0.74505805969E-08  0.93827000000E+00  0.93827000000E+00 0. -1.
     999902    2    1    2    0    0 -0.19219900044E-01  0.16448920727E-02 -0.14529704002E-01  0.10197799995E+01  0.10194940043E+01 0.  0.
     999903    2    3    3    0    0 -0.62248763969E-01 -0.10201781989E+00 -0.51987242246E-01  0.13186079810E+00  0.20051247549E-01 0.  0.
         14    1    1    2    0    0  0.19219900044E-01 -0.16448920727E-02  0.14529704002E-01  0.24150000539E-01  0.00000000000E+00 0. -1.
     999901    1    3    3    0    0  0.43028863925E-01  0.10366271196E+00  0.37457538243E-01  0.88791920136E+00  0.88000000000E+00 0. -1.
        -11    1    4    4    0    0 -0.38285426451E-01 -0.57248020531E-01 -0.19513089248E-01  0.71583039236E-01  0.51100000000E-03 0. -1.
         11    1    4    4    0    0 -0.23963337519E-01 -0.44769799354E-01 -0.32474152998E-01  0.60277758860E-01  0.51100000000E-03 0.  1.
</event>
<event>
 8    1  0.1202249E+005  0.1043930E+01  0.7957747E-01            NaN
         13   -1    0    0    0    0  0.00000000000E+00  0.00000000000E+00  0.74505805969E-08  0.10566000000E+00  0.10566000000E+00 0. -1.
     999900   -1    0    0    0    0 -0.00000000000E+00 -0.00000000000E+00 -0.74505805969E-08  0.93827000000E+00  0.93827000000E+00 0. -1.
     999902    2    1    2    0    0  0.74154796834E-02  0.85681626714E-02 -0.20345650183E-01  0.10206416288E+01  0.10203759044E+01 0.  0.
     999903    2    3    3    0    0  0.32602075934E-01  0.12123601638E+00 -0.38226321357E-01  0.13292087978E+00  0.21110225338E-01 0.  0.
         14    1    1    2    0    0 -0.74154796834E-02 -0.85681626714E-02  0.20345650183E-01  0.23288371173E-01  0.00000000000E+00 0. -1.
     999901    1    3    3    0    0 -0.25186596250E-01 -0.11266785371E+00  0.17880671174E-01  0.88772074905E+00  0.88000000000E+00 0.  1.
        -11    1    4    4    0    0  0.22068902698E-01  0.52796975746E-01 -0.97646138589E-02  0.58053130139E-01  0.51100000000E-03 0.  1.
         11    1    4    4    0    0  0.10533173236E-01  0.68439040634E-01 -0.28461707498E-01  0.74867749639E-01  0.51100000000E-03 0. -1.
</event>
<event>
 8    1  0.1202249E+005  0.1043930E+01  0.7957747E-01            NaN
         13   -1    0    0    0    0  0.00000000000E+00  0.00000000000E+00  0.74505805969E-08  0.10566000000E+00  0.10566000000E+00 0.  1.
     999900   -1    0    0    0    0 -0.00000000000E+00 -0.00000000000E+00 -0.74505805969E-08  0.93827000000E+00  0.93827000000E+00 0. -1.
     999902    2    1    2    0    0  0.58303553836E-02  0.15427323857E-01 -0.17139248986E-01  0.10201445166E+01  0.10198671901E+01 0.  0.
     999903    2    3    3    0    0 -0.61305311385E-01  0.11013875780E+00 -0.35567725956E-01  0.13232862225E+00  0.18892166737E-01 0.  0.
         14    1    1    2    0    0 -0.58303553836E-02 -0.15427323857E-01  0.17139248986E-01  0.23785483411E-01  0.00000000000E+00 0.  1.
     999901    1    3    3    0    0  0.67135666769E-01 -0.94711433942E-01  0.18428476970E-01  0.88781589434E+00  0.88000000000E+00 0.  1.
        -11    1    4    4    0    0 -0.11541308277E-01  0.16001781806E-01  0.94837020460E-03  0.19759031979E-01  0.51100000000E-03 0.  1.
         11    1    4    4    0    0 -0.49764003108E-01  0.94136975994E-01 -0.36516096161E-01  0.11256959027E+00  0.51100000000E-03 0. -1.
</event>
<event>
 8    1  0.1202249E+005  0.1043930E+01  0.7957747E-01            NaN
         13   -1    0    0    0    0  0.00000000000E+00  0.00000000000E+00  0.74505805969E-08  0.10566000000E+00  0.10566000000E+00 0. -1.
     999900   -1    0    0    0    0 -0.00000000000E+00 -0.00000000000E+00 -0.74505805969E-08  0.93827000000E+00  0.93827000000E+00 0.  1.
     999902    2    1    2    0    0 -0.56251249320E-02 -0.20337040695E-01 -0.84305866080E-02  0.10212074991E+01  0.10209546730E+01 0.  0.
     999903    2    3    3    0    0 -0.71123759973E-01  0.59299835767E-01 -0.90920169063E-01  0.13135546959E+00  0.20315572691E-01 0.  0.
         14    1    1    2    0    0  0.56251249320E-02  0.20337040695E-01  0.84305866080E-02  0.22722500859E-01  0.00000000000E+00 0. -1.
     999901    1    3    3    0    0  0.65498635041E-01 -0.79636876462E-01  0.82489582455E-01  0.88985202955E+00  0.88000000000E+00 0. -1.
        -11    1    4    4    0    0 -0.64554411405E-01  0.44079367298E-01 -0.76573285382E-01  0.10942573650E+00  0.51100000000E-03 0. -1.
         11    1    4    4    0    0 -0.65693485682E-02  0.15220468468E-01 -0.14346883681E-01  0.21929733089E-01  0.51100000000E-03 0.  1.
</event>
<event>
 8    1  0.1202249E+005  0.1043930E+01  0.7957747E-01            NaN
         13   -1    0    0    0    0  0.00000000000E+00  0.00000000000E+00  0.74505805969E-08  0.10566000000E+00  0.10566000000E+00 0.  1.
     999900   -1    0    0    0    0 -0.00000000000E+00 -0.00000000000E+00 -0.74505805969E-08  0.93827000000E+00  0.93827000000E+00 0. -1.
     999902    2    1    2    0    0 -0.14790825659E-01 -0.18866626210E-01  0.48948915820E-02  0.10194621012E+01  0.10191684344E+01 0.  0.
     999903    2    3    3    0    0  0.47113264929E-02  0.10836924513E+00  0.64935220025E-01  0.12807321753E+00  0.20495764455E-01 0.  0.
         14    1    1    2    0    0  0.14790825659E-01  0.18866626210E-01 -0.48948915820E-02  0.24467898803E-01  0.00000000000E+00 0. -1.
     999901    1    3    3    0    0 -0.19502152152E-01 -0.12723587134E+00 -0.60040328443E-01  0.89138888367E+00  0.88000000000E+00 0. -1.
        -11    1    4    4    0    0  0.72386401850E-02  0.16739868530E-01  0.15423244320E-01  0.23890556638E-01  0.51100000000E-03 0. -1.
         11    1    4    4    0    0 -0.25273136921E-02  0.91629376599E-01  0.49511975705E-01  0.10418266089E+00  0.51100000000E-03 0.  1.
</event>
<event>
 8    1  0.1202249E+005  0.1043930E+01  0.7957747E-01            NaN
         13   -1    0    0    0    0  0.00000000000E+00  0.00000000000E+00  0.74505805969E-08  0.10566000000E+00  0.10566000000E+00 0. -1.
     999900   -1    0    0    0    0 -0.00000000000E+00 -0.00000000000E+00 -0.74505805969E-08  0.93827000000E+00  0.93827000000E+00 0.  1.
     999902    2    1    2    0    0  0.64119089752E-02 -0.20335841426E-01 -0.10286503738E-01  0.10202557274E+01  0.10199810185E+01 0.  0.
     999903    2    3    3    0    0 -0.45958753268E-01 -0.12550617433E-01  0.11837485047E+00  0.12932529240E+00  0.21040461714E-01 0.  0.
         14    1    1    2    0    0 -0.64119089752E-02  0.20335841426E-01  0.10286503738E-01  0.23674272584E-01  0.00000000000E+00 0. -1.
     999901    1    3    3    0    0  0.52370662243E-01 -0.77852239933E-02 -0.12866135421E+00  0.89093043502E+00  0.88000000000E+00 0.  1.
        -11    1    4    4    0    0 -0.13269594359E-01 -0.13650291354E-01  0.50715073403E-01  0.54172801107E-01  0.51100000000E-03 0.  1.
         11    1    4    4    0    0 -0.32689158909E-01  0.10996739212E-02  0.67659777070E-01  0.75152491290E-01  0.51100000000E-03 0. -1.
</event>
<event>
 8    1  0.1202249E+005  0.1043930E+01  0.7957747E-01            NaN
         13   -1    0    0    0    0  0.00000000000E+00  0.00000000000E+00  0.74505805969E-08  0.10566000000E+00  0.10566000000E+00 0. -1.
     999900   -1    0    0    0    0 -0.00000000000E+00 -0.00000000000E+00 -0.74505805969E-08  0.93827000000E+00  0.93827000000E+00 0. -1.
     999902    2    1    2    0    0  0.47392026125E-02  0.10356294327E-01 -0.20622790862E-01  0.10203712993E+01  0.10200992972E+01 0.  0.
     999903    2    3    3    0    0 -0.26509729948E-01  0.12605797459E+00  0.17216404521E-01  0.13144206746E+00  0.19678256358E-01 0.  0.
         14    1    1    2    0    0 -0.47392026125E-02 -0.10356294327E-01  0.20622790862E-01  0.23558700655E-01  0.00000000000E+00 0. -1.
     999901    1    3    3    0    0  0.31248932561E-01 -0.11570168026E+00 -0.37839195383E-01  0.88892923189E+00  0.88000000000E+00 0. -1.
        -11    1    4    4    0    0 -0.18475208791E-01  0.11481698553E+00  0.17547983155E-01  0.11761150599E+00  0.51100000000E-03 0.  1.
         11    1    4    4    0    0 -0.80345211570E-02  0.11240989056E-01 -0.33157863384E-03  0.13830561470E-01  0.51100000000E-03 0. -1.
</event>
<event>
 8    1  0.1202249E+005  0.1043930E+01  0.7957747E-01            NaN
         13   -1    0    0    0    0  0.00000000000E+00  0.00000000000E+00  0.74505805969E-08  0.10566000000E+00  0.10566000000E+00 0. -1.
     999900   -1    0    0    0    0 -0.00000000000E+00 -0.00000000000E+00 -0.74505805969E-08  0.93827000000E+00  0.93827000000E+00 0.  1.
     999902    2    1    2    0    0 -0.11537848971E-01  0.95540478348E-03  0.20842986924E-01  0.10200874988E+01  0.10198088254E+01 0.  0.
     999903    2    3    3    0    0 -0.20420188453E-01 -0.87781398754E-01 -0.89851228855E-01  0.12868056279E+00  0.19049562945E-01 0.  0.
         14    1    1    2    0    0  0.11537848971E-01 -0.95540478348E-03 -0.20842986924E-01  0.23842501150E-01  0.00000000000E+00 0.  1.
     999901    1    3    3    0    0  0.88823394822E-02  0.88736803538E-01  0.11069421578E+00  0.89140693606E+00  0.88000000000E+00 0. -1.
        -11    1    4    4    0    0 -0.71020669818E-02 -0.48471229617E-01 -0.60473727405E-01  0.77828222923E-01  0.51100000000E-03 0.  1.
         11    1    4    4    0    0 -0.13318121471E-01 -0.39310169137E-01 -0.29377501449E-01  0.50852339863E-01  0.51100000000E-03 0. -1.
</event>
<event>
 8    1  0.1202249E+005  0.1043930E+01  0.7957747E-01            NaN
         13   -1    0    0    0    0  0.00000000000E+00  0.00000000000E+00  0.74505805969E-08  0.10566000000E+00  0.10566000000E+00 0.  1.
     999900   -1    0    0    0    0 -0.00000000000E+00 -0.00000000000E+00 -0.74505805969E-08  0.93827000000E+00  0.93827000000E+00 0.  1.
     999902    2    1    2    0    0 -0.17296503065E-02  0.21134593163E-01  0.10379882817E-01  0.10203205806E+01  0.10200473923E+01 0.  0.
     999903    2    3    3    0    0  0.52482645675E-01  0.56850696421E-02 -0.11643415323E+00  0.12944490993E+00  0.20305776383E-01 0.  0.
         14    1    1    2    0    0  0.17296503065E-02 -0.21134593163E-01 -0.10379882817E-01  0.23609419427E-01  0.00000000000E+00 0.  1.
     999901    1    3    3    0    0 -0.54212295981E-01  0.15449523521E-01  0.12681403604E+00  0.89087567065E+00  0.88000000000E+00 0. -1.
        -11    1    4    4    0    0  0.30110947156E-01  0.47136467712E-02 -0.43267758822E-01  0.52926814366E-01  0.51100000000E-03 0. -1.
         11    1    4    4    0    0  0.22371698519E-01  0.97142287090E-03 -0.73166394405E-01  0.76518095560E-01  0.51100000000E-03 0.  1.
</event>
<event>
 8    1  0.1202249E+005  0.1043930E+01  0.7957747E-01            NaN
         13   -1    0    0    0    0  0.00000000000E+00  0.00000000000E+00  0.74505805969E-08  0.10566000000E+00  0.10566000000E+00 0. -1.
     999900   -1    0    0    0    0 -0.00000000000E+00 -0.00000000000E+00 -0.74505805969E-08  0.93827000000E+00  0.93827000000E+00 0. -1.
     999902    2    1    2    0    0 -0.22490890804E-02 -0.20644087157E-01  0.11171814025E-01  0.10203493689E+01  0.10200768542E+01 0.  0.
     999903    2    3    3    0    0  0.23869880157E-01 -0.25666764452E-01 -0.12349183698E+00  0.12970818031E+00  0.18585592912E-01 0.  0.
         14    1    1    2    0    0  0.22490890804E-02  0.20644087157E-01 -0.11171814025E-01  0.23580631138E-01  0.00000000000E+00 0. -1.
     999901    1    3    3    0    0 -0.26118969238E-01  0.50226772952E-02  0.13466365100E+00  0.89064118855E+00  0.88000000000E+00 0.  1.
        -11    1    4    4    0    0  0.94150305041E-02 -0.61475283824E-02 -0.70753583657E-01  0.71643322270E-01  0.51100000000E-03 0.  1.
         11    1    4    4    0    0  0.14454849653E-01 -0.19519236070E-01 -0.52738253320E-01  0.58064858042E-01  0.51100000000E-03 0. -1.
</event>
<event>
 8    1  0.1202249E+005  0.1043930E+01  0.7957747E-01            NaN
         13   -1    0    0    0    0  0.00000000000E+00  0.00000000000E+00  0.74505805969E-08  0.10566000000E+00  0.10566000000E+00 0.  1.
     999900   -1    0    0    0    0 -0.00000000000E+00 -0.00000000000E+00 -0.74505805969E-08  0.93827000000E+00  0.93827000000E+00 0.  1.
     999902    2    1    2    0    0  0.10033736253E-01  0.89404324355E-02 -0.19744569861E-01  0.10200457953E+01  0.10197661346E+01 0.  0.
     999903    2    3    3    0    0  0.23501958212E-01 -0.74422490267E-01  0.99424809723E-01  0.12800761735E+00  0.20238779945E-01 0.  0.
         14    1    1    2    0    0 -0.10033736253E-01 -0.89404324355E-02  0.19744569861E-01  0.23884204704E-01  0.00000000000E+00 0.  1.
     999901    1    3    3    0    0 -0.13468221959E-01  0.83362922703E-01 -0.11916937958E+00  0.89203817795E+00  0.88000000000E+00 0.  1.
        -11    1    4    4    0    0  0.12717401040E-01 -0.62591346405E-01  0.71998390419E-01  0.96246757234E-01  0.51100000000E-03 0. -1.
         11    1    4    4    0    0  0.10784557172E-01 -0.11831143862E-01  0.27426419303E-01  0.31760860115E-01  0.51100000000E-03 0.  1.
</event>
<event>
 8    1  0.1202249E+005  0.1043930E+01  0.7957747E-01            NaN
         13   -1    0    0    0    0  0.00000000000E+00  0.00000000000E+00  0.74505805969E-08  0.10566000000E+00  0.10566000000E+00 0. -1.
     999900   -1    0    0    0    0 -0.00000000000E+00 -0.00000000000E+00 -0.74505805969E-08  0.93827000000E+00  0.93827000000E+00 0.  1.
     999902    2    1    2    0    0 -0.82031521724E-02 -0.12053128094E-01 -0.17907553313E-01  0.10208377920E+01  0.10205765761E+01 0.  0.
     999903    2    3    3    0    0 -0.10000811472E+00 -0.84991243379E-01 -0.89347570802E-02  0.13301538251E+00  0.19700955281E-01 0.  0.
         14    1    1    2    0    0  0.82031521724E-02  0.12053128094E-01  0.17907553313E-01  0.23092207952E-01  0.00000000000E+00 0. -1.
     999901    1    3    3    0    0  0.91804962546E-01  0.72938115285E-01 -0.89727962331E-02  0.88782240954E+00  0.88000000000E+00 0. -1.
        -11    1    4    4    0    0 -0.36330893835E-01 -0.20740976215E-01 -0.77354765931E-02  0.42546688007E-01  0.51100000000E-03 0. -1.
         11    1    4    4    0    0 -0.63677220883E-01 -0.64250267164E-01 -0.11992804871E-02  0.90468694501E-01  0.51100000000E-03 0.  1.
</event>
<event>
 7    1  0.1202249E+005  0.1043930E+01  0.7957747E-01            NaN
         13   -1    0    0    0    0  0.00000000000E+00  0.00000000000E+00  0.74505805969E-08  0.10566000000E+00  0.10566000000E+00 0. -1.
     999900   -1    0    0    0    0 -0.00000000000E+00 -0.00000000000E+00 -0.74505805969E-08  0.93827000000E+00  0.93827000000E+00 0.  1.
     999903    2    1    2    0    0  0.54832937854E-01 -0.10316662363E+00 -0.13523484490E-02  0.11857072329E+00  0.20178807495E-01 0.  0.
         14    1    1    2    0    0 -0.53929186432E-02  0.40319212395E-01  0.91703846501E-02  0.41699141649E-01  0.00000000000E+00 0. -1.
     999901    1    1    2    0    0 -0.49440019211E-01  0.62847411231E-01 -0.78180362011E-02  0.88366013506E+00  0.88000000000E+00 0.  1.
        -11    1    3    3    0    0  0.33155911029E-01 -0.76637642220E-01  0.52847368724E-02  0.83670975887E-01  0.51100000000E-03 0.  1.
         11    1    3    3    0    0  0.21677026826E-01 -0.26528981407E-01 -0.66370853214E-02  0.34899747407E-01  0.51100000000E-03 0. -1.
</event>
<event>
 8    1  0.1202249E+005  0.1043930E+01  0.7957747E-01            NaN
         13   -1    0    0    0    0  0.00000000000E+00  0.00000000000E+00  0.74505805969E-08  0.10566000000E+00  0.10566000000E+00 0. -1.
     999900   -1    0    0    0    0 -0.00000000000E+00 -0.00000000000E+00 -0.74505805969E-08  0.93827000000E+00  0.93827000000E+00 0. -1.
     999902    2    1    2    0    0  0.17869410696E-01  0.10595162953E-01  0.15271678526E-01  0.10181463330E+01  0.10178198063E+01 0.  0.
     999903    2    3    3    0    0 -0.45177656114E-01  0.52592022754E-01  0.10837139641E+00  0.12999869535E+00  0.18664398325E-01 0.  0.
         14    1    1    2    0    0 -0.17869410696E-01 -0.10595162953E-01 -0.15271678526E-01  0.25783666955E-01  0.00000000000E+00 0.  1.
     999901    1    3    3    0    0  0.63047066810E-01 -0.41996859802E-01 -0.93099717883E-01  0.88814763769E+00  0.88000000000E+00 0. -1.
        -11    1    4    4    0    0 -0.38458136156E-01  0.36713060044E-01  0.69792850115E-01  0.87739273205E-01  0.51100000000E-03 0.  1.
         11    1    4    4    0    0 -0.67195199577E-02  0.15878962711E-01  0.38578546294E-01  0.42259422149E-01  0.51100000000E-03 0. -1.
</event>
<event>
 8    1  0.1202249E+005  0.1043930E+01  0.7957747E-01            NaN
         13   -1    0    0    0    0  0.00000000000E+00  0.00000000000E+00  0.74505805969E-08  0.10566000000E+00  0.10566000000E+00 0.  1.
     999900   -1    0    0    0    0 -0.00000000000E+00 -0.00000000000E+00 -0.74505805969E-08  0.93827000000E+00  0.93827000000E+00 0. -1.
     999902    2    1    2    0    0  0.15551889092E-01 -0.18689324992E-01  0.93923055438E-02  0.10178653203E+01  0.10175315439E+01 0.  0.
     999903    2    3    3    0    0  0.41370991018E-01  0.83548635018E-01  0.85787954185E-01  0.12828366493E+00  0.20129388794E-01 0.  0.
         14    1    1    2    0    0 -0.15551889092E-01  0.18689324992E-01 -0.93923055438E-02  0.26064679672E-01  0.00000000000E+00 0.  1.
     999901    1    3    3    0    0 -0.25819101927E-01 -0.10223796001E+00 -0.76395648641E-01  0.88958165540E+00  0.88000000000E+00 0.  1.
        -11    1    4    4    0    0  0.16458825157E-01  0.54891174136E-01  0.54391145373E-01  0.79010073659E-01  0.51100000000E-03 0.  1.
         11    1    4    4    0    0  0.24912165861E-01  0.28657460882E-01  0.31396808812E-01  0.49273591270E-01  0.51100000000E-03 0. -1.
</event>
<event>
 8    1  0.1202249E+005  0.1043930E+01  0.7957747E-01            NaN
         13   -1    0    0    0    0  0.00000000000E+00  0.00000000000E+00  0.74505805969E-08  0.10566000000E+00  0.10566000000E+00 0. -1.
     999900   -1    0    0    0    0 -0.00000000000E+00 -0.00000000000E+00 -0.74505805969E-08  0.93827000000E+00  0.93827000000E+00 0. -1.
     999902    2    1    2    0    0 -0.10724534493E-01  0.14795796462E-01 -0.14969747969E-01  0.10203074560E+01  0.10200339603E+01 0.  0.
     999903    2    3    3    0    0 -0.12329366205E+00  0.42396876291E-01 -0.14518708992E-01  0.13270741566E+00  0.20041033871E-01 0.  0.
         14    1    1    2    0    0  0.10724534493E-01 -0.14795796462E-01  0.14969747969E-01  0.23622544048E-01  0.00000000000E+00 0.  1.
     999901    1    3    3    0    0  0.11256912756E+00 -0.27601079830E-01 -0.45103897694E-03  0.88760004029E+00  0.88000000000E+00 0.  1.
        -11    1    4    4    0    0 -0.52436637034E-01  0.19981005065E-01  0.35284253507E-02  0.56227683336E-01  0.51100000000E-03 0.  1.
         11    1    4    4    0    0 -0.70857025020E-01  0.22415871227E-01 -0.18047134343E-01  0.76479732326E-01  0.51100000000E-03 0. -1.
</event>
<event>
 8    1  0.1202249E+005  0.1043930E+01  0.7957747E-01            NaN
         13   -1    0    0    0    0  0.00000000000E+00  0.00000000000E+00  0.74505805969E-08  0.10566000000E+00  0.10566000000E+00 0.  1.
     999900   -1    0    0    0    0 -0.00000000000E+00 -0.00000000000E+00 -0.74505805969E-08  0.93827000000E+00  0.93827000000E+00 0.  1.
     999902    2    1    2    0    0 -0.94209080647E-02  0.16507459428E-01 -0.15270259059E-01  0.10195490538E+01  0.10192574957E+01 0.  0.
     999903    2    3    3    0    0  0.37349101438E-01 -0.67895511086E-01  0.99794942990E-01  0.12682776699E+00  0.11022523687E-01 0.  0.
         14    1    1    2    0    0  0.94209080647E-02 -0.16507459428E-01  0.15270259059E-01  0.24380946193E-01  0.00000000000E+00 0.  1.
     999901    1    3    3    0    0 -0.46770009502E-01  0.84402970515E-01 -0.11506520205E+00  0.89272128682E+00  0.88000000000E+00 0.  1.
        -11    1    4    4    0    0  0.91482584975E-02 -0.26878209587E-01  0.39274358689E-01  0.48465092134E-01  0.51100000000E-03 0. -1.
         11    1    4    4    0    0  0.28200842940E-01 -0.41017301499E-01  0.60520584301E-01  0.78362674852E-01  0.51100000000E-03 0.  1.
</event>
<event>
 8    1  0.1202249E+005  0.1043930E+01  0.7957747E-01            NaN
         13   -1    0    0    0    0  0.00000000000E+00  0.00000000000E+00  0.74505805969E-08  0.10566000000E+00  0.10566000000E+00 0. -1.
     999900   -1    0    0    0    0 -0.00000000000E+00 -0.00000000000E+00 -0.74505805969E-08  0.93827000000E+00  0.93827000000E+00 0.  1.
     999902    2    1    2    0    0 -0.14375233106E-01 -0.15661869256E-01  0.92563647337E-02  0.10207433279E+01  0.10204799457E+01 0.  0.
     999903    2    3    3    0    0 -0.45644921577E-01  0.89502783442E-01  0.81941062875E-01  0.13095657651E+00  0.18468352273E-01 0.  0.
         14    1    1    2    0    0  0.14375233106E-01  0.15661869256E-01 -0.92563647337E-02  0.23186672110E-01  0.00000000000E+00 0.  1.
     999901    1    3    3    0    0  0.31269688471E-01 -0.10516465270E+00 -0.72684698141E-01  0.88978675138E+00  0.88000000000E+00 0.  1.
        -11    1    4    4    0    0 -0.27375647207E-01  0.63654022790E-01  0.46573111173E-01  0.83489978337E-01  0.51100000000E-03 0. -1.
         11    1    4    4    0    0 -0.18269274369E-01  0.25848760652E-01  0.35367951702E-01  0.47466598170E-01  0.51100000000E-03 0.  1.
</event>
<event>
 8    1  0.1202249E+005  0.1043930E+01  0.7957747E-01            NaN
         13   -1    0    0    0    0  0.00000000000E+00  0.00000000000E+00  0.74505805969E-08  0.10566000000E+00  0.10566000000E+00 0.  1.
     999900   -1    0    0    0    0 -0.00000000000E+00 -0.00000000000E+00 -0.74505805969E-08  0.93827000000E+00  0.93827000000E+00 0.  1.
     999902    2    1    2    0    0  0.11031290191E-01 -0.11073001390E-01  0.16899479494E-01  0.10209105923E+01  0.10206510395E+01 0.  0.
     999903    2    3    3    0    0  0.77684817619E-01  0.94260961961E-01  0.44835480185E-01  0.13168713520E+00  0.20278595967E-01 0.  0.
         14    1    1    2    0    0 -0.11031290191E-01  0.11073001390E-01 -0.16899479494E-01  0.23019407686E-01  0.00000000000E+00 0. -1.
     999901    1    3    3    0    0 -0.66653527427E-01 -0.10533396335E+00 -0.27936000692E-01  0.88922345712E+00  0.88000000000E+00 0.  1.
        -11    1    4    4    0    0  0.29621346349E-01  0.37913869518E-01  0.73370350232E-02  0.48672156982E-01  0.51100000000E-03 0.  1.
         11    1    4    4    0    0  0.48063471270E-01  0.56347092443E-01  0.37498445162E-01  0.83014978214E-01  0.51100000000E-03 0. -1.
</event>
<event>
 8    1  0.1202249E+005  0.1043930E+01  0.7957747E-01            NaN
         13   -1    0    0    0    0  0.00000000000E+00  0.00000000000E+00  0.74505805969E-08  0.10566000000E+00  0.10566000000E+00 0. -1.
     999900   -1    0    0    0    0 -0.00000000000E+00 -0.00000000000E+00 -0.74505805969E-08  0.93827000000E+00  0.93827000000E+00 0.  1.
     999902    2    1    2    0    0  0.15053001935E-01 -0.37981184165E-03 -0.18131331086E-01  0.10203613282E+01  0.10200890930E+01 0.  0.
     999903    2    3    3    0    0 -0.10738067928E+00 -0.29574691017E-01  0.59807892773E-01  0.12799544477E+00  0.20014425083E-01 0.  0.
         14    1    1    2    0    0 -0.15053001935E-01  0.37981184165E-03  0.18131331086E-01  0.23568671818E-01  0.00000000000E+00 0. -1.
     999901    1    3    3    0    0  0.12243368122E+00  0.29194879176E-01 -0.77939223860E-01  0.89236588341E+00  0.88000000000E+00 0.  1.
        -11    1    4    4    0    0 -0.64961011606E-01 -0.18347540649E-01  0.25004786019E-01  0.71986566257E-01  0.51100000000E-03 0.  1.
         11    1    4    4    0    0 -0.42419667676E-01 -0.11227150369E-01  0.34803106755E-01  0.56008878510E-01  0.51100000000E-03 0. -1.
</event>
<event>
 8    1  0.1202249E+005  0.1043930E+01  0.7957747E-01            NaN
         13   -1    0    0    0    0  0.00000000000E+00  0.00000000000E+00  0.74505805969E-08  0.10566000000E+00  0.10566000000E+00 0.  1.
     999900   -1    0    0    0    0 -0.00000000000E+00 -0.00000000000E+00 -0.74505805969E-08  0.93827000000E+00  0.93827000000E+00 0.  1.
     999902    2    1    2    0    0  0.11294425475E-01  0.91623613742E-02 -0.18711822294E-01  0.10202309450E+01  0.10199556539E+01 0.  0.
     999903    2    3    3    0    0 -0.21680867008E-01  0.69658996280E-01  0.10495541487E+00  0.12891685993E+00  0.16777422524E-01 0.  0.
         14    1    1    2    0    0 -0.11294425475E-01 -0.91623613742E-02  0.18711822294E-01  0.23699054967E-01  0.00000000000E+00 0.  1.
     999901    1    3    3    0    0  0.32975292483E-01 -0.60496634906E-01 -0.12366723717E+00  0.89131408510E+00  0.88000000000E+00 0.  1.
        -11    1    4    4    0    0 -0.80574449875E-02  0.51466629878E-01  0.74719820156E-01  0.91088138942E-01  0.51100000000E-03 0.  1.
         11    1    4    4    0    0 -0.13623422020E-01  0.18192366402E-01  0.30235594717E-01  0.37828720990E-01  0.51100000000E-03 0. -1.
</event>
<event>
 8    1  0.1202249E+005  0.1043930E+01  0.7957747E-01            NaN
         13   -1    0    0    0    0  0.00000000000E+00  0.00000000000E+00  0.74505805969E-08  0.10566000000E+00  0.10566000000E+00 0.  1.
     999900   -1    0    0    0    0 -0.00000000000E+00 -0.00000000000E+00 -0.74505805969E-08  0.93827000000E+00  0.93827000000E+00 0. -1.
     999902    2    1    2    0    0  0.17392471664E-01 -0.52134129921E-02 -0.22063377918E-01  0.10153560540E+01  0.10149539132E+01 0.  0.
     999903    2    3    3    0    0  0.85070198415E-01 -0.20368444945E-01 -0.93503890904E-01  0.12974118476E+00  0.20928096002E-01 0.  0.
         14    1    1    2    0    0 -0.17392471664E-01  0.52134129921E-02  0.22063377918E-01  0.28573946013E-01  0.00000000000E+00 0.  1.
     999901    1    3    3    0    0 -0.67677726751E-01  0.15155031953E-01  0.71440512986E-01  0.88561486922E+00  0.88000000000E+00 0.  1.
        -11    1    4    4    0    0  0.66111885172E-01 -0.21233638421E-01 -0.82361427087E-01  0.10772796552E+00  0.51100000000E-03 0. -1.
         11    1    4    4    0    0  0.18958313243E-01  0.86519347528E-03 -0.11142463816E-01  0.22013219248E-01  0.51100000000E-03 0.  1.
</event>
<event>
 8    1  0.1202249E+005  0.1043930E+01  0.7957747E-01            NaN
         13   -1    0    0    0    0  0.00000000000E+00  0.00000000000E+00  0.74505805969E-08  0.10566000000E+00  0.10566000000E+00 0.  1.
     999900   -1    0    0    0    0 -0.00000000000E+00 -0.00000000000E+00 -0.74505805969E-08  0.93827000000E+00  0.93827000000E+00 0. -1.
     999902    2    1    2    0    0  0.20260026050E-01 -0.20941388649E-01  0.25272032234E-02  0.10146828263E+01  0.10142612291E+01 0.  0.
     999903    2    3    3    0    0  0.49104204976E-01 -0.10311156225E+00  0.56502250430E-01  0.12873856743E+00  0.18381980945E-01 0.  0.
         14    1    1    2    0    0 -0.20260026050E-01  0.20941388649E-01 -0.25272032234E-02  0.29247173714E-01  0.00000000000E+00 0.  1.
     999901    1    3    3    0    0 -0.28844178926E-01  0.82170173600E-01 -0.53975047206E-01  0.88594425886E+00  0.88000000000E+00 0. -1.
        -11    1    4    4    0    0  0.24182350072E-01 -0.43460477557E-01  0.15147415589E-01  0.51993311921E-01  0.51100000000E-03 0.  1.
         11    1    4    4    0    0  0.24921854904E-01 -0.59651084691E-01  0.41354834841E-01  0.76745255504E-01  0.51100000000E-03 0. -1.
</event>
<event>
 8    1  0.1202249E+005  0.1043930E+01  0.7957747E-01            NaN
         13   -1    0    0    0    0  0.00000000000E+00  0.00000000000E+00  0.74505805969E-08  0.10566000000E+00  0.10566000000E+00 0. -1.
     999900   -1    0    0    0    0 -0.00000000000E+00 -0.00000000000E+00 -0.74505805969E-08  0.93827000000E+00  0.93827000000E+00 0. -1.
     999902    2    1    2    0    0 -0.81458575594E-02  0.16356942137E-01 -0.14564063062E-01  0.10205630044E+01  0.10202954618E+01 0.  0.
     999903    2    3    3    0    0 -0.12776020573E+00  0.25141306844E-01 -0.85201436447E-02  0.13240688842E+00  0.22455194862E-01 0.  0.
         14    1    1    2    0    0  0.81458575594E-02 -0.16356942137E-01  0.14564063062E-01  0.23366995620E-01  0.00000000000E+00 0. -1.
     999901    1    3    3    0    0  0.11961434817E+00 -0.87843647075E-02 -0.60439194173E-02  0.88815611596E+00  0.88000000000E+00 0.  1.
        -11    1    4    4    0    0 -0.61180247395E-01  0.91919590940E-03 -0.14826376133E-02  0.61207245713E-01  0.51100000000E-03 0.  1.
         11    1    4    4    0    0 -0.66579958333E-01  0.24222110935E-01 -0.70375060314E-02  0.71199642709E-01  0.51100000000E-03 0. -1.
</event>
<event>
 8    1  0.1202249E+005  0.1043930E+01  0.7957747E-01            NaN
         13   -1    0    0    0    0  0.00000000000E+00  0.00000000000E+00  0.74505805969E-08  0.10566000000E+00  0.10566000000E+00 0.  1.
     999900   -1    0    0    0    0 -0.00000000000E+00 -0.00000000000E+00 -0.74505805969E-08  0.93827000000E+00  0.93827000000E+00 0. -1.
     999902    2    1    2    0    0  0.20974023429E-01 -0.48890445621E-02 -0.99743001233E-02  0.10201960775E+01  0.10199199662E+01 0.  0.
     999903    2    3    3    0    0 -0.31692752108E-01 -0.48086242132E-01 -0.11619305097E+00  0.13119539685E+00  0.19866802509E-01 0.  0.
         14    1    1    2    0    0 -0.20974023429E-01  0.48890445621E-02  0.99743001233E-02  0.23733922526E-01  0.00000000000E+00 0.  1.
     999901    1    3    3    0    0  0.52666775537E-01  0.43197197570E-01  0.10621875085E+00  0.88900068063E+00  0.88000000000E+00 0.  1.
        -11    1    4    4    0    0 -0.26845254678E-01 -0.24171444174E-01 -0.76451261113E-01  0.84557571270E-01  0.51100000000E-03 0.  1.
         11    1    4    4    0    0 -0.48474974305E-02 -0.23914797958E-01 -0.39741789855E-01  0.46637825578E-01  0.51100000000E-03 0. -1.
</event>
<event>
 8    1  0.1202249E+005  0.1043930E+01  0.7957747E-01            NaN
         13   -1    0    0    0    0  0.00000000000E+00  0.00000000000E+00  0.74505805969E-08  0.10566000000E+00  0.10566000000E+00 0.  1.
     999900   -1    0    0    0    0 -0.00000000000E+00 -0.00000000000E+00 -0.74505805969E-08  0.93827000000E+00  0.93827000000E+00 0. -1.
     999902    2    1    2    0    0  0.77601149712E-02 -0.52140066873E-02 -0.21614189053E-01  0.10203805113E+01  0.10201087243E+01 0.  0.
     999903    2    3    3    0    0 -0.86455566489E-01  0.82794863780E-01  0.41461524516E-01  0.12875239287E+00  0.22990567834E-01 0.  0.
         14    1    1    2    0    0 -0.77601149712E-02  0.52140066873E-02  0.21614189053E-01  0.23549488711E-01  0.00000000000E+00 0.  1.
     999901    1    3    3    0    0  0.94215681460E-01 -0.88008870467E-01 -0.63075713569E-01  0.89162811842E+00  0.88000000000E+00 0.  1.
        -11    1    4    4    0    0 -0.67161627952E-01  0.63862742540E-01  0.41905818248E-01  0.10171279604E+00  0.51100000000E-03 0. -1.
         11    1    4    4    0    0 -0.19293938537E-01  0.18932121239E-01 -0.44429373196E-03  0.27039596831E-01  0.51100000000E-03 0.  1.
</event>
<event>
 8    1  0.1202249E+005  0.1043930E+01  0.7957747E-01            NaN
         13   -1    0    0    0    0  0.00000000000E+00  0.00000000000E+00  0.74505805969E-08  0.10566000000E+00  0.10566000000E+00 0. -1.
     999900   -1    0    0    0    0 -0.00000000000E+00 -0.00000000000E+00 -0.74505805969E-08  0.93827000000E+00  0.93827000000E+00 0. -1.
     999902    2    1    2    0    0  0.22848292361E-01 -0.54651410102E-02 -0.29766294675E-03  0.10204353020E+01  0.10201647929E+01 0.  0.
     999903    2    3    3    0    0 -0.11051139300E+00 -0.58040218717E-01  0.22302499228E-01  0.12854982069E+00  0.21123919053E-01 0.  0.
         14    1    1    2    0    0 -0.22848292361E-01  0.54651410102E-02  0.29766294675E-03  0.23494697983E-01  0.00000000000E+00 0.  1.
     999901    1    3    3    0    0  0.13335968536E+00  0.52575077707E-01 -0.22600162174E-01  0.89188548133E+00  0.88000000000E+00 0.  1.
        -11    1    4    4    0    0 -0.38817839370E-01 -0.14814648005E-01  0.16240036202E-01  0.44612759898E-01  0.51100000000E-03 0.  1.
         11    1    4    4    0    0 -0.71693553628E-01 -0.43225570713E-01  0.60624630254E-02  0.83937060790E-01  0.51100000000E-03 0. -1.
</event>
<event>
 8    1  0.1202249E+005  0.1043930E+01  0.7957747E-01            NaN
         13   -1    0    0    0    0  0.00000000000E+00  0.00000000000E+00  0.74505805969E-08  0.10566000000E+00  0.10566000000E+00 0.  1.
     999900   -1    0    0    0    0 -0.00000000000E+00 -0.00000000000E+00 -0.74505805969E-08  0.93827000000E+00  0.93827000000E+00 0.  1.
     999902    2    1    2    0    0  0.15103621257E-01 -0.77842512342E-02  0.17011853706E-01  0.10198859340E+01  0.10196024722E+01 0.  0.
     999903    2    3    3    0    0  0.22113341046E-01  0.11777869815E+00  0.47416452164E-01  0.13042563134E+00  0.20042549396E-01 0.  0.
         14    1    1    2    0    0 -0.15103621257E-01  0.77842512342E-02 -0.17011853706E-01  0.24044065980E-01  0.00000000000E+00 0. -1.
     999901    1    3    3    0    0 -0.70097197885E-02 -0.12556294938E+00 -0.30404598458E-01  0.88946030268E+00  0.88000000000E+00 0. -1.
        -11    1    4    4    0    0  0.21279865294E-02  0.21273610908E-01  0.79525260258E-03  0.21400663434E-01  0.51100000000E-03 0.  1.
         11    1    4    4    0    0  0.19985354517E-01  0.96505087239E-01  0.46621199561E-01  0.10902496791E+00  0.51100000000E-03 0. -1.
</event>
<event>
 8    1  0.1202249E+005  0.1043930E+01  0.7957747E-01            NaN
         13   -1    0    0    0    0  0.00000000000E+00  0.00000000000E+00  0.74505805969E-08  0.10566000000E+00  0.10566000000E+00 0.  1.
     999900   -1    0    0    0    0 -0.00000000000E+00 -0.00000000000E+00 -0.74505805969E-08  0.93827000000E+00  0.93827000000E+00 0. -1.
     999902    2    1    2    0    0 -0.18240013058E-01  0.46754935027E-02  0.14370826480E-01  0.10202428944E+01  0.10199678841E+01 0.  0.
     999903    2    3    3    0    0  0.90949860696E-01  0.11643147821E-01 -0.86654291450E-01  0.12773124119E+00  0.19971572257E-01 0.  0.
         14    1    1    2    0    0  0.18240013058E-01 -0.46754935027E-02 -0.14370826480E-01  0.23687105554E-01  0.00000000000E+00 0. -1.
     999901    1    3    3    0    0 -0.10918987375E+00 -0.69676543183E-02  0.10102511793E+00  0.89251165325E+00  0.88000000000E+00 0.  1.
        -11    1    4    4    0    0  0.68233678378E-01  0.94757648645E-02 -0.52335828453E-01  0.86515461309E-01  0.51100000000E-03 0.  1.
         11    1    4    4    0    0  0.22716182319E-01  0.21673829565E-02 -0.34318462998E-01  0.41215779885E-01  0.51100000000E-03 0. -1.
</event>
<event>
 8    1  0.1202249E+005  0.1043930E+01  0.7957747E-01            NaN
         13   -1    0    0    0    0  0.00000000000E+00  0.00000000000E+00  0.74505805969E-08  0.10566000000E+00  0.10566000000E+00 0.  1.
     999900   -1    0    0    0    0 -0.00000000000E+00 -0.00000000000E+00 -0.74505805969E-08  0.93827000000E+00  0.93827000000E+00 0.  1.
     999902    2    1    2    0    0 -0.37288832285E-02  0.61812629853E-02 -0.22672662867E-01  0.10201358364E+01  0.10198583051E+01 0.  0.
     999903    2    3    3    0    0  0.12755409241E+00 -0.10557177108E-01 -0.12566810323E-01  0.13018217277E+00  0.20198339216E-01 0.  0.
         14    1    1    2    0    0  0.37288832285E-02 -0.61812629853E-02  0.22672662867E-01  0.23794163648E-01  0.00000000000E+00 0.  1.
     999901    1    3    3    0    0 -0.13128297563E+00  0.16738440094E-01 -0.10105852544E-01  0.88995366358E+00  0.88000000000E+00 0. -1.
        -11    1    4    4    0    0  0.80921542200E-01  0.17762134270E-02 -0.12765579353E-01  0.81943102598E-01  0.51100000000E-03 0.  1.
         11    1    4    4    0    0  0.46632550206E-01 -0.12333390535E-01  0.19876902983E-03  0.48239070171E-01  0.51100000000E-03 0. -1.
</event>
<event>
 8    1  0.1202249E+005  0.1043930E+01  0.7957747E-01            NaN
         13   -1    0    0    0    0  0.00000000000E+00  0.00000000000E+00  0.74505805969E-08  0.10566000000E+00  0.10566000000E+00 0. -1.
     999900   -1    0    0    0    0 -0.00000000000E+00 -0.00000000000E+00 -0.74505805969E-08  0.93827000000E+00  0.93827000000E+00 0.  1.
     999902    2    1    2    0    0 -0.93049302799E-02  0.30381552761E-01 -0.51581996253E-02  0.10117395123E+01  0.10112272807E+01 0.  0.
     999903    2    3    3    0    0 -0.89179964956E-01  0.86043203491E-01 -0.23848432646E-02  0.12636618310E+00  0.24621651819E-01 0.  0.
         14    1    1    2    0    0  0.93049302799E-02 -0.30381552761E-01  0.51581996253E-02  0.32190487711E-01  0.00000000000E+00 0.  1.
     999901    1    3    3    0    0  0.79875034676E-01 -0.55661650730E-01 -0.27733563607E-02  0.88537332918E+00  0.88000000000E+00 0.  1.
        -11    1    4    4    0    0 -0.79337690045E-01  0.65720770269E-01 -0.71898625471E-02  0.10327460458E+00  0.51100000000E-03 0.  1.
         11    1    4    4    0    0 -0.98422749111E-02  0.20322433222E-01  0.48050192825E-02  0.23091578525E-01  0.51100000000E-03 0. -1.
</event>
<event>
 8    1  0.1202249E+005  0.1043930E+01  0.7957747E-01            NaN
         13   -1    0    0    0    0  0.00000000000E+00  0.00000000000E+00  0.74505805969E-08  0.10566000000E+00  0.10566000000E+00 0. -1.
     999900   -1    0    0    0    0 -0.00000000000E+00 -0.00000000000E+00 -0.74505805969E-08  0.93827000000E+00  0.93827000000E+00 0.  1.
     999902    2    1    2    0    0  0.19563527524E-01 -0.41221266543E-02  0.17602230743E-01  0.10172923938E+01  0.10169435837E+01 0.  0.
     999903    2    3    3    0    0 -0.85365718327E-01 -0.76120862802E-01  0.52698310130E-01  0.12744650858E+00  0.19591044876E-01 0.  0.
         14    1    1    2    0    0 -0.19563527524E-01  0.41221266543E-02 -0.17602230743E-01  0.26637606208E-01  0.00000000000E+00 0. -1.
     999901    1    3    3    0    0  0.10492924585E+00  0.71998736148E-01 -0.35096079387E-01  0.88984588521E+00  0.88000000000E+00 0. -1.
        -11    1    4    4    0    0 -0.33696064484E-01 -0.34527602508E-01  0.32249971649E-01  0.58033627226E-01  0.51100000000E-03 0. -1.
         11    1    4    4    0    0 -0.51669653843E-01 -0.41593260294E-01  0.20448338481E-01  0.69412881353E-01  0.51100000000E-03 0.  1.
</event>
<event>
 8    1  0.1202249E+005  0.1043930E+01  0.7957747E-01            NaN
         13   -1    0    0    0    0  0.00000000000E+00  0.00000000000E+00  0.74505805969E-08  0.10566000000E+00  0.10566000000E+00 0.  1.
     999900   -1    0    0    0    0 -0.00000000000E+00 -0.00000000000E+00 -0.74505805969E-08  0.93827000000E+00  0.93827000000E+00 0. -1.
     999902    2    1    2    0    0  0.23142414853E-02  0.10134233916E-01 -0.20744367345E-01  0.10207268281E+01  0.10204630666E+01 0.  0.
     999903    2    3    3    0    0 -0.32208201253E-01 -0.12339081729E+00 -0.15872434076E-01  0.12997182580E+00  0.19444261842E-01 0.  0.
         14    1    1    2    0    0 -0.23142414853E-02 -0.10134233916E-01  0.20744367345E-01  0.23203171922E-01  0.00000000000E+00 0.  1.
     999901    1    3    3    0    0  0.34522442738E-01  0.13352505121E+00 -0.48719332687E-02  0.89075500228E+00  0.88000000000E+00 0.  1.
        -11    1    4    4    0    0 -0.30367223374E-01 -0.80741789594E-01 -0.12178704593E-01  0.87120530352E-01  0.51100000000E-03 0. -1.
         11    1    4    4    0    0 -0.18409778783E-02 -0.42649027696E-01 -0.36937294834E-02  0.42851295446E-01  0.51100000000E-03 0.  1.
</event>
<event>
 8    1  0.1202249E+005  0.1043930E+01  0.7957747E-01            NaN
         13   -1    0    0    0    0  0.00000000000E+00  0.00000000000E+00  0.74505805969E-08  0.10566000000E+00  0.10566000000E+00 0.  1.
     999900   -1    0    0    0    0 -0.00000000000E+00 -0.00000000000E+00 -0.74505805969E-08  0.93827000000E+00  0.93827000000E+00 0. -1.
     999902    2    1    2    0    0 -0.18881683351E-01 -0.77621838744E-02 -0.11572193909E-01  0.10204633186E+01  0.10201934618E+01 0.  0.
     999903    2    3    3    0    0  0.66600038066E-01  0.43421929687E-01  0.98366306549E-01  0.12804334343E+00  0.19953407835E-01 0.  0.
         14    1    1    2    0    0  0.18881683351E-01  0.77621838744E-02  0.11572193909E-01  0.23466681413E-01  0.00000000000E+00 0.  1.
     999901    1    3    3    0    0 -0.85481721417E-01 -0.51184113562E-01 -0.10993850046E+00  0.89241997516E+00  0.88000000000E+00 0.  1.
        -11    1    4    4    0    0  0.10764307692E-01  0.17116510967E-01  0.23069212441E-01  0.30680530495E-01  0.51100000000E-03 0.  1.
         11    1    4    4    0    0  0.55835730373E-01  0.26305418720E-01  0.75297094109E-01  0.97362812935E-01  0.51100000000E-03 0. -1.
</event>
<event>
 8    1  0.1202249E+005  0.1043930E+01  0.7957747E-01            NaN
         13   -1    0    0    0    0  0.00000000000E+00  0.00000000000E+00  0.74505805969E-08  0.10566000000E+00  0.10566000000E+00 0.  1.
     999900   -1    0    0    0    0 -0.00000000000E+00 -0.00000000000E+00 -0.74505805969E-08  0.93827000000E+00  0.93827000000E+00 0. -1.
     999902    2    1    2    0    0 -0.21572378307E-01 -0.78930180214E-02 -0.93801533229E-02  0.10191176137E+01  0.10188155162E+01 0.  0.
     999903    2    3    3    0    0  0.22638397790E-01 -0.12494905543E+00 -0.21671158197E-01  0.13018129569E+00  0.18782096313E-01 0.  0.
         14    1    1    2    0    0  0.21572378307E-01  0.78930180214E-02  0.93801533229E-02  0.24812386335E-01  0.00000000000E+00 0.  1.
     999901    1    3    3    0    0 -0.44210776097E-01  0.11705603741E+00  0.12291004874E-01  0.88893631798E+00  0.88000000000E+00 0. -1.
        -11    1    4    4    0    0  0.12789980557E-02 -0.65679409463E-02 -0.57525097241E-02  0.88389011436E-02  0.51100000000E-03 0. -1.
         11    1    4    4    0    0  0.21359399735E-01 -0.11838111448E+00 -0.15918648473E-01  0.12134239454E+00  0.51100000000E-03 0.  1.
</event>
<event>
 8    1  0.1202249E+005  0.1043930E+01  0.7957747E-01            NaN
         13   -1    0    0    0    0  0.00000000000E+00  0.00000000000E+00  0.74505805969E-08  0.10566000000E+00  0.10566000000E+00 0. -1.
     999900   -1    0    0    0    0 -0.00000000000E+00 -0.00000000000E+00 -0.74505805969E-08  0.93827000000E+00  0.93827000000E+00 0. -1.
     999902    2    1    2    0    0 -0.14122110348E-01  0.94988685697E-03  0.16330378457E-01  0.10223194112E+01  0.10220909749E+01 0.  0.
     999903    2    3    3    0    0 -0.28544847563E-01  0.88137307848E-01  0.94919081523E-01  0.13440846640E+00  0.21748803321E-01 0.  0.
         14    1    1    2    0    0  0.14122110348E-01 -0.94988685697E-03 -0.16330378457E-01  0.21610588753E-01  0.00000000000E+00 0.  1.
     999901    1    3    3    0    0  0.14422737215E-01 -0.87187420991E-01 -0.78588703067E-01  0.88791094485E+00  0.88000000000E+00 0. -1.
        -11    1    4    4    0    0 -0.15331329590E-02  0.34333385168E-01  0.27489619388E-01  0.44012181596E-01  0.51100000000E-03 0.  1.
         11    1    4    4    0    0 -0.27011714604E-01  0.53803922680E-01  0.67429462135E-01  0.90396284804E-01  0.51100000000E-03 0. -1.
</event>
<event>
 8    1  0.1202249E+005  0.1043930E+01  0.7957747E-01            NaN
         13   -1    0    0    0    0  0.00000000000E+00  0.00000000000E+00  0.74505805969E-08  0.10566000000E+00  0.10566000000E+00 0. -1.
     999900   -1    0    0    0    0 -0.00000000000E+00 -0.00000000000E+00 -0.74505805969E-08  0.93827000000E+00  0.93827000000E+00 0. -1.
     999902    2    1    2    0    0  0.58626254104E-02  0.18292716181E-01 -0.13955266421E-01  0.10201867209E+01  0.10199103893E+01 0.  0.
     999903    2    3    3    0    0  0.83357709299E-01 -0.60087379532E-01 -0.79134395984E-01  0.13091890613E+00  0.17846749765E-01 0.  0.
         14    1    1    2    0    0 -0.58626254104E-02 -0.18292716181E-01  0.13955266421E-01  0.23743279109E-01  0.00000000000E+00 0. -1.
     999901    1    3    3    0    0 -0.77495083888E-01  0.78380095713E-01  0.65179129564E-01  0.88926781476E+00  0.88000000000E+00 0. -1.
        -11    1    4    4    0    0  0.43161510648E-01 -0.25305557030E-01 -0.28909404743E-01  0.57786694157E-01  0.51100000000E-03 0.  1.
         11    1    4    4    0    0  0.40196198651E-01 -0.34781822502E-01 -0.50224991242E-01  0.73132211978E-01  0.51100000000E-03 0. -1.
</event>
<event>
 8    1  0.1202249E+005  0.1043930E+01  0.7957747E-01            NaN
         13   -1    0    0    0    0  0.00000000000E+00  0.00000000000E+00  0.74505805969E-08  0.10566000000E+00  0.10566000000E+00 0.  1.
     999900   -1    0    0    0    0 -0.00000000000E+00 -0.00000000000E+00 -0.74505805969E-08  0.93827000000E+00  0.93827000000E+00 0. -1.
     999902    2    1    2    0    0 -0.14941090190E-01  0.44909458642E-03 -0.18014970579E-01  0.10205210909E+01  0.10202525765E+01 0.  0.
     999903    2    3    3    0    0 -0.44664612735E-01 -0.14021918241E-01  0.11879867786E+00  0.12933599651E+00  0.20570180116E-01 0.  0.
         14    1    1    2    0    0  0.14941090190E-01 -0.44909458642E-03  0.18014970579E-01  0.23408909137E-01  0.00000000000E+00 0.  1.
     999901    1    3    3    0    0  0.29723522545E-01  0.14471012828E-01 -0.13681364844E+00  0.89118509436E+00  0.88000000000E+00 0. -1.
        -11    1    4    4    0    0 -0.33264738769E-01 -0.19265979775E-01  0.93378371035E-01  0.10098268228E+00  0.51100000000E-03 0. -1.
         11    1    4    4    0    0 -0.11399873966E-01  0.52440615336E-02  0.25420306821E-01  0.28353314227E-01  0.51100000000E-03 0.  1.
</event>
<event>
 8    1  0.1202249E+005  0.1043930E+01  0.7957747E-01            NaN
         13   -1    0    0    0    0  0.00000000000E+00  0.00000000000E+00  0.74505805969E-08  0.10566000000E+00  0.10566000000E+00 0. -1.
     999900   -1    0    0    0    0 -0.00000000000E+00 -0.00000000000E+00 -0.74505805969E-08  0.93827000000E+00  0.93827000000E+00 0. -1.
     999902    2    1    2    0    0 -0.17625133615E-01  0.89469287045E-03  0.15412444427E-01  0.10204994803E+01  0.10202304642E+01 0.  0.
     999903    2    3    3    0    0  0.68821838579E-01  0.24957021193E-01 -0.10317447161E+00  0.12802262833E+00  0.19634749783E-01 0.  0.
         14    1    1    2    0    0  0.17625133615E-01 -0.89469287045E-03 -0.15412444427E-01  0.23430519702E-01  0.00000000000E+00 0.  1.
     999901    1    3    3    0    0 -0.86446972194E-01 -0.24062328323E-01  0.11858691604E+00  0.89247685197E+00  0.88000000000E+00 0.  1.
        -11    1    4    4    0    0  0.36994196772E-01  0.23561316100E-01 -0.57047057468E-01  0.71960642701E-01  0.51100000000E-03 0. -1.
         11    1    4    4    0    0  0.31827641807E-01  0.13957050934E-02 -0.46127414146E-01  0.56061985627E-01  0.51100000000E-03 0.  1.
</event>
<event>
 8    1  0.1202249E+005  0.1043930E+01  0.7957747E-01            NaN
         13   -1    0    0    0    0  0.00000000000E+00  0.00000000000E+00  0.74505805969E-08  0.10566000000E+00  0.10566000000E+00 0.  1.
     999900   -1    0    0    0    0 -0.00000000000E+00 -0.00000000000E+00 -0.74505805969E-08  0.93827000000E+00  0.93827000000E+00 0.  1.
     999902    2    1    2    0    0 -0.18301486622E-01 -0.15594982650E-01 -0.93287950464E-03  0.10198672038E+01  0.10195832949E+01 0.  0.
     999903    2    3    3    0    0 -0.98427415862E-02 -0.10366938404E+00  0.78362288732E-01  0.13188275898E+00  0.20203788571E-01 0.  0.
         14    1    1    2    0    0  0.18301486622E-01  0.15594982650E-01  0.93287950464E-03  0.24062796192E-01  0.00000000000E+00 0.  1.
     999901    1    3    3    0    0 -0.84587450358E-02  0.88074401388E-01 -0.79295168237E-01  0.88798444483E+00  0.88000000000E+00 0.  1.
        -11    1    4    4    0    0 -0.20694368791E-02 -0.86624794876E-01  0.58351082071E-01  0.10446649011E+00  0.51100000000E-03 0.  1.
         11    1    4    4    0    0 -0.77733047071E-02 -0.17044589162E-01  0.20011206660E-01  0.27416268871E-01  0.51100000000E-03 0. -1.
</event>
<event>
 8    1  0.1202249E+005  0.1043930E+01  0.7957747E-01            NaN
         13   -1    0    0    0    0  0.00000000000E+00  0.00000000000E+00  0.74505805969E-08  0.10566000000E+00  0.10566000000E+00 0. -1.
     999900   -1    0    0    0    0 -0.00000000000E+00 -0.00000000000E+00 -0.74505805969E-08  0.93827000000E+00  0.93827000000E+00 0.  1.
     999902    2    1    2    0    0  0.22852137934E-01 -0.18494497163E-02  0.56696664198E-02  0.10203125109E+01  0.10200391337E+01 0.  0.
     999903    2    3    3    0    0  0.62403077636E-02 -0.11061899194E+00  0.67602872997E-01  0.13130042536E+00  0.19853222508E-01 0.  0.
         14    1    1    2    0    0 -0.22852137934E-01  0.18494497163E-02 -0.56696664198E-02  0.23617489065E-01  0.00000000000E+00 0. -1.
     999901    1    3    3    0    0  0.16611830170E-01  0.10876954223E+00 -0.61933206577E-01  0.88901208557E+00  0.88000000000E+00 0. -1.
        -11    1    4    4    0    0  0.10106554470E-01 -0.77032604587E-01  0.55106278645E-01  0.95252966777E-01  0.51100000000E-03 0. -1.
         11    1    4    4    0    0 -0.38662467060E-02 -0.33586387354E-01  0.12496594351E-01  0.36047458585E-01  0.51100000000E-03 0.  1.
</event>
<event>
 8    1  0.1202249E+005  0.1043930E+01  0.7957747E-01            NaN
         13   -1    0    0    0    0  0.00000000000E+00  0.00000000000E+00  0.74505805969E-08  0.10566000000E+00  0.10566000000E+00 0. -1.
     999900   -1    0    0    0    0 -0.00000000000E+00 -0.00000000000E+00 -0.74505805969E-08  0.93827000000E+00  0.93827000000E+00 0.  1.
     999902    2    1    2    0    0  0.47008806961E-02  0.17798009319E-01  0.13388842603E-01  0.10211675634E+01  0.10209138377E+01 0.  0.
     999903    2    3    3    0    0  0.10969276802E-01 -0.60927705653E-01  0.11463792981E+00  0.13184849316E+00  0.20240055516E-01 0.  0.
         14    1    1    2    0    0 -0.47008806961E-02 -0.17798009319E-01 -0.13388842603E-01  0.22762436629E-01  0.00000000000E+00 0.  1.
     999901    1    3    3    0    0 -0.62683961055E-02  0.78725714972E-01 -0.10124908721E+00  0.88931907021E+00  0.88000000000E+00 0.  1.
        -11    1    4    4    0    0 -0.10825675957E-02 -0.20501331254E-01  0.22219297157E-01  0.30256153473E-01  0.51100000000E-03 0. -1.
         11    1    4    4    0    0  0.12051844397E-01 -0.40426374399E-01  0.92418632651E-01  0.10159233968E+00  0.51100000000E-03 0.  1.
</event>
<event>
 7    1  0.1202249E+005  0.1043930E+01  0.7957747E-01            NaN
         13   -1    0    0    0    0  0.00000000000E+00  0.00000000000E+00  0.74505805969E-08  0.10566000000E+00  0.10566000000E+00 0. -1.
     999900   -1    0    0    0    0 -0.00000000000E+00 -0.00000000000E+00 -0.74505805969E-08  0.93827000000E+00  0.93827000000E+00 0.  1.
     999903    2    1    2    0    0  0.82170093370E-01 -0.56420517101E-01  0.47824852172E-01  0.11252964804E+00  0.20988239781E-01 0.  0.
         14    1    1    2    0    0  0.29614080774E-01 -0.12252892857E-01  0.22101979506E-01  0.38931024409E-01  0.00000000000E+00 0. -1.
     999901    1    1    2    0    0 -0.11178417414E+00  0.68673409958E-01 -0.69926831678E-01  0.89246932755E+00  0.88000000000E+00 0. -1.
        -11    1    3    3    0    0  0.87167107413E-02 -0.13750039704E-01  0.33013104569E-02  0.16619398598E-01  0.51100000000E-03 0.  1.
         11    1    3    3    0    0  0.73453382629E-01 -0.42670477396E-01  0.44523541715E-01  0.95910249446E-01  0.51100000000E-03 0. -1.
</event>
<event>
 8    1  0.1202249E+005  0.1043930E+01  0.7957747E-01            NaN
         13   -1    0    0    0    0  0.00000000000E+00  0.00000000000E+00  0.74505805969E-08  0.10566000000E+00  0.10566000000E+00 0. -1.
     999900   -1    0    0    0    0 -0.00000000000E+00 -0.00000000000E+00 -0.74505805969E-08  0.93827000000E+00  0.93827000000E+00 0. -1.
     999902    2    1    2    0    0  0.24606222061E-01  0.26036315759E-02 -0.16208101653E-02  0.10191333856E+01  0.10188316767E+01 0.  0.
     999903    2    3    3    0    0 -0.10995301367E+00 -0.24486578466E-01  0.54050154247E-01  0.12675492120E+00  0.21357273567E-01 0.  0.
         14    1    1    2    0    0 -0.24606222061E-01 -0.26036315759E-02  0.16208101653E-02  0.24796614428E-01  0.00000000000E+00 0. -1.
     999901    1    3    3    0    0  0.13455923573E+00  0.27090210041E-01 -0.55670964412E-01  0.89237846437E+00  0.88000000000E+00 0. -1.
        -11    1    4    4    0    0 -0.43835503811E-01 -0.19550691762E-01  0.17842962138E-01  0.51209504602E-01  0.51100000000E-03 0.  1.
         11    1    4    4    0    0 -0.66117509858E-01 -0.49358867032E-02  0.36207192108E-01  0.75545416596E-01  0.51100000000E-03 0. -1.
</event>
<event>
 8    1  0.1202249E+005  0.1043930E+01  0.7957747E-01            NaN
         13   -1    0    0    0    0  0.00000000000E+00  0.00000000000E+00  0.74505805969E-08  0.10566000000E+00  0.10566000000E+00 0. -1.
     999900   -1    0    0    0    0 -0.00000000000E+00 -0.00000000000E+00 -0.74505805969E-08  0.93827000000E+00  0.93827000000E+00 0. -1.
     999902    2    1    2    0    0 -0.21126916398E-01  0.10365179754E-01 -0.65708378531E-02  0.10194972462E+01  0.10192044327E+01 0.  0.
     999903    2    3    3    0    0  0.52478857380E-01 -0.11332871033E+00  0.15414815638E-01  0.12753236050E+00  0.20723401633E-01 0.  0.
         14    1    1    2    0    0  0.21126916398E-01 -0.10365179754E-01  0.65708378531E-02  0.24432753794E-01  0.00000000000E+00 0. -1.
     999901    1    3    3    0    0 -0.73605773778E-01  0.12369389009E+00 -0.21985653491E-01  0.89196488571E+00  0.88000000000E+00 0. -1.
        -11    1    4    4    0    0  0.33142631278E-02 -0.17511771879E-01 -0.35498029664E-02  0.18179898694E-01  0.51100000000E-03 0.  1.
         11    1    4    4    0    0  0.49164594252E-01 -0.95816938454E-01  0.18964618604E-01  0.10935246180E+00  0.51100000000E-03 0. -1.
</event>
<event>
 8    1  0.1202249E+005  0.1043930E+01  0.7957747E-01            NaN
         13   -1    0    0    0    0  0.00000000000E+00  0.00000000000E+00  0.74505805969E-08  0.10566000000E+00  0.10566000000E+00 0.  1.
     999900   -1    0    0    0    0 -0.00000000000E+00 -0.00000000000E+00 -0.74505805969E-08  0.93827000000E+00  0.93827000000E+00 0.  1.
     999902    2    1    2    0    0 -0.23335862305E-01 -0.16625270542E-02  0.85873556573E-03  0.10205192355E+01  0.10202506781E+01 0.  0.
     999903    2    3    3    0    0  0.25728569811E-01 -0.19547278145E-01 -0.12434511876E+00  0.13012427376E+00  0.20653393807E-01 0.  0.
         14    1    1    2    0    0  0.23335862305E-01  0.16625270542E-02 -0.85873556573E-03  0.23410764458E-01  0.00000000000E+00 0. -1.
     999901    1    3    3    0    0 -0.49064432116E-01  0.17884751091E-01  0.12520385433E+00  0.89039496178E+00  0.88000000000E+00 0. -1.
        -11    1    4    4    0    0  0.15739952041E-01  0.33513962396E-03 -0.60246310612E-01  0.62271482014E-01  0.51100000000E-03 0. -1.
         11    1    4    4    0    0  0.99886177695E-02 -0.19882417769E-01 -0.64098808149E-01  0.67852791751E-01  0.51100000000E-03 0.  1.
</event>
<event>
 8    1  0.1202249E+005  0.1043930E+01  0.7957747E-01            NaN
         13   -1    0    0    0    0  0.00000000000E+00  0.00000000000E+00  0.74505805969E-08  0.10566000000E+00  0.10566000000E+00 0. -1.
     999900   -1    0    0    0    0 -0.00000000000E+00 -0.00000000000E+00 -0.74505805969E-08  0.93827000000E+00  0.93827000000E+00 0. -1.
     999902    2    1    2    0    0 -0.32045228314E-02  0.25257425598E-01 -0.36232565563E-02  0.10182135752E+01  0.10178887711E+01 0.  0.
     999903    2    3    3    0    0 -0.80961706248E-01  0.97770334833E-01  0.26569450636E-01  0.13129988093E+00  0.20491138915E-01 0.  0.
         14    1    1    2    0    0  0.32045228314E-02 -0.25257425598E-01  0.36232565563E-02  0.25716424761E-01  0.00000000000E+00 0.  1.
     999901    1    3    3    0    0  0.77757183417E-01 -0.72512909235E-01 -0.30192707192E-01  0.88691369431E+00  0.88000000000E+00 0. -1.
        -11    1    4    4    0    0 -0.31518968095E-01  0.41472209298E-01  0.91443209313E-03  0.52100737047E-01  0.51100000000E-03 0. -1.
         11    1    4    4    0    0 -0.49442738154E-01  0.56298125535E-01  0.25655018543E-01  0.79199143886E-01  0.51100000000E-03 0.  1.
</event>
<event>
 8    1  0.1202249E+005  0.1043930E+01  0.7957747E-01            NaN
         13   -1    0    0    0    0  0.00000000000E+00  0.00000000000E+00  0.74505805969E-08  0.10566000000E+00  0.10566000000E+00 0. -1.
     999900   -1    0    0    0    0 -0.00000000000E+00 -0.00000000000E+00 -0.74505805969E-08  0.93827000000E+00  0.93827000000E+00 0.  1.
     999902    2    1    2    0    0  0.20556621485E-01  0.15382634601E-02  0.10982597388E-01  0.10205728087E+01  0.10203054932E+01 0.  0.
     999903    2    3    3    0    0 -0.10123424103E+00  0.30149219550E-01  0.72610466975E-01  0.12959043213E+00  0.19080177868E-01 0.  0.
         14    1    1    2    0    0 -0.20556621485E-01 -0.15382634601E-02 -0.10982597388E-01  0.23357191329E-01  0.00000000000E+00 0.  1.
     999901    1    3    3    0    0  0.12179086252E+00 -0.28610956090E-01 -0.61627869587E-01  0.89098237654E+00  0.88000000000E+00 0.  1.
        -11    1    4    4    0    0 -0.26482168312E-01  0.11124597678E-01  0.29703417911E-01  0.41323311443E-01  0.51100000000E-03 0. -1.
         11    1    4    4    0    0 -0.74752072722E-01  0.19024621871E-01  0.42907049064E-01  0.88267120685E-01  0.51100000000E-03 0.  1.
</event>
<event>
 8    1  0.1202249E+005  0.1043930E+01  0.7957747E-01            NaN
         13   -1    0    0    0    0  0.00000000000E+00  0.00000000000E+00  0.74505805969E-08  0.10566000000E+00  0.10566000000E+00 0.  1.
     999900   -1    0    0    0    0 -0.00000000000E+00 -0.00000000000E+00 -0.74505805969E-08  0.93827000000E+00  0.93827000000E+00 0. -1.
     999902    2    1    2    0    0  0.18152781009E-01  0.11972203572E-01  0.91247867663E-02  0.10203478277E+01  0.10200752770E+01 0.  0.
     999903    2    3    3    0    0  0.45891441724E-01 -0.11463089785E+00  0.37307266371E-01  0.13040848665E+00  0.19190469051E-01 0.  0.
         14    1    1    2    0    0 -0.18152781009E-01 -0.11972203572E-01 -0.91247867663E-02  0.23582172297E-01  0.00000000000E+00 0.  1.
     999901    1    3    3    0    0 -0.27738660715E-01  0.12660310142E+00 -0.28182479605E-01  0.88993934105E+00  0.88000000000E+00 0. -1.
        -11    1    4    4    0    0  0.22563606570E-01 -0.66197134545E-01  0.30195693834E-01  0.76178855403E-01  0.51100000000E-03 0.  1.
         11    1    4    4    0    0  0.23327835154E-01 -0.48433763304E-01  0.71115725369E-02  0.54229631252E-01  0.51100000000E-03 0. -1.
</event>
<event>
 8    1  0.1202249E+005  0.1043930E+01  0.7957747E-01            NaN
         13   -1    0    0    0    0  0.00000000000E+00  0.00000000000E+00  0.74505805969E-08  0.10566000000E+00  0.10566000000E+00 0.  1.
     999900   -1    0    0    0    0 -0.00000000000E+00 -0.00000000000E+00 -0.74505805969E-08  0.93827000000E+00  0.93827000000E+00 0.  1.
     999902    2    1    2    0    0  0.34387464832E-02  0.71898467166E-05  0.22820923747E-01  0.10208514474E+01  0.10205905438E+01 0.  0.
     999903    2    3    3    0    0 -0.39127821419E-01 -0.52627887520E-01  0.11448644795E+00  0.13350431556E+00  0.20385645836E-01 0.  0.
         14    1    1    2    0    0 -0.34387464832E-02 -0.71898467166E-05 -0.22820923747E-01  0.23078552592E-01  0.00000000000E+00 0. -1.
     999901    1    3    3    0    0  0.42566567902E-01  0.52635077366E-01 -0.91665524199E-01  0.88734713185E+00  0.88000000000E+00 0.  1.
        -11    1    4    4    0    0 -0.30226348370E-01 -0.48051153410E-01  0.83768181579E-01  0.10119246437E+00  0.51100000000E-03 0. -1.
         11    1    4    4    0    0 -0.89014730483E-02 -0.45767341091E-02  0.30718266367E-01  0.32311851187E-01  0.51100000000E-03 0.  1.
</event>
<event>
 8    1  0.1202249E+005  0.1043930E+01  0.7957747E-01            NaN
         13   -1    0    0    0    0  0.00000000000E+00  0.00000000000E+00  0.74505805969E-08  0.10566000000E+00  0.10566000000E+00 0.  1.
     999900   -1    0    0    0    0 -0.00000000000E+00 -0.00000000000E+00 -0.74505805969E-08  0.93827000000E+00  0.93827000000E+00 0. -1.
     999902    2    1    2    0    0 -0.16627985806E-01  0.11461106503E-01  0.10413949127E-01  0.10212078256E+01  0.10209550067E+01 0.  0.
     999903    2    3    3    0    0 -0.96641988455E-01  0.85785027815E-01 -0.27541214372E-01  0.13364550081E+00  0.20096180453E-01 0.  0.
         14    1    1    2    0    0  0.16627985806E-01 -0.11461106503E-01 -0.10413949127E-01  0.22722174426E-01  0.00000000000E+00 0. -1.
     999901    1    3    3    0    0  0.80014002649E-01 -0.74323921312E-01  0.37955163499E-01  0.88756232476E+00  0.88000000000E+00 0.  1.
        -11    1    4    4    0    0 -0.60243438373E-01  0.65935794038E-01 -0.18657051256E-01  0.91242246164E-01  0.51100000000E-03 0. -1.
         11    1    4    4    0    0 -0.36398550082E-01  0.19849233776E-01 -0.88841631152E-02  0.42403254649E-01  0.51100000000E-03 0.  1.
</event>
<event>
 8    1  0.1202249E+005  0.1043930E+01  0.7957747E-01            NaN
         13   -1    0    0    0    0  0.00000000000E+00  0.00000000000E+00  0.74505805969E-08  0.10566000000E+00  0.10566000000E+00 0. -1.
     999900   -1    0    0    0    0 -0.00000000000E+00 -0.00000000000E+00 -0.74505805969E-08  0.93827000000E+00  0.93827000000E+00 0.  1.
     999902    2    1    2    0    0 -0.12123083737E-01 -0.42309374142E-03 -0.20185489945E-01  0.10203800070E+01  0.10201082082E+01 0.  0.
     999903    2    3    3    0    0  0.96006109662E-01 -0.84439165489E-01  0.32258335834E-02  0.12948230641E+00  0.20201878903E-01 0.  0.
         14    1    1    2    0    0  0.12123083737E-01  0.42309374142E-03  0.20185489945E-01  0.23549993034E-01  0.00000000000E+00 0. -1.
     999901    1    3    3    0    0 -0.10812919340E+00  0.84016071748E-01 -0.23411323528E-01  0.89089770055E+00  0.88000000000E+00 0.  1.
        -11    1    4    4    0    0  0.61860166439E-01 -0.65161463834E-01 -0.23034360309E-02  0.89879160540E-01  0.51100000000E-03 0.  1.
         11    1    4    4    0    0  0.34145943223E-01 -0.19277701656E-01  0.55292696143E-02  0.39603145875E-01  0.51100000000E-03 0. -1.
</event>
<event>
 8    1  0.1202249E+005  0.1043930E+01  0.7957747E-01            NaN
         13   -1    0    0    0    0  0.00000000000E+00  0.00000000000E+00  0.74505805969E-08  0.10566000000E+00  0.10566000000E+00 0. -1.
     999900   -1    0    0    0    0 -0.00000000000E+00 -0.00000000000E+00 -0.74505805969E-08  0.93827000000E+00  0.93827000000E+00 0. -1.
     999902    2    1    2    0    0  0.13441836421E-01  0.18704970541E-01  0.47690981934E-02  0.10204076024E+01  0.10201364477E+01 0.  0.
     999903    2    3    3    0    0  0.65361577755E-01 -0.10665594057E+00  0.28530227152E-01  0.12969125656E+00  0.18926770997E-01 0.  0.
         14    1    1    2    0    0 -0.13441836421E-01 -0.18704970541E-01 -0.47690981934E-02  0.23522397559E-01  0.00000000000E+00 0. -1.
     999901    1    3    3    0    0 -0.51919741334E-01  0.12536091111E+00 -0.23761128958E-01  0.89071634588E+00  0.88000000000E+00 0. -1.
        -11    1    4    4    0    0  0.10998397010E-01 -0.11113672148E-01  0.89832127107E-02  0.18039891269E-01  0.51100000000E-03 0. -1.
         11    1    4    4    0    0  0.54363180746E-01 -0.95542268423E-01  0.19547014441E-01  0.11165136529E+00  0.51100000000E-03 0.  1.
</event>
<event>
 7    1  0.1202249E+005  0.1043930E+01  0.7957747E-01            NaN
         13   -1    0    0    0    0  0.00000000000E+00  0.00000000000E+00  0.74505805969E-08  0.10566000000E+00  0.10566000000E+00 0.  1.
     999900   -1    0    0    0    0 -0.00000000000E+00 -0.00000000000E+00 -0.74505805969E-08  0.93827000000E+00  0.93827000000E+00 0.  1.
     999903    2    1    2    0    0 -0.91237685759E-01 -0.16955895114E-01 -0.59143595782E-01  0.11183311047E+00  0.19921395362E-01 0.  0.
         14    1    1    2    0    0 -0.17874975828E-01 -0.19359555572E-01 -0.30258276088E-01  0.40123190609E-01  0.00000000000E+00 0. -1.
     999901    1    1    2    0    0  0.10911266159E+00  0.36315450686E-01  0.89401871870E-01  0.89197369892E+00  0.88000000000E+00 0.  1.
        -11    1    3    3    0    0 -0.45182244962E-01 -0.17194289869E-01 -0.36062785370E-01  0.60314711917E-01  0.51100000000E-03 0.  1.
         11    1    3    3    0    0 -0.46055440797E-01  0.23839475507E-03 -0.23080810412E-01  0.51518398551E-01  0.51100000000E-03 0. -1.
</event>
<event>
 8    1  0.1202249E+005  0.1043930E+01  0.7957747E-01            NaN
         13   -1    0    0    0    0  0.00000000000E+00  0.00000000000E+00  0.74505805969E-08  0.10566000000E+00  0.10566000000E+00 0.  1.
     999900   -1    0    0    0    0 -0.00000000000E+00 -0.00000000000E+00 -0.74505805969E-08  0.93827000000E+00  0.93827000000E+00 0. -1.
     999902    2    1    2    0    0 -0.22378067163E-01  0.83957041312E-02 -0.43797793521E-02  0.10196308600E+01  0.10193412787E+01 0.  0.
     999903    2    3    3    0    0  0.53646683185E-01  0.11098681376E+00 -0.35630509922E-01  0.12986611210E+00  0.19990857646E-01 0.  0.
         14    1    1    2    0    0  0.22378067163E-01 -0.83957041312E-02  0.43797793521E-02  0.24299140005E-01  0.00000000000E+00 0. -1.
     999901    1    3    3    0    0 -0.76024750348E-01 -0.10259110963E+00  0.31250730570E-01  0.88976474790E+00  0.88000000000E+00 0.  1.
        -11    1    4    4    0    0  0.31957379780E-01  0.51891256957E-01 -0.93888951565E-02  0.61663515503E-01  0.51100000000E-03 0. -1.
         11    1    4    4    0    0  0.21689303404E-01  0.59095556800E-01 -0.26241614766E-01  0.68202596594E-01  0.51100000000E-03 0.  1.
</event>
<event>
 8    1  0.1202249E+005  0.1043930E+01  0.7957747E-01            NaN
         13   -1    0    0    0    0  0.00000000000E+00  0.00000000000E+00  0.74505805969E-08  0.10566000000E+00  0.10566000000E+00 0. -1.
     999900   -1    0    0    0    0 -0.00000000000E+00 -0.00000000000E+00 -0.74505805969E-08  0.93827000000E+00  0.93827000000E+00 0. -1.
     999902    2    1    2    0    0  0.15362200802E-01  0.14897092228E-01 -0.10416779535E-01  0.10201302129E+01  0.10198525489E+01 0.  0.
     999903    2    3    3    0    0 -0.11256275981E+00 -0.38337452140E-01  0.42146419386E-01  0.12773926598E+00  0.20021595149E-01 0.  0.
         14    1    1    2    0    0 -0.15362200802E-01 -0.14897092228E-01  0.10416779535E-01  0.23799787104E-01  0.00000000000E+00 0. -1.
     999901    1    3    3    0    0  0.12792496061E+00  0.53234544368E-01 -0.52563198921E-01  0.89239094692E+00  0.88000000000E+00 0. -1.
        -11    1    4    4    0    0 -0.12544850249E-03 -0.23015923322E-02  0.17832490022E-02  0.29587434147E-02  0.51100000000E-03 0. -1.
         11    1    4    4    0    0 -0.11243731131E+00 -0.36035859808E-01  0.40363170384E-01  0.12478052256E+00  0.51100000000E-03 0.  1.
</event>
<event>
 8    1  0.1202249E+005  0.1043930E+01  0.7957747E-01            NaN
         13   -1    0    0    0    0  0.00000000000E+00  0.00000000000E+00  0.74505805969E-08  0.10566000000E+00  0.10566000000E+00 0. -1.
     999900   -1    0    0    0    0 -0.00000000000E+00 -0.00000000000E+00 -0.74505805969E-08  0.93827000000E+00  0.93827000000E+00 0. -1.
     999902    2    1    2    0    0 -0.15167611207E-01 -0.21553003175E-02  0.16664703904E-01  0.10212934343E+01  0.10210425382E+01 0.  0.
     999903    2    3    3    0    0  0.66468850500E-01  0.10990745488E+00  0.11361865928E-01  0.13042268440E+00  0.19576207098E-01 0.  0.
         14    1    1    2    0    0  0.15167611207E-01  0.21553003175E-02 -0.16664703904E-01  0.22636565671E-01  0.00000000000E+00 0.  1.
     999901    1    3    3    0    0 -0.81636461707E-01 -0.11206275520E+00  0.53028379762E-02  0.89087074993E+00  0.88000000000E+00 0.  1.
        -11    1    4    4    0    0  0.27971903700E-01  0.41496138654E-01 -0.47985259182E-02  0.50275678929E-01  0.51100000000E-03 0.  1.
         11    1    4    4    0    0  0.38496946800E-01  0.68411316227E-01  0.16160391846E-01  0.80147005474E-01  0.51100000000E-03 0. -1.
</event>
<event>
 8    1  0.1202249E+005  0.1043930E+01  0.7957747E-01            NaN
         13   -1    0    0    0    0  0.00000000000E+00  0.00000000000E+00  0.74505805969E-08  0.10566000000E+00  0.10566000000E+00 0.  1.
     999900   -1    0    0    0    0 -0.00000000000E+00 -0.00000000000E+00 -0.74505805969E-08  0.93827000000E+00  0.93827000000E+00 0. -1.
     999902    2    1    2    0    0 -0.10035859158E-01 -0.33040357263E-01  0.41175339093E-02  0.10091544660E+01  0.10085551044E+01 0.  0.
     999903    2    3    3    0    0  0.20928823986E-01 -0.63753320787E-02  0.11738330573E+00  0.12095461789E+00  0.19300740720E-01 0.  0.
         14    1    1    2    0    0  0.10035859158E-01  0.33040357263E-01 -0.41175339093E-02  0.34775533965E-01  0.00000000000E+00 0.  1.
     999901    1    3    3    0    0 -0.30964683144E-01 -0.26665025184E-01 -0.11326577182E+00  0.88819984814E+00  0.88000000000E+00 0. -1.
        -11    1    4    4    0    0  0.63286547182E-02 -0.11096127430E-01  0.69632873929E-01  0.70796710143E-01  0.51100000000E-03 0. -1.
         11    1    4    4    0    0  0.14600169268E-01  0.47207953511E-02  0.47750431804E-01  0.50157907751E-01  0.51100000000E-03 0.  1.
</event>
<event>
 8    1  0.1202249E+005  0.1043930E+01  0.7957747E-01            NaN
         13   -1    0    0    0    0  0.00000000000E+00  0.00000000000E+00  0.74505805969E-08  0.10566000000E+00  0.10566000000E+00 0. -1.
     999900   -1    0    0    0    0 -0.00000000000E+00 -0.00000000000E+00 -0.74505805969E-08  0.93827000000E+00  0.93827000000E+00 0. -1.
     999902    2    1    2    0    0  0.16229994189E-01  0.19581057878E-01 -0.52797691341E-03  0.10184916569E+01  0.10181739271E+01 0.  0.
     999903    2    3    3    0    0  0.41706249496E-02  0.10885424039E+00  0.70055626066E-01  0.13108128144E+00  0.20195837117E-01 0.  0.
         14    1    1    2    0    0 -0.16229994189E-01 -0.19581057878E-01  0.52797691341E-03  0.25438343080E-01  0.00000000000E+00 0.  1.
     999901    1    3    3    0    0  0.12059369240E-01 -0.89273182512E-01 -0.70583602980E-01  0.88741037548E+00  0.88000000000E+00 0. -1.
        -11    1    4    4    0    0  0.11034673233E-01  0.82905094269E-01  0.48753122327E-01  0.96809848294E-01  0.51100000000E-03 0. -1.
         11    1    4    4    0    0 -0.68640482836E-02  0.25949146121E-01  0.21302503739E-01  0.34271433145E-01  0.51100000000E-03 0.  1.
</event>
<event>
 8    1  0.1202249E+005  0.1043930E+01  0.7957747E-01            NaN
         13   -1    0    0    0    0  0.00000000000E+00  0.00000000000E+00  0.74505805969E-08  0.10566000000E+00  0.10566000000E+00 0.  1.
     999900   -1    0    0    0    0 -0.00000000000E+00 -0.00000000000E+00 -0.74505805969E-08  0.93827000000E+00  0.93827000000E+00 0.  1.
     999902    2    1    2    0    0  0.10113005191E-01  0.22351550111E-01 -0.63503308715E-02  0.10185885050E+01  0.10182732203E+01 0.  0.
     999903    2    3    3    0    0 -0.49785084489E-01  0.11683592657E+00  0.24826109346E-01  0.13095848694E+00  0.20114701644E-01 0.  0.
         14    1    1    2    0    0 -0.10113005191E-01 -0.22351550111E-01  0.63503308715E-02  0.25341494995E-01  0.00000000000E+00 0.  1.
     999901    1    3    3    0    0  0.59898089681E-01 -0.94484376458E-01 -0.31176440217E-01  0.88763001806E+00  0.88000000000E+00 0. -1.
        -11    1    4    4    0    0 -0.62263243912E-02  0.33618372054E-01  0.11568262279E-01  0.36097754336E-01  0.51100000000E-03 0. -1.
         11    1    4    4    0    0 -0.43558760098E-01  0.83217554515E-01  0.13257847067E-01  0.94860732606E-01  0.51100000000E-03 0.  1.
</event>
<event>
 8    1  0.1202249E+005  0.1043930E+01  0.7957747E-01            NaN
         13   -1    0    0    0    0  0.00000000000E+00  0.00000000000E+00  0.74505805969E-08  0.10566000000E+00  0.10566000000E+00 0. -1.
     999900   -1    0    0    0    0 -0.00000000000E+00 -0.00000000000E+00 -0.74505805969E-08  0.93827000000E+00  0.93827000000E+00 0.  1.
     999902    2    1    2    0    0  0.12168230219E-01  0.13254452025E-01 -0.15164280874E-01  0.10203991322E+01  0.10201277799E+01 0.  0.
     999903    2    3    3    0    0 -0.10463537836E+00 -0.19810611312E-01 -0.72168548430E-01  0.13023854673E+00  0.20316420638E-01 0.  0.
         14    1    1    2    0    0 -0.12168230219E-01 -0.13254452025E-01  0.15164280874E-01  0.23530867803E-01  0.00000000000E+00 0. -1.
     999901    1    3    3    0    0  0.11680360858E+00  0.33065063336E-01  0.57004267556E-01  0.89016058546E+00  0.88000000000E+00 0. -1.
        -11    1    4    4    0    0 -0.35259558961E-01 -0.12573775210E-01 -0.16140103311E-01  0.40768865290E-01  0.51100000000E-03 0. -1.
         11    1    4    4    0    0 -0.69375819402E-01 -0.72368361012E-02 -0.56028445119E-01  0.89469681445E-01  0.51100000000E-03 0.  1.
</event>
<event>
 8    1  0.1202249E+005  0.1043930E+01  0.7957747E-01            NaN
         13   -1    0    0    0    0  0.00000000000E+00  0.00000000000E+00  0.74505805969E-08  0.10566000000E+00  0.10566000000E+00 0. -1.
     999900   -1    0    0    0    0 -0.00000000000E+00 -0.00000000000E+00 -0.74505805969E-08  0.93827000000E+00  0.93827000000E+00 0.  1.
     999902    2    1    2    0    0 -0.11981615807E-01 -0.15577189378E-01  0.85514496832E-02  0.10224978924E+01  0.10222732534E+01 0.  0.
     999903    2    3    3    0    0 -0.11823508372E-01 -0.99062792679E-01 -0.86376598377E-01  0.13346403177E+00  0.19962434391E-01 0.  0.
         14    1    1    2    0    0  0.11981615807E-01  0.15577189378E-01 -0.85514496832E-02  0.21432107641E-01  0.00000000000E+00 0.  1.
     999901    1    3    3    0    0 -0.15810743567E-03  0.83485603301E-01  0.94928048061E-01  0.88903386058E+00  0.88000000000E+00 0. -1.
        -11    1    4    4    0    0 -0.15821010223E-01 -0.62650003911E-01 -0.48723558318E-01  0.80929435997E-01  0.51100000000E-03 0. -1.
         11    1    4    4    0    0  0.39975018510E-02 -0.36412788767E-01 -0.37653040059E-01  0.52534595778E-01  0.51100000000E-03 0.  1.
</event>
<event>
 8    1  0.1202249E+005  0.1043930E+01  0.7957747E-01            NaN
         13   -1    0    0    0    0  0.00000000000E+00  0.00000000000E+00  0.74505805969E-08  0.10566000000E+00  0.10566000000E+00 0. -1.
     999900   -1    0    0    0    0 -0.00000000000E+00 -0.00000000000E+00 -0.74505805969E-08  0.93827000000E+00  0.93827000000E+00 0. -1.
     999902    2    1    2    0    0 -0.21634325578E-01  0.87917181160E-02  0.56048538676E-02  0.10199143231E+01  0.10196315382E+01 0.  0.
     999903    2    3    3    0    0 -0.10835124175E+00 -0.26747924643E-01 -0.67109221623E-01  0.13195586317E+00  0.21289883468E-01 0.  0.
         14    1    1    2    0    0  0.21634325578E-01 -0.87917181160E-02 -0.56048538676E-02  0.24015676912E-01  0.00000000000E+00 0.  1.
     999901    1    3    3    0    0  0.86716916171E-01  0.35539642759E-01  0.72714075490E-01  0.88795845991E+00  0.88000000000E+00 0.  1.
        -11    1    4    4    0    0 -0.95229376253E-01 -0.23973642717E-01 -0.49963347329E-01  0.11018151771E+00  0.51100000000E-03 0. -1.
         11    1    4    4    0    0 -0.13121865496E-01 -0.27742819255E-02 -0.17145874293E-01  0.21774345469E-01  0.51100000000E-03 0.  1.
</event>
<event>
 8    1  0.1202249E+005  0.1043930E+01  0.7957747E-01            NaN
         13   -1    0    0    0    0  0.00000000000E+00  0.00000000000E+00  0.74505805969E-08  0.10566000000E+00  0.10566000000E+00 0.  1.
     999900   -1    0    0    0    0 -0.00000000000E+00 -0.00000000000E+00 -0.74505805969E-08  0.93827000000E+00  0.93827000000E+00 0. -1.
     999902    2    1    2    0    0 -0.10076311335E-01  0.20346715826E-01  0.75167046943E-02  0.10200130239E+01  0.10197325861E+01 0.  0.
     999903    2    3    3    0    0 -0.66541520216E-01  0.65705678801E-01  0.91680458669E-01  0.13303540706E+00  0.23411597363E-01 0.  0.
         14    1    1    2    0    0  0.10076311335E-01 -0.20346715826E-01 -0.75167046943E-02  0.23916976073E-01  0.00000000000E+00 0. -1.
     999901    1    3    3    0    0  0.56465208881E-01 -0.45358962975E-01 -0.84163753975E-01  0.88697761686E+00  0.88000000000E+00 0.  1.
        -11    1    4    4    0    0 -0.37791669226E-01  0.25640348248E-01  0.55473297012E-01  0.71855309641E-01  0.51100000000E-03 0.  1.
         11    1    4    4    0    0 -0.28749850990E-01  0.40065330553E-01  0.36207161657E-01  0.61180097422E-01  0.51100000000E-03 0. -1.
</event>
<event>
 8    1  0.1202249E+005  0.1043930E+01  0.7957747E-01            NaN
         13   -1    0    0    0    0  0.00000000000E+00  0.00000000000E+00  0.74505805969E-08  0.10566000000E+00  0.10566000000E+00 0.  1.
     999900   -1    0    0    0    0 -0.00000000000E+00 -0.00000000000E+00 -0.74505805969E-08  0.93827000000E+00  0.93827000000E+00 0. -1.
     999902    2    1    2    0    0  0.17400876180E-01 -0.16025350515E-01  0.12344512224E-02  0.10202418971E+01  0.10199668633E+01 0.  0.
     999903    2    3    3    0    0 -0.12700614623E+00 -0.65635261995E-02 -0.54801431417E-02  0.12839661899E+00  0.16793413645E-01 0.  0.
         14    1    1    2    0    0 -0.17400876180E-01  0.16025350515E-01 -0.12344512224E-02  0.23688102937E-01  0.00000000000E+00 0. -1.
     999901    1    3    3    0    0  0.14440702241E+00 -0.94618243157E-02  0.67145943640E-02  0.89184527807E+00  0.88000000000E+00 0. -1.
        -11    1    4    4    0    0 -0.14385469577E-01  0.45792982009E-02 -0.38728114051E-03  0.15110354551E-01  0.51100000000E-03 0. -1.
         11    1    4    4    0    0 -0.11262067666E+00 -0.11142824400E-01 -0.50928620011E-02  0.11328626444E+00  0.51100000000E-03 0.  1.
</event>
<event>
 8    1  0.1202249E+005  0.1043930E+01  0.7957747E-01            NaN
         13   -1    0    0    0    0  0.00000000000E+00  0.00000000000E+00  0.74505805969E-08  0.10566000000E+00  0.10566000000E+00 0.  1.
     999900   -1    0    0    0    0 -0.00000000000E+00 -0.00000000000E+00 -0.74505805969E-08  0.93827000000E+00  0.93827000000E+00 0.  1.
     999902    2    1    2    0    0 -0.22749694874E-01  0.61873055094E-02  0.24753509552E-02  0.10202243313E+01  0.10199488847E+01 0.  0.
     999903    2    3    3    0    0  0.58114079741E-01  0.25368606553E-01  0.11133597698E+00  0.12963042370E+00  0.19685896350E-01 0.  0.
         14    1    1    2    0    0  0.22749694874E-01 -0.61873055094E-02 -0.24753509552E-02  0.23705668703E-01  0.00000000000E+00 0.  1.
     999901    1    3    3    0    0 -0.80863774615E-01 -0.19181301043E-01 -0.10886062603E+00  0.89059390760E+00  0.88000000000E+00 0.  1.
        -11    1    4    4    0    0  0.23118846944E-01  0.19393163986E-01  0.41828470657E-01  0.51579627489E-01  0.51100000000E-03 0.  1.
         11    1    4    4    0    0  0.34995232797E-01  0.59754425664E-02  0.69507506324E-01  0.78050796208E-01  0.51100000000E-03 0. -1.
</event>
<event>
 8    1  0.1202249E+005  0.1043930E+01  0.7957747E-01            NaN
         13   -1    0    0    0    0  0.00000000000E+00  0.00000000000E+00  0.74505805969E-08  0.10566000000E+00  0.10566000000E+00 0. -1.
     999900   -1    0    0    0    0 -0.00000000000E+00 -0.00000000000E+00 -0.74505805969E-08  0.93827000000E+00  0.93827000000E+00 0. -1.
     999902    2    1    2    0    0  0.14327991272E-01  0.15620093804E-01 -0.41097933669E-02  0.10223390513E+01  0.10221110344E+01 0.  0.
     999903    2    3    3    0    0  0.65953937339E-01  0.48736937914E-01  0.10335531695E+00  0.13368236078E+00  0.21527681537E-01 0.  0.
         14    1    1    2    0    0 -0.14327991272E-01 -0.15620093804E-01  0.41097933669E-02  0.21590948701E-01  0.00000000000E+00 0. -1.
     999901    1    3    3    0    0 -0.51625946068E-01 -0.33116844111E-01 -0.10746511032E+00  0.88865669052E+00  0.88000000000E+00 0. -1.
        -11    1    4    4    0    0  0.46173935531E-01  0.22097125525E-01  0.69017275068E-01  0.85929975315E-01  0.51100000000E-03 0. -1.
         11    1    4    4    0    0  0.19780001808E-01  0.26639812390E-01  0.34338041887E-01  0.47752385462E-01  0.51100000000E-03 0.  1.
</event>
<event>
 8    1  0.1202249E+005  0.1043930E+01  0.7957747E-01            NaN
         13   -1    0    0    0    0  0.00000000000E+00  0.00000000000E+00  0.74505805969E-08  0.10566000000E+00  0.10566000000E+00 0. -1.
     999900   -1    0    0    0    0 -0.00000000000E+00 -0.00000000000E+00 -0.74505805969E-08  0.93827000000E+00  0.93827000000E+00 0.  1.
     999902    2    1    2    0    0 -0.11080599163E-01 -0.39829945164E-02 -0.15019076266E-01  0.10248455410E+01  0.10246678322E+01 0.  0.
     999903    2    3    3    0    0  0.11964754712E+00 -0.43860591487E-01  0.32210302132E-01  0.13304360944E+00  0.20586680897E-01 0.  0.
         14    1    1    2    0    0  0.11080599163E-01  0.39829945164E-02  0.15019076266E-01  0.19084458992E-01  0.00000000000E+00 0. -1.
     999901    1    3    3    0    0 -0.13072814629E+00  0.39877596970E-01 -0.47229378398E-01  0.89180193157E+00  0.88000000000E+00 0. -1.
        -11    1    4    4    0    0  0.26111279016E-01 -0.10587743965E-02  0.84506736525E-02  0.27469890812E-01  0.51100000000E-03 0. -1.
         11    1    4    4    0    0  0.93536268106E-01 -0.42801817090E-01  0.23759628479E-01  0.10557371862E+00  0.51100000000E-03 0.  1.
</event>
<event>
 8    1  0.1202249E+005  0.1043930E+01  0.7957747E-01            NaN
         13   -1    0    0    0    0  0.00000000000E+00  0.00000000000E+00  0.74505805969E-08  0.10566000000E+00  0.10566000000E+00 0.  1.
     999900   -1    0    0    0    0 -0.00000000000E+00 -0.00000000000E+00 -0.74505805969E-08  0.93827000000E+00  0.93827000000E+00 0. -1.
     999902    2    1    2    0    0  0.18847045417E-01 -0.12289307831E-01  0.82377822899E-02  0.10199696314E+01  0.10196881629E+01 0.  0.
     999903    2    3    3    0    0  0.29832853994E-01  0.11268551440E+00 -0.52071424059E-01  0.12902822221E+00  0.18676846386E-01 0.  0.
         14    1    1    2    0    0 -0.18847045417E-01  0.12289307831E-01 -0.82377822899E-02  0.23960368632E-01  0.00000000000E+00 0. -1.
     999901    1    3    3    0    0 -0.10985808577E-01 -0.12497482223E+00  0.60309206349E-01  0.89094140916E+00  0.88000000000E+00 0. -1.
        -11    1    4    4    0    0  0.91032774903E-02  0.42769865174E-01 -0.29263869313E-01  0.52619066851E-01  0.51100000000E-03 0. -1.
         11    1    4    4    0    0  0.20729576504E-01  0.69915649223E-01 -0.22807554745E-01  0.76409155360E-01  0.51100000000E-03 0.  1.
</event>
<event>
 8    1  0.1202249E+005  0.1043930E+01  0.7957747E-01            NaN
         13   -1    0    0    0    0  0.00000000000E+00  0.00000000000E+00  0.74505805969E-08  0.10566000000E+00  0.10566000000E+00 0. -1.
     999900   -1    0    0    0    0 -0.00000000000E+00 -0.00000000000E+00 -0.74505805969E-08  0.93827000000E+00  0.93827000000E+00 0.  1.
     999902    2    1    2    0    0 -0.16352940947E-01  0.15670798385E-01  0.49460185926E-02  0.10207469092E+01  0.10204836093E+01 0.  0.
     999903    2    3    3    0    0  0.12679527386E+00 -0.40022151150E-02 -0.11203026895E-01  0.12881684997E+00  0.19370436888E-01 0.  0.
         14    1    1    2    0    0  0.16352940947E-01 -0.15670798385E-01 -0.49460185926E-02  0.23183090812E-01  0.00000000000E+00 0. -1.
     999901    1    3    3    0    0 -0.14314821481E+00  0.19673013501E-01  0.16149045488E-01  0.89193005922E+00  0.88000000000E+00 0. -1.
        -11    1    4    4    0    0  0.77662216402E-01 -0.11678943433E-01 -0.49413316156E-02  0.78692410405E-01  0.51100000000E-03 0.  1.
         11    1    4    4    0    0  0.49133057461E-01  0.76767283182E-02 -0.62616952798E-02  0.50124439567E-01  0.51100000000E-03 0. -1.
</event>
<event>
 8    1  0.1202249E+005  0.1043930E+01  0.7957747E-01            NaN
         13   -1    0    0    0    0  0.00000000000E+00  0.00000000000E+00  0.74505805969E-08  0.10566000000E+00  0.10566000000E+00 0.  1.
     999900   -1    0    0    0    0 -0.00000000000E+00 -0.00000000000E+00 -0.74505805969E-08  0.93827000000E+00  0.93827000000E+00 0.  1.
     999902    2    1    2    0    0  0.49881719104E-02 -0.24412239418E-02 -0.22681870410E-01  0.10205781547E+01  0.10203109630E+01 0.  0.
     999903    2    3    3    0    0 -0.77406332526E-01 -0.58295282962E-01  0.82342569923E-01  0.12876053695E+00  0.20221194916E-01 0.  0.
         14    1    1    2    0    0 -0.49881719104E-02  0.24412239418E-02  0.22681870410E-01  0.23351845294E-01  0.00000000000E+00 0.  1.
     999901    1    3    3    0    0  0.82394504437E-01  0.55854059020E-01 -0.10502444033E+00  0.89181761775E+00  0.88000000000E+00 0.  1.
        -11    1    4    4    0    0 -0.53209439358E-01 -0.31835113811E-01  0.42598830579E-01  0.75230581521E-01  0.51100000000E-03 0. -1.
         11    1    4    4    0    0 -0.24196893168E-01 -0.26460169150E-01  0.39743739343E-01  0.53529955431E-01  0.51100000000E-03 0.  1.
</event>
<event>
 8    1  0.1202249E+005  0.1043930E+01  0.7957747E-01            NaN
         13   -1    0    0    0    0  0.00000000000E+00  0.00000000000E+00  0.74505805969E-08  0.10566000000E+00  0.10566000000E+00 0. -1.
     999900   -1    0    0    0    0 -0.00000000000E+00 -0.00000000000E+00 -0.74505805969E-08  0.93827000000E+00  0.93827000000E+00 0.  1.
     999902    2    1    2    0    0  0.10781907948E-01  0.82124153076E-02 -0.19805669545E-01  0.10199308781E+01  0.10196484876E+01 0.  0.
     999903    2    3    3    0    0 -0.48739166473E-01  0.10103247345E+00  0.61247429695E-01  0.12935357863E+00  0.19950779936E-01 0.  0.
         14    1    1    2    0    0 -0.10781907948E-01 -0.82124153076E-02  0.19805669545E-01  0.23999121865E-01  0.00000000000E+00 0. -1.
     999901    1    3    3    0    0  0.59521074422E-01 -0.92820058145E-01 -0.81053099240E-01  0.89057729950E+00  0.88000000000E+00 0. -1.
        -11    1    4    4    0    0 -0.28376226986E-01  0.71237531675E-01  0.32822674192E-01  0.83412140838E-01  0.51100000000E-03 0.  1.
         11    1    4    4    0    0 -0.20362939487E-01  0.29794941777E-01  0.28424755503E-01  0.45941437793E-01  0.51100000000E-03 0. -1.
</event>
<event>
 8    1  0.1202249E+005  0.1043930E+01  0.7957747E-01            NaN
         13   -1    0    0    0    0  0.00000000000E+00  0.00000000000E+00  0.74505805969E-08  0.10566000000E+00  0.10566000000E+00 0. -1.
     999900   -1    0    0    0    0 -0.00000000000E+00 -0.00000000000E+00 -0.74505805969E-08  0.93827000000E+00  0.93827000000E+00 0. -1.
     999902    2    1    2    0    0 -0.29627331192E-02  0.24104303219E-01 -0.73366616197E-02  0.10185602971E+01  0.10182443012E+01 0.  0.
     999903    2    3    3    0    0  0.80995024247E-01 -0.24345497326E-01 -0.95283187459E-01  0.12888008512E+00  0.19449764396E-01 0.  0.
         14    1    1    2    0    0  0.29627331192E-02 -0.24104303219E-01  0.73366616197E-02  0.25369702894E-01  0.00000000000E+00 0. -1.
     999901    1    3    3    0    0 -0.83957757366E-01  0.48449800544E-01  0.87946525839E-01  0.88968021199E+00  0.88000000000E+00 0.  1.
        -11    1    4    4    0    0  0.20885502312E-01 -0.97838760000E-02 -0.14928171320E-01  0.27477988579E-01  0.51100000000E-03 0.  1.
         11    1    4    4    0    0  0.60109521935E-01 -0.14561621326E-01 -0.80355016139E-01  0.10140209654E+00  0.51100000000E-03 0. -1.
</event>
<event>
 8    1  0.1202249E+005  0.1043930E+01  0.7957747E-01            NaN
         13   -1    0    0    0    0  0.00000000000E+00  0.00000000000E+00  0.74505805969E-08  0.10566000000E+00  0.10566000000E+00 0. -1.
     999900   -1    0    0    0    0 -0.00000000000E+00 -0.00000000000E+00 -0.74505805969E-08  0.93827000000E+00  0.93827000000E+00 0. -1.
     999902    2    1    2    0    0 -0.18350271220E-01  0.13597986919E-01  0.42685044086E-02  0.10206951591E+01  0.10204306689E+01 0.  0.
     999903    2    3    3    0    0  0.23580439255E-01 -0.77750100709E-01  0.99394358171E-01  0.12988003481E+00  0.19709635480E-01 0.  0.
         14    1    1    2    0    0  0.18350271220E-01 -0.13597986919E-01 -0.42685044086E-02  0.23234840907E-01  0.00000000000E+00 0.  1.
     999901    1    3    3    0    0 -0.41930710475E-01  0.91348087629E-01 -0.95125853762E-01  0.89081512428E+00  0.88000000000E+00 0. -1.
        -11    1    4    4    0    0  0.16618156851E-01 -0.24065169794E-01  0.39404821962E-01  0.49074399122E-01  0.51100000000E-03 0.  1.
         11    1    4    4    0    0  0.69622824039E-02 -0.53684930915E-01  0.59989536209E-01  0.80805635690E-01  0.51100000000E-03 0. -1.
</event>
<event>
 8    1  0.1202249E+005  0.1043930E+01  0.7957747E-01            NaN
         13   -1    0    0    0    0  0.00000000000E+00  0.00000000000E+00  0.74505805969E-08  0.10566000000E+00  0.10566000000E+00 0.  1.
     999900   -1    0    0    0    0 -0.00000000000E+00 -0.00000000000E+00 -0.74505805969E-08  0.93827000000E+00  0.93827000000E+00 0.  1.
     999902    2    1    2    0    0  0.75894283394E-02 -0.82625490136E-02  0.21147584531E-01  0.10199907128E+01  0.10197097454E+01 0.  0.
     999903    2    3    3    0    0  0.50695670776E-01  0.70737201836E-01  0.97342690394E-01  0.13212540608E+00  0.20192097459E-01 0.  0.
         14    1    1    2    0    0 -0.75894283394E-02  0.82625490136E-02 -0.21147584531E-01  0.23939287171E-01  0.00000000000E+00 0. -1.
     999901    1    3    3    0    0 -0.43106242437E-01 -0.78999750850E-01 -0.76195105862E-01  0.88786530675E+00  0.88000000000E+00 0.  1.
        -11    1    4    4    0    0  0.17820747722E-01  0.36988456254E-01  0.56009614941E-01  0.69448275949E-01  0.51100000000E-03 0. -1.
         11    1    4    4    0    0  0.32874923054E-01  0.33748745582E-01  0.41333075453E-01  0.62677130132E-01  0.51100000000E-03 0.  1.
</event>
<event>
 8    1  0.1202249E+005  0.1043930E+01  0.7957747E-01            NaN
         13   -1    0    0    0    0  0.00000000000E+00  0.00000000000E+00  0.74505805969E-08  0.10566000000E+00  0.10566000000E+00 0.  1.
     999900   -1    0    0    0    0 -0.00000000000E+00 -0.00000000000E+00 -0.74505805969E-08  0.93827000000E+00  0.93827000000E+00 0. -1.
     999902    2    1    2    0    0  0.73706574041E-03 -0.21737657097E-01 -0.46052276623E-04  0.10221798018E+01  0.10219483725E+01 0.  0.
     999903    2    3    3    0    0 -0.60841306061E-01 -0.10960671846E+00 -0.44928468253E-01  0.13452711120E+00  0.19070373185E-01 0.  0.
         14    1    1    2    0    0 -0.73706574041E-03  0.21737657097E-01  0.46052276623E-04  0.21750198224E-01  0.00000000000E+00 0. -1.
     999901    1    3    3    0    0  0.61578371802E-01  0.87869061366E-01  0.44882415977E-01  0.88765269057E+00  0.88000000000E+00 0. -1.
        -11    1    4    4    0    0 -0.15503219835E-01 -0.20918576769E-01 -0.16926637944E-01  0.31059762916E-01  0.51100000000E-03 0. -1.
         11    1    4    4    0    0 -0.45338086226E-01 -0.88688141694E-01 -0.28001830309E-01  0.10346734829E+00  0.51100000000E-03 0.  1.
</event>
<event>
 8    1  0.1202249E+005  0.1043930E+01  0.7957747E-01            NaN
         13   -1    0    0    0    0  0.00000000000E+00  0.00000000000E+00  0.74505805969E-08  0.10566000000E+00  0.10566000000E+00 0.  1.
     999900   -1    0    0    0    0 -0.00000000000E+00 -0.00000000000E+00 -0.74505805969E-08  0.93827000000E+00  0.93827000000E+00 0.  1.
     999902    2    1    2    0    0  0.16949249470E-02  0.22593756160E-01 -0.54065068692E-02  0.10206366339E+01  0.10203707941E+01 0.  0.
     999903    2    3    3    0    0  0.15338808301E-01  0.12953845650E+00 -0.22384420842E-01  0.13389452141E+00  0.20277815850E-01 0.  0.
         14    1    1    2    0    0 -0.16949249470E-02 -0.22593756160E-01  0.54065068692E-02  0.23293366105E-01  0.00000000000E+00 0. -1.
     999901    1    3    3    0    0 -0.13643883354E-01 -0.10694470034E+00  0.16977913973E-01  0.88674211248E+00  0.88000000000E+00 0.  1.
        -11    1    4    4    0    0 -0.45730442531E-02  0.21953885183E-01 -0.63540126748E-02  0.23313524110E-01  0.51100000000E-03 0.  1.
         11    1    4    4    0    0  0.19911852554E-01  0.10758457132E+00 -0.16030408167E-01  0.11058099730E+00  0.51100000000E-03 0. -1.
</event>
<event>
 8    1  0.1202249E+005  0.1043930E+01  0.7957747E-01            NaN
         13   -1    0    0    0    0  0.00000000000E+00  0.00000000000E+00  0.74505805969E-08  0.10566000000E+00  0.10566000000E+00 0. -1.
     999900   -1    0    0    0    0 -0.00000000000E+00 -0.00000000000E+00 -0.74505805969E-08  0.93827000000E+00  0.93827000000E+00 0. -1.
     999902    2    1    2    0    0 -0.13905929315E-01  0.19161539431E-01 -0.22223336269E-02  0.10201502138E+01  0.10198730218E+01 0.  0.
     999903    2    3    3    0    0 -0.91505202421E-01  0.84633359511E-01 -0.43118181465E-01  0.13336913781E+00  0.19802568932E-01 0.  0.
         14    1    1    2    0    0  0.13905929315E-01 -0.19161539431E-01  0.22223336269E-02  0.23779786169E-01  0.00000000000E+00 0.  1.
     999901    1    3    3    0    0  0.77599273106E-01 -0.65471820080E-01  0.40895847838E-01  0.88678107602E+00  0.88000000000E+00 0. -1.
        -11    1    4    4    0    0 -0.42158432776E-01  0.46197939440E-01 -0.12729730782E-01  0.63827033688E-01  0.51100000000E-03 0. -1.
         11    1    4    4    0    0 -0.49346769645E-01  0.38435420071E-01 -0.30388450683E-01  0.69542104126E-01  0.51100000000E-03 0.  1.
</event>
<event>
 8    1  0.1202249E+005  0.1043930E+01  0.7957747E-01            NaN
         13   -1    0    0    0    0  0.00000000000E+00  0.00000000000E+00  0.74505805969E-08  0.10566000000E+00  0.10566000000E+00 0.  1.
     999900   -1    0    0    0    0 -0.00000000000E+00 -0.00000000000E+00 -0.74505805969E-08  0.93827000000E+00  0.93827000000E+00 0.  1.
     999902    2    1    2    0    0 -0.15719268573E-01  0.17133037749E-02  0.16152825623E-01  0.10213259165E+01  0.10210757480E+01 0.  0.
     999903    2    3    3    0    0  0.86076561951E-01 -0.49951113226E-01  0.83556655597E-01  0.13139621177E+00  0.19466934638E-01 0.  0.
         14    1    1    2    0    0  0.15719268573E-01 -0.17133037749E-02 -0.16152825623E-01  0.22604083478E-01  0.00000000000E+00 0. -1.
     999901    1    3    3    0    0 -0.10179583052E+00  0.51664417001E-01 -0.67403829974E-01  0.88992970475E+00  0.88000000000E+00 0.  1.
        -11    1    4    4    0    0  0.17291988278E-01 -0.94126878346E-02  0.73470291674E-02  0.21020264258E-01  0.51100000000E-03 0. -1.
         11    1    4    4    0    0  0.68784573674E-01 -0.40538425392E-01  0.76209626430E-01  0.11037594752E+00  0.51100000000E-03 0.  1.
</event>
<event>
 8    1  0.1202249E+005  0.1043930E+01  0.7957747E-01            NaN
         13   -1    0    0    0    0  0.00000000000E+00  0.00000000000E+00  0.74505805969E-08  0.10566000000E+00  0.10566000000E+00 0.  1.
     999900   -1    0    0    0    0 -0.00000000000E+00 -0.00000000000E+00 -0.74505805969E-08  0.93827000000E+00  0.93827000000E+00 0. -1.
     999902    2    1    2    0    0 -0.21158475660E-01  0.32734994256E-03 -0.11248440310E-01  0.10199651161E+01  0.10196835403E+01 0.  0.
     999903    2    3    3    0    0  0.12132159863E+00 -0.34491955385E-01 -0.36634128107E-02  0.12779333432E+00  0.20225983854E-01 0.  0.
         14    1    1    2    0    0  0.21158475660E-01 -0.32734994256E-03  0.11248440310E-01  0.23964883886E-01  0.00000000000E+00 0. -1.
     999901    1    3    3    0    0 -0.14248007429E+00  0.34819305328E-01 -0.75850274993E-02  0.89217178180E+00  0.88000000000E+00 0.  1.
        -11    1    4    4    0    0  0.48906051557E-01 -0.39327521307E-02  0.69438136945E-03  0.49071495847E-01  0.51100000000E-03 0. -1.
         11    1    4    4    0    0  0.72415547070E-01 -0.30559203255E-01 -0.43577941802E-02  0.78721838471E-01  0.51100000000E-03 0.  1.
</event>
<event>
 8    1  0.1202249E+005  0.1043930E+01  0.7957747E-01            NaN
         13   -1    0    0    0    0  0.00000000000E+00  0.00000000000E+00  0.74505805969E-08  0.10566000000E+00  0.10566000000E+00 0. -1.
     999900   -1    0    0    0    0 -0.00000000000E+00 -0.00000000000E+00 -0.74505805969E-08  0.93827000000E+00  0.93827000000E+00 0. -1.
     999902    2    1    2    0    0  0.19350156840E-01 -0.70406575969E-02 -0.16874443150E-01  0.10173077112E+01  0.10169593075E+01 0.  0.
     999903    2    3    3    0    0  0.42575303460E-01 -0.12065220726E+00  0.45880420787E-02  0.12944081244E+00  0.19085654646E-01 0.  0.
         14    1    1    2    0    0 -0.19350156840E-01  0.70406575969E-02  0.16874443150E-01  0.26622288796E-01  0.00000000000E+00 0. -1.
     999901    1    3    3    0    0 -0.23225146620E-01  0.11361154966E+00 -0.21462485228E-01  0.88786689877E+00  0.88000000000E+00 0.  1.
        -11    1    4    4    0    0  0.11729487984E-01 -0.19936321425E-01 -0.49997643282E-02  0.23670584375E-01  0.51100000000E-03 0.  1.
         11    1    4    4    0    0  0.30845815476E-01 -0.10071588583E+00  0.95878064069E-02  0.10577022806E+00  0.51100000000E-03 0. -1.
</event>
<event>
 8    1  0.1202249E+005  0.1043930E+01  0.7957747E-01            NaN
         13   -1    0    0    0    0  0.00000000000E+00  0.00000000000E+00  0.74505805969E-08  0.10566000000E+00  0.10566000000E+00 0.  1.
     999900   -1    0    0    0    0 -0.00000000000E+00 -0.00000000000E+00 -0.74505805969E-08  0.93827000000E+00  0.93827000000E+00 0. -1.
     999902    2    1    2    0    0  0.82882499006E-02 -0.89331753857E-02  0.16943202757E-01  0.10230597142E+01  0.10228468165E+01 0.  0.
     999903    2    3    3    0    0  0.62108833978E-01 -0.10742758584E+00  0.50167819761E-01  0.13530880358E+00  0.19836046244E-01 0.  0.
         14    1    1    2    0    0 -0.82882499006E-02  0.89331753857E-02 -0.16943202757E-01  0.20870285780E-01  0.00000000000E+00 0. -1.
     999901    1    3    3    0    0 -0.53820584078E-01  0.98494410451E-01 -0.33224617004E-01  0.88775091064E+00  0.88000000000E+00 0. -1.
        -11    1    4    4    0    0  0.34544370734E-01 -0.40229319739E-01  0.21636126231E-01  0.57272111846E-01  0.51100000000E-03 0.  1.
         11    1    4    4    0    0  0.27564463244E-01 -0.67198266098E-01  0.28531693530E-01  0.78036691737E-01  0.51100000000E-03 0. -1.
</event>
<event>
 8    1  0.1202249E+005  0.1043930E+01  0.7957747E-01            NaN
         13   -1    0    0    0    0  0.00000000000E+00  0.00000000000E+00  0.74505805969E-08  0.10566000000E+00  0.10566000000E+00 0.  1.
     999900   -1    0    0    0    0 -0.00000000000E+00 -0.00000000000E+00 -0.74505805969E-08  0.93827000000E+00  0.93827000000E+00 0.  1.
     999902    2    1    2    0    0  0.17261738818E-01  0.92030482973E-02  0.31635401609E-02  0.10241140541E+01  0.10239223233E+01 0.  0.
     999903    2    3    3    0    0  0.29639500495E-01  0.12978934328E+00  0.16833149394E-01  0.13569910504E+00  0.20177179457E-01 0.  0.
         14    1    1    2    0    0 -0.17261738818E-01 -0.92030482973E-02 -0.31635401609E-02  0.19815945885E-01  0.00000000000E+00 0.  1.
     999901    1    3    3    0    0 -0.12377761677E-01 -0.12058629499E+00 -0.13669609233E-01  0.88841494907E+00  0.88000000000E+00 0.  1.
        -11    1    4    4    0    0  0.15842554048E-01  0.30513343011E-01  0.56473186960E-02  0.34845429398E-01  0.51100000000E-03 0. -1.
         11    1    4    4    0    0  0.13796946448E-01  0.99276000271E-01  0.11185830698E-01  0.10085367564E+00  0.51100000000E-03 0.  1.
</event>
<event>
 8    1  0.1202249E+005  0.1043930E+01  0.7957747E-01            NaN
         13   -1    0    0    0    0  0.00000000000E+00  0.00000000000E+00  0.74505805969E-08  0.10566000000E+00  0.10566000000E+00 0.  1.
     999900   -1    0    0    0    0 -0.00000000000E+00 -0.00000000000E+00 -0.74505805969E-08  0.93827000000E+00  0.93827000000E+00 0.  1.
     999902    2    1    2    0    0 -0.13948715774E-01  0.27607948102E-02 -0.19323018698E-01  0.10199390077E+01  0.10196568108E+01 0.  0.
     999903    2    3    3    0    0 -0.65717722977E-01  0.90490903278E-01  0.63651824207E-01  0.13018543137E+00  0.19729904402E-01 0.  0.
         14    1    1    2    0    0  0.13948715774E-01 -0.27607948102E-02  0.19323018698E-01  0.23990992296E-01  0.00000000000E+00 0.  1.
     999901    1    3    3    0    0  0.51769007203E-01 -0.87730108468E-01 -0.82974842905E-01  0.88975357633E+00  0.88000000000E+00 0.  1.
        -11    1    4    4    0    0 -0.28552558859E-01  0.28683260271E-01  0.31167194851E-01  0.51084569031E-01  0.51100000000E-03 0. -1.
         11    1    4    4    0    0 -0.37165164118E-01  0.61807643007E-01  0.32484629356E-01  0.79100862343E-01  0.51100000000E-03 0.  1.
</event>
<event>
 8    1  0.1202249E+005  0.1043930E+01  0.7957747E-01            NaN
         13   -1    0    0    0    0  0.00000000000E+00  0.00000000000E+00  0.74505805969E-08  0.10566000000E+00  0.10566000000E+00 0. -1.
     999900   -1    0    0    0    0 -0.00000000000E+00 -0.00000000000E+00 -0.74505805969E-08  0.93827000000E+00  0.93827000000E+00 0.  1.
     999902    2    1    2    0    0  0.22892711446E-01  0.43234161446E-02 -0.13562066727E-02  0.10205931737E+01  0.10203263296E+01 0.  0.
     999903    2    3    3    0    0 -0.12605071954E+00 -0.87930278066E-03 -0.64697688087E-02  0.12804773373E+00  0.21559386229E-01 0.  0.
         14    1    1    2    0    0 -0.22892711446E-01 -0.43234161446E-02  0.13562066727E-02  0.23336826284E-01  0.00000000000E+00 0. -1.
     999901    1    3    3    0    0  0.14894343099E+00  0.52027189252E-02  0.51135621360E-02  0.89254543998E+00  0.88000000000E+00 0. -1.
        -11    1    4    4    0    0 -0.50561143936E-01  0.23778938165E-02  0.76014482972E-02  0.51187174100E-01  0.51100000000E-03 0.  1.
         11    1    4    4    0    0 -0.75489575607E-01 -0.32571965972E-02 -0.14071217106E-01  0.76860559631E-01  0.51100000000E-03 0. -1.
</event>
<event>
 8    1  0.1202249E+005  0.1043930E+01  0.7957747E-01            NaN
         13   -1    0    0    0    0  0.00000000000E+00  0.00000000000E+00  0.74505805969E-08  0.10566000000E+00  0.10566000000E+00 0. -1.
     999900   -1    0    0    0    0 -0.00000000000E+00 -0.00000000000E+00 -0.74505805969E-08  0.93827000000E+00  0.93827000000E+00 0. -1.
     999902    2    1    2    0    0  0.20567060171E-01 -0.10287972225E-01 -0.10323648981E-03  0.10209331090E+01  0.10206740695E+01 0.  0.
     999903    2    3    3    0    0  0.70135123317E-01  0.98901492995E-01 -0.47672647757E-01  0.13152758786E+00  0.18066105959E-01 0.  0.
         14    1    1    2    0    0 -0.20567060171E-01  0.10287972225E-01  0.10323648981E-03  0.22996890972E-01  0.00000000000E+00 0. -1.
     999901    1    3    3    0    0 -0.49568063146E-01 -0.10918946522E+00  0.47569411268E-01  0.88940552117E+00  0.88000000000E+00 0. -1.
        -11    1    4    4    0    0  0.31560889923E-01  0.59362981650E-01 -0.23393629529E-01  0.71186911624E-01  0.51100000000E-03 0. -1.
         11    1    4    4    0    0  0.38574233394E-01  0.39538511345E-01 -0.24279018228E-01  0.60340676234E-01  0.51100000000E-03 0.  1.
</event>
<event>
 8    1  0.1202249E+005  0.1043930E+01  0.7957747E-01            NaN
         13   -1    0    0    0    0  0.00000000000E+00  0.00000000000E+00  0.74505805969E-08  0.10566000000E+00  0.10566000000E+00 0. -1.
     999900   -1    0    0    0    0 -0.00000000000E+00 -0.00000000000E+00 -0.74505805969E-08  0.93827000000E+00  0.93827000000E+00 0.  1.
     999902    2    1    2    0    0 -0.12072588683E-01 -0.19183790087E-01 -0.33128612323E-02  0.10210227905E+01  0.10207657902E+01 0.  0.
     999903    2    3    3    0    0  0.10515948111E+00  0.51989018491E-01  0.49374504044E-01  0.12884294013E+00  0.20032150688E-01 0.  0.
         14    1    1    2    0    0  0.12072588683E-01  0.19183790087E-01  0.33128612323E-02  0.22907209546E-01  0.00000000000E+00 0. -1.
     999901    1    3    3    0    0 -0.11723206979E+00 -0.71172808578E-01 -0.52687365276E-01  0.89217985033E+00  0.88000000000E+00 0.  1.
        -11    1    4    4    0    0  0.74750990509E-01  0.45771434418E-01  0.40503439640E-01  0.96558399605E-01  0.51100000000E-03 0. -1.
         11    1    4    4    0    0  0.30408490597E-01  0.62175840732E-02  0.88710644041E-02  0.32284540523E-01  0.51100000000E-03 0.  1.
</event>
<event>
 8    1  0.1202249E+005  0.1043930E+01  0.7957747E-01            NaN
         13   -1    0    0    0    0  0.00000000000E+00  0.00000000000E+00  0.74505805969E-08  0.10566000000E+00  0.10566000000E+00 0.  1.
     999900   -1    0    0    0    0 -0.00000000000E+00 -0.00000000000E+00 -0.74505805969E-08  0.93827000000E+00  0.93827000000E+00 0. -1.
     999902    2    1    2    0    0  0.15789801679E-01  0.45907715936E-02 -0.17029668815E-01  0.10202571751E+01  0.10199825001E+01 0.  0.
     999903    2    3    3    0    0  0.83957520482E-02  0.88432304547E-01  0.92187788539E-01  0.12952010520E+00  0.19649635016E-01 0.  0.
         14    1    1    2    0    0 -0.15789801679E-01 -0.45907715936E-02  0.17029668815E-01  0.23672824945E-01  0.00000000000E+00 0.  1.
     999901    1    3    3    0    0  0.73940496310E-02 -0.83841532953E-01 -0.10921745735E+00  0.89073706985E+00  0.88000000000E+00 0. -1.
        -11    1    4    4    0    0  0.54580996071E-03  0.58953848735E-01  0.49112577363E-01  0.76734350622E-01  0.51100000000E-03 0. -1.
         11    1    4    4    0    0  0.78499420875E-02  0.29478455812E-01  0.43075211176E-01  0.52785754581E-01  0.51100000000E-03 0.  1.
</event>
<event>
 8    1  0.1202249E+005  0.1043930E+01  0.7957747E-01            NaN
         13   -1    0    0    0    0  0.00000000000E+00  0.00000000000E+00  0.74505805969E-08  0.10566000000E+00  0.10566000000E+00 0. -1.
     999900   -1    0    0    0    0 -0.00000000000E+00 -0.00000000000E+00 -0.74505805969E-08  0.93827000000E+00  0.93827000000E+00 0.  1.
     999902    2    1    2    0    0  0.21168340244E-01 -0.20839787607E-01 -0.46271380994E-02  0.10138666372E+01  0.10134208170E+01 0.  0.
     999903    2    3    3    0    0 -0.10443717006E-01 -0.84248203118E-01  0.90901455371E-01  0.12586570167E+00  0.19294281919E-01 0.  0.
         14    1    1    2    0    0 -0.21168340244E-01  0.20839787607E-01  0.46271380994E-02  0.30063362806E-01  0.00000000000E+00 0. -1.
     999901    1    3    3    0    0  0.31612057250E-01  0.63408415511E-01 -0.95528593470E-01  0.88800093552E+00  0.88000000000E+00 0.  1.
        -11    1    4    4    0    0 -0.10054142554E-01 -0.20688701254E-01  0.30280173692E-01  0.38029701312E-01  0.51100000000E-03 0.  1.
         11    1    4    4    0    0 -0.38957445227E-03 -0.63559501864E-01  0.60621281679E-01  0.87836000358E-01  0.51100000000E-03 0. -1.
</event>
<event>
 8    1  0.1202249E+005  0.1043930E+01  0.7957747E-01            NaN
         13   -1    0    0    0    0  0.00000000000E+00  0.00000000000E+00  0.74505805969E-08  0.10566000000E+00  0.10566000000E+00 0.  1.
     999900   -1    0    0    0    0 -0.00000000000E+00 -0.00000000000E+00 -0.74505805969E-08  0.93827000000E+00  0.93827000000E+00 0.  1.
     999902    2    1    2    0    0  0.25229294400E-02 -0.19887992240E-01 -0.13408811208E-01  0.10198116745E+01  0.10195264380E+01 0.  0.
     999903    2    3    3    0    0 -0.55450210792E-01 -0.10787482275E+00  0.46941725025E-01  0.13147347617E+00  0.19236583112E-01 0.  0.
         14    1    1    2    0    0 -0.25229294400E-02  0.19887992240E-01  0.13408811208E-01  0.24118325528E-01  0.00000000000E+00 0.  1.
     999901    1    3    3    0    0  0.57973140232E-01  0.87986830505E-01 -0.60350536233E-01  0.88833819830E+00  0.88000000000E+00 0.  1.
        -11    1    4    4    0    0 -0.19469515033E-01 -0.58866605195E-01  0.24131161070E-01  0.66535053006E-01  0.51100000000E-03 0.  1.
         11    1    4    4    0    0 -0.35980695759E-01 -0.49008217550E-01  0.22810563955E-01  0.64938423169E-01  0.51100000000E-03 0. -1.
</event>
<event>
 8    1  0.1202249E+005  0.1043930E+01  0.7957747E-01            NaN
         13   -1    0    0    0    0  0.00000000000E+00  0.00000000000E+00  0.74505805969E-08  0.10566000000E+00  0.10566000000E+00 0.  1.
     999900   -1    0    0    0    0 -0.00000000000E+00 -0.00000000000E+00 -0.74505805969E-08  0.93827000000E+00  0.93827000000E+00 0. -1.
     999902    2    1    2    0    0  0.27077499841E-02 -0.10127531281E-01 -0.20941199379E-01  0.10205113615E+01  0.10202426213E+01 0.  0.
     999903    2    3    3    0    0 -0.10558085127E+00 -0.61033133801E-01 -0.46505769837E-01  0.13204563404E+00  0.20022568879E-01 0.  0.
         14    1    1    2    0    0 -0.27077499841E-02  0.10127531281E-01  0.20941199379E-01  0.23418638544E-01  0.00000000000E+00 0.  1.
     999901    1    3    3    0    0  0.10828860125E+00  0.50905602520E-01  0.25564570458E-01  0.88846572742E+00  0.88000000000E+00 0.  1.
        -11    1    4    4    0    0 -0.15866804894E-01 -0.18215119228E-01 -0.98680941615E-02  0.26099549219E-01  0.51100000000E-03 0.  1.
         11    1    4    4    0    0 -0.89714046376E-01 -0.42818014573E-01 -0.36637675675E-01  0.10594608482E+00  0.51100000000E-03 0. -1.
</event>
<event>
 8    1  0.1202249E+005  0.1043930E+01  0.7957747E-01            NaN
         13   -1    0    0    0    0  0.00000000000E+00  0.00000000000E+00  0.74505805969E-08  0.10566000000E+00  0.10566000000E+00 0. -1.
     999900   -1    0    0    0    0 -0.00000000000E+00 -0.00000000000E+00 -0.74505805969E-08  0.93827000000E+00  0.93827000000E+00 0.  1.
     999902    2    1    2    0    0 -0.88951776528E-02  0.16407144692E-01 -0.16826913888E-01  0.10188010602E+01  0.10184911078E+01 0.  0.
     999903    2    3    3    0    0  0.49451066379E-01  0.24432502508E-01  0.11295517999E+00  0.12733480600E+00  0.20320555799E-01 0.  0.
         14    1    1    2    0    0  0.88951776528E-02 -0.16407144692E-01  0.16826913888E-01  0.25128939759E-01  0.00000000000E+00 0. -1.
     999901    1    3    3    0    0 -0.58346244032E-01 -0.80253578167E-02 -0.12978209388E+00  0.89146625424E+00  0.88000000000E+00 0.  1.
        -11    1    4    4    0    0  0.14489834429E-01 -0.67921289839E-03  0.18355110085E-01  0.23400594419E-01  0.51100000000E-03 0.  1.
         11    1    4    4    0    0  0.34961231950E-01  0.25111715407E-01  0.94600069903E-01  0.10393421158E+00  0.51100000000E-03 0. -1.
</event>
<event>
 8    1  0.1202249E+005  0.1043930E+01  0.7957747E-01            NaN
         13   -1    0    0    0    0  0.00000000000E+00  0.00000000000E+00  0.74505805969E-08  0.10566000000E+00  0.10566000000E+00 0.  1.
     999900   -1    0    0    0    0 -0.00000000000E+00 -0.00000000000E+00 -0.74505805969E-08  0.93827000000E+00  0.93827000000E+00 0. -1.
     999902    2    1    2    0    0  0.16744713029E-01  0.82113168163E-02  0.15660164709E-01  0.10195773431E+01  0.10192864694E+01 0.  0.
     999903    2    3    3    0    0  0.21875206523E-02  0.11491197434E+00 -0.57400254811E-01  0.13000735315E+00  0.19939296018E-01 0.  0.
         14    1    1    2    0    0 -0.16744713029E-01 -0.82113168163E-02 -0.15660164709E-01  0.24352656877E-01  0.00000000000E+00 0.  1.
     999901    1    3    3    0    0  0.14557192377E-01 -0.10670065753E+00  0.73060419520E-01  0.88956998998E+00  0.88000000000E+00 0.  1.
        -11    1    4    4    0    0  0.67009169836E-02  0.26544255219E-01 -0.20174291958E-01  0.34011218011E-01  0.51100000000E-03 0.  1.
         11    1    4    4    0    0 -0.45133963313E-02  0.88367719124E-01 -0.37225962853E-01  0.95996135135E-01  0.51100000000E-03 0. -1.
</event>
<event>
 8    1  0.1202249E+005  0.1043930E+01  0.7957747E-01            NaN
         13   -1    0    0    0    0  0.00000000000E+00  0.00000000000E+00  0.74505805969E-08  0.10566000000E+00  0.10566000000E+00 0.  1.
     999900   -1    0    0    0    0 -0.00000000000E+00 -0.00000000000E+00 -0.74505805969E-08  0.93827000000E+00  0.93827000000E+00 0.  1.
     999902    2    1    2    0    0 -0.17798664889E-01 -0.17983587315E-01 -0.37054306544E-02  0.10183579039E+01  0.10180367814E+01 0.  0.
     999903    2    3    3    0    0 -0.12472257985E+00  0.25304348187E-01 -0.21876111113E-01  0.13064356773E+00  0.19827899275E-01 0.  0.
         14    1    1    2    0    0  0.17798664889E-01  0.17983587315E-01  0.37054306544E-02  0.25572096138E-01  0.00000000000E+00 0.  1.
     999901    1    3    3    0    0  0.10692391496E+00 -0.43287935502E-01  0.18170680458E-01  0.88771433613E+00  0.88000000000E+00 0. -1.
        -11    1    4    4    0    0 -0.56441188149E-01  0.19297586437E-02 -0.64864626332E-02  0.56847752872E-01  0.51100000000E-03 0.  1.
         11    1    4    4    0    0 -0.68281391700E-01  0.23374589543E-01 -0.15389648479E-01  0.73795814855E-01  0.51100000000E-03 0. -1.
</event>
<event>
 8    1  0.1202249E+005  0.1043930E+01  0.7957747E-01            NaN
         13   -1    0    0    0    0  0.00000000000E+00  0.00000000000E+00  0.74505805969E-08  0.10566000000E+00  0.10566000000E+00 0. -1.
     999900   -1    0    0    0    0 -0.00000000000E+00 -0.00000000000E+00 -0.74505805969E-08  0.93827000000E+00  0.93827000000E+00 0. -1.
     999902    2    1    2    0    0 -0.85708254165E-02 -0.53622731786E-02 -0.21919283175E-01  0.10197914831E+01  0.10195057631E+01 0.  0.
     999903    2    3    3    0    0  0.81560744764E-01  0.41306053532E-03 -0.10132742217E+00  0.13161204914E+00  0.20053909567E-01 0.  0.
         14    1    1    2    0    0  0.85708254165E-02  0.53622731786E-02  0.21919283175E-01  0.24138516874E-01  0.00000000000E+00 0. -1.
     999901    1    3    3    0    0 -0.90131570181E-01 -0.57753337140E-02  0.79408138995E-01  0.88817943399E+00  0.88000000000E+00 0.  1.
        -11    1    4    4    0    0  0.54779413252E-01 -0.33099917356E-02 -0.53358243041E-01  0.76544780246E-01  0.51100000000E-03 0. -1.
         11    1    4    4    0    0  0.26781331512E-01  0.37230522709E-02 -0.47969179129E-01  0.55067268891E-01  0.51100000000E-03 0.  1.
</event>
<event>
 8    1  0.1202249E+005  0.1043930E+01  0.7957747E-01            NaN
         13   -1    0    0    0    0  0.00000000000E+00  0.00000000000E+00  0.74505805969E-08  0.10566000000E+00  0.10566000000E+00 0.  1.
     999900   -1    0    0    0    0 -0.00000000000E+00 -0.00000000000E+00 -0.74505805969E-08  0.93827000000E+00  0.93827000000E+00 0.  1.
     999902    2    1    2    0    0  0.20609378638E-01  0.37502739057E-02 -0.15019761670E-01  0.10181539591E+01  0.10178276279E+01 0.  0.
     999903    2    3    3    0    0  0.10709902954E-01  0.24423999208E-01  0.12279245226E+00  0.12713341569E+00  0.19330941340E-01 0.  0.
         14    1    1    2    0    0 -0.20609378638E-01 -0.37502739057E-02  0.15019761670E-01  0.25776040868E-01  0.00000000000E+00 0.  1.
     999901    1    3    3    0    0  0.98994756832E-02 -0.20673725302E-01 -0.13781221393E+00  0.89102054345E+00  0.88000000000E+00 0.  1.
        -11    1    4    4    0    0  0.15699612460E-01  0.12940455601E-01  0.79522046472E-01  0.82085018235E-01  0.51100000000E-03 0. -1.
         11    1    4    4    0    0 -0.49897095060E-02  0.11483543607E-01  0.43270405789E-01  0.45048397450E-01  0.51100000000E-03 0.  1.
</event>
<event>
 8    1  0.1202249E+005  0.1043930E+01  0.7957747E-01            NaN
         13   -1    0    0    0    0  0.00000000000E+00  0.00000000000E+00  0.74505805969E-08  0.10566000000E+00  0.10566000000E+00 0.  1.
     999900   -1    0    0    0    0 -0.00000000000E+00 -0.00000000000E+00 -0.74505805969E-08  0.93827000000E+00  0.93827000000E+00 0. -1.
     999902    2    1    2    0    0 -0.86184945434E-02  0.22033684275E-01 -0.22325687675E-03  0.10202696633E+01  0.10199952815E+01 0.  0.
     999903    2    3    3    0    0  0.29037541488E-03  0.12730978454E+00  0.35386075756E-01  0.13323502480E+00  0.17074305808E-01 0.  0.
         14    1    1    2    0    0  0.86184945434E-02 -0.22033684275E-01  0.22325687675E-03  0.23660336738E-01  0.00000000000E+00 0. -1.
     999901    1    3    3    0    0 -0.89088699583E-02 -0.10527610027E+00 -0.35609332633E-01  0.88703463846E+00  0.88000000000E+00 0.  1.
        -11    1    4    4    0    0 -0.25381307469E-02  0.34025727727E-01  0.22477606446E-02  0.34198038013E-01  0.51100000000E-03 0.  1.
         11    1    4    4    0    0  0.28285061618E-02  0.93284056817E-01  0.33138315111E-01  0.99036986792E-01  0.51100000000E-03 0. -1.
</event>
<event>
 8    1  0.1202249E+005  0.1043930E+01  0.7957747E-01            NaN
         13   -1    0    0    0    0  0.00000000000E+00  0.00000000000E+00  0.74505805969E-08  0.10566000000E+00  0.10566000000E+00 0.  1.
     999900   -1    0    0    0    0 -0.00000000000E+00 -0.00000000000E+00 -0.74505805969E-08  0.93827000000E+00  0.93827000000E+00 0. -1.
     999902    2    1    2    0    0 -0.14657247430E-02 -0.25920640873E-01 -0.13123889538E-01  0.10148393752E+01  0.10144223445E+01 0.  0.
     999903    2    3    3    0    0 -0.75795142090E-01  0.32628015581E-01 -0.93269045990E-01  0.12614592215E+00  0.20104421679E-01 0.  0.
         14    1    1    2    0    0  0.14657247430E-02  0.25920640873E-01  0.13123889538E-01  0.29090624759E-01  0.00000000000E+00 0. -1.
     999901    1    3    3    0    0  0.74329417347E-01 -0.58548656453E-01  0.80145156452E-01  0.88869345309E+00  0.88000000000E+00 0.  1.
        -11    1    4    4    0    0 -0.37797968782E-01  0.57093656468E-02 -0.38534069723E-01  0.54280926213E-01  0.51100000000E-03 0.  1.
         11    1    4    4    0    0 -0.37997173308E-01  0.26918649934E-01 -0.54734976267E-01  0.71864995941E-01  0.51100000000E-03 0. -1.
</event>
<event>
 8    1  0.1202249E+005  0.1043930E+01  0.7957747E-01            NaN
         13   -1    0    0    0    0  0.00000000000E+00  0.00000000000E+00  0.74505805969E-08  0.10566000000E+00  0.10566000000E+00 0. -1.
     999900   -1    0    0    0    0 -0.00000000000E+00 -0.00000000000E+00 -0.74505805969E-08  0.93827000000E+00  0.93827000000E+00 0. -1.
     999902    2    1    2    0    0  0.82708908547E-02 -0.24401042098E-01 -0.23977200270E-03  0.10181642091E+01  0.10178381407E+01 0.  0.
     999903    2    3    3    0    0  0.82047624822E-01 -0.84780959564E-01 -0.54250938538E-01  0.13136888489E+00  0.19874499747E-01 0.  0.
         14    1    1    2    0    0 -0.82708908547E-02  0.24401042098E-01  0.23977200270E-03  0.25765790917E-01  0.00000000000E+00 0. -1.
     999901    1    3    3    0    0 -0.73776733967E-01  0.60379917466E-01  0.54011166535E-01  0.88679532420E+00  0.88000000000E+00 0.  1.
        -11    1    4    4    0    0  0.25173784336E-01 -0.35448425240E-01 -0.12331190527E-01  0.45195460508E-01  0.51100000000E-03 0. -1.
         11    1    4    4    0    0  0.56873840486E-01 -0.49332534324E-01 -0.41919748011E-01  0.86173424377E-01  0.51100000000E-03 0.  1.
</event>
<event>
 8    1  0.1202249E+005  0.1043930E+01  0.7957747E-01            NaN
         13   -1    0    0    0    0  0.00000000000E+00  0.00000000000E+00  0.74505805969E-08  0.10566000000E+00  0.10566000000E+00 0.  1.
     999900   -1    0    0    0    0 -0.00000000000E+00 -0.00000000000E+00 -0.74505805969E-08  0.93827000000E+00  0.93827000000E+00 0.  1.
     999902    2    1    2    0    0 -0.60331253632E-02  0.79581775819E-02 -0.21014379243E-01  0.10206633860E+01  0.10203981636E+01 0.  0.
     999903    2    3    3    0    0 -0.11608172388E+00  0.44137608259E-02  0.52822300360E-01  0.13073355046E+00  0.28401019315E-01 0.  0.
         14    1    1    2    0    0  0.60331253632E-02 -0.79581775819E-02  0.21014379243E-01  0.23266614000E-01  0.00000000000E+00 0.  1.
     999901    1    3    3    0    0  0.11004859851E+00  0.35444167560E-02 -0.73836679603E-01  0.88992983554E+00  0.88000000000E+00 0.  1.
        -11    1    4    4    0    0 -0.14470550538E-01 -0.14750891728E-02 -0.26832587891E-02  0.14799787825E-01  0.51100000000E-03 0. -1.
         11    1    4    4    0    0 -0.10161117334E+00  0.58888499987E-02  0.55505559149E-01  0.11593376264E+00  0.51100000000E-03 0.  1.
</event>
<event>
 8    1  0.1202249E+005  0.1043930E+01  0.7957747E-01            NaN
         13   -1    0    0    0    0  0.00000000000E+00  0.00000000000E+00  0.74505805969E-08  0.10566000000E+00  0.10566000000E+00 0. -1.
     999900   -1    0    0    0    0 -0.00000000000E+00 -0.00000000000E+00 -0.74505805969E-08  0.93827000000E+00  0.93827000000E+00 0.  1.
     999902    2    1    2    0    0 -0.27776280710E-02  0.18115994404E-01 -0.14601533028E-01  0.10204969200E+01  0.10202278444E+01 0.  0.
     999903    2    3    3    0    0 -0.70324782510E-01  0.88416576709E-01  0.65025217981E-01  0.13153954791E+00  0.17643911636E-01 0.  0.
         14    1    1    2    0    0  0.27776280710E-02 -0.18115994404E-01  0.14601533028E-01  0.23433079988E-01  0.00000000000E+00 0. -1.
     999901    1    3    3    0    0  0.67547154439E-01 -0.70300582305E-01 -0.79626751009E-01  0.88895737211E+00  0.88000000000E+00 0.  1.
        -11    1    4    4    0    0 -0.49962378235E-01  0.74344739809E-01  0.50171857817E-01  0.10266867104E+00  0.51100000000E-03 0.  1.
         11    1    4    4    0    0 -0.20362404275E-01  0.14071836900E-01  0.14853360164E-01  0.28870876862E-01  0.51100000000E-03 0. -1.
</event>
<event>
 8    1  0.1202249E+005  0.1043930E+01  0.7957747E-01            NaN
         13   -1    0    0    0    0  0.00000000000E+00  0.00000000000E+00  0.74505805969E-08  0.10566000000E+00  0.10566000000E+00 0. -1.
     999900   -1    0    0    0    0 -0.00000000000E+00 -0.00000000000E+00 -0.74505805969E-08  0.93827000000E+00  0.93827000000E+00 0. -1.
     999902    2    1    2    0    0 -0.12949481955E-01 -0.19445870398E-01 -0.45172895646E-02  0.10201342680E+01  0.10198566996E+01 0.  0.
     999903    2    3    3    0    0  0.10295584403E+00  0.38377687345E-01  0.62455847132E-01  0.12813482319E+00  0.21096145801E-01 0.  0.
         14    1    1    2    0    0  0.12949481955E-01  0.19445870398E-01  0.45172895646E-02  0.23795732043E-01  0.00000000000E+00 0. -1.
     999901    1    3    3    0    0 -0.11590532598E+00 -0.57823557744E-01 -0.66973136696E-01  0.89199944476E+00  0.88000000000E+00 0. -1.
        -11    1    4    4    0    0  0.54429328867E-01  0.31367868758E-01  0.33681911050E-01  0.71282727812E-01  0.51100000000E-03 0.  1.
         11    1    4    4    0    0  0.48526515163E-01  0.70098185870E-02  0.28773936082E-01  0.56852095380E-01  0.51100000000E-03 0. -1.
</event>
<event>
 8    1  0.1202249E+005  0.1043930E+01  0.7957747E-01            NaN
         13   -1    0    0    0    0  0.00000000000E+00  0.00000000000E+00  0.74505805969E-08  0.10566000000E+00  0.10566000000E+00 0. -1.
     999900   -1    0    0    0    0 -0.00000000000E+00 -0.00000000000E+00 -0.74505805969E-08  0.93827000000E+00  0.93827000000E+00 0.  1.
     999902    2    1    2    0    0  0.98197653346E-02  0.19581871806E-02  0.20459348895E-01  0.10211517813E+01  0.10208976997E+01 0.  0.
     999903    2    3    3    0    0  0.47521675004E-01 -0.76036080839E-02  0.12373001671E+00  0.13425962738E+00  0.20010148859E-01 0.  0.
         14    1    1    2    0    0 -0.98197653346E-02 -0.19581871806E-02 -0.20459348895E-01  0.22778218663E-01  0.00000000000E+00 0.  1.
     999901    1    3    3    0    0 -0.37701909670E-01  0.95617952645E-02 -0.10327066782E+00  0.88689215396E+00  0.88000000000E+00 0.  1.
        -11    1    4    4    0    0  0.89235370549E-02 -0.59825150707E-02  0.12391981219E-01  0.16408605049E-01  0.51100000000E-03 0. -1.
         11    1    4    4    0    0  0.38598137949E-01 -0.16210930132E-02  0.11133803549E+00  0.11785102233E+00  0.51100000000E-03 0.  1.
</event>
<event>
 8    1  0.1202249E+005  0.1043930E+01  0.7957747E-01            NaN
         13   -1    0    0    0    0  0.00000000000E+00  0.00000000000E+00  0.74505805969E-08  0.10566000000E+00  0.10566000000E+00 0.  1.
     999900   -1    0    0    0    0 -0.00000000000E+00 -0.00000000000E+00 -0.74505805969E-08  0.93827000000E+00  0.93827000000E+00 0. -1.
     999902    2    1    2    0    0  0.50001540522E-02 -0.13938866844E-01  0.18891326571E-01  0.10199263384E+01  0.10196438398E+01 0.  0.
     999903    2    3    3    0    0  0.41308179361E-01 -0.11698338487E+00 -0.37859230027E-01  0.13135609862E+00  0.20727405255E-01 0.  0.
         14    1    1    2    0    0 -0.50001540522E-02  0.13938866844E-01 -0.18891326571E-01  0.24003661576E-01  0.00000000000E+00 0. -1.
     999901    1    3    3    0    0 -0.36308025309E-01  0.10304451802E+00  0.56750556598E-01  0.88857023981E+00  0.88000000000E+00 0.  1.
        -11    1    4    4    0    0  0.29481373851E-01 -0.71340755710E-01 -0.33005988513E-01  0.83954221026E-01  0.51100000000E-03 0. -1.
         11    1    4    4    0    0  0.11826805510E-01 -0.45642629157E-01 -0.48532415137E-02  0.47401877591E-01  0.51100000000E-03 0.  1.
</event>
<event>
 8    1  0.1202249E+005  0.1043930E+01  0.7957747E-01            NaN
         13   -1    0    0    0    0  0.00000000000E+00  0.00000000000E+00  0.74505805969E-08  0.10566000000E+00  0.10566000000E+00 0.  1.
     999900   -1    0    0    0    0 -0.00000000000E+00 -0.00000000000E+00 -0.74505805969E-08  0.93827000000E+00  0.93827000000E+00 0.  1.
     999902    2    1    2    0    0 -0.61289569424E-02  0.21708287327E-01  0.11884258423E-01  0.10184339327E+01  0.10181147409E+01 0.  0.
     999903    2    3    3    0    0  0.92125528131E-01  0.30494872554E-01 -0.81388147599E-01  0.12802341517E+00  0.18679241879E-01 0.  0.
         14    1    1    2    0    0  0.61289569424E-02 -0.21708287327E-01 -0.11884258423E-01  0.25496067347E-01  0.00000000000E+00 0. -1.
     999901    1    3    3    0    0 -0.98254485073E-01 -0.87865852268E-02  0.93272406022E-01  0.89041051748E+00  0.88000000000E+00 0.  1.
        -11    1    4    4    0    0  0.11633046577E-01  0.10428742814E-01 -0.16256665241E-01  0.22552754490E-01  0.51100000000E-03 0.  1.
         11    1    4    4    0    0  0.80492481554E-01  0.20066129741E-01 -0.65131482359E-01  0.10547066068E+00  0.51100000000E-03 0. -1.
</event>
<event>
 8    1  0.1202249E+005  0.1043930E+01  0.7957747E-01            NaN
         13   -1    0    0    0    0  0.00000000000E+00  0.00000000000E+00  0.74505805969E-08  0.10566000000E+00  0.10566000000E+00 0. -1.
     999900   -1    0    0    0    0 -0.00000000000E+00 -0.00000000000E+00 -0.74505805969E-08  0.93827000000E+00  0.93827000000E+00 0.  1.
     999902    2    1    2    0    0 -0.21870352442E-01 -0.80619116982E-02 -0.21919310895E-02  0.10205182231E+01  0.10202496422E+01 0.  0.
     999903    2    3    3    0    0  0.11081147622E+00  0.40336364164E-01 -0.46120269520E-01  0.12817492610E+00  0.19887857745E-01 0.  0.
         14    1    1    2    0    0  0.21870352442E-01  0.80619116982E-02  0.21919310895E-02  0.23411776910E-01  0.00000000000E+00 0. -1.
     999901    1    3    3    0    0 -0.13268182866E+00 -0.48398275862E-01  0.43928338431E-01  0.89234329699E+00  0.88000000000E+00 0. -1.
        -11    1    4    4    0    0  0.83922430658E-02  0.80059700835E-02 -0.84455156610E-02  0.14356641544E-01  0.51100000000E-03 0.  1.
         11    1    4    4    0    0  0.10241923315E+00  0.32330394080E-01 -0.37674753859E-01  0.11381828456E+00  0.51100000000E-03 0. -1.
</event>
<event>
 8    1  0.1202249E+005  0.1043930E+01  0.7957747E-01            NaN
         13   -1    0    0    0    0  0.00000000000E+00  0.00000000000E+00  0.74505805969E-08  0.10566000000E+00  0.10566000000E+00 0.  1.
     999900   -1    0    0    0    0 -0.00000000000E+00 -0.00000000000E+00 -0.74505805969E-08  0.93827000000E+00  0.93827000000E+00 0.  1.
     999902    2    1    2    0    0 -0.13262161554E-01 -0.19379506153E-01  0.19533038423E-02  0.10203659260E+01  0.10200937983E+01 0.  0.
     999903    2    3    3    0    0  0.16803017063E-01  0.10086629481E+00  0.75368608794E-01  0.12865253335E+00  0.20364094287E-01 0.  0.
         14    1    1    2    0    0  0.13262161554E-01  0.19379506153E-01 -0.19533038423E-02  0.23564074005E-01  0.00000000000E+00 0. -1.
     999901    1    3    3    0    0 -0.30065178617E-01 -0.12024580096E+00 -0.73415304951E-01  0.89171339264E+00  0.88000000000E+00 0.  1.
        -11    1    4    4    0    0  0.50918938033E-02  0.78541209252E-01  0.52492341847E-01  0.94606321178E-01  0.51100000000E-03 0. -1.
         11    1    4    4    0    0  0.11711123260E-01  0.22325085556E-01  0.22876266947E-01  0.34046212176E-01  0.51100000000E-03 0.  1.
</event>
<event>
 8    1  0.1202249E+005  0.1043930E+01  0.7957747E-01            NaN
         13   -1    0    0    0    0  0.00000000000E+00  0.00000000000E+00  0.74505805969E-08  0.10566000000E+00  0.10566000000E+00 0.  1.
     999900   -1    0    0    0    0 -0.00000000000E+00 -0.00000000000E+00 -0.74505805969E-08  0.93827000000E+00  0.93827000000E+00 0. -1.
     999902    2    1    2    0    0  0.22864655201E-01 -0.59196295744E-02  0.16250219260E-03  0.10203109213E+01  0.10200375068E+01 0.  0.
     999903    2    3    3    0    0  0.93346597373E-01  0.90049880036E-01 -0.14741208748E-01  0.13216680487E+00  0.20692823359E-01 0.  0.
         14    1    1    2    0    0 -0.22864655201E-01  0.59196295744E-02 -0.16250219260E-03  0.23619078702E-01  0.00000000000E+00 0.  1.
     999901    1    3    3    0    0 -0.70481942172E-01 -0.95969509610E-01  0.14903710940E-01  0.88814411643E+00  0.88000000000E+00 0.  1.
        -11    1    4    4    0    0  0.72705619996E-01  0.57229541343E-01 -0.11845921188E-01  0.93284053038E-01  0.51100000000E-03 0.  1.
         11    1    4    4    0    0  0.20640977377E-01  0.32820338692E-01 -0.28952875601E-02  0.38882751832E-01  0.51100000000E-03 0. -1.
</event>
<event>
 8    1  0.1202249E+005  0.1043930E+01  0.7957747E-01            NaN
         13   -1    0    0    0    0  0.00000000000E+00  0.00000000000E+00  0.74505805969E-08  0.10566000000E+00  0.10566000000E+00 0.  1.
     999900   -1    0    0    0    0 -0.00000000000E+00 -0.00000000000E+00 -0.74505805969E-08  0.93827000000E+00  0.93827000000E+00 0. -1.
     999902    2    1    2    0    0 -0.22553590515E-01 -0.15176324111E-02 -0.80313936701E-02  0.10199410247E+01  0.10196588757E+01 0.  0.
     999903    2    3    3    0    0 -0.40549555316E-01 -0.12325422845E+00 -0.18894160805E-02  0.13135710772E+00  0.20377649243E-01 0.  0.
         14    1    1    2    0    0  0.22553590515E-01  0.15176324111E-02  0.80313936701E-02  0.23988975333E-01  0.00000000000E+00 0.  1.
     999901    1    3    3    0    0  0.17995964801E-01  0.12173659604E+00 -0.61419775896E-02  0.88858391694E+00  0.88000000000E+00 0.  1.
        -11    1    4    4    0    0 -0.10788142371E-01 -0.15135577845E-01  0.41576433704E-02  0.19053001127E-01  0.51100000000E-03 0.  1.
         11    1    4    4    0    0 -0.29761412945E-01 -0.10811865061E+00 -0.60470594509E-02  0.11230410660E+00  0.51100000000E-03 0. -1.
</event>
<event>
 8    1  0.1202249E+005  0.1043930E+01  0.7957747E-01            NaN
         13   -1    0    0    0    0  0.00000000000E+00  0.00000000000E+00  0.74505805969E-08  0.10566000000E+00  0.10566000000E+00 0. -1.
     999900   -1    0    0    0    0 -0.00000000000E+00 -0.00000000000E+00 -0.74505805969E-08  0.93827000000E+00  0.93827000000E+00 0.  1.
     999902    2    1    2    0    0 -0.23681730118E-02  0.23481151620E-01 -0.25775622364E-03  0.10203283229E+01  0.10200553158E+01 0.  0.
     999903    2    3    3    0    0  0.29075965131E-01 -0.12271700035E+00 -0.11713107786E-01  0.12763920647E+00  0.15801778749E-01 0.  0.
         14    1    1    2    0    0  0.23681730118E-02 -0.23481151620E-01  0.25775622364E-03  0.23601677125E-01  0.00000000000E+00 0.  1.
     999901    1    3    3    0    0 -0.31444138143E-01  0.14619815197E+00  0.11455351562E-01  0.89268911640E+00  0.88000000000E+00 0. -1.
        -11    1    4    4    0    0  0.17392161615E-01 -0.59443278448E-01 -0.12972602190E-01  0.63281436195E-01  0.51100000000E-03 0. -1.
         11    1    4    4    0    0  0.11683803517E-01 -0.63273721903E-01  0.12594944042E-02  0.64357770278E-01  0.51100000000E-03 0.  1.
</event>
<event>
 8    1  0.1202249E+005  0.1043930E+01  0.7957747E-01            NaN
         13   -1    0    0    0    0  0.00000000000E+00  0.00000000000E+00  0.74505805969E-08  0.10566000000E+00  0.10566000000E+00 0. -1.
     999900   -1    0    0    0    0 -0.00000000000E+00 -0.00000000000E+00 -0.74505805969E-08  0.93827000000E+00  0.93827000000E+00 0.  1.
     999902    2    1    2    0    0 -0.11054287585E-01 -0.14771267848E-01 -0.14222996748E-01  0.10206344797E+01  0.10203685902E+01 0.  0.
     999903    2    3    3    0    0 -0.16191406582E-01 -0.12861771210E+00  0.21018980990E-01  0.13258639553E+00  0.18239440974E-01 0.  0.
         14    1    1    2    0    0  0.11054287585E-01  0.14771267848E-01  0.14222996748E-01  0.23295520263E-01  0.00000000000E+00 0. -1.
     999901    1    3    3    0    0  0.51371189965E-02  0.11384644425E+00 -0.35241977738E-01  0.88804808420E+00  0.88000000000E+00 0. -1.
        -11    1    4    4    0    0 -0.19503209818E-01 -0.10785135840E+00  0.20755664749E-01  0.11154976218E+00  0.51100000000E-03 0.  1.
         11    1    4    4    0    0  0.33118032363E-02 -0.20766353695E-01  0.26331624082E-03  0.21036633355E-01  0.51100000000E-03 0. -1.
</event>
<event>
 8    1  0.1202249E+005  0.1043930E+01  0.7957747E-01            NaN
         13   -1    0    0    0    0  0.00000000000E+00  0.00000000000E+00  0.74505805969E-08  0.10566000000E+00  0.10566000000E+00 0.  1.
     999900   -1    0    0    0    0 -0.00000000000E+00 -0.00000000000E+00 -0.74505805969E-08  0.93827000000E+00  0.93827000000E+00 0. -1.
     999902    2    1    2    0    0  0.97146247542E-03 -0.22803874595E-01 -0.50123540066E-03  0.10210999393E+01  0.10208446867E+01 0.  0.
     999903    2    3    3    0    0 -0.29720030752E-01 -0.10100074599E+00  0.79352389466E-01  0.13350018721E+00  0.21001603599E-01 0.  0.
         14    1    1    2    0    0 -0.97146247542E-03  0.22803874595E-01  0.50123540066E-03  0.22830060728E-01  0.00000000000E+00 0. -1.
     999901    1    3    3    0    0  0.30691493227E-01  0.78196871393E-01 -0.79853624867E-01  0.88759975206E+00  0.88000000000E+00 0. -1.
        -11    1    4    4    0    0 -0.79805346614E-02 -0.62991799303E-01  0.44590918621E-01  0.77590378639E-01  0.51100000000E-03 0. -1.
         11    1    4    4    0    0 -0.21739496090E-01 -0.38008946685E-01  0.34761470845E-01  0.55909808573E-01  0.51100000000E-03 0.  1.
</event>
<event>
 8    1  0.1202249E+005  0.1043930E+01  0.7957747E-01            NaN
         13   -1    0    0    0    0  0.00000000000E+00  0.00000000000E+00  0.74505805969E-08  0.10566000000E+00  0.10566000000E+00 0.  1.
     999900   -1    0    0    0    0 -0.00000000000E+00 -0.00000000000E+00 -0.74505805969E-08  0.93827000000E+00  0.93827000000E+00 0.  1.
     999902    2    1    2    0    0 -0.65918182290E-02 -0.11713581880E-01  0.19457366975E-01  0.10202815498E+01  0.10200074469E+01 0.  0.
     999903    2    3    3    0    0 -0.72795366832E-02 -0.12325095618E+00 -0.39836766726E-01  0.13126138516E+00  0.19969812153E-01 0.  0.
         14    1    1    2    0    0  0.65918182290E-02  0.11713581880E-01 -0.19457366975E-01  0.23648450217E-01  0.00000000000E+00 0. -1.
     999901    1    3    3    0    0  0.68771845416E-03  0.11153737430E+00  0.59294133702E-01  0.88902016463E+00  0.88000000000E+00 0. -1.
        -11    1    4    4    0    0 -0.12739699245E-01 -0.52246684065E-01 -0.19388821488E-01  0.57168203158E-01  0.51100000000E-03 0. -1.
         11    1    4    4    0    0  0.54601625614E-02 -0.71004272111E-01 -0.20447945239E-01  0.74093181998E-01  0.51100000000E-03 0.  1.
</event>
<event>
 8    1  0.1202249E+005  0.1043930E+01  0.7957747E-01            NaN
         13   -1    0    0    0    0  0.00000000000E+00  0.00000000000E+00  0.74505805969E-08  0.10566000000E+00  0.10566000000E+00 0. -1.
     999900   -1    0    0    0    0 -0.00000000000E+00 -0.00000000000E+00 -0.74505805969E-08  0.93827000000E+00  0.93827000000E+00 0. -1.
     999902    2    1    2    0    0 -0.65060042839E-02  0.16764824641E-01 -0.16389560582E-01  0.10195988444E+01  0.10193084903E+01 0.  0.
     999903    2    3    3    0    0  0.70087743546E-01  0.87298355226E-01 -0.67479589157E-01  0.13198869790E+00  0.18281870791E-01 0.  0.
         14    1    1    2    0    0  0.65060042839E-02 -0.16764824641E-01  0.16389560582E-01  0.24331155605E-01  0.00000000000E+00 0. -1.
     999901    1    3    3    0    0 -0.76593747830E-01 -0.70533530585E-01  0.51090028576E-01  0.88761014650E+00  0.88000000000E+00 0.  1.
        -11    1    4    4    0    0  0.67429896603E-01  0.79300216728E-01 -0.57511139898E-01  0.11892479835E+00  0.51100000000E-03 0. -1.
         11    1    4    4    0    0  0.26578469433E-02  0.79981384981E-02 -0.99684492599E-02  0.13063899550E-01  0.51100000000E-03 0.  1.
</event>
<event>
 8    1  0.1202249E+005  0.1043930E+01  0.7957747E-01            NaN
         13   -1    0    0    0    0  0.00000000000E+00  0.00000000000E+00  0.74505805969E-08  0.10566000000E+00  0.10566000000E+00 0. -1.
     999900   -1    0    0    0    0 -0.00000000000E+00 -0.00000000000E+00 -0.74505805969E-08  0.93827000000E+00  0.93827000000E+00 0. -1.
     999902    2    1    2    0    0 -0.16091324420E-01 -0.12667089183E-01 -0.55515715042E-02  0.10227119460E+01  0.10224918184E+01 0.  0.
     999903    2    3    3    0    0 -0.12895573688E+00 -0.27256807702E-01 -0.22504058022E-01  0.13522187715E+00  0.20149635012E-01 0.  0.
         14    1    1    2    0    0  0.16091324420E-01  0.12667089183E-01  0.55515715042E-02  0.21218054014E-01  0.00000000000E+00 0. -1.
     999901    1    3    3    0    0  0.11286441246E+00  0.14589718520E-01  0.16952486518E-01  0.88749006884E+00  0.88000000000E+00 0.  1.
        -11    1    4    4    0    0 -0.12360948370E+00 -0.26106184638E-01 -0.25617501745E-01  0.12890831956E+00  0.51100000000E-03 0.  1.
         11    1    4    4    0    0 -0.53462531866E-02 -0.11506230642E-02  0.31134437229E-02  0.63135575856E-02  0.51100000000E-03 0. -1.
</event>
<event>
 8    1  0.1202249E+005  0.1043930E+01  0.7957747E-01            NaN
         13   -1    0    0    0    0  0.00000000000E+00  0.00000000000E+00  0.74505805969E-08  0.10566000000E+00  0.10566000000E+00 0. -1.
     999900   -1    0    0    0    0 -0.00000000000E+00 -0.00000000000E+00 -0.74505805969E-08  0.93827000000E+00  0.93827000000E+00 0.  1.
     999902    2    1    2    0    0  0.11669002503E-01  0.19246855388E-01  0.46078633658E-02  0.10209552428E+01  0.10206967074E+01 0.  0.
     999903    2    3    3    0    0 -0.59398388137E-01 -0.11181466422E+00 -0.25830161358E-02  0.12838625129E+00  0.21110895246E-01 0.  0.
         14    1    1    2    0    0 -0.11669002503E-01 -0.19246855388E-01 -0.46078633658E-02  0.22974757160E-01  0.00000000000E+00 0. -1.
     999901    1    3    3    0    0  0.71067390640E-01  0.13106151961E+00  0.71908795015E-02  0.89256899155E+00  0.88000000000E+00 0.  1.
        -11    1    4    4    0    0 -0.72780324042E-02 -0.19097975829E-01 -0.78329482625E-02  0.21893346842E-01  0.51100000000E-03 0. -1.
         11    1    4    4    0    0 -0.52120355733E-01 -0.92716688395E-01  0.52499321267E-02  0.10649290444E+00  0.51100000000E-03 0.  1.
</event>
<event>
 8    1  0.1202249E+005  0.1043930E+01  0.7957747E-01            NaN
         13   -1    0    0    0    0  0.00000000000E+00  0.00000000000E+00  0.74505805969E-08  0.10566000000E+00  0.10566000000E+00 0.  1.
     999900   -1    0    0    0    0 -0.00000000000E+00 -0.00000000000E+00 -0.74505805969E-08  0.93827000000E+00  0.93827000000E+00 0.  1.
     999902    2    1    2    0    0 -0.71958638951E-02  0.19713155102E-01  0.11561099983E-01  0.10199707017E+01  0.10196892587E+01 0.  0.
     999903    2    3    3    0    0 -0.52444501505E-01  0.11522634577E+00  0.36410048819E-01  0.13329845164E+00  0.20377660779E-01 0.  0.
         14    1    1    2    0    0  0.71958638951E-02 -0.19713155102E-01 -0.11561099983E-01  0.23959298280E-01  0.00000000000E+00 0.  1.
     999901    1    3    3    0    0  0.45248637609E-01 -0.95513190665E-01 -0.24848948836E-01  0.88667225008E+00  0.88000000000E+00 0.  1.
        -11    1    4    4    0    0 -0.25682019933E-01  0.76264878047E-01  0.28492037148E-01  0.85369520751E-01  0.51100000000E-03 0. -1.
         11    1    4    4    0    0 -0.26762481571E-01  0.38961467720E-01  0.79180116708E-02  0.47928930893E-01  0.51100000000E-03 0.  1.
</event>
<event>
 8    1  0.1202249E+005  0.1043930E+01  0.7957747E-01            NaN
         13   -1    0    0    0    0  0.00000000000E+00  0.00000000000E+00  0.74505805969E-08  0.10566000000E+00  0.10566000000E+00 0.  1.
     999900   -1    0    0    0    0 -0.00000000000E+00 -0.00000000000E+00 -0.74505805969E-08  0.93827000000E+00  0.93827000000E+00 0.  1.
     999902    2    1    2    0    0  0.23147403652E-01 -0.31485821014E-02  0.84705939197E-02  0.10190811202E+01  0.10187781224E+01 0.  0.
     999903    2    3    3    0    0  0.12953514787E+00  0.18343934281E-01 -0.24021971901E-02  0.13234638087E+00  0.19847909695E-01 0.  0.
         14    1    1    2    0    0 -0.23147403652E-01  0.31485821014E-02 -0.84705939197E-02  0.24848879782E-01  0.00000000000E+00 0. -1.
     999901    1    3    3    0    0 -0.10638774422E+00 -0.21492516383E-01  0.10872791110E-01  0.88673473935E+00  0.88000000000E+00 0.  1.
        -11    1    4    4    0    0  0.79959578246E-01  0.11886832014E-01 -0.11100366143E-01  0.81598469214E-01  0.51100000000E-03 0. -1.
         11    1    4    4    0    0  0.49575569624E-01  0.64571022673E-02  0.86981689526E-02  0.50747911656E-01  0.51100000000E-03 0.  1.
</event>
<event>
 8    1  0.1202249E+005  0.1043930E+01  0.7957747E-01            NaN
         13   -1    0    0    0    0  0.00000000000E+00  0.00000000000E+00  0.74505805969E-08  0.10566000000E+00  0.10566000000E+00 0.  1.
     999900   -1    0    0    0    0 -0.00000000000E+00 -0.00000000000E+00 -0.74505805969E-08  0.93827000000E+00  0.93827000000E+00 0. -1.
     999902    2    1    2    0    0  0.90994672093E-02 -0.76837113639E-03 -0.23673246228E-01  0.10185565240E+01  0.10182404329E+01 0.  0.
     999903    2    3    3    0    0 -0.11662780661E+00  0.24039462519E-01  0.39610858350E-01  0.12702545113E+00  0.19659707606E-01 0.  0.
         14    1    1    2    0    0 -0.90994672093E-02  0.76837113639E-03  0.23673246228E-01  0.25373476007E-01  0.00000000000E+00 0.  1.
     999901    1    3    3    0    0  0.12572727382E+00 -0.24807833655E-01 -0.63284104578E-01  0.89153107287E+00  0.88000000000E+00 0.  1.
        -11    1    4    4    0    0 -0.26194028570E-01  0.70358598290E-02  0.75350220552E-03  0.27137784413E-01  0.51100000000E-03 0.  1.
         11    1    4    4    0    0 -0.90433778036E-01  0.17003602690E-01  0.38857356145E-01  0.99887666715E-01  0.51100000000E-03 0. -1.
</event>
<event>
 8    1  0.1202249E+005  0.1043930E+01  0.7957747E-01            NaN
         13   -1    0    0    0    0  0.00000000000E+00  0.00000000000E+00  0.74505805969E-08  0.10566000000E+00  0.10566000000E+00 0.  1.
     999900   -1    0    0    0    0 -0.00000000000E+00 -0.00000000000E+00 -0.74505805969E-08  0.93827000000E+00  0.93827000000E+00 0.  1.
     999902    2    1    2    0    0 -0.13681014699E-01 -0.11875986501E-01  0.15438266137E-01  0.10201277043E+01  0.10198499810E+01 0.  0.
     999903    2    3    3    0    0  0.11150974984E+00  0.30642506286E-01 -0.51009475334E-01  0.12777359741E+00  0.18728003652E-01 0.  0.
         14    1    1    2    0    0  0.13681014699E-01  0.11875986501E-01 -0.15438266137E-01  0.23802295685E-01  0.00000000000E+00 0. -1.
     999901    1    3    3    0    0 -0.12519076454E+00 -0.42518492787E-01  0.66447741471E-01  0.89235410690E+00  0.88000000000E+00 0. -1.
        -11    1    4    4    0    0  0.58891887329E-01  0.14081045334E-01 -0.36607931533E-01  0.70759677805E-01  0.51100000000E-03 0. -1.
         11    1    4    4    0    0  0.52617862514E-01  0.16561460952E-01 -0.14401543801E-01  0.57013919610E-01  0.51100000000E-03 0.  1.
</event>
<event>
 7    1  0.1538723E+005  0.1043930E+01  0.7957747E-01            NaN
         13   -1    0    0    0    0  0.00000000000E+00  0.00000000000E+00  0.74505805969E-08  0.10566000000E+00  0.10566000000E+00 0. -1.
     999900   -1    0    0    0    0 -0.00000000000E+00 -0.00000000000E+00 -0.74505805969E-08  0.93827000000E+00  0.93827000000E+00 0. -1.
     999903    2    1    2    0    0 -0.96898872178E-01  0.67731563403E-03  0.14102299037E-01  0.99811669571E-01  0.19329882528E-01 0.  0.
         14    1    1    2    0    0 -0.41229028653E-01  0.16304826962E-02 -0.33471325704E-01  0.53130226067E-01  0.00000000000E+00 0. -1.
     999901    1    1    2    0    0  0.13812790083E+00 -0.23077983303E-02  0.19369026668E-01  0.89098810436E+00  0.88000000000E+00 0.  1.
        -11    1    3    3    0    0 -0.58337478930E-01 -0.89812913158E-02  0.72710024872E-02  0.59473133765E-01  0.51100000000E-03 0. -1.
         11    1    3    3    0    0 -0.38561393248E-01  0.96586069498E-02  0.68312965495E-02  0.40338535806E-01  0.51100000000E-03 0.  1.
</event>
<event>
 8    1  0.1202249E+005  0.1043930E+01  0.7957747E-01            NaN
         13   -1    0    0    0    0  0.00000000000E+00  0.00000000000E+00  0.74505805969E-08  0.10566000000E+00  0.10566000000E+00 0.  1.
     999900   -1    0    0    0    0 -0.00000000000E+00 -0.00000000000E+00 -0.74505805969E-08  0.93827000000E+00  0.93827000000E+00 0.  1.
     999902    2    1    2    0    0 -0.18505502491E-01  0.14166391204E-02  0.13220912866E-01  0.10211428759E+01  0.10208885933E+01 0.  0.
     999903    2    3    3    0    0 -0.96660388264E-01 -0.47898037252E-01  0.76811099816E-01  0.13402178191E+00  0.20601949922E-01 0.  0.
         14    1    1    2    0    0  0.18505502491E-01 -0.14166391204E-02 -0.13220912866E-01  0.22787124125E-01  0.00000000000E+00 0. -1.
     999901    1    3    3    0    0  0.78154885772E-01  0.49314676372E-01 -0.63590186950E-01  0.88712109396E+00  0.88000000000E+00 0.  1.
        -11    1    4    4    0    0 -0.69242342188E-01 -0.43832326256E-01  0.54271177615E-01  0.98292403661E-01  0.51100000000E-03 0.  1.
         11    1    4    4    0    0 -0.27418046076E-01 -0.40657109951E-02  0.22539922201E-01  0.35729378253E-01  0.51100000000E-03 0. -1.
</event>
<event>
 8    1  0.1202249E+005  0.1043930E+01  0.7957747E-01            NaN
         13   -1    0    0    0    0  0.00000000000E+00  0.00000000000E+00  0.74505805969E-08  0.10566000000E+00  0.10566000000E+00 0. -1.
     999900   -1    0    0    0    0 -0.00000000000E+00 -0.00000000000E+00 -0.74505805969E-08  0.93827000000E+00  0.93827000000E+00 0.  1.
     999902    2    1    2    0    0 -0.10864621935E-01 -0.13697485086E-01 -0.17906439646E-01  0.10189039798E+01  0.10185965925E+01 0.  0.
     999903    2    3    3    0    0  0.13339817546E-01 -0.85050599407E-01 -0.98147953460E-01  0.13204670696E+00  0.19792848649E-01 0.  0.
         14    1    1    2    0    0  0.10864621935E-01  0.13697485086E-01  0.17906439646E-01  0.25026020225E-01  0.00000000000E+00 0.  1.
     999901    1    3    3    0    0 -0.24204439481E-01  0.71353114321E-01  0.80241513814E-01  0.88685727282E+00  0.88000000000E+00 0. -1.
        -11    1    4    4    0    0  0.14838621887E-01 -0.43622528879E-01 -0.60460553560E-01  0.76018743630E-01  0.51100000000E-03 0. -1.
         11    1    4    4    0    0 -0.14988043403E-02 -0.41428070529E-01 -0.37687399900E-01  0.56027963326E-01  0.51100000000E-03 0.  1.
</event>
<event>
 8    1  0.1202249E+005  0.1043930E+01  0.7957747E-01            NaN
         13   -1    0    0    0    0  0.00000000000E+00  0.00000000000E+00  0.74505805969E-08  0.10566000000E+00  0.10566000000E+00 0. -1.
     999900   -1    0    0    0    0 -0.00000000000E+00 -0.00000000000E+00 -0.74505805969E-08  0.93827000000E+00  0.93827000000E+00 0. -1.
     999902    2    1    2    0    0 -0.58353512821E-02  0.19715880225E-01  0.11492954439E-01  0.10203746342E+01  0.10201027099E+01 0.  0.
     999903    2    3    3    0    0 -0.95604384573E-01 -0.30301749141E-01 -0.79804915810E-01  0.12970323365E+00  0.19892457926E-01 0.  0.
         14    1    1    2    0    0  0.58353512821E-02 -0.19715880225E-01 -0.11492954439E-01  0.23555365830E-01  0.00000000000E+00 0.  1.
     999901    1    3    3    0    0  0.89769033291E-01  0.50017629367E-01  0.91297870248E-01  0.89067140052E+00  0.88000000000E+00 0.  1.
        -11    1    4    4    0    0 -0.79222296802E-01 -0.16789353614E-01 -0.62172491992E-01  0.10209669234E+00  0.51100000000E-03 0. -1.
         11    1    4    4    0    0 -0.16382087771E-01 -0.13512395527E-01 -0.17632423818E-01  0.27606541313E-01  0.51100000000E-03 0.  1.
</event>
<event>
 8    1  0.1202249E+005  0.1043930E+01  0.7957747E-01            NaN
         13   -1    0    0    0    0  0.00000000000E+00  0.00000000000E+00  0.74505805969E-08  0.10566000000E+00  0.10566000000E+00 0.  1.
     999900   -1    0    0    0    0 -0.00000000000E+00 -0.00000000000E+00 -0.74505805969E-08  0.93827000000E+00  0.93827000000E+00 0.  1.
     999902    2    1    2    0    0 -0.88799400243E-02  0.18805564824E-01 -0.11454697808E-01  0.10201873652E+01  0.10199110488E+01 0.  0.
     999903    2    3    3    0    0 -0.63752671661E-01 -0.39911552390E-01 -0.10658042603E+00  0.13141989245E+00  0.15951982978E-01 0.  0.
         14    1    1    2    0    0  0.88799400243E-02 -0.18805564824E-01  0.11454697808E-01  0.23742634754E-01  0.00000000000E+00 0.  1.
     999901    1    3    3    0    0  0.54872731636E-01  0.58717117214E-01  0.95125728221E-01  0.88876747280E+00  0.88000000000E+00 0. -1.
        -11    1    4    4    0    0 -0.37226501945E-01 -0.25569421648E-01 -0.76410532680E-01  0.88760567798E-01  0.51100000000E-03 0.  1.
         11    1    4    4    0    0 -0.26526169716E-01 -0.14342130743E-01 -0.30169893349E-01  0.42659324652E-01  0.51100000000E-03 0. -1.
</event>
<event>
 8    1  0.1202249E+005  0.1043930E+01  0.7957747E-01            NaN
         13   -1    0    0    0    0  0.00000000000E+00  0.00000000000E+00  0.74505805969E-08  0.10566000000E+00  0.10566000000E+00 0.  1.
     999900   -1    0    0    0    0 -0.00000000000E+00 -0.00000000000E+00 -0.74505805969E-08  0.93827000000E+00  0.93827000000E+00 0. -1.
     999902    2    1    2    0    0  0.11410984020E-01 -0.76956225464E-02 -0.19494932385E-01  0.10200661036E+01  0.10197869239E+01 0.  0.
     999903    2    3    3    0    0 -0.12708616343E+00  0.68679570926E-02 -0.40303038875E-02  0.12898097162E+00  0.20537427296E-01 0.  0.
         14    1    1    2    0    0 -0.11410984020E-01  0.76956225464E-02  0.19494932385E-01  0.23863896400E-01  0.00000000000E+00 0.  1.
     999901    1    3    3    0    0  0.13849714745E+00 -0.14563579639E-01 -0.15464628498E-01  0.89108513198E+00  0.88000000000E+00 0.  1.
        -11    1    4    4    0    0 -0.72279103175E-01 -0.31079436779E-02 -0.96495993581E-02  0.72988382352E-01  0.51100000000E-03 0.  1.
         11    1    4    4    0    0 -0.54807060257E-01  0.99759007705E-02  0.56192954706E-02  0.55992589266E-01  0.51100000000E-03 0. -1.
</event>
<event>
 8    1  0.1202249E+005  0.1043930E+01  0.7957747E-01            NaN
         13   -1    0    0    0    0  0.00000000000E+00  0.00000000000E+00  0.74505805969E-08  0.10566000000E+00  0.10566000000E+00 0.  1.
     999900   -1    0    0    0    0 -0.00000000000E+00 -0.00000000000E+00 -0.74505805969E-08  0.93827000000E+00  0.93827000000E+00 0. -1.
     999902    2    1    2    0    0  0.62144011937E-02 -0.27428205051E-01  0.10722530062E-01  0.10138318628E+01  0.10133849950E+01 0.  0.
     999903    2    3    3    0    0 -0.57820581301E-01  0.33702518794E-01  0.10317767219E+00  0.12457071007E+00  0.19828019894E-01 0.  0.
         14    1    1    2    0    0 -0.62144011937E-02  0.27428205051E-01 -0.10722530062E-01  0.30098137242E-01  0.00000000000E+00 0.  1.
     999901    1    3    3    0    0  0.64034982495E-01 -0.61130723845E-01 -0.92455142127E-01  0.88926115269E+00  0.88000000000E+00 0. -1.
        -11    1    4    4    0    0 -0.38991369399E-01  0.27624341567E-01  0.57343616669E-01  0.74645714065E-01  0.51100000000E-03 0.  1.
         11    1    4    4    0    0 -0.18829211902E-01  0.60781772270E-02  0.45834055520E-01  0.49924996001E-01  0.51100000000E-03 0. -1.
</event>
<event>
 8    1  0.1202249E+005  0.1043930E+01  0.7957747E-01            NaN
         13   -1    0    0    0    0  0.00000000000E+00  0.00000000000E+00  0.74505805969E-08  0.10566000000E+00  0.10566000000E+00 0. -1.
     999900   -1    0    0    0    0 -0.00000000000E+00 -0.00000000000E+00 -0.74505805969E-08  0.93827000000E+00  0.93827000000E+00 0.  1.
     999902    2    1    2    0    0 -0.78184422869E-03 -0.21959138186E-01 -0.22105794940E-01  0.10127614068E+01  0.10122816732E+01 0.  0.
     999903    2    3    3    0    0 -0.65212827451E-01 -0.70173745944E-01  0.75249324217E-01  0.12374283603E+00  0.21743072224E-01 0.  0.
         14    1    1    2    0    0  0.78184422869E-03  0.21959138186E-01  0.22105794940E-01  0.31168593170E-01  0.00000000000E+00 0. -1.
     999901    1    3    3    0    0  0.64430983222E-01  0.48214607758E-01 -0.97355119157E-01  0.88901857080E+00  0.88000000000E+00 0.  1.
        -11    1    4    4    0    0 -0.26913948715E-01 -0.32788608343E-01  0.46661482577E-01  0.63063527889E-01  0.51100000000E-03 0.  1.
         11    1    4    4    0    0 -0.38298878736E-01 -0.37385137602E-01  0.28587841640E-01  0.60679308142E-01  0.51100000000E-03 0. -1.
</event>
<event>
 8    1  0.1202249E+005  0.1043930E+01  0.7957747E-01            NaN
         13   -1    0    0    0    0  0.00000000000E+00  0.00000000000E+00  0.74505805969E-08  0.10566000000E+00  0.10566000000E+00 0.  1.
     999900   -1    0    0    0    0 -0.00000000000E+00 -0.00000000000E+00 -0.74505805969E-08  0.93827000000E+00  0.93827000000E+00 0.  1.
     999902    2    1    2    0    0  0.90066576106E-02  0.15206155602E-01 -0.14951353304E-01  0.10207807016E+01  0.10205181776E+01 0.  0.
     999903    2    3    3    0    0 -0.96544533338E-01 -0.74546742875E-01  0.35220929041E-01  0.12852855419E+00  0.20025274240E-01 0.  0.
         14    1    1    2    0    0 -0.90066576106E-02 -0.15206155602E-01  0.14951353304E-01  0.23149298372E-01  0.00000000000E+00 0.  1.
     999901    1    3    3    0    0  0.10555119095E+00  0.89752898477E-01 -0.50172282345E-01  0.89225214744E+00  0.88000000000E+00 0. -1.
        -11    1    4    4    0    0 -0.76984113750E-01 -0.66810076308E-01  0.24160192525E-01  0.10475741544E+00  0.51100000000E-03 0.  1.
         11    1    4    4    0    0 -0.19560419587E-01 -0.77366665672E-02  0.11060736516E-01  0.23771138746E-01  0.51100000000E-03 0. -1.
</event>
<event>
 8    1  0.1202249E+005  0.1043930E+01  0.7957747E-01            NaN
         13   -1    0    0    0    0  0.00000000000E+00  0.00000000000E+00  0.74505805969E-08  0.10566000000E+00  0.10566000000E+00 0. -1.
     999900   -1    0    0    0    0 -0.00000000000E+00 -0.00000000000E+00 -0.74505805969E-08  0.93827000000E+00  0.93827000000E+00 0. -1.
     999902    2    1    2    0    0 -0.83286177343E-02 -0.78693462571E-02 -0.20610629130E-01  0.10203484284E+01  0.10200758917E+01 0.  0.
     999903    2    3    3    0    0 -0.41328050053E-01 -0.64628917431E-01 -0.10750841120E+00  0.13363436180E+00  0.20375953600E-01 0.  0.
         14    1    1    2    0    0  0.83286177343E-02  0.78693462571E-02  0.20610629130E-01  0.23581571555E-01  0.00000000000E+00 0. -1.
     999901    1    3    3    0    0  0.32999432319E-01  0.56759571174E-01  0.86897782074E-01  0.88671406664E+00  0.88000000000E+00 0.  1.
        -11    1    4    4    0    0 -0.23115917622E-01 -0.29249291374E-01 -0.36165045600E-01  0.51942644693E-01  0.51100000000E-03 0.  1.
         11    1    4    4    0    0 -0.18212132431E-01 -0.35379626057E-01 -0.71343365603E-01  0.81691717109E-01  0.51100000000E-03 0. -1.
</event>
<event>
 8    1  0.1202249E+005  0.1043930E+01  0.7957747E-01            NaN
         13   -1    0    0    0    0  0.00000000000E+00  0.00000000000E+00  0.74505805969E-08  0.10566000000E+00  0.10566000000E+00 0. -1.
     999900   -1    0    0    0    0 -0.00000000000E+00 -0.00000000000E+00 -0.74505805969E-08  0.93827000000E+00  0.93827000000E+00 0.  1.
     999902    2    1    2    0    0  0.12288681447E-01 -0.96563386769E-02  0.17699614285E-01  0.10203178651E+01  0.10200446132E+01 0.  0.
     999903    2    3    3    0    0 -0.11413861774E+00  0.26589701866E-01  0.52619699437E-01  0.12985896668E+00  0.18970560230E-01 0.  0.
         14    1    1    2    0    0 -0.12288681447E-01  0.96563386769E-02 -0.17699614285E-01  0.23612134893E-01  0.00000000000E+00 0.  1.
     999901    1    3    3    0    0  0.12642729918E+00 -0.36246040543E-01 -0.34920085152E-01  0.89045889842E+00  0.88000000000E+00 0. -1.
        -11    1    4    4    0    0 -0.18749128004E-01  0.88987880601E-04  0.25955732225E-02  0.18935042675E-01  0.51100000000E-03 0.  1.
         11    1    4    4    0    0 -0.95389489732E-01  0.26500713985E-01  0.50024126215E-01  0.11092392401E+00  0.51100000000E-03 0. -1.
</event>
<event>
 8    1  0.1202249E+005  0.1043930E+01  0.7957747E-01            NaN
         13   -1    0    0    0    0  0.00000000000E+00  0.00000000000E+00  0.74505805969E-08  0.10566000000E+00  0.10566000000E+00 0. -1.
     999900   -1    0    0    0    0 -0.00000000000E+00 -0.00000000000E+00 -0.74505805969E-08  0.93827000000E+00  0.93827000000E+00 0. -1.
     999902    2    1    2    0    0 -0.11826701545E-01  0.63717488993E-02 -0.20583330805E-01  0.10193506680E+01  0.10190542875E+01 0.  0.
     999903    2    3    3    0    0 -0.94447301909E-01 -0.28784297545E-01  0.80671597115E-01  0.12900541385E+00  0.19638268695E-01 0.  0.
         14    1    1    2    0    0  0.11826701545E-01 -0.63717488993E-02  0.20583330805E-01  0.24579331978E-01  0.00000000000E+00 0. -1.
     999901    1    3    3    0    0  0.82620600364E-01  0.35156046444E-01 -0.10125492792E+00  0.89034525418E+00  0.88000000000E+00 0. -1.
        -11    1    4    4    0    0 -0.76470909484E-01 -0.21407954882E-01  0.73737997585E-01  0.10836814079E+00  0.51100000000E-03 0.  1.
         11    1    4    4    0    0 -0.17976392425E-01 -0.73763426627E-02  0.69335995292E-02  0.20637273055E-01  0.51100000000E-03 0. -1.
</event>
<event>
 8    1  0.1202249E+005  0.1043930E+01  0.7957747E-01            NaN
         13   -1    0    0    0    0  0.00000000000E+00  0.00000000000E+00  0.74505805969E-08  0.10566000000E+00  0.10566000000E+00 0.  1.
     999900   -1    0    0    0    0 -0.00000000000E+00 -0.00000000000E+00 -0.74505805969E-08  0.93827000000E+00  0.93827000000E+00 0.  1.
     999902    2    1    2    0    0 -0.90714273801E-02  0.95790044787E-02  0.22097244767E-01  0.10181941039E+01  0.10178688014E+01 0.  0.
     999903    2    3    3    0    0  0.96210788627E-01  0.17549266224E-01 -0.77261956242E-01  0.12633081791E+00  0.20629422639E-01 0.  0.
         14    1    1    2    0    0  0.90714273801E-02 -0.95790044787E-02 -0.22097244767E-01  0.25735896095E-01  0.00000000000E+00 0. -1.
     999901    1    3    3    0    0 -0.10528221601E+00 -0.79702617455E-02  0.99359201009E-01  0.89186328599E+00  0.88000000000E+00 0. -1.
        -11    1    4    4    0    0  0.58506418262E-01  0.18908702145E-01 -0.40344926909E-01  0.73542601551E-01  0.51100000000E-03 0.  1.
         11    1    4    4    0    0  0.37704370365E-01 -0.13594359207E-02 -0.36917029333E-01  0.52788216359E-01  0.51100000000E-03 0. -1.
</event>
<event>
 8    1  0.1202249E+005  0.1043930E+01  0.7957747E-01            NaN
         13   -1    0    0    0    0  0.00000000000E+00  0.00000000000E+00  0.74505805969E-08  0.10566000000E+00  0.10566000000E+00 0.  1.
     999900   -1    0    0    0    0 -0.00000000000E+00 -0.00000000000E+00 -0.74505805969E-08  0.93827000000E+00  0.93827000000E+00 0.  1.
     999902    2    1    2    0    0 -0.16960571797E-01  0.57179843416E-03  0.16334092433E-01  0.10203760083E+01  0.10201041162E+01 0.  0.
     999903    2    3    3    0    0 -0.27899675200E-01  0.11862317043E+00  0.46598638058E-01  0.13191006459E+00  0.19467501971E-01 0.  0.
         14    1    1    2    0    0  0.16960571797E-01 -0.57179843416E-03 -0.16334092433E-01  0.23553991694E-01  0.00000000000E+00 0. -1.
     999901    1    3    3    0    0  0.10939103403E-01 -0.11805137200E+00 -0.30264545625E-01  0.88846594371E+00  0.88000000000E+00 0.  1.
        -11    1    4    4    0    0 -0.20194994995E-01  0.95534852220E-01  0.44985426351E-01  0.10751137389E+00  0.51100000000E-03 0.  1.
         11    1    4    4    0    0 -0.77046802043E-02  0.23088318211E-01  0.16132117065E-02  0.24398690700E-01  0.51100000000E-03 0. -1.
</event>
<event>
 8    1  0.1202249E+005  0.1043930E+01  0.7957747E-01            NaN
         13   -1    0    0    0    0  0.00000000000E+00  0.00000000000E+00  0.74505805969E-08  0.10566000000E+00  0.10566000000E+00 0. -1.
     999900   -1    0    0    0    0 -0.00000000000E+00 -0.00000000000E+00 -0.74505805969E-08  0.93827000000E+00  0.93827000000E+00 0. -1.
     999902    2    1    2    0    0 -0.19477593300E-01  0.10811906553E-01 -0.79072937167E-02  0.10202910648E+01  0.10200171850E+01 0.  0.
     999903    2    3    3    0    0  0.61430212000E-01 -0.17991901790E-01  0.10893823774E+00  0.12842301930E+00  0.22968516903E-01 0.  0.
         14    1    1    2    0    0  0.19477593300E-01 -0.10811906553E-01  0.79072937167E-02  0.23638935213E-01  0.00000000000E+00 0. -1.
     999901    1    3    3    0    0 -0.80907805300E-01  0.28803808343E-01 -0.11684553146E+00  0.89186804548E+00  0.88000000000E+00 0.  1.
        -11    1    4    4    0    0  0.46887580544E-01 -0.98650282309E-02  0.60373246826E-01  0.77077584579E-01  0.51100000000E-03 0.  1.
         11    1    4    4    0    0  0.14542631455E-01 -0.81268735587E-02  0.48564990914E-01  0.51345434724E-01  0.51100000000E-03 0. -1.
</event>
<event>
 8    1  0.1202249E+005  0.1043930E+01  0.7957747E-01            NaN
         13   -1    0    0    0    0  0.00000000000E+00  0.00000000000E+00  0.74505805969E-08  0.10566000000E+00  0.10566000000E+00 0.  1.
     999900   -1    0    0    0    0 -0.00000000000E+00 -0.00000000000E+00 -0.74505805969E-08  0.93827000000E+00  0.93827000000E+00 0. -1.
     999902    2    1    2    0    0  0.21786270007E-01 -0.11607402455E-01  0.47403530881E-03  0.10192399603E+01  0.10189408710E+01 0.  0.
     999903    2    3    3    0    0  0.78461116480E-01  0.90926530999E-01 -0.46639871483E-01  0.13022648121E+00  0.18970449588E-01 0.  0.
         14    1    1    2    0    0 -0.21786270007E-01  0.11607402455E-01 -0.47403530881E-03  0.24690039733E-01  0.00000000000E+00 0. -1.
     999901    1    3    3    0    0 -0.56674846473E-01 -0.10253393345E+00  0.47113906792E-01  0.88901347906E+00  0.88000000000E+00 0.  1.
        -11    1    4    4    0    0  0.47394012594E-01  0.53384003874E-01 -0.37520481712E-01  0.80647950800E-01  0.51100000000E-03 0. -1.
         11    1    4    4    0    0  0.31067103886E-01  0.37542527125E-01 -0.91193897715E-02  0.49578530410E-01  0.51100000000E-03 0.  1.
</event>
<event>
 8    1  0.1202249E+005  0.1043930E+01  0.7957747E-01            NaN
         13   -1    0    0    0    0  0.00000000000E+00  0.00000000000E+00  0.74505805969E-08  0.10566000000E+00  0.10566000000E+00 0.  1.
     999900   -1    0    0    0    0 -0.00000000000E+00 -0.00000000000E+00 -0.74505805969E-08  0.93827000000E+00  0.93827000000E+00 0.  1.
     999902    2    1    2    0    0 -0.14895256557E-01  0.70615347649E-02 -0.16747288730E-01  0.10204309443E+01  0.10201603337E+01 0.  0.
     999903    2    3    3    0    0  0.98451494432E-01 -0.69109905020E-01 -0.43487744170E-01  0.12949625184E+00  0.20229177410E-01 0.  0.
         14    1    1    2    0    0  0.14895256557E-01 -0.70615347649E-02  0.16747288730E-01  0.23499055746E-01  0.00000000000E+00 0. -1.
     999901    1    3    3    0    0 -0.11334675099E+00  0.76171439785E-01  0.26740455440E-01  0.89093469242E+00  0.88000000000E+00 0. -1.
        -11    1    4    4    0    0  0.25082463493E-01 -0.19467858596E-01 -0.21094446484E-01  0.38123015183E-01  0.51100000000E-03 0.  1.
         11    1    4    4    0    0  0.73369030939E-01 -0.49642046425E-01 -0.22393297686E-01  0.91373236653E-01  0.51100000000E-03 0. -1.
</event>
<event>
 8    1  0.1202249E+005  0.1043930E+01  0.7957747E-01            NaN
         13   -1    0    0    0    0  0.00000000000E+00  0.00000000000E+00  0.74505805969E-08  0.10566000000E+00  0.10566000000E+00 0.  1.
     999900   -1    0    0    0    0 -0.00000000000E+00 -0.00000000000E+00 -0.74505805969E-08  0.93827000000E+00  0.93827000000E+00 0.  1.
     999902    2    1    2    0    0  0.10474203773E-01 -0.20053347755E-01  0.68200678787E-02  0.10203003782E+01  0.10200267167E+01 0.  0.
     999903    2    3    3    0    0  0.11138904821E+00 -0.35421773492E-01  0.59680620347E-01  0.13282405043E+00  0.20450668195E-01 0.  0.
         14    1    1    2    0    0 -0.10474203773E-01  0.20053347755E-01 -0.68200678787E-02  0.23629621807E-01  0.00000000000E+00 0.  1.
     999901    1    3    3    0    0 -0.10091484443E+00  0.15368425737E-01 -0.52860552468E-01  0.88747632777E+00  0.88000000000E+00 0.  1.
        -11    1    4    4    0    0  0.30136932238E-01 -0.55662943893E-02  0.25064365961E-01  0.39594215233E-01  0.51100000000E-03 0.  1.
         11    1    4    4    0    0  0.81252115967E-01 -0.29855479103E-01  0.34616254387E-01  0.93229835194E-01  0.51100000000E-03 0. -1.
</event>
<event>
 8    1  0.1202249E+005  0.1043930E+01  0.7957747E-01            NaN
         13   -1    0    0    0    0  0.00000000000E+00  0.00000000000E+00  0.74505805969E-08  0.10566000000E+00  0.10566000000E+00 0. -1.
     999900   -1    0    0    0    0 -0.00000000000E+00 -0.00000000000E+00 -0.74505805969E-08  0.93827000000E+00  0.93827000000E+00 0.  1.
     999902    2    1    2    0    0 -0.21331521394E-04  0.17098507910E-01  0.16251233835E-01  0.10203405526E+01  0.10200678317E+01 0.  0.
     999903    2    3    3    0    0 -0.51462848041E-01  0.11411404200E+00  0.40852342496E-01  0.13317458276E+00  0.19902670600E-01 0.  0.
         14    1    1    2    0    0  0.21331521394E-04 -0.17098507910E-01 -0.16251233835E-01  0.23589447407E-01  0.00000000000E+00 0.  1.
     999901    1    3    3    0    0  0.51441516520E-01 -0.97015534088E-01 -0.24601108661E-01  0.88716596983E+00  0.88000000000E+00 0. -1.
        -11    1    4    4    0    0 -0.35216465575E-01  0.79909214998E-01  0.37877387964E-01  0.95187392700E-01  0.51100000000E-03 0.  1.
         11    1    4    4    0    0 -0.16246382466E-01  0.34204827001E-01  0.29749545318E-02  0.37987190063E-01  0.51100000000E-03 0. -1.
</event>
<event>
 8    1  0.1202249E+005  0.1043930E+01  0.7957747E-01            NaN
         13   -1    0    0    0    0  0.00000000000E+00  0.00000000000E+00  0.74505805969E-08  0.10566000000E+00  0.10566000000E+00 0.  1.
     999900   -1    0    0    0    0 -0.00000000000E+00 -0.00000000000E+00 -0.74505805969E-08  0.93827000000E+00  0.93827000000E+00 0.  1.
     999902    2    1    2    0    0 -0.32643203181E-01 -0.18191909722E-01  0.73121208951E-02  0.10058512473E+01  0.10051302106E+01 0.  0.
     999903    2    3    3    0    0 -0.58658577064E-01  0.54132560120E-01 -0.84169190759E-01  0.11777666769E+00  0.20389410246E-01 0.  0.
         14    1    1    2    0    0  0.32643203181E-01  0.18191909722E-01 -0.73121208951E-02  0.38078752675E-01  0.00000000000E+00 0.  1.
     999901    1    3    3    0    0  0.26015373883E-01 -0.72324469843E-01  0.91481311654E-01  0.88807457964E+00  0.88000000000E+00 0. -1.
        -11    1    4    4    0    0 -0.44661860936E-01  0.32533965941E-01 -0.46878746051E-01  0.72463913187E-01  0.51100000000E-03 0.  1.
         11    1    4    4    0    0 -0.13996716129E-01  0.21598594180E-01 -0.37290444708E-01  0.45312754500E-01  0.51100000000E-03 0. -1.
</event>
<event>
 8    1  0.1202249E+005  0.1043930E+01  0.7957747E-01            NaN
         13   -1    0    0    0    0  0.00000000000E+00  0.00000000000E+00  0.74505805969E-08  0.10566000000E+00  0.10566000000E+00 0.  1.
     999900   -1    0    0    0    0 -0.00000000000E+00 -0.00000000000E+00 -0.74505805969E-08  0.93827000000E+00  0.93827000000E+00 0.  1.
     999902    2    1    2    0    0 -0.13008288211E-01  0.13720768155E-01  0.14027356599E-01  0.10203876600E+01  0.10201160399E+01 0.  0.
     999903    2    3    3    0    0  0.14364752164E-01 -0.12076442563E+00  0.40173361858E-01  0.12936624369E+00  0.18202565768E-01 0.  0.
         14    1    1    2    0    0  0.13008288211E-01 -0.13720768155E-01 -0.14027356599E-01  0.23542340030E-01  0.00000000000E+00 0. -1.
     999901    1    3    3    0    0 -0.27373040375E-01  0.13448519378E+00 -0.26146005260E-01  0.89102141628E+00  0.88000000000E+00 0. -1.
        -11    1    4    4    0    0 -0.29218635191E-02 -0.50368032468E-01  0.15191289394E-01  0.52692621642E-01  0.51100000000E-03 0.  1.
         11    1    4    4    0    0  0.17286615683E-01 -0.70396393160E-01  0.24982072464E-01  0.76673622044E-01  0.51100000000E-03 0. -1.
</event>
<event>
 8    1  0.1202249E+005  0.1043930E+01  0.7957747E-01            NaN
         13   -1    0    0    0    0  0.00000000000E+00  0.00000000000E+00  0.74505805969E-08  0.10566000000E+00  0.10566000000E+00 0.  1.
     999900   -1    0    0    0    0 -0.00000000000E+00 -0.00000000000E+00 -0.74505805969E-08  0.93827000000E+00  0.93827000000E+00 0. -1.
     999902    2    1    2    0    0 -0.18089350061E-01  0.14013995765E-01  0.14274115649E-01  0.10169602569E+01  0.10166025758E+01 0.  0.
     999903    2    3    3    0    0  0.80643802188E-01  0.65099218614E-01  0.72470760357E-01  0.12805937113E+00  0.20145975579E-01 0.  0.
         14    1    1    2    0    0  0.18089350061E-01 -0.14013995765E-01 -0.14274115649E-01  0.26969743056E-01  0.00000000000E+00 0. -1.
     999901    1    3    3    0    0 -0.98733152249E-01 -0.51085222849E-01 -0.58196644708E-01  0.88890088581E+00  0.88000000000E+00 0.  1.
        -11    1    4    4    0    0  0.15549157679E-01  0.20821502845E-01  0.25351476110E-01  0.36307984620E-01  0.51100000000E-03 0.  1.
         11    1    4    4    0    0  0.65094644509E-01  0.44277715769E-01  0.47119284247E-01  0.91751386509E-01  0.51100000000E-03 0. -1.
</event>
<event>
 8    1  0.1202249E+005  0.1043930E+01  0.7957747E-01            NaN
         13   -1    0    0    0    0  0.00000000000E+00  0.00000000000E+00  0.74505805969E-08  0.10566000000E+00  0.10566000000E+00 0. -1.
     999900   -1    0    0    0    0 -0.00000000000E+00 -0.00000000000E+00 -0.74505805969E-08  0.93827000000E+00  0.93827000000E+00 0. -1.
     999902    2    1    2    0    0 -0.62244345707E-02  0.12417913318E-01 -0.18483123186E-01  0.10208091436E+01  0.10205472717E+01 0.  0.
     999903    2    3    3    0    0  0.74599817365E-01  0.94970415835E-01  0.46411186305E-01  0.13088850290E+00  0.19831523986E-01 0.  0.
         14    1    1    2    0    0  0.62244345707E-02 -0.12417913318E-01  0.18483123186E-01  0.23120856377E-01  0.00000000000E+00 0. -1.
     999901    1    3    3    0    0 -0.80824251936E-01 -0.82552502517E-01 -0.64894309491E-01  0.88992064072E+00  0.88000000000E+00 0.  1.
        -11    1    4    4    0    0  0.42055885848E-01  0.66783069032E-01  0.35059711456E-01  0.86360409518E-01  0.51100000000E-03 0. -1.
         11    1    4    4    0    0  0.32543931517E-01  0.28187346803E-01  0.11351474849E-01  0.44528093387E-01  0.51100000000E-03 0.  1.
</event>
<event>
 8    1  0.1202249E+005  0.1043930E+01  0.7957747E-01            NaN
         13   -1    0    0    0    0  0.00000000000E+00  0.00000000000E+00  0.74505805969E-08  0.10566000000E+00  0.10566000000E+00 0.  1.
     999900   -1    0    0    0    0 -0.00000000000E+00 -0.00000000000E+00 -0.74505805969E-08  0.93827000000E+00  0.93827000000E+00 0. -1.
     999902    2    1    2    0    0 -0.13942428927E-01 -0.19383158515E-01  0.10305356244E-01  0.10179242598E+01  0.10175920106E+01 0.  0.
     999903    2    3    3    0    0 -0.12240520924E+00 -0.10878691582E-01  0.40219480916E-01  0.13072002423E+00  0.19202523586E-01 0.  0.
         14    1    1    2    0    0  0.13942428927E-01  0.19383158515E-01 -0.10305356244E-01  0.26005740245E-01  0.00000000000E+00 0. -1.
     999901    1    3    3    0    0  0.10846278031E+00 -0.85044669328E-02 -0.29914124673E-01  0.88720423552E+00  0.88000000000E+00 0.  1.
        -11    1    4    4    0    0 -0.26832897814E-01 -0.96938463774E-02  0.12871253713E-01  0.31303440000E-01  0.51100000000E-03 0. -1.
         11    1    4    4    0    0 -0.95572311423E-01 -0.11848452044E-02  0.27348227203E-01  0.99416584235E-01  0.51100000000E-03 0.  1.
</event>
<event>
 8    1  0.1202249E+005  0.1043930E+01  0.7957747E-01            NaN
         13   -1    0    0    0    0  0.00000000000E+00  0.00000000000E+00  0.74505805969E-08  0.10566000000E+00  0.10566000000E+00 0.  1.
     999900   -1    0    0    0    0 -0.00000000000E+00 -0.00000000000E+00 -0.74505805969E-08  0.93827000000E+00  0.93827000000E+00 0. -1.
     999902    2    1    2    0    0  0.43630279882E-02  0.42610345737E-03 -0.25567357257E-01  0.10179895425E+01  0.10176589809E+01 0.  0.
     999903    2    3    3    0    0  0.81811852828E-01  0.90697298431E-01 -0.39761283857E-01  0.12987430412E+00  0.19162358207E-01 0.  0.
         14    1    1    2    0    0 -0.43630279882E-02 -0.42610345737E-03  0.25567357257E-01  0.25940457484E-01  0.00000000000E+00 0.  1.
     999901    1    3    3    0    0 -0.77448824840E-01 -0.90271194974E-01  0.14193926600E-01  0.88811523839E+00  0.88000000000E+00 0.  1.
        -11    1    4    4    0    0  0.53581750899E-01  0.68260582332E-01 -0.21281697058E-01  0.89351457069E-01  0.51100000000E-03 0.  1.
         11    1    4    4    0    0  0.28230101929E-01  0.22436716099E-01 -0.18479586798E-01  0.40522847055E-01  0.51100000000E-03 0. -1.
</event>
<event>
 8    1  0.1202249E+005  0.1043930E+01  0.7957747E-01            NaN
         13   -1    0    0    0    0  0.00000000000E+00  0.00000000000E+00  0.74505805969E-08  0.10566000000E+00  0.10566000000E+00 0.  1.
     999900   -1    0    0    0    0 -0.00000000000E+00 -0.00000000000E+00 -0.74505805969E-08  0.93827000000E+00  0.93827000000E+00 0.  1.
     999902    2    1    2    0    0  0.59053980347E-02  0.13536351280E-01  0.20172046210E-01  0.10189296404E+01  0.10186228910E+01 0.  0.
     999903    2    3    3    0    0  0.84649707400E-01  0.97375434181E-01 -0.91002352102E-02  0.13096200330E+00  0.20510579758E-01 0.  0.
         14    1    1    2    0    0 -0.59053980347E-02 -0.13536351280E-01 -0.20172046210E-01  0.25000359602E-01  0.00000000000E+00 0. -1.
     999901    1    3    3    0    0 -0.78744309365E-01 -0.83839082901E-01  0.29272281420E-01  0.88796763710E+00  0.88000000000E+00 0.  1.
        -11    1    4    4    0    0  0.69576175576E-01  0.78350765482E-01 -0.15322328483E-01  0.10589958230E+00  0.51100000000E-03 0. -1.
         11    1    4    4    0    0  0.15073531824E-01  0.19024668699E-01  0.62220932725E-02  0.25062421001E-01  0.51100000000E-03 0.  1.
</event>
<event>
 8    1  0.1202249E+005  0.1043930E+01  0.7957747E-01            NaN
         13   -1    0    0    0    0  0.00000000000E+00  0.00000000000E+00  0.74505805969E-08  0.10566000000E+00  0.10566000000E+00 0. -1.
     999900   -1    0    0    0    0 -0.00000000000E+00 -0.00000000000E+00 -0.74505805969E-08  0.93827000000E+00  0.93827000000E+00 0. -1.
     999902    2    1    2    0    0 -0.51256695428E-02 -0.13501314741E-02  0.22428512718E-01  0.10208836657E+01  0.10206234983E+01 0.  0.
     999903    2    3    3    0    0  0.10442084922E+00  0.72877650586E-01 -0.17507161401E-01  0.13009465503E+00  0.20081156896E-01 0.  0.
         14    1    1    2    0    0  0.51256695428E-02  0.13501314741E-02 -0.22428512718E-01  0.23046334329E-01  0.00000000000E+00 0.  1.
     999901    1    3    3    0    0 -0.10954651876E+00 -0.74227782060E-01  0.39935674120E-01  0.89078901064E+00  0.88000000000E+00 0.  1.
        -11    1    4    4    0    0  0.99926699996E-01  0.72127278743E-01 -0.20037683240E-01  0.12485775739E+00  0.51100000000E-03 0. -1.
         11    1    4    4    0    0  0.44941492204E-02  0.75037184270E-03  0.25305218385E-02  0.52368976401E-02  0.51100000000E-03 0.  1.
</event>
<event>
 8    1  0.1202249E+005  0.1043930E+01  0.7957747E-01            NaN
         13   -1    0    0    0    0  0.00000000000E+00  0.00000000000E+00  0.74505805969E-08  0.10566000000E+00  0.10566000000E+00 0. -1.
     999900   -1    0    0    0    0 -0.00000000000E+00 -0.00000000000E+00 -0.74505805969E-08  0.93827000000E+00  0.93827000000E+00 0.  1.
     999902    2    1    2    0    0  0.12639563754E-01  0.59413812932E-02 -0.18049035694E-01  0.10211083815E+01  0.10208533197E+01 0.  0.
     999903    2    3    3    0    0  0.32223663187E-01 -0.91051612699E-01 -0.88549793592E-01  0.13276073852E+00  0.21344486506E-01 0.  0.
         14    1    1    2    0    0 -0.12639563754E-01 -0.59413812932E-02  0.18049035694E-01  0.22821618546E-01  0.00000000000E+00 0. -1.
     999901    1    3    3    0    0 -0.19584099432E-01  0.96992993992E-01  0.70500757898E-01  0.88834764293E+00  0.88000000000E+00 0. -1.
        -11    1    4    4    0    0  0.18152541796E-01 -0.65392566316E-01 -0.72783694796E-01  0.99515977874E-01  0.51100000000E-03 0.  1.
         11    1    4    4    0    0  0.14071121391E-01 -0.25659046383E-01 -0.15766098796E-01  0.33244760651E-01  0.51100000000E-03 0. -1.
</event>
<event>
 8    1  0.1202249E+005  0.1043930E+01  0.7957747E-01            NaN
         13   -1    0    0    0    0  0.00000000000E+00  0.00000000000E+00  0.74505805969E-08  0.10566000000E+00  0.10566000000E+00 0. -1.
     999900   -1    0    0    0    0 -0.00000000000E+00 -0.00000000000E+00 -0.74505805969E-08  0.93827000000E+00  0.93827000000E+00 0.  1.
     999902    2    1    2    0    0  0.20719996375E-01  0.49354177125E-02 -0.10137024203E-01  0.10203411073E+01  0.10200683994E+01 0.  0.
     999903    2    3    3    0    0  0.62444611207E-01 -0.11371435159E+00 -0.83775740275E-02  0.13139689822E+00  0.19096541291E-01 0.  0.
         14    1    1    2    0    0 -0.20719996375E-01 -0.49354177125E-02  0.10137024203E-01  0.23588892672E-01  0.00000000000E+00 0.  1.
     999901    1    3    3    0    0 -0.41724614832E-01  0.11864976930E+00 -0.17594501750E-02  0.88894420911E+00  0.88000000000E+00 0. -1.
        -11    1    4    4    0    0  0.40064937329E-01 -0.89061496764E-01 -0.91568939665E-02  0.98088017806E-01  0.51100000000E-03 0.  1.
         11    1    4    4    0    0  0.22379673878E-01 -0.24652854827E-01  0.77931993899E-03  0.33308880416E-01  0.51100000000E-03 0. -1.
</event>
<event>
 8    1  0.1202249E+005  0.1043930E+01  0.7957747E-01            NaN
         13   -1    0    0    0    0  0.00000000000E+00  0.00000000000E+00  0.74505805969E-08  0.10566000000E+00  0.10566000000E+00 0. -1.
     999900   -1    0    0    0    0 -0.00000000000E+00 -0.00000000000E+00 -0.74505805969E-08  0.93827000000E+00  0.93827000000E+00 0.  1.
     999902    2    1    2    0    0  0.54666570047E-02 -0.22526504847E-01  0.63389770134E-02  0.10198985542E+01  0.10196153934E+01 0.  0.
     999903    2    3    3    0    0  0.51704183455E-01 -0.45630265123E-01  0.11104969054E+00  0.13218462157E+00  0.19628976764E-01 0.  0.
         14    1    1    2    0    0 -0.54666570047E-02  0.22526504847E-01 -0.63389770134E-02  0.24031445836E-01  0.00000000000E+00 0. -1.
     999901    1    3    3    0    0 -0.46237526451E-01  0.23103760276E-01 -0.10471071353E+00  0.88771393259E+00  0.88000000000E+00 0.  1.
        -11    1    4    4    0    0  0.45342734752E-01 -0.37758749562E-01  0.79224062730E-01  0.98784614185E-01  0.51100000000E-03 0.  1.
         11    1    4    4    0    0  0.63614487032E-02 -0.78715155602E-02  0.31825627811E-01  0.33400007386E-01  0.51100000000E-03 0. -1.
</event>
<event>
 8    1  0.1202249E+005  0.1043930E+01  0.7957747E-01            NaN
         13   -1    0    0    0    0  0.00000000000E+00  0.00000000000E+00  0.74505805969E-08  0.10566000000E+00  0.10566000000E+00 0. -1.
     999900   -1    0    0    0    0 -0.00000000000E+00 -0.00000000000E+00 -0.74505805969E-08  0.93827000000E+00  0.93827000000E+00 0.  1.
     999902    2    1    2    0    0  0.12263096773E-02 -0.17308953367E-01  0.15432751459E-01  0.10207077366E+01  0.10204435359E+01 0.  0.
     999903    2    3    3    0    0  0.25551104294E-01  0.10851700121E+00 -0.59986702730E-01  0.12823254891E+00  0.20405479994E-01 0.  0.
         14    1    1    2    0    0 -0.12263096773E-02  0.17308953367E-01 -0.15432751459E-01  0.23222263448E-01  0.00000000000E+00 0.  1.
     999901    1    3    3    0    0 -0.24324794616E-01 -0.12582595458E+00  0.75419454189E-01  0.89247518764E+00  0.88000000000E+00 0. -1.
        -11    1    4    4    0    0  0.11746732431E-01  0.86244282213E-01 -0.48184852745E-01  0.99489210935E-01  0.51100000000E-03 0.  1.
         11    1    4    4    0    0  0.13804371863E-01  0.22272718999E-01 -0.11801849985E-01  0.28743337979E-01  0.51100000000E-03 0. -1.
</event>
<event>
 8    1  0.1202249E+005  0.1043930E+01  0.7957747E-01            NaN
         13   -1    0    0    0    0  0.00000000000E+00  0.00000000000E+00  0.74505805969E-08  0.10566000000E+00  0.10566000000E+00 0.  1.
     999900   -1    0    0    0    0 -0.00000000000E+00 -0.00000000000E+00 -0.74505805969E-08  0.93827000000E+00  0.93827000000E+00 0.  1.
     999902    2    1    2    0    0 -0.13801461287E-01  0.17594366093E-01 -0.94560304136E-02  0.10196512323E+01  0.10193621422E+01 0.  0.
     999903    2    3    3    0    0  0.32557939210E-01  0.73786186524E-01  0.99946236721E-01  0.12988970761E+00  0.19433609538E-01 0.  0.
         14    1    1    2    0    0  0.13801461287E-01 -0.17594366093E-01  0.94560304136E-02  0.24278767742E-01  0.00000000000E+00 0. -1.
     999901    1    3    3    0    0 -0.46359400498E-01 -0.56191820432E-01 -0.10940226713E+00  0.88976152465E+00  0.88000000000E+00 0.  1.
        -11    1    4    4    0    0  0.34384916118E-01  0.64773896170E-01  0.92511815828E-01  0.11805370503E+00  0.51100000000E-03 0. -1.
         11    1    4    4    0    0 -0.18269769077E-02  0.90122903543E-02  0.74344208932E-02  0.11836002580E-01  0.51100000000E-03 0.  1.
</event>
<event>
 8    1  0.1202249E+005  0.1043930E+01  0.7957747E-01            NaN
         13   -1    0    0    0    0  0.00000000000E+00  0.00000000000E+00  0.74505805969E-08  0.10566000000E+00  0.10566000000E+00 0.  1.
     999900   -1    0    0    0    0 -0.00000000000E+00 -0.00000000000E+00 -0.74505805969E-08  0.93827000000E+00  0.93827000000E+00 0.  1.
     999902    2    1    2    0    0 -0.11852458476E-01 -0.13375745991E-01  0.15453007047E-01  0.10203040232E+01  0.10200304471E+01 0.  0.
     999903    2    3    3    0    0 -0.12172370473E+00 -0.14587796580E-01  0.47714665185E-01  0.13288418209E+00  0.18763061383E-01 0.  0.
         14    1    1    2    0    0  0.11852458476E-01  0.13375745991E-01 -0.15453007047E-01  0.23625976795E-01  0.00000000000E+00 0. -1.
     999901    1    3    3    0    0  0.10987124626E+00  0.12120505891E-02 -0.32261658138E-01  0.88741984112E+00  0.88000000000E+00 0.  1.
        -11    1    4    4    0    0 -0.56489139328E-01 -0.16092630802E-01  0.24049873662E-01  0.63471672203E-01  0.51100000000E-03 0. -1.
         11    1    4    4    0    0 -0.65234565406E-01  0.15048342225E-02  0.23664791523E-01  0.69412509885E-01  0.51100000000E-03 0.  1.
</event>
<event>
 8    1  0.1202249E+005  0.1043930E+01  0.7957747E-01            NaN
         13   -1    0    0    0    0  0.00000000000E+00  0.00000000000E+00  0.74505805969E-08  0.10566000000E+00  0.10566000000E+00 0. -1.
     999900   -1    0    0    0    0 -0.00000000000E+00 -0.00000000000E+00 -0.74505805969E-08  0.93827000000E+00  0.93827000000E+00 0.  1.
     999902    2    1    2    0    0  0.23351849585E-01  0.99519717188E-02  0.70931683709E-02  0.10175735272E+01  0.10172321366E+01 0.  0.
     999903    2    3    3    0    0  0.24381721098E-01 -0.37893093890E-01 -0.11765085924E+00  0.12748854062E+00  0.19525583767E-01 0.  0.
         14    1    1    2    0    0 -0.23351849585E-01 -0.99519717188E-02 -0.70931683709E-02  0.26356472785E-01  0.00000000000E+00 0.  1.
     999901    1    3    3    0    0 -0.10298715137E-02  0.47845065609E-01  0.12474402761E+00  0.89008498660E+00  0.88000000000E+00 0. -1.
        -11    1    4    4    0    0  0.85098793745E-02 -0.63211121210E-02 -0.11687360953E-01  0.15787021013E-01  0.51100000000E-03 0. -1.
         11    1    4    4    0    0  0.15871841724E-01 -0.31571981769E-01 -0.10596349829E+00  0.11170151961E+00  0.51100000000E-03 0.  1.
</event>
<event>
 8    1  0.1202249E+005  0.1043930E+01  0.7957747E-01            NaN
         13   -1    0    0    0    0  0.00000000000E+00  0.00000000000E+00  0.74505805969E-08  0.10566000000E+00  0.10566000000E+00 0. -1.
     999900   -1    0    0    0    0 -0.00000000000E+00 -0.00000000000E+00 -0.74505805969E-08  0.93827000000E+00  0.93827000000E+00 0.  1.
     999902    2    1    2    0    0  0.84084793954E-02 -0.55895859055E-02  0.21536198035E-01  0.10201444199E+01  0.10198670911E+01 0.  0.
     999903    2    3    3    0    0 -0.10246155010E+00  0.73937238759E-01  0.20778203308E-01  0.12962925782E+00  0.20172412487E-01 0.  0.
         14    1    1    2    0    0 -0.84084793954E-02  0.55895859055E-02 -0.21536198035E-01  0.23785580130E-01  0.00000000000E+00 0.  1.
     999901    1    3    3    0    0  0.11087002950E+00 -0.79526824664E-01  0.75799472732E-03  0.89051516205E+00  0.88000000000E+00 0. -1.
        -11    1    4    4    0    0 -0.43831827627E-01  0.42401140001E-01  0.48738702317E-02  0.61180891776E-01  0.51100000000E-03 0.  1.
         11    1    4    4    0    0 -0.58629722477E-01  0.31536098758E-01  0.15904333076E-01  0.68448366045E-01  0.51100000000E-03 0. -1.
</event>
<event>
 8    1  0.1202249E+005  0.1043930E+01  0.7957747E-01            NaN
         13   -1    0    0    0    0  0.00000000000E+00  0.00000000000E+00  0.74505805969E-08  0.10566000000E+00  0.10566000000E+00 0.  1.
     999900   -1    0    0    0    0 -0.00000000000E+00 -0.00000000000E+00 -0.74505805969E-08  0.93827000000E+00  0.93827000000E+00 0.  1.
     999902    2    1    2    0    0  0.60963091643E-03  0.19760063440E-01  0.13157073879E-01  0.10201825717E+01  0.10199061424E+01 0.  0.
     999903    2    3    3    0    0  0.21993458219E-01 -0.12469549003E+00  0.33586193335E-02  0.12809474829E+00  0.19086822111E-01 0.  0.
         14    1    1    2    0    0 -0.60963091643E-03 -0.19760063440E-01 -0.13157073879E-01  0.23747428283E-01  0.00000000000E+00 0. -1.
     999901    1    3    3    0    0 -0.21383827302E-01  0.14445555347E+00  0.97984545455E-02  0.89208782343E+00  0.88000000000E+00 0.  1.
        -11    1    4    4    0    0  0.14986233169E-01 -0.88415169969E-01 -0.63009481482E-02  0.89898790503E-01  0.51100000000E-03 0.  1.
         11    1    4    4    0    0  0.70072250494E-02 -0.36280320056E-01  0.96595674817E-02  0.38195957786E-01  0.51100000000E-03 0. -1.
</event>
<event>
 8    1  0.1202249E+005  0.1043930E+01  0.7957747E-01            NaN
         13   -1    0    0    0    0  0.00000000000E+00  0.00000000000E+00  0.74505805969E-08  0.10566000000E+00  0.10566000000E+00 0. -1.
     999900   -1    0    0    0    0 -0.00000000000E+00 -0.00000000000E+00 -0.74505805969E-08  0.93827000000E+00  0.93827000000E+00 0. -1.
     999902    2    1    2    0    0  0.22012176573E-01  0.68221469692E-02 -0.37740241754E-02  0.10205778938E+01  0.10203106960E+01 0.  0.
     999903    2    3    3    0    0  0.10507354948E+00  0.25243677230E-01 -0.75834643075E-01  0.13354278892E+00  0.20126831361E-01 0.  0.
         14    1    1    2    0    0 -0.22012176573E-01 -0.68221469692E-02  0.37740241754E-02  0.23352106227E-01  0.00000000000E+00 0.  1.
     999901    1    3    3    0    0 -0.83061372912E-01 -0.18421530261E-01  0.72060618900E-01  0.88703510485E+00  0.88000000000E+00 0.  1.
        -11    1    4    4    0    0  0.36074467913E-01  0.66123778287E-02 -0.14786344614E-01  0.39547286681E-01  0.51100000000E-03 0. -1.
         11    1    4    4    0    0  0.68999081572E-01  0.18631299401E-01 -0.61048298461E-01  0.93995502239E-01  0.51100000000E-03 0.  1.
</event>
<event>
 8    1  0.1202249E+005  0.1043930E+01  0.7957747E-01            NaN
         13   -1    0    0    0    0  0.00000000000E+00  0.00000000000E+00  0.74505805969E-08  0.10566000000E+00  0.10566000000E+00 0.  1.
     999900   -1    0    0    0    0 -0.00000000000E+00 -0.00000000000E+00 -0.74505805969E-08  0.93827000000E+00  0.93827000000E+00 0.  1.
     999902    2    1    2    0    0  0.46534099691E-03  0.53879143071E-02  0.23602641185E-01  0.10197157308E+01  0.10194281930E+01 0.  0.
     999903    2    3    3    0    0  0.54512549241E-01  0.48925794574E-01  0.10916122890E+00  0.13284656362E+00  0.19148999232E-01 0.  0.
         14    1    1    2    0    0 -0.46534099691E-03 -0.53879143071E-02 -0.23602641185E-01  0.24214269217E-01  0.00000000000E+00 0. -1.
     999901    1    3    3    0    0 -0.54047208244E-01 -0.43537880267E-01 -0.85558587711E-01  0.88686916717E+00  0.88000000000E+00 0. -1.
        -11    1    4    4    0    0  0.32498256533E-01  0.35766160571E-01  0.84021514701E-01  0.96928999651E-01  0.51100000000E-03 0.  1.
         11    1    4    4    0    0  0.22014292708E-01  0.13159634003E-01  0.25139714195E-01  0.35917563967E-01  0.51100000000E-03 0. -1.
</event>
<event>
 7    1  0.1546785E+005  0.1043930E+01  0.7957747E-01            NaN
         13   -1    0    0    0    0  0.00000000000E+00  0.00000000000E+00  0.74505805969E-08  0.10566000000E+00  0.10566000000E+00 0.  1.
     999900   -1    0    0    0    0 -0.00000000000E+00 -0.00000000000E+00 -0.74505805969E-08  0.93827000000E+00  0.93827000000E+00 0.  1.
     999903    2    1    2    0    0  0.80026980617E-01 -0.54018002704E-01  0.16154469257E-01  0.99862673513E-01  0.19731306125E-01 0.  0.
         14    1    1    2    0    0  0.25960930636E-01 -0.28052490029E-01 -0.37657807720E-01  0.53656524287E-01  0.00000000000E+00 0. -1.
     999901    1    1    2    0    0 -0.10598791125E+00  0.82070492733E-01  0.21503338463E-01  0.89041080220E+00  0.88000000000E+00 0. -1.
        -11    1    3    3    0    0  0.54181322866E-01 -0.46403776749E-01  0.14942578830E-01  0.72886679354E-01  0.51100000000E-03 0.  1.
         11    1    3    3    0    0  0.25845657751E-01 -0.76142259544E-02  0.12118904265E-02  0.26975994159E-01  0.51100000000E-03 0. -1.
</event>
<event>
 8    1  0.1202249E+005  0.1043930E+01  0.7957747E-01            NaN
         13   -1    0    0    0    0  0.00000000000E+00  0.00000000000E+00  0.74505805969E-08  0.10566000000E+00  0.10566000000E+00 0.  1.
     999900   -1    0    0    0    0 -0.00000000000E+00 -0.00000000000E+00 -0.74505805969E-08  0.93827000000E+00  0.93827000000E+00 0. -1.
     999902    2    1    2    0    0  0.18860765282E-01 -0.94539530680E-02 -0.10960892013E-01  0.10201550794E+01  0.10198780021E+01 0.  0.
     999903    2    3    3    0    0 -0.68128775122E-01  0.53806156153E-01 -0.94313950000E-01  0.12969634716E+00  0.19732938500E-01 0.  0.
         14    1    1    2    0    0 -0.18860765282E-01  0.94539530680E-02  0.10960892013E-01  0.23774920596E-01  0.00000000000E+00 0.  1.
     999901    1    3    3    0    0  0.86989540404E-01 -0.63260109221E-01  0.83353057987E-01  0.89045873225E+00  0.88000000000E+00 0.  1.
        -11    1    4    4    0    0 -0.21771863339E-01  0.74130779489E-02 -0.30349369890E-01  0.38082976927E-01  0.51100000000E-03 0.  1.
         11    1    4    4    0    0 -0.46356911783E-01  0.46393078204E-01 -0.63964580110E-01  0.91613370230E-01  0.51100000000E-03 0. -1.
</event>
<event>
 8    1  0.1202249E+005  0.1043930E+01  0.7957747E-01            NaN
         13   -1    0    0    0    0  0.00000000000E+00  0.00000000000E+00  0.74505805969E-08  0.10566000000E+00  0.10566000000E+00 0. -1.
     999900   -1    0    0    0    0 -0.00000000000E+00 -0.00000000000E+00 -0.74505805969E-08  0.93827000000E+00  0.93827000000E+00 0. -1.
     999902    2    1    2    0    0  0.19257249436E-01 -0.18328641744E-01 -0.21175373988E-02  0.10172604532E+01  0.10169107949E+01 0.  0.
     999903    2    3    3    0    0  0.34628399016E-01  0.24086350833E-01 -0.11947807222E+00  0.12832356059E+00  0.20313742814E-01 0.  0.
         14    1    1    2    0    0 -0.19257249436E-01  0.18328641744E-01  0.21175373988E-02  0.26669546840E-01  0.00000000000E+00 0.  1.
     999901    1    3    3    0    0 -0.15371149581E-01 -0.42414992577E-01  0.11736053482E+00  0.88893689257E+00  0.88000000000E+00 0.  1.
        -11    1    4    4    0    0  0.20473472216E-01  0.67727863434E-02 -0.80928712191E-01  0.83754112002E-01  0.51100000000E-03 0.  1.
         11    1    4    4    0    0  0.14154926800E-01  0.17313564489E-01 -0.38549360028E-01  0.44569448590E-01  0.51100000000E-03 0. -1.
</event>
<event>
 8    1  0.1202249E+005  0.1043930E+01  0.7957747E-01            NaN
         13   -1    0    0    0    0  0.00000000000E+00  0.00000000000E+00  0.74505805969E-08  0.10566000000E+00  0.10566000000E+00 0.  1.
     999900   -1    0    0    0    0 -0.00000000000E+00 -0.00000000000E+00 -0.74505805969E-08  0.93827000000E+00  0.93827000000E+00 0. -1.
     999902    2    1    2    0    0 -0.22757044617E-01 -0.97335401390E-05  0.93529143094E-02  0.10193259316E+01  0.10190289469E+01 0.  0.
     999903    2    3    3    0    0  0.10826449228E+00 -0.21432003330E-01  0.61679910368E-01  0.12783074303E+00  0.18861507504E-01 0.  0.
         14    1    1    2    0    0  0.22757044617E-01  0.97335401390E-05 -0.93529143094E-02  0.24604068373E-01  0.00000000000E+00 0. -1.
     999901    1    3    3    0    0 -0.13102153690E+00  0.21422269789E-01 -0.52326996058E-01  0.89149518860E+00  0.88000000000E+00 0. -1.
        -11    1    4    4    0    0  0.56534979180E-01 -0.17601940608E-02  0.33175639784E-01  0.65575806134E-01  0.51100000000E-03 0.  1.
         11    1    4    4    0    0  0.51729513100E-01 -0.19671809269E-01  0.28504270584E-01  0.62254936897E-01  0.51100000000E-03 0. -1.
</event>
<event>
 8    1  0.1202249E+005  0.1043930E+01  0.7957747E-01            NaN
         13   -1    0    0    0    0  0.00000000000E+00  0.00000000000E+00  0.74505805969E-08  0.10566000000E+00  0.10566000000E+00 0. -1.
     999900   -1    0    0    0    0 -0.00000000000E+00 -0.00000000000E+00 -0.74505805969E-08  0.93827000000E+00  0.93827000000E+00 0. -1.
     999902    2    1    2    0    0  0.93814787304E-02 -0.11206560685E-01  0.17164866141E-01  0.10213860036E+01  0.10211371781E+01 0.  0.
     999903    2    3    3    0    0 -0.45447750362E-02  0.71680929303E-01 -0.10533860626E+00  0.12893355257E+00  0.19204905746E-01 0.  0.
         14    1    1    2    0    0 -0.93814787304E-02  0.11206560685E-01 -0.17164866141E-01  0.22543996433E-01  0.00000000000E+00 0. -1.
     999901    1    3    3    0    0  0.13926253767E-01 -0.82887489989E-01  0.12250347240E+00  0.89245245100E+00  0.88000000000E+00 0.  1.
        -11    1    4    4    0    0 -0.67377320361E-03  0.59875015654E-01 -0.73836788522E-01  0.95066313330E-01  0.51100000000E-03 0.  1.
         11    1    4    4    0    0 -0.38710018326E-02  0.11805913649E-01 -0.31501817733E-01  0.33867239240E-01  0.51100000000E-03 0. -1.
</event>
<event>
 8    1  0.1202249E+005  0.1043930E+01  0.7957747E-01            NaN
         13   -1    0    0    0    0  0.00000000000E+00  0.00000000000E+00  0.74505805969E-08  0.10566000000E+00  0.10566000000E+00 0.  1.
     999900   -1    0    0    0    0 -0.00000000000E+00 -0.00000000000E+00 -0.74505805969E-08  0.93827000000E+00  0.93827000000E+00 0. -1.
     999902    2    1    2    0    0  0.92459499350E-02  0.17991006194E-01  0.13194854596E-01  0.10197790563E+01  0.10194930385E+01 0.  0.
     999903    2    3    3    0    0  0.28933098051E-01 -0.14580897668E-01 -0.12263083390E+00  0.12854556816E+00  0.20878575888E-01 0.  0.
         14    1    1    2    0    0 -0.92459499350E-02 -0.17991006194E-01 -0.13194854596E-01  0.24150943706E-01  0.00000000000E+00 0.  1.
     999901    1    3    3    0    0 -0.19687148116E-01  0.32571903862E-01  0.13582568849E+00  0.89123348814E+00  0.88000000000E+00 0.  1.
        -11    1    4    4    0    0  0.28048786984E-01 -0.45493535215E-02 -0.93051308044E-01  0.97294594497E-01  0.51100000000E-03 0. -1.
         11    1    4    4    0    0  0.88431106664E-03 -0.10031544146E-01 -0.29579525853E-01  0.31250973660E-01  0.51100000000E-03 0.  1.
</event>
<event>
 8    1  0.1202249E+005  0.1043930E+01  0.7957747E-01            NaN
         13   -1    0    0    0    0  0.00000000000E+00  0.00000000000E+00  0.74505805969E-08  0.10566000000E+00  0.10566000000E+00 0. -1.
     999900   -1    0    0    0    0 -0.00000000000E+00 -0.00000000000E+00 -0.74505805969E-08  0.93827000000E+00  0.93827000000E+00 0. -1.
     999902    2    1    2    0    0 -0.23556864607E-01  0.10633186917E-02 -0.26978462542E-02  0.10201953230E+01  0.10199191940E+01 0.  0.
     999903    2    3    3    0    0 -0.72665076811E-01 -0.15454153559E-01 -0.10771148944E+00  0.13243842575E+00  0.20472601399E-01 0.  0.
         14    1    1    2    0    0  0.23556864607E-01 -0.10633186917E-02  0.26978462542E-02  0.23734676976E-01  0.00000000000E+00 0.  1.
     999901    1    3    3    0    0  0.49108212204E-01  0.16517472250E-01  0.10501364319E+00  0.88775689727E+00  0.88000000000E+00 0.  1.
        -11    1    4    4    0    0 -0.34182577673E-01  0.10068064697E-03 -0.36486334874E-01  0.49999725064E-01  0.51100000000E-03 0. -1.
         11    1    4    4    0    0 -0.38482499138E-01 -0.15554834206E-01 -0.71225154569E-01  0.82438700690E-01  0.51100000000E-03 0.  1.
</event>
<event>
 8    1  0.1202249E+005  0.1043930E+01  0.7957747E-01            NaN
         13   -1    0    0    0    0  0.00000000000E+00  0.00000000000E+00  0.74505805969E-08  0.10566000000E+00  0.10566000000E+00 0.  1.
     999900   -1    0    0    0    0 -0.00000000000E+00 -0.00000000000E+00 -0.74505805969E-08  0.93827000000E+00  0.93827000000E+00 0. -1.
     999902    2    1    2    0    0  0.21394024480E-01 -0.73920667435E-02  0.20971156421E-01  0.10130732935E+01  0.10126032598E+01 0.  0.
     999903    2    3    3    0    0 -0.59236926280E-01  0.11618285236E-01 -0.10298517456E+00  0.12053314556E+00  0.16682176510E-01 0.  0.
         14    1    1    2    0    0 -0.21394024480E-01  0.73920667435E-02 -0.20971156421E-01  0.30856706497E-01  0.00000000000E+00 0.  1.
     999901    1    3    3    0    0  0.80630950760E-01 -0.19010351979E-01  0.12395633098E+00  0.89254014794E+00  0.88000000000E+00 0.  1.
        -11    1    4    4    0    0 -0.30061808095E-01  0.12056410057E-01 -0.65072979135E-01  0.72689910331E-01  0.51100000000E-03 0. -1.
         11    1    4    4    0    0 -0.29175118185E-01 -0.43812482170E-03 -0.37912195422E-01  0.47843235229E-01  0.51100000000E-03 0.  1.
</event>
<event>
 8    1  0.1202249E+005  0.1043930E+01  0.7957747E-01            NaN
         13   -1    0    0    0    0  0.00000000000E+00  0.00000000000E+00  0.74505805969E-08  0.10566000000E+00  0.10566000000E+00 0. -1.
     999900   -1    0    0    0    0 -0.00000000000E+00 -0.00000000000E+00 -0.74505805969E-08  0.93827000000E+00  0.93827000000E+00 0. -1.
     999902    2    1    2    0    0 -0.21464964620E-01  0.17034798241E-02  0.56896937897E-02  0.10216585123E+01  0.10214157315E+01 0.  0.
     999903    2    3    3    0    0 -0.88043492768E-01  0.95077122385E-01 -0.25779569586E-01  0.13365983432E+00  0.20224966793E-01 0.  0.
         14    1    1    2    0    0  0.21464964620E-01 -0.17034798241E-02 -0.56896937897E-02  0.22271487716E-01  0.00000000000E+00 0. -1.
     999901    1    3    3    0    0  0.66578528148E-01 -0.93373642560E-01  0.31469263376E-01  0.88799867797E+00  0.88000000000E+00 0.  1.
        -11    1    4    4    0    0 -0.23862194731E-01  0.17252336383E-01 -0.12182753745E-01  0.31870488824E-01  0.51100000000E-03 0. -1.
         11    1    4    4    0    0 -0.64181298037E-01  0.77824786001E-01 -0.13596815842E-01  0.10178934549E+00  0.51100000000E-03 0.  1.
</event>
<event>
 8    1  0.1213392E+005  0.1043930E+01  0.7957747E-01            NaN
         13   -1    0    0    0    0  0.00000000000E+00  0.00000000000E+00  0.74505805969E-08  0.10566000000E+00  0.10566000000E+00 0. -1.
     999900   -1    0    0    0    0 -0.00000000000E+00 -0.00000000000E+00 -0.74505805969E-08  0.93827000000E+00  0.93827000000E+00 0. -1.
     999902    2    1    2    0    0 -0.62298163004E-02  0.15341908548E-01  0.19474889570E-01  0.10183672127E+01  0.10180463270E+01 0.  0.
     999903    2    3    3    0    0  0.46024794659E-02  0.10074048215E+00  0.82738748368E-01  0.13190651375E+00  0.19590822546E-01 0.  0.
         14    1    1    2    0    0  0.62298163004E-02 -0.15341908548E-01 -0.19474889570E-01  0.25562787266E-01  0.00000000000E+00 0. -1.
     999901    1    3    3    0    0 -0.10832295766E-01 -0.85398573603E-01 -0.63263858798E-01  0.88646069898E+00  0.88000000000E+00 0. -1.
        -11    1    4    4    0    0  0.22736538158E-02  0.54986453113E-01  0.57519834901E-01  0.79608241129E-01  0.51100000000E-03 0. -1.
         11    1    4    4    0    0  0.23288256502E-02  0.45754029039E-01  0.25218913467E-01  0.52298272626E-01  0.51100000000E-03 0.  1.
</event>
<event>
 8    1  0.1202249E+005  0.1043930E+01  0.7957747E-01            NaN
         13   -1    0    0    0    0  0.00000000000E+00  0.00000000000E+00  0.74505805969E-08  0.10566000000E+00  0.10566000000E+00 0.  1.
     999900   -1    0    0    0    0 -0.00000000000E+00 -0.00000000000E+00 -0.74505805969E-08  0.93827000000E+00  0.93827000000E+00 0.  1.
     999902    2    1    2    0    0  0.16058735117E-01 -0.50812748906E-02 -0.17554025954E-01  0.10196021116E+01  0.10193118364E+01 0.  0.
     999903    2    3    3    0    0  0.75642282951E-01  0.86190134224E-01  0.57327630378E-01  0.12972125902E+00  0.19764959611E-01 0.  0.
         14    1    1    2    0    0 -0.16058735117E-01  0.50812748906E-02  0.17554025954E-01  0.24327888426E-01  0.00000000000E+00 0.  1.
     999901    1    3    3    0    0 -0.59583547834E-01 -0.91271409114E-01 -0.74881656332E-01  0.88988085256E+00  0.88000000000E+00 0.  1.
        -11    1    4    4    0    0  0.16219337166E-01  0.31965860915E-01  0.15590445280E-01  0.39092278869E-01  0.51100000000E-03 0.  1.
         11    1    4    4    0    0  0.59422945785E-01  0.54224273309E-01  0.41737185098E-01  0.90628980148E-01  0.51100000000E-03 0. -1.
</event>
<event>
 8    1  0.1202249E+005  0.1043930E+01  0.7957747E-01            NaN
         13   -1    0    0    0    0  0.00000000000E+00  0.00000000000E+00  0.74505805969E-08  0.10566000000E+00  0.10566000000E+00 0. -1.
     999900   -1    0    0    0    0 -0.00000000000E+00 -0.00000000000E+00 -0.74505805969E-08  0.93827000000E+00  0.93827000000E+00 0. -1.
     999902    2    1    2    0    0 -0.59274669218E-02 -0.11433278827E-03 -0.22658108383E-01  0.10205091159E+01  0.10202403236E+01 0.  0.
     999903    2    3    3    0    0 -0.75581984709E-01 -0.10352587509E+00 -0.22767500021E-01  0.13172021471E+00  0.20040276483E-01 0.  0.
         14    1    1    2    0    0  0.59274669218E-02  0.11433278827E-03  0.22658108383E-01  0.23420884090E-01  0.00000000000E+00 0. -1.
     999901    1    3    3    0    0  0.69654517787E-01  0.10341154230E+00  0.10939163866E-03  0.88878890120E+00  0.88000000000E+00 0.  1.
        -11    1    4    4    0    0 -0.18322366297E-01 -0.40563502694E-01 -0.10494378875E-01  0.45732919943E-01  0.51100000000E-03 0. -1.
         11    1    4    4    0    0 -0.57259618411E-01 -0.62962372391E-01 -0.12273121146E-01  0.85987294767E-01  0.51100000000E-03 0.  1.
</event>
<event>
 8    1  0.1202249E+005  0.1043930E+01  0.7957747E-01            NaN
         13   -1    0    0    0    0  0.00000000000E+00  0.00000000000E+00  0.74505805969E-08  0.10566000000E+00  0.10566000000E+00 0.  1.
     999900   -1    0    0    0    0 -0.00000000000E+00 -0.00000000000E+00 -0.74505805969E-08  0.93827000000E+00  0.93827000000E+00 0.  1.
     999902    2    1    2    0    0  0.80321370034E-02  0.13300134972E-01 -0.11385666966E-01  0.10246675436E+01  0.10244864726E+01 0.  0.
     999903    2    3    3    0    0 -0.11397853122E+00 -0.22067815349E-01 -0.63593340965E-01  0.13401433593E+00  0.20919731534E-01 0.  0.
         14    1    1    2    0    0 -0.80321370034E-02 -0.13300134972E-01  0.11385666966E-01  0.19262456421E-01  0.00000000000E+00 0. -1.
     999901    1    3    3    0    0  0.12201066822E+00  0.35367950321E-01  0.52207674000E-01  0.89065320765E+00  0.88000000000E+00 0. -1.
        -11    1    4    4    0    0 -0.98198993121E-01 -0.23859588773E-01 -0.48475796410E-01  0.11208249723E+00  0.51100000000E-03 0. -1.
         11    1    4    4    0    0 -0.15779538096E-01  0.17917734241E-02 -0.15117544555E-01  0.21931838703E-01  0.51100000000E-03 0.  1.
</event>
<event>
 8    1  0.1202249E+005  0.1043930E+01  0.7957747E-01            NaN
         13   -1    0    0    0    0  0.00000000000E+00  0.00000000000E+00  0.74505805969E-08  0.10566000000E+00  0.10566000000E+00 0.  1.
     999900   -1    0    0    0    0 -0.00000000000E+00 -0.00000000000E+00 -0.74505805969E-08  0.93827000000E+00  0.93827000000E+00 0. -1.
     999902    2    1    2    0    0  0.10666865709E-01  0.10167217307E-01  0.19083618356E-01  0.10198190311E+01  0.10195339707E+01 0.  0.
     999903    2    3    3    0    0  0.64618980948E-01  0.11277472751E+00  0.13687167931E-01  0.13219960051E+00  0.19890800483E-01 0.  0.
         14    1    1    2    0    0 -0.10666865709E-01 -0.10167217307E-01 -0.19083618356E-01  0.24110968902E-01  0.00000000000E+00 0. -1.
     999901    1    3    3    0    0 -0.53952115239E-01 -0.10260751020E+00  0.53964504249E-02  0.88761943059E+00  0.88000000000E+00 0. -1.
        -11    1    4    4    0    0  0.20453770625E-01  0.40503197120E-01 -0.44000500796E-02  0.45590429604E-01  0.51100000000E-03 0.  1.
         11    1    4    4    0    0  0.44165210323E-01  0.72271530390E-01  0.18087218011E-01  0.86609170901E-01  0.51100000000E-03 0. -1.
</event>
<event>
 8    1  0.1202249E+005  0.1043930E+01  0.7957747E-01            NaN
         13   -1    0    0    0    0  0.00000000000E+00  0.00000000000E+00  0.74505805969E-08  0.10566000000E+00  0.10566000000E+00 0. -1.
     999900   -1    0    0    0    0 -0.00000000000E+00 -0.00000000000E+00 -0.74505805969E-08  0.93827000000E+00  0.93827000000E+00 0. -1.
     999902    2    1    2    0    0  0.54922909285E-02 -0.11786387354E-01 -0.20763891894E-01  0.10194305430E+01  0.10191361090E+01 0.  0.
     999903    2    3    3    0    0  0.76383837524E-01  0.92922658115E-01  0.41285655163E-01  0.12822925156E+00  0.16405017752E-01 0.  0.
         14    1    1    2    0    0 -0.54922909285E-02  0.11786387354E-01  0.20763891894E-01  0.24499456995E-01  0.00000000000E+00 0. -1.
     999901    1    3    3    0    0 -0.70891546595E-01 -0.10470904547E+00 -0.62049547057E-01  0.89120129144E+00  0.88000000000E+00 0. -1.
        -11    1    4    4    0    0  0.63258931748E-01  0.69722563065E-01  0.26785104145E-01  0.97880698666E-01  0.51100000000E-03 0. -1.
         11    1    4    4    0    0  0.13124905775E-01  0.23200095051E-01  0.14500551018E-01  0.30348552894E-01  0.51100000000E-03 0.  1.
</event>
<event>
 8    1  0.1202249E+005  0.1043930E+01  0.7957747E-01            NaN
         13   -1    0    0    0    0  0.00000000000E+00  0.00000000000E+00  0.74505805969E-08  0.10566000000E+00  0.10566000000E+00 0.  1.
     999900   -1    0    0    0    0 -0.00000000000E+00 -0.00000000000E+00 -0.74505805969E-08  0.93827000000E+00  0.93827000000E+00 0.  1.
     999902    2    1    2    0    0 -0.56244477022E-02 -0.11551929008E-01  0.19836368660E-01  0.10202960626E+01  0.10200222999E+01 0.  0.
     999903    2    3    3    0    0 -0.81172665094E-01  0.98517503374E-01  0.16832662219E-01  0.13022200087E+00  0.19486686845E-01 0.  0.
         14    1    1    2    0    0  0.56244477022E-02  0.11551929008E-01 -0.19836368660E-01  0.23633937407E-01  0.00000000000E+00 0. -1.
     999901    1    3    3    0    0  0.75548217392E-01 -0.11006943238E+00  0.30037064410E-02  0.89007406172E+00  0.88000000000E+00 0. -1.
        -11    1    4    4    0    0 -0.41901170152E-01  0.41423214828E-01  0.15430639649E-01  0.60909412636E-01  0.51100000000E-03 0. -1.
         11    1    4    4    0    0 -0.39271494942E-01  0.57094288546E-01  0.14020225702E-02  0.69312588235E-01  0.51100000000E-03 0.  1.
</event>
<event>
 8    1  0.1202249E+005  0.1043930E+01  0.7957747E-01            NaN
         13   -1    0    0    0    0  0.00000000000E+00  0.00000000000E+00  0.74505805969E-08  0.10566000000E+00  0.10566000000E+00 0.  1.
     999900   -1    0    0    0    0 -0.00000000000E+00 -0.00000000000E+00 -0.74505805969E-08  0.93827000000E+00  0.93827000000E+00 0.  1.
     999902    2    1    2    0    0 -0.14364874961E-01 -0.12695169027E-01 -0.15597241790E-01  0.10192158158E+01  0.10189161341E+01 0.  0.
     999903    2    3    3    0    0 -0.37538869302E-01  0.11883305257E+00 -0.21302102100E-01  0.12912073519E+00  0.26228297928E-01 0.  0.
         14    1    1    2    0    0  0.14364874961E-01  0.12695169027E-01  0.15597241790E-01  0.24714184201E-01  0.00000000000E+00 0.  1.
     999901    1    3    3    0    0  0.23173994341E-01 -0.13152822159E+00  0.57048603091E-02  0.89009508061E+00  0.88000000000E+00 0. -1.
        -11    1    4    4    0    0 -0.30306577827E-01  0.10335835412E+00 -0.90445453113E-02  0.10809025371E+00  0.51100000000E-03 0. -1.
         11    1    4    4    0    0 -0.72322914751E-02  0.15474698442E-01 -0.12257556788E-01  0.21030481480E-01  0.51100000000E-03 0.  1.
</event>
<event>
 8    1  0.1202249E+005  0.1043930E+01  0.7957747E-01            NaN
         13   -1    0    0    0    0  0.00000000000E+00  0.00000000000E+00  0.74505805969E-08  0.10566000000E+00  0.10566000000E+00 0.  1.
     999900   -1    0    0    0    0 -0.00000000000E+00 -0.00000000000E+00 -0.74505805969E-08  0.93827000000E+00  0.93827000000E+00 0.  1.
     999902    2    1    2    0    0 -0.18464947744E-01  0.94047708087E-02  0.97948701694E-02  0.10210096272E+01  0.10207523281E+01 0.  0.
     999903    2    3    3    0    0  0.71318491425E-01 -0.36206293210E-01 -0.98273837198E-01  0.12869786516E+00  0.22542638069E-01 0.  0.
         14    1    1    2    0    0  0.18464947744E-01 -0.94047708087E-02 -0.97948701694E-02  0.22920372832E-01  0.00000000000E+00 0.  1.
     999901    1    3    3    0    0 -0.89783439169E-01  0.45611064019E-01  0.10806870737E+00  0.89231176201E+00  0.88000000000E+00 0. -1.
        -11    1    4    4    0    0  0.43191800531E-01 -0.27953612556E-01 -0.47270529139E-01  0.69869164401E-01  0.51100000000E-03 0. -1.
         11    1    4    4    0    0  0.28126690895E-01 -0.82526806542E-02 -0.51003308060E-01  0.58828700756E-01  0.51100000000E-03 0.  1.
</event>
<event>
 8    1  0.1202249E+005  0.1043930E+01  0.7957747E-01            NaN
         13   -1    0    0    0    0  0.00000000000E+00  0.00000000000E+00  0.74505805969E-08  0.10566000000E+00  0.10566000000E+00 0.  1.
     999900   -1    0    0    0    0 -0.00000000000E+00 -0.00000000000E+00 -0.74505805969E-08  0.93827000000E+00  0.93827000000E+00 0.  1.
     999902    2    1    2    0    0 -0.11207751419E-01 -0.20114835540E-01  0.69705493212E-02  0.10198715533E+01  0.10195877482E+01 0.  0.
     999903    2    3    3    0    0 -0.71040903298E-01  0.10372535005E+00 -0.20561273217E-01  0.12876303078E+00  0.18745504920E-01 0.  0.
         14    1    1    2    0    0  0.11207751419E-01  0.20114835540E-01 -0.69705493212E-02  0.24058446719E-01  0.00000000000E+00 0. -1.
     999901    1    3    3    0    0  0.59833151879E-01 -0.12384018559E+00  0.27531822538E-01  0.89110852251E+00  0.88000000000E+00 0. -1.
        -11    1    4    4    0    0 -0.17564218349E-01  0.29543676646E-01  0.24554579606E-02  0.34461877354E-01  0.51100000000E-03 0.  1.
         11    1    4    4    0    0 -0.53476684950E-01  0.74181673400E-01 -0.23016731178E-01  0.94301153422E-01  0.51100000000E-03 0. -1.
</event>
<event>
 8    1  0.1202249E+005  0.1043930E+01  0.7957747E-01            NaN
         13   -1    0    0    0    0  0.00000000000E+00  0.00000000000E+00  0.74505805969E-08  0.10566000000E+00  0.10566000000E+00 0.  1.
     999900   -1    0    0    0    0 -0.00000000000E+00 -0.00000000000E+00 -0.74505805969E-08  0.93827000000E+00  0.93827000000E+00 0. -1.
     999902    2    1    2    0    0 -0.11285512250E-01 -0.44380836635E-02  0.21298753095E-01  0.10194208944E+01  0.10191262256E+01 0.  0.
     999903    2    3    3    0    0  0.20199487833E-02  0.11932816192E+00 -0.42404305465E-01  0.12838037990E+00  0.20978713035E-01 0.  0.
         14    1    1    2    0    0  0.11285512250E-01  0.44380836635E-02 -0.21298753095E-01  0.24509105589E-01  0.00000000000E+00 0. -1.
     999901    1    3    3    0    0 -0.13305461033E-01 -0.12376624558E+00  0.63703058560E-01  0.89104051452E+00  0.88000000000E+00 0.  1.
        -11    1    4    4    0    0  0.10558179176E-01  0.79674223348E-01 -0.31941407681E-01  0.86486829397E-01  0.51100000000E-03 0. -1.
         11    1    4    4    0    0 -0.85382303931E-02  0.39653938570E-01 -0.10462897784E-01  0.41893550499E-01  0.51100000000E-03 0.  1.
</event>
<event>
 8    1  0.1202249E+005  0.1043930E+01  0.7957747E-01            NaN
         13   -1    0    0    0    0  0.00000000000E+00  0.00000000000E+00  0.74505805969E-08  0.10566000000E+00  0.10566000000E+00 0.  1.
     999900   -1    0    0    0    0 -0.00000000000E+00 -0.00000000000E+00 -0.74505805969E-08  0.93827000000E+00  0.93827000000E+00 0.  1.
     999902    2    1    2    0    0  0.30501968630E-02  0.19341899857E-01  0.12320741620E-01  0.10207953190E+01  0.10205331302E+01 0.  0.
     999903    2    3    3    0    0  0.10366830279E+00  0.51444967595E-01  0.62398603955E-01  0.13306653018E+00  0.20479599229E-01 0.  0.
         14    1    1    2    0    0 -0.30501968630E-02 -0.19341899857E-01 -0.12320741620E-01  0.23134681002E-01  0.00000000000E+00 0. -1.
     999901    1    3    3    0    0 -0.10061810593E+00 -0.32103067738E-01 -0.50077862334E-01  0.88772878882E+00  0.88000000000E+00 0. -1.
        -11    1    4    4    0    0  0.82311961009E-01  0.31185266627E-01  0.48654166786E-01  0.10057469287E+00  0.51100000000E-03 0.  1.
         11    1    4    4    0    0  0.21356341781E-01  0.20259700968E-01  0.13744437169E-01  0.32491837308E-01  0.51100000000E-03 0. -1.
</event>
<event>
 8    1  0.1202249E+005  0.1043930E+01  0.7957747E-01            NaN
         13   -1    0    0    0    0  0.00000000000E+00  0.00000000000E+00  0.74505805969E-08  0.10566000000E+00  0.10566000000E+00 0. -1.
     999900   -1    0    0    0    0 -0.00000000000E+00 -0.00000000000E+00 -0.74505805969E-08  0.93827000000E+00  0.93827000000E+00 0.  1.
     999902    2    1    2    0    0  0.60092125935E-02 -0.68055533769E-02  0.21579449623E-01  0.10205184892E+01  0.10202499144E+01 0.  0.
     999903    2    3    3    0    0 -0.29605591257E-01  0.36595059510E-01 -0.11700120644E+00  0.12790624095E+00  0.21331543596E-01 0.  0.
         14    1    1    2    0    0 -0.60092125935E-02  0.68055533769E-02 -0.21579449623E-01  0.23411510818E-01  0.00000000000E+00 0.  1.
     999901    1    3    3    0    0  0.35614803850E-01 -0.43400612887E-01  0.13858065606E+00  0.89261224823E+00  0.88000000000E+00 0. -1.
        -11    1    4    4    0    0 -0.37839586312E-02 -0.26833071503E-02 -0.10140770838E-01  0.11163101468E-01  0.51100000000E-03 0.  1.
         11    1    4    4    0    0 -0.25821632626E-01  0.39278366661E-01 -0.10686043560E+00  0.11674313949E+00  0.51100000000E-03 0. -1.
</event>
<event>
 8    1  0.1202249E+005  0.1043930E+01  0.7957747E-01            NaN
         13   -1    0    0    0    0  0.00000000000E+00  0.00000000000E+00  0.74505805969E-08  0.10566000000E+00  0.10566000000E+00 0.  1.
     999900   -1    0    0    0    0 -0.00000000000E+00 -0.00000000000E+00 -0.74505805969E-08  0.93827000000E+00  0.93827000000E+00 0.  1.
     999902    2    1    2    0    0  0.16285479224E-01  0.12815046113E-01 -0.10643618415E-01  0.10206334583E+01  0.10203675453E+01 0.  0.
     999903    2    3    3    0    0 -0.97450023630E-02  0.13044065549E+00 -0.61721102478E-02  0.13241424872E+00  0.19639466501E-01 0.  0.
         14    1    1    2    0    0 -0.16285479224E-01 -0.12815046113E-01  0.10643618415E-01  0.23296541662E-01  0.00000000000E+00 0. -1.
     999901    1    3    3    0    0  0.26030481587E-01 -0.11762560937E+00 -0.44715081676E-02  0.88821920962E+00  0.88000000000E+00 0.  1.
        -11    1    4    4    0    0 -0.58845269783E-02  0.23360202873E-01 -0.75615355092E-02  0.25254003174E-01  0.51100000000E-03 0. -1.
         11    1    4    4    0    0 -0.38604753847E-02  0.10708045261E+00  0.13894252614E-02  0.10716024555E+00  0.51100000000E-03 0.  1.
</event>
<event>
 8    1  0.1202249E+005  0.1043930E+01  0.7957747E-01            NaN
         13   -1    0    0    0    0  0.00000000000E+00  0.00000000000E+00  0.74505805969E-08  0.10566000000E+00  0.10566000000E+00 0. -1.
     999900   -1    0    0    0    0 -0.00000000000E+00 -0.00000000000E+00 -0.74505805969E-08  0.93827000000E+00  0.93827000000E+00 0. -1.
     999902    2    1    2    0    0  0.36577763670E-02  0.31013804655E-01  0.78224053021E-02  0.10117364380E+01  0.10112241070E+01 0.  0.
     999903    2    3    3    0    0 -0.19375282557E-01 -0.11527744757E+00  0.68757589271E-02  0.11936176985E+00  0.23144428038E-01 0.  0.
         14    1    1    2    0    0 -0.36577763670E-02 -0.31013804655E-01 -0.78224053021E-02  0.32193561963E-01  0.00000000000E+00 0. -1.
     999901    1    3    3    0    0  0.23033058924E-01  0.14629125222E+00  0.94664637495E-03  0.89237466819E+00  0.88000000000E+00 0.  1.
        -11    1    4    4    0    0  0.20578992629E-02 -0.37287151731E-01 -0.47457461046E-02  0.37647707243E-01  0.51100000000E-03 0.  1.
         11    1    4    4    0    0 -0.21433181820E-01 -0.77990295837E-01  0.11621505032E-01  0.81714062608E-01  0.51100000000E-03 0. -1.
</event>
<event>
 8    1  0.1202249E+005  0.1043930E+01  0.7957747E-01            NaN
         13   -1    0    0    0    0  0.00000000000E+00  0.00000000000E+00  0.74505805969E-08  0.10566000000E+00  0.10566000000E+00 0. -1.
     999900   -1    0    0    0    0 -0.00000000000E+00 -0.00000000000E+00 -0.74505805969E-08  0.93827000000E+00  0.93827000000E+00 0.  1.
     999902    2    1    2    0    0  0.78356260396E-02 -0.17508306768E-01 -0.12869013577E-01  0.10208313128E+01  0.10205699485E+01 0.  0.
     999903    2    3    3    0    0  0.96319321447E-02  0.55830288712E-01 -0.11713705694E+00  0.13164426767E+00  0.19983189103E-01 0.  0.
         14    1    1    2    0    0 -0.78356260396E-02  0.17508306768E-01  0.12869013577E-01  0.23098687230E-01  0.00000000000E+00 0.  1.
     999901    1    3    3    0    0 -0.17963061051E-02 -0.73338595480E-01  0.10426804337E+00  0.88918704510E+00  0.88000000000E+00 0.  1.
        -11    1    4    4    0    0  0.28008085108E-02  0.19656274229E-01 -0.63908386250E-01  0.66923513050E-01  0.51100000000E-03 0.  1.
         11    1    4    4    0    0  0.68311236339E-02  0.36174014483E-01 -0.53228670695E-01  0.64720754622E-01  0.51100000000E-03 0. -1.
</event>
<event>
 8    1  0.1202249E+005  0.1043930E+01  0.7957747E-01            NaN
         13   -1    0    0    0    0  0.00000000000E+00  0.00000000000E+00  0.74505805969E-08  0.10566000000E+00  0.10566000000E+00 0.  1.
     999900   -1    0    0    0    0 -0.00000000000E+00 -0.00000000000E+00 -0.74505805969E-08  0.93827000000E+00  0.93827000000E+00 0. -1.
     999902    2    1    2    0    0 -0.22506577456E-01 -0.63695170930E-02  0.23768260158E-03  0.10205382649E+01  0.10202701490E+01 0.  0.
     999903    2    3    3    0    0 -0.87204212641E-01  0.32803458920E-01  0.92133866600E-01  0.13252631980E+00  0.19847781897E-01 0.  0.
         14    1    1    2    0    0  0.22506577456E-01  0.63695170930E-02 -0.23768260158E-03  0.23391735074E-01  0.00000000000E+00 0.  1.
     999901    1    3    3    0    0  0.64697635185E-01 -0.39172976013E-01 -0.91896183998E-01  0.88801194512E+00  0.88000000000E+00 0.  1.
        -11    1    4    4    0    0 -0.84907070358E-01  0.28560141120E-01  0.82709793697E-01  0.12192646699E+00  0.51100000000E-03 0.  1.
         11    1    4    4    0    0 -0.22971422828E-02  0.42433178000E-02  0.94240729032E-02  0.10599852815E-01  0.51100000000E-03 0. -1.
</event>
<event>
 8    1  0.1202249E+005  0.1043930E+01  0.7957747E-01            NaN
         13   -1    0    0    0    0  0.00000000000E+00  0.00000000000E+00  0.74505805969E-08  0.10566000000E+00  0.10566000000E+00 0. -1.
     999900   -1    0    0    0    0 -0.00000000000E+00 -0.00000000000E+00 -0.74505805969E-08  0.93827000000E+00  0.93827000000E+00 0.  1.
     999902    2    1    2    0    0  0.29477852431E-02  0.19918471257E-01 -0.22591938655E-02  0.10236682406E+01  0.10234676976E+01 0.  0.
     999903    2    3    3    0    0 -0.11017845350E+00  0.38781822521E-01 -0.62815145174E-01  0.13416253794E+00  0.20261360991E-01 0.  0.
         14    1    1    2    0    0 -0.29477852431E-02 -0.19918471257E-01  0.22591938655E-02  0.20261759350E-01  0.00000000000E+00 0. -1.
     999901    1    3    3    0    0  0.11312623875E+00 -0.18863351264E-01  0.60555951308E-01  0.88950570271E+00  0.88000000000E+00 0. -1.
        -11    1    4    4    0    0 -0.68508804171E-01  0.17718172850E-01 -0.28837521282E-01  0.76415009343E-01  0.51100000000E-03 0. -1.
         11    1    4    4    0    0 -0.41669649331E-01  0.21063649671E-01 -0.33977623891E-01  0.57747528598E-01  0.51100000000E-03 0.  1.
</event>
<event>
 8    1  0.1202249E+005  0.1043930E+01  0.7957747E-01            NaN
         13   -1    0    0    0    0  0.00000000000E+00  0.00000000000E+00  0.74505805969E-08  0.10566000000E+00  0.10566000000E+00 0.  1.
     999900   -1    0    0    0    0 -0.00000000000E+00 -0.00000000000E+00 -0.74505805969E-08  0.93827000000E+00  0.93827000000E+00 0. -1.
     999902    2    1    2    0    0 -0.49707227783E-02 -0.15152490151E-01  0.17064577809E-01  0.10205739332E+01  0.10203066437E+01 0.  0.
     999903    2    3    3    0    0 -0.94705290596E-01  0.59429598033E-01 -0.61469403250E-01  0.12940483207E+00  0.21590596079E-01 0.  0.
         14    1    1    2    0    0  0.49707227783E-02  0.15152490151E-01 -0.17064577809E-01  0.23356066846E-01  0.00000000000E+00 0. -1.
     999901    1    3    3    0    0  0.89734567818E-01 -0.74582088184E-01  0.78533981059E-01  0.89116910108E+00  0.88000000000E+00 0. -1.
        -11    1    4    4    0    0 -0.53070702244E-01  0.24025622385E-01 -0.40081079886E-01  0.70714100810E-01  0.51100000000E-03 0.  1.
         11    1    4    4    0    0 -0.41634588352E-01  0.35403975648E-01 -0.21388323365E-01  0.58690731264E-01  0.51100000000E-03 0. -1.
</event>
<event>
 8    1  0.1202249E+005  0.1043930E+01  0.7957747E-01            NaN
         13   -1    0    0    0    0  0.00000000000E+00  0.00000000000E+00  0.74505805969E-08  0.10566000000E+00  0.10566000000E+00 0. -1.
     999900   -1    0    0    0    0 -0.00000000000E+00 -0.00000000000E+00 -0.74505805969E-08  0.93827000000E+00  0.93827000000E+00 0.  1.
     999902    2    1    2    0    0 -0.40748923450E-02 -0.16014423738E-01 -0.15276097267E-01  0.10214260967E+01  0.10211781654E+01 0.  0.
     999903    2    3    3    0    0 -0.73666160167E-01 -0.77936387809E-01 -0.78283821361E-01  0.13426926307E+00  0.19977352674E-01 0.  0.
         14    1    1    2    0    0  0.40748923450E-02  0.16014423738E-01  0.15276097267E-01  0.22503903283E-01  0.00000000000E+00 0. -1.
     999901    1    3    3    0    0  0.69591267822E-01  0.61921964071E-01  0.63007724094E-01  0.88715683365E+00  0.88000000000E+00 0. -1.
        -11    1    4    4    0    0 -0.11461142413E-01 -0.98449844932E-02 -0.20362377075E-01  0.25360777319E-01  0.51100000000E-03 0. -1.
         11    1    4    4    0    0 -0.62205017754E-01 -0.68091403316E-01 -0.57921444286E-01  0.10890848575E+00  0.51100000000E-03 0.  1.
</event>
<event>
 8    1  0.1202249E+005  0.1043930E+01  0.7957747E-01            NaN
         13   -1    0    0    0    0  0.00000000000E+00  0.00000000000E+00  0.74505805969E-08  0.10566000000E+00  0.10566000000E+00 0. -1.
     999900   -1    0    0    0    0 -0.00000000000E+00 -0.00000000000E+00 -0.74505805969E-08  0.93827000000E+00  0.93827000000E+00 0. -1.
     999902    2    1    2    0    0 -0.17602383526E-02 -0.13765363659E-01 -0.18759690337E-01  0.10205952693E+01  0.10203284736E+01 0.  0.
     999903    2    3    3    0    0  0.12638670403E+00  0.83934886071E-02 -0.26581300556E-01  0.13100332286E+00  0.20279434230E-01 0.  0.
         14    1    1    2    0    0  0.17602383526E-02  0.13765363659E-01  0.18759690337E-01  0.23334730709E-01  0.00000000000E+00 0. -1.
     999901    1    3    3    0    0 -0.12814694239E+00 -0.22158852266E-01  0.78216102194E-02  0.88959194644E+00  0.88000000000E+00 0. -1.
        -11    1    4    4    0    0  0.37553047743E-01 -0.42894800908E-02 -0.14371813954E-01  0.40440588418E-01  0.51100000000E-03 0. -1.
         11    1    4    4    0    0  0.88833656289E-01  0.12682968698E-01 -0.12209486602E-01  0.90562734437E-01  0.51100000000E-03 0.  1.
</event>
<event>
 8    1  0.1202249E+005  0.1043930E+01  0.7957747E-01            NaN
         13   -1    0    0    0    0  0.00000000000E+00  0.00000000000E+00  0.74505805969E-08  0.10566000000E+00  0.10566000000E+00 0. -1.
     999900   -1    0    0    0    0 -0.00000000000E+00 -0.00000000000E+00 -0.74505805969E-08  0.93827000000E+00  0.93827000000E+00 0. -1.
     999902    2    1    2    0    0  0.34226743418E-02  0.85853006982E-02 -0.21517092000E-01  0.10205119015E+01  0.10202431739E+01 0.  0.
     999903    2    3    3    0    0  0.22055931712E-01 -0.11803994659E+00 -0.48001051733E-01  0.13085885025E+00  0.20001115111E-01 0.  0.
         14    1    1    2    0    0 -0.34226743418E-02 -0.85853006982E-02  0.21517092000E-01  0.23418098469E-01  0.00000000000E+00 0. -1.
     999901    1    3    3    0    0 -0.18633257370E-01  0.12662524729E+00  0.26483959732E-01  0.88965305128E+00  0.88000000000E+00 0.  1.
        -11    1    4    4    0    0  0.52994546959E-02 -0.78088004811E-01 -0.27863324715E-01  0.83080964731E-01  0.51100000000E-03 0. -1.
         11    1    4    4    0    0  0.16756477016E-01 -0.39951941782E-01 -0.20137727018E-01  0.47777885518E-01  0.51100000000E-03 0.  1.
</event>
<event>
 8    1  0.1202249E+005  0.1043930E+01  0.7957747E-01            NaN
         13   -1    0    0    0    0  0.00000000000E+00  0.00000000000E+00  0.74505805969E-08  0.10566000000E+00  0.10566000000E+00 0.  1.
     999900   -1    0    0    0    0 -0.00000000000E+00 -0.00000000000E+00 -0.74505805969E-08  0.93827000000E+00  0.93827000000E+00 0.  1.
     999902    2    1    2    0    0  0.10408936218E-01  0.27240336197E-03  0.21871023997E-01  0.10197068324E+01  0.10194190808E+01 0.  0.
     999903    2    3    3    0    0 -0.66089513175E-01  0.92611699887E-01 -0.55533269771E-01  0.12820810380E+00  0.20214428537E-01 0.  0.
         14    1    1    2    0    0 -0.10408936218E-01 -0.27240336197E-03 -0.21871023997E-01  0.24223167577E-01  0.00000000000E+00 0. -1.
     999901    1    3    3    0    0  0.76498449393E-01 -0.92339296525E-01  0.77404293768E-01  0.89149872862E+00  0.88000000000E+00 0.  1.
        -11    1    4    4    0    0 -0.18926110361E-01  0.14126251734E-01 -0.15621663493E-01  0.28320419007E-01  0.51100000000E-03 0. -1.
         11    1    4    4    0    0 -0.47163402814E-01  0.78485448153E-01 -0.39911606278E-01  0.99887684793E-01  0.51100000000E-03 0.  1.
</event>
<event>
 8    1  0.1202249E+005  0.1043930E+01  0.7957747E-01            NaN
         13   -1    0    0    0    0  0.00000000000E+00  0.00000000000E+00  0.74505805969E-08  0.10566000000E+00  0.10566000000E+00 0. -1.
     999900   -1    0    0    0    0 -0.00000000000E+00 -0.00000000000E+00 -0.74505805969E-08  0.93827000000E+00  0.93827000000E+00 0.  1.
     999902    2    1    2    0    0 -0.77101735852E-03 -0.12953997982E-01 -0.20349117074E-01  0.10197952305E+01  0.10195096003E+01 0.  0.
     999903    2    3    3    0    0  0.12723279100E+00  0.14459663533E-01 -0.97599128515E-02  0.13004885373E+00  0.20498377536E-01 0.  0.
         14    1    1    2    0    0  0.77101735852E-03  0.12953997982E-01  0.20349117074E-01  0.24134769466E-01  0.00000000000E+00 0. -1.
     999901    1    3    3    0    0 -0.12800380836E+00 -0.27413661516E-01 -0.10589204222E-01  0.88974637681E+00  0.88000000000E+00 0.  1.
        -11    1    4    4    0    0  0.99796499387E-01  0.12639869110E-01  0.77695549471E-03  0.10059807335E+00  0.51100000000E-03 0. -1.
         11    1    4    4    0    0  0.27436291615E-01  0.18197944230E-02 -0.10536868346E-01  0.29450780378E-01  0.51100000000E-03 0.  1.
</event>
<event>
 8    1  0.1202249E+005  0.1043930E+01  0.7957747E-01            NaN
         13   -1    0    0    0    0  0.00000000000E+00  0.00000000000E+00  0.74505805969E-08  0.10566000000E+00  0.10566000000E+00 0.  1.
     999900   -1    0    0    0    0 -0.00000000000E+00 -0.00000000000E+00 -0.74505805969E-08  0.93827000000E+00  0.93827000000E+00 0. -1.
     999902    2    1    2    0    0 -0.50045648753E-02 -0.23299200325E-01  0.15396893176E-03  0.10200988835E+01  0.10198204793E+01 0.  0.
     999903    2    3    3    0    0  0.42141293754E-01  0.70504800670E-01  0.97125050865E-01  0.12856912334E+00  0.18706373623E-01 0.  0.
         14    1    1    2    0    0  0.50045648753E-02  0.23299200325E-01 -0.15396893176E-03  0.23831116461E-01  0.00000000000E+00 0. -1.
     999901    1    3    3    0    0 -0.47145858629E-01 -0.93804000995E-01 -0.96971081933E-01  0.89152976020E+00  0.88000000000E+00 0. -1.
        -11    1    4    4    0    0  0.17574254891E-01  0.21505494926E-01  0.45268816031E-01  0.53111840232E-01  0.51100000000E-03 0.  1.
         11    1    4    4    0    0  0.24567038863E-01  0.48999305744E-01  0.51856234834E-01  0.75457283108E-01  0.51100000000E-03 0. -1.
</event>
<event>
 8    1  0.1202249E+005  0.1043930E+01  0.7957747E-01            NaN
         13   -1    0    0    0    0  0.00000000000E+00  0.00000000000E+00  0.74505805969E-08  0.10566000000E+00  0.10566000000E+00 0. -1.
     999900   -1    0    0    0    0 -0.00000000000E+00 -0.00000000000E+00 -0.74505805969E-08  0.93827000000E+00  0.93827000000E+00 0.  1.
     999902    2    1    2    0    0 -0.12870071780E-01  0.96695928060E-02 -0.16886040453E-01  0.10206002307E+01  0.10203335498E+01 0.  0.
     999903    2    3    3    0    0 -0.51333049627E-01  0.10793702896E+00 -0.55003963289E-01  0.13347630154E+00  0.22472269384E-01 0.  0.
         14    1    1    2    0    0  0.12870071780E-01 -0.96695928060E-02  0.16886040453E-01  0.23329769284E-01  0.00000000000E+00 0. -1.
     999901    1    3    3    0    0  0.38462977848E-01 -0.98267436153E-01  0.38117922836E-01  0.88712392917E+00  0.88000000000E+00 0. -1.
        -11    1    4    4    0    0 -0.46405650020E-01  0.74221574432E-01 -0.39206856482E-01  0.95915406380E-01  0.51100000000E-03 0. -1.
         11    1    4    4    0    0 -0.49273996073E-02  0.33715454527E-01 -0.15797106807E-01  0.37560895161E-01  0.51100000000E-03 0.  1.
</event>
<event>
 8    1  0.1202249E+005  0.1043930E+01  0.7957747E-01            NaN
         13   -1    0    0    0    0  0.00000000000E+00  0.00000000000E+00  0.74505805969E-08  0.10566000000E+00  0.10566000000E+00 0.  1.
     999900   -1    0    0    0    0 -0.00000000000E+00 -0.00000000000E+00 -0.74505805969E-08  0.93827000000E+00  0.93827000000E+00 0.  1.
     999902    2    1    2    0    0  0.11455613984E-01 -0.59851290586E-02  0.20247639841E-01  0.10199087640E+01  0.10196258466E+01 0.  0.
     999903    2    3    3    0    0  0.76597598626E-01 -0.35880658990E-01 -0.95743888387E-01  0.12940819940E+00  0.20614948530E-01 0.  0.
         14    1    1    2    0    0 -0.11455613984E-01  0.59851290586E-02 -0.20247639841E-01  0.24021236037E-01  0.00000000000E+00 0. -1.
     999901    1    3    3    0    0 -0.65141984642E-01  0.29895529932E-01  0.11599152823E+00  0.89050056457E+00  0.88000000000E+00 0. -1.
        -11    1    4    4    0    0  0.31265737992E-01 -0.52121990510E-02 -0.42765531177E-01  0.53234060234E-01  0.51100000000E-03 0. -1.
         11    1    4    4    0    0  0.45331860633E-01 -0.30668459939E-01 -0.52978357209E-01  0.76174139162E-01  0.51100000000E-03 0.  1.
</event>
<event>
 8    1  0.1202249E+005  0.1043930E+01  0.7957747E-01            NaN
         13   -1    0    0    0    0  0.00000000000E+00  0.00000000000E+00  0.74505805969E-08  0.10566000000E+00  0.10566000000E+00 0. -1.
     999900   -1    0    0    0    0 -0.00000000000E+00 -0.00000000000E+00 -0.74505805969E-08  0.93827000000E+00  0.93827000000E+00 0. -1.
     999902    2    1    2    0    0  0.58140951440E-02 -0.21315236366E-01 -0.85630957255E-02  0.10202346500E+01  0.10199594460E+01 0.  0.
     999903    2    3    3    0    0 -0.11242065594E+00  0.51130839493E-02 -0.62860630530E-01  0.13027614828E+00  0.18864475345E-01 0.  0.
         14    1    1    2    0    0 -0.58140951440E-02  0.21315236366E-01  0.85630957255E-02  0.23695350010E-01  0.00000000000E+00 0.  1.
     999901    1    3    3    0    0  0.11823475109E+00 -0.26428320315E-01  0.54297534805E-01  0.88995850171E+00  0.88000000000E+00 0.  1.
        -11    1    4    4    0    0 -0.71874395196E-01  0.95702276976E-02 -0.47514269167E-01  0.86691319280E-01  0.51100000000E-03 0.  1.
         11    1    4    4    0    0 -0.40546260747E-01 -0.44571437483E-02 -0.15346361364E-01  0.43584829001E-01  0.51100000000E-03 0. -1.
</event>
<event>
 8    1  0.1202249E+005  0.1043930E+01  0.7957747E-01            NaN
         13   -1    0    0    0    0  0.00000000000E+00  0.00000000000E+00  0.74505805969E-08  0.10566000000E+00  0.10566000000E+00 0.  1.
     999900   -1    0    0    0    0 -0.00000000000E+00 -0.00000000000E+00 -0.74505805969E-08  0.93827000000E+00  0.93827000000E+00 0. -1.
     999902    2    1    2    0    0 -0.19019695686E-01  0.27774649676E-03  0.14194131210E-01  0.10201960722E+01  0.10199199608E+01 0.  0.
     999903    2    3    3    0    0 -0.31356362316E-01 -0.11831350022E+00  0.43941851860E-01  0.13165738199E+00  0.20529834289E-01 0.  0.
         14    1    1    2    0    0  0.19019695686E-01 -0.27774649676E-03 -0.14194131210E-01  0.23733927781E-01  0.00000000000E+00 0. -1.
     999901    1    3    3    0    0  0.12336666630E-01  0.11859124672E+00 -0.29747720649E-01  0.88853869022E+00  0.88000000000E+00 0. -1.
        -11    1    4    4    0    0 -0.11884964489E-01 -0.16097439077E-01  0.82732539168E-02  0.21658434318E-01  0.51100000000E-03 0.  1.
         11    1    4    4    0    0 -0.19471397827E-01 -0.10221606115E+00  0.35668597943E-01  0.10999894768E+00  0.51100000000E-03 0. -1.
</event>
<event>
 8    1  0.1202249E+005  0.1043930E+01  0.7957747E-01            NaN
         13   -1    0    0    0    0  0.00000000000E+00  0.00000000000E+00  0.74505805969E-08  0.10566000000E+00  0.10566000000E+00 0.  1.
     999900   -1    0    0    0    0 -0.00000000000E+00 -0.00000000000E+00 -0.74505805969E-08  0.93827000000E+00  0.93827000000E+00 0. -1.
     999902    2    1    2    0    0 -0.13038483241E-01 -0.15077279766E-01 -0.12819763505E-01  0.10202303640E+01  0.10199550592E+01 0.  0.
     999903    2    3    3    0    0 -0.77293764716E-04  0.52248156049E-01  0.11534090131E+00  0.12830779855E+00  0.20724185604E-01 0.  0.
         14    1    1    2    0    0  0.13038483241E-01  0.15077279766E-01  0.12819763505E-01  0.23699636003E-01  0.00000000000E+00 0. -1.
     999901    1    3    3    0    0 -0.12961189476E-01 -0.67325435815E-01 -0.12816066482E+00  0.89192256544E+00  0.88000000000E+00 0.  1.
        -11    1    4    4    0    0 -0.84140285794E-03 -0.74624915864E-03  0.12978819807E-01  0.13037474109E-01  0.51100000000E-03 0.  1.
         11    1    4    4    0    0  0.76410909322E-03  0.52994405208E-01  0.10236208151E+00  0.11527032444E+00  0.51100000000E-03 0. -1.
</event>
<event>
 8    1  0.1202249E+005  0.1043930E+01  0.7957747E-01            NaN
         13   -1    0    0    0    0  0.00000000000E+00  0.00000000000E+00  0.74505805969E-08  0.10566000000E+00  0.10566000000E+00 0.  1.
     999900   -1    0    0    0    0 -0.00000000000E+00 -0.00000000000E+00 -0.74505805969E-08  0.93827000000E+00  0.93827000000E+00 0.  1.
     999902    2    1    2    0    0 -0.83891101774E-02 -0.89587689483E-02  0.22808670842E-01  0.10180287997E+01  0.10176992507E+01 0.  0.
     999903    2    3    3    0    0  0.12519030015E+00 -0.51045673990E-02  0.17666497316E-01  0.12792501044E+00  0.18815825997E-01 0.  0.
         14    1    1    2    0    0  0.83891101774E-02  0.89587689483E-02 -0.22808670842E-01  0.25901200286E-01  0.00000000000E+00 0. -1.
     999901    1    3    3    0    0 -0.13357941033E+00 -0.38542015493E-02  0.51421735268E-02  0.89010378928E+00  0.88000000000E+00 0.  1.
        -11    1    4    4    0    0  0.11180729226E+00 -0.39972225406E-02  0.21550483854E-01  0.11393652999E+00  0.51100000000E-03 0.  1.
         11    1    4    4    0    0  0.13383007889E-01 -0.11073448584E-02 -0.38839865385E-02  0.13988480447E-01  0.51100000000E-03 0. -1.
</event>
<event>
 8    1  0.1202249E+005  0.1043930E+01  0.7957747E-01            NaN
         13   -1    0    0    0    0  0.00000000000E+00  0.00000000000E+00  0.74505805969E-08  0.10566000000E+00  0.10566000000E+00 0. -1.
     999900   -1    0    0    0    0 -0.00000000000E+00 -0.00000000000E+00 -0.74505805969E-08  0.93827000000E+00  0.93827000000E+00 0. -1.
     999902    2    1    2    0    0 -0.54059858997E-02 -0.20226990688E-02 -0.19205502409E-01  0.10238758903E+01  0.10236794768E+01 0.  0.
     999903    2    3    3    0    0  0.30101883930E-01 -0.22713985758E-01  0.12420673492E+00  0.13132000518E+00  0.19889248245E-01 0.  0.
         14    1    1    2    0    0  0.54059858997E-02  0.20226990688E-02  0.19205502409E-01  0.20054109750E-01  0.00000000000E+00 0. -1.
     999901    1    3    3    0    0 -0.35507869830E-01  0.20691286689E-01 -0.14341223733E+00  0.89255588507E+00  0.88000000000E+00 0. -1.
        -11    1    4    4    0    0  0.56898904934E-03 -0.82588968222E-02  0.41397406914E-01  0.42220131992E-01  0.51100000000E-03 0. -1.
         11    1    4    4    0    0  0.29532894881E-01 -0.14455088936E-01  0.82809328003E-01  0.89099873184E-01  0.51100000000E-03 0.  1.
</event>
<event>
 8    1  0.1202249E+005  0.1043930E+01  0.7957747E-01            NaN
         13   -1    0    0    0    0  0.00000000000E+00  0.00000000000E+00  0.74505805969E-08  0.10566000000E+00  0.10566000000E+00 0.  1.
     999900   -1    0    0    0    0 -0.00000000000E+00 -0.00000000000E+00 -0.74505805969E-08  0.93827000000E+00  0.93827000000E+00 0.  1.
     999902    2    1    2    0    0  0.12951140332E-01 -0.21187108943E-01 -0.12110249672E-02  0.10190685398E+01  0.10187652314E+01 0.  0.
     999903    2    3    3    0    0 -0.56394919550E-02  0.70180218194E-01 -0.10488746976E+00  0.12809019817E+00  0.21181375262E-01 0.  0.
         14    1    1    2    0    0 -0.12951140332E-01  0.21187108943E-01  0.12110249672E-02  0.24861460189E-01  0.00000000000E+00 0. -1.
     999901    1    3    3    0    0  0.18590632287E-01 -0.91367327137E-01  0.10367644479E+00  0.89097834165E+00  0.88000000000E+00 0. -1.
        -11    1    4    4    0    0  0.16453341397E-03  0.65054144761E-01 -0.87367894466E-01  0.10892877915E+00  0.51100000000E-03 0. -1.
         11    1    4    4    0    0 -0.58040253689E-02  0.51260734325E-02 -0.17519575295E-01  0.19161419019E-01  0.51100000000E-03 0.  1.
</event>
<event>
 8    1  0.1202249E+005  0.1043930E+01  0.7957747E-01            NaN
         13   -1    0    0    0    0  0.00000000000E+00  0.00000000000E+00  0.74505805969E-08  0.10566000000E+00  0.10566000000E+00 0. -1.
     999900   -1    0    0    0    0 -0.00000000000E+00 -0.00000000000E+00 -0.74505805969E-08  0.93827000000E+00  0.93827000000E+00 0.  1.
     999902    2    1    2    0    0 -0.11607332449E-01  0.16324344369E-01 -0.12523208793E-01  0.10203070208E+01  0.10200335150E+01 0.  0.
     999903    2    3    3    0    0  0.70671200718E-01  0.96978896103E-01  0.47838355401E-01  0.13074621226E+00  0.20167768174E-01 0.  0.
         14    1    1    2    0    0  0.11607332449E-01 -0.16324344369E-01  0.12523208793E-01  0.23622979154E-01  0.00000000000E+00 0. -1.
     999901    1    3    3    0    0 -0.82278533167E-01 -0.80654551734E-01 -0.60361564194E-01  0.88956080858E+00  0.88000000000E+00 0.  1.
        -11    1    4    4    0    0  0.23908723953E-01  0.40371823082E-01  0.28178760329E-01  0.54734037259E-01  0.51100000000E-03 0.  1.
         11    1    4    4    0    0  0.46762476766E-01  0.56607073021E-01  0.19659595071E-01  0.76012175003E-01  0.51100000000E-03 0. -1.
</event>
<event>
 8    1  0.1202249E+005  0.1043930E+01  0.7957747E-01            NaN
         13   -1    0    0    0    0  0.00000000000E+00  0.00000000000E+00  0.74505805969E-08  0.10566000000E+00  0.10566000000E+00 0. -1.
     999900   -1    0    0    0    0 -0.00000000000E+00 -0.00000000000E+00 -0.74505805969E-08  0.93827000000E+00  0.93827000000E+00 0. -1.
     999902    2    1    2    0    0  0.90182230718E-02  0.14153812182E-01 -0.17164718815E-01  0.10199240358E+01  0.10196414823E+01 0.  0.
     999903    2    3    3    0    0 -0.11594878050E+00  0.27748904904E-01  0.40747671422E-01  0.12910675738E+00  0.28179081813E-01 0.  0.
         14    1    1    2    0    0 -0.90182230718E-02 -0.14153812182E-01  0.17164718815E-01  0.24005964231E-01  0.00000000000E+00 0.  1.
     999901    1    3    3    0    0  0.12496700358E+00 -0.13595092722E-01 -0.57912390237E-01  0.89081727839E+00  0.88000000000E+00 0. -1.
        -11    1    4    4    0    0 -0.15272147460E-01 -0.58579178127E-02  0.50917771382E-02  0.17138874075E-01  0.51100000000E-03 0.  1.
         11    1    4    4    0    0 -0.10067663304E+00  0.33606822717E-01  0.35655894284E-01  0.11196788331E+00  0.51100000000E-03 0. -1.
</event>
<event>
 8    1  0.1202249E+005  0.1043930E+01  0.7957747E-01            NaN
         13   -1    0    0    0    0  0.00000000000E+00  0.00000000000E+00  0.74505805969E-08  0.10566000000E+00  0.10566000000E+00 0.  1.
     999900   -1    0    0    0    0 -0.00000000000E+00 -0.00000000000E+00 -0.74505805969E-08  0.93827000000E+00  0.93827000000E+00 0.  1.
     999902    2    1    2    0    0  0.94591708730E-03 -0.22376505573E-01 -0.81989755250E-02  0.10200799275E+01  0.10198010749E+01 0.  0.
     999903    2    3    3    0    0  0.77565619730E-01  0.32747700079E-01 -0.97391876823E-01  0.13054935995E+00  0.21659189451E-01 0.  0.
         14    1    1    2    0    0 -0.94591708730E-03  0.22376505573E-01  0.81989755250E-02  0.23850072546E-01  0.00000000000E+00 0. -1.
     999901    1    3    3    0    0 -0.76619702642E-01 -0.55124205652E-01  0.89192901298E-01  0.88953056750E+00  0.88000000000E+00 0. -1.
        -11    1    4    4    0    0  0.56135402605E-01  0.21276177286E-01 -0.53692745905E-01  0.80542108424E-01  0.51100000000E-03 0.  1.
         11    1    4    4    0    0  0.21430217125E-01  0.11471522793E-01 -0.43699130918E-01  0.50007251526E-01  0.51100000000E-03 0. -1.
</event>
<event>
 8    1  0.1202249E+005  0.1043930E+01  0.7957747E-01            NaN
         13   -1    0    0    0    0  0.00000000000E+00  0.00000000000E+00  0.74505805969E-08  0.10566000000E+00  0.10566000000E+00 0.  1.
     999900   -1    0    0    0    0 -0.00000000000E+00 -0.00000000000E+00 -0.74505805969E-08  0.93827000000E+00  0.93827000000E+00 0. -1.
     999902    2    1    2    0    0  0.12406833855E-01 -0.48548310181E-02 -0.19436829302E-01  0.10203654240E+01  0.10200932845E+01 0.  0.
     999903    2    3    3    0    0 -0.96735735703E-01  0.70349106443E-01  0.42377041661E-01  0.12829553469E+00  0.18897915829E-01 0.  0.
         14    1    1    2    0    0 -0.12406833855E-01  0.48548310181E-02  0.19436829302E-01  0.23564576038E-01  0.00000000000E+00 0.  1.
     999901    1    3    3    0    0  0.10914256956E+00 -0.75203937461E-01 -0.61813870963E-01  0.89206988927E+00  0.88000000000E+00 0. -1.
        -11    1    4    4    0    0 -0.20901157111E-01  0.63902958550E-02  0.86870141791E-02  0.23524871648E-01  0.51100000000E-03 0.  1.
         11    1    4    4    0    0 -0.75834578592E-01  0.63958810588E-01  0.33690027482E-01  0.10477066304E+00  0.51100000000E-03 0. -1.
</event>
<event>
 8    1  0.1202249E+005  0.1043930E+01  0.7957747E-01            NaN
         13   -1    0    0    0    0  0.00000000000E+00  0.00000000000E+00  0.74505805969E-08  0.10566000000E+00  0.10566000000E+00 0.  1.
     999900   -1    0    0    0    0 -0.00000000000E+00 -0.00000000000E+00 -0.74505805969E-08  0.93827000000E+00  0.93827000000E+00 0.  1.
     999902    2    1    2    0    0  0.15923194378E-02 -0.50705394180E-02  0.20875190716E-01  0.10223888896E+01  0.10221619353E+01 0.  0.
     999903    2    3    3    0    0  0.10013351849E+00  0.32794643512E-01 -0.74273638716E-01  0.13098693774E+00  0.23211942646E-01 0.  0.
         14    1    1    2    0    0 -0.15923194378E-02  0.50705394180E-02 -0.20875190716E-01  0.21541110431E-01  0.00000000000E+00 0. -1.
     999901    1    3    3    0    0 -0.98541199051E-01 -0.37865182930E-01  0.95148829432E-01  0.89140195183E+00  0.88000000000E+00 0. -1.
        -11    1    4    4    0    0  0.66701344701E-01  0.10116775757E-01 -0.47846003520E-01  0.82709852560E-01  0.51100000000E-03 0.  1.
         11    1    4    4    0    0  0.33432173788E-01  0.22677867755E-01 -0.26427635196E-01  0.48277085177E-01  0.51100000000E-03 0. -1.
</event>
<event>
 8    1  0.1202249E+005  0.1043930E+01  0.7957747E-01            NaN
         13   -1    0    0    0    0  0.00000000000E+00  0.00000000000E+00  0.74505805969E-08  0.10566000000E+00  0.10566000000E+00 0.  1.
     999900   -1    0    0    0    0 -0.00000000000E+00 -0.00000000000E+00 -0.74505805969E-08  0.93827000000E+00  0.93827000000E+00 0. -1.
     999902    2    1    2    0    0 -0.91576493169E-02  0.21314867454E-01 -0.48550251036E-02  0.10202285784E+01  0.10199532317E+01 0.  0.
     999903    2    3    3    0    0 -0.15902150219E-01 -0.90324982055E-01  0.87443136177E-01  0.12836093418E+00  0.20463298701E-01 0.  0.
         14    1    1    2    0    0  0.91576493169E-02 -0.21314867454E-01  0.48550251036E-02  0.23701421569E-01  0.00000000000E+00 0.  1.
     999901    1    3    3    0    0  0.67445009019E-02  0.11163984951E+00 -0.92298161281E-01  0.89186764425E+00  0.88000000000E+00 0. -1.
        -11    1    4    4    0    0 -0.89860617167E-02 -0.32906069588E-01  0.45723553164E-01  0.57047902291E-01  0.51100000000E-03 0. -1.
         11    1    4    4    0    0 -0.69160885022E-02 -0.57418912467E-01  0.41719583013E-01  0.71313031886E-01  0.51100000000E-03 0.  1.
</event>
<event>
 8    1  0.1202249E+005  0.1043930E+01  0.7957747E-01            NaN
         13   -1    0    0    0    0  0.00000000000E+00  0.00000000000E+00  0.74505805969E-08  0.10566000000E+00  0.10566000000E+00 0. -1.
     999900   -1    0    0    0    0 -0.00000000000E+00 -0.00000000000E+00 -0.74505805969E-08  0.93827000000E+00  0.93827000000E+00 0. -1.
     999902    2    1    2    0    0 -0.26915404335E-02 -0.75388825898E-02 -0.20317523532E-01  0.10220923970E+01  0.10218590838E+01 0.  0.
     999903    2    3    3    0    0 -0.11903168791E+00 -0.48912544622E-01 -0.28361108557E-01  0.13343525894E+00  0.20967501102E-01 0.  0.
         14    1    1    2    0    0  0.26915404335E-02  0.75388825898E-02  0.20317523532E-01  0.21837602961E-01  0.00000000000E+00 0. -1.
     999901    1    3    3    0    0  0.11634014748E+00  0.41373662033E-01  0.80435850245E-02  0.88865713809E+00  0.88000000000E+00 0. -1.
        -11    1    4    4    0    0 -0.48131183924E-01 -0.95922785028E-02 -0.68620760848E-02  0.49557763085E-01  0.51100000000E-03 0.  1.
         11    1    4    4    0    0 -0.70900503988E-01 -0.39320266120E-01 -0.21499032472E-01  0.83877495860E-01  0.51100000000E-03 0. -1.
</event>
<event>
 8    1  0.1202249E+005  0.1043930E+01  0.7957747E-01            NaN
         13   -1    0    0    0    0  0.00000000000E+00  0.00000000000E+00  0.74505805969E-08  0.10566000000E+00  0.10566000000E+00 0. -1.
     999900   -1    0    0    0    0 -0.00000000000E+00 -0.00000000000E+00 -0.74505805969E-08  0.93827000000E+00  0.93827000000E+00 0. -1.
     999902    2    1    2    0    0 -0.90699224369E-02 -0.19053445739E-01 -0.44836545547E-02  0.10223568582E+01  0.10221292213E+01 0.  0.
     999903    2    3    3    0    0  0.24369689697E-01  0.11877958217E+00 -0.42834584007E-01  0.13017585360E+00  0.20210896996E-01 0.  0.
         14    1    1    2    0    0  0.90699224369E-02  0.19053445739E-01  0.44836545547E-02  0.21573141767E-01  0.00000000000E+00 0.  1.
     999901    1    3    3    0    0 -0.33439612134E-01 -0.13783302791E+00  0.38350929452E-01  0.89218100463E+00  0.88000000000E+00 0. -1.
        -11    1    4    4    0    0  0.25455073606E-01  0.88813755255E-01 -0.37519378133E-01  0.99718647961E-01  0.51100000000E-03 0. -1.
         11    1    4    4    0    0 -0.10853839087E-02  0.29965826911E-01 -0.53152058743E-02  0.30457205637E-01  0.51100000000E-03 0.  1.
</event>
<event>
 8    1  0.1202249E+005  0.1043930E+01  0.7957747E-01            NaN
         13   -1    0    0    0    0  0.00000000000E+00  0.00000000000E+00  0.74505805969E-08  0.10566000000E+00  0.10566000000E+00 0. -1.
     999900   -1    0    0    0    0 -0.00000000000E+00 -0.00000000000E+00 -0.74505805969E-08  0.93827000000E+00  0.93827000000E+00 0.  1.
     999902    2    1    2    0    0  0.21491088525E-01  0.10868388035E-01  0.13343595615E-04  0.10198470408E+01  0.10195626502E+01 0.  0.
     999903    2    3    3    0    0 -0.10897006275E+00  0.51179387526E-01 -0.39599751604E-01  0.12843563974E+00  0.20827120418E-01 0.  0.
         14    1    1    2    0    0 -0.21491088525E-01 -0.10868388035E-01 -0.13343595615E-04  0.24082959173E-01  0.00000000000E+00 0.  1.
     999901    1    3    3    0    0  0.13046115128E+00 -0.40310999491E-01  0.39613095200E-01  0.89141140108E+00  0.88000000000E+00 0. -1.
        -11    1    4    4    0    0 -0.35329698821E-01  0.71346144552E-02 -0.74925248049E-02  0.36816971510E-01  0.51100000000E-03 0. -1.
         11    1    4    4    0    0 -0.73640363932E-01  0.44044773071E-01 -0.32107226799E-01  0.91618668232E-01  0.51100000000E-03 0.  1.
</event>
<event>
 8    1  0.1202249E+005  0.1043930E+01  0.7957747E-01            NaN
         13   -1    0    0    0    0  0.00000000000E+00  0.00000000000E+00  0.74505805969E-08  0.10566000000E+00  0.10566000000E+00 0. -1.
     999900   -1    0    0    0    0 -0.00000000000E+00 -0.00000000000E+00 -0.74505805969E-08  0.93827000000E+00  0.93827000000E+00 0. -1.
     999902    2    1    2    0    0 -0.30598666441E-02  0.16372036000E-01 -0.20561236593E-01  0.10174692593E+01  0.10171251265E+01 0.  0.
     999903    2    3    3    0    0  0.13208840697E-01 -0.43411083182E-02  0.12317965774E+00  0.12541816780E+00  0.19057020757E-01 0.  0.
         14    1    1    2    0    0  0.30598666441E-02 -0.16372036000E-01  0.20561236593E-01  0.26460740672E-01  0.00000000000E+00 0. -1.
     999901    1    3    3    0    0 -0.16268707341E-01  0.20713144318E-01 -0.14374089433E+00  0.89205109152E+00  0.88000000000E+00 0.  1.
        -11    1    4    4    0    0  0.14970798101E-01 -0.16205406612E-02  0.51380637857E-01  0.53544206179E-01  0.51100000000E-03 0. -1.
         11    1    4    4    0    0 -0.17619574042E-02 -0.27205676570E-02  0.71799019884E-01  0.71873961625E-01  0.51100000000E-03 0.  1.
</event>
<event>
 8    1  0.1202249E+005  0.1043930E+01  0.7957747E-01            NaN
         13   -1    0    0    0    0  0.00000000000E+00  0.00000000000E+00  0.74505805969E-08  0.10566000000E+00  0.10566000000E+00 0. -1.
     999900   -1    0    0    0    0 -0.00000000000E+00 -0.00000000000E+00 -0.74505805969E-08  0.93827000000E+00  0.93827000000E+00 0. -1.
     999902    2    1    2    0    0 -0.16983318226E-01  0.16128973814E-01 -0.72562550498E-02  0.10194100055E+01  0.10191150716E+01 0.  0.
     999903    2    3    3    0    0 -0.22506595699E-01  0.40980182888E-01  0.11965435688E+00  0.12994140422E+00  0.19536662244E-01 0.  0.
         14    1    1    2    0    0  0.16983318226E-01 -0.16128973814E-01  0.72562550498E-02  0.24519994527E-01  0.00000000000E+00 0. -1.
     999901    1    3    3    0    0  0.55232774733E-02 -0.24851209074E-01 -0.12691061193E+00  0.88946860125E+00  0.88000000000E+00 0. -1.
        -11    1    4    4    0    0 -0.10665537787E-01  0.18727999179E-01  0.80781095599E-01  0.83608242277E-01  0.51100000000E-03 0.  1.
         11    1    4    4    0    0 -0.11841057912E-01  0.22252183709E-01  0.38873261282E-01  0.46333161947E-01  0.51100000000E-03 0. -1.
</event>
<event>
 7    1  0.1202249E+005  0.1043930E+01  0.7957747E-01            NaN
         13   -1    0    0    0    0  0.00000000000E+00  0.00000000000E+00  0.74505805969E-08  0.10566000000E+00  0.10566000000E+00 0. -1.
     999900   -1    0    0    0    0 -0.00000000000E+00 -0.00000000000E+00 -0.74505805969E-08  0.93827000000E+00  0.93827000000E+00 0. -1.
     999903    2    1    2    0    0  0.79383703650E-01 -0.55173002775E-01  0.57030000138E-01  0.11346782120E+00  0.16634088232E-01 0.  0.
         14    1    1    2    0    0 -0.30653976250E-01  0.18027472781E-02  0.30364880144E-01  0.43184975441E-01  0.00000000000E+00 0. -1.
     999901    1    1    2    0    0 -0.48729727400E-01  0.53370255497E-01 -0.87394880282E-01  0.88727720336E+00  0.88000000000E+00 0. -1.
        -11    1    3    3    0    0  0.36372555277E-01 -0.20139165237E-01  0.32672409331E-01  0.52880017080E-01  0.51100000000E-03 0.  1.
         11    1    3    3    0    0  0.43011148373E-01 -0.35033837538E-01  0.24357590807E-01  0.60587804118E-01  0.51100000000E-03 0. -1.
</event>
<event>
 8    1  0.1202249E+005  0.1043930E+01  0.7957747E-01            NaN
         13   -1    0    0    0    0  0.00000000000E+00  0.00000000000E+00  0.74505805969E-08  0.10566000000E+00  0.10566000000E+00 0. -1.
     999900   -1    0    0    0    0 -0.00000000000E+00 -0.00000000000E+00 -0.74505805969E-08  0.93827000000E+00  0.93827000000E+00 0. -1.
     999902    2    1    2    0    0 -0.10929499097E-01  0.47274192812E-02 -0.20365481713E-01  0.10203385759E+01  0.10200658088E+01 0.  0.
     999903    2    3    3    0    0 -0.92751663835E-01 -0.89958514479E-01  0.71272201062E-02  0.13106013735E+00  0.20749864206E-01 0.  0.
         14    1    1    2    0    0  0.10929499097E-01 -0.47274192812E-02  0.20365481713E-01  0.23591424055E-01  0.00000000000E+00 0. -1.
     999901    1    3    3    0    0  0.81822164738E-01  0.94685933760E-01 -0.27492701819E-01  0.88927843859E+00  0.88000000000E+00 0.  1.
        -11    1    4    4    0    0 -0.54363239643E-01 -0.40923769549E-01 -0.22375319098E-02  0.68083657427E-01  0.51100000000E-03 0. -1.
         11    1    4    4    0    0 -0.38388424192E-01 -0.49034744930E-01  0.93647520160E-02  0.62976479924E-01  0.51100000000E-03 0.  1.
</event>
<event>
 8    1  0.1202249E+005  0.1043930E+01  0.7957747E-01            NaN
         13   -1    0    0    0    0  0.00000000000E+00  0.00000000000E+00  0.74505805969E-08  0.10566000000E+00  0.10566000000E+00 0. -1.
     999900   -1    0    0    0    0 -0.00000000000E+00 -0.00000000000E+00 -0.74505805969E-08  0.93827000000E+00  0.93827000000E+00 0.  1.
     999902    2    1    2    0    0 -0.90474294634E-02  0.60560891427E-02  0.20549826209E-01  0.10206743006E+01  0.10204093298E+01 0.  0.
     999903    2    3    3    0    0 -0.10063819204E+00 -0.52929476095E-02 -0.79760736239E-01  0.13018012471E+00  0.20713011212E-01 0.  0.
         14    1    1    2    0    0  0.90474294634E-02 -0.60560891427E-02 -0.20549826209E-01  0.23255699362E-01  0.00000000000E+00 0.  1.
     999901    1    3    3    0    0  0.91590762573E-01  0.11349036752E-01  0.10031056245E+00  0.89049417593E+00  0.88000000000E+00 0. -1.
        -11    1    4    4    0    0 -0.49874653882E-01  0.62945006731E-02 -0.45841127834E-01  0.68035078899E-01  0.51100000000E-03 0. -1.
         11    1    4    4    0    0 -0.50763538154E-01 -0.11587448283E-01 -0.33919608404E-01  0.62145045811E-01  0.51100000000E-03 0.  1.
</event>
<event>
 8    1  0.1202249E+005  0.1043930E+01  0.7957747E-01            NaN
         13   -1    0    0    0    0  0.00000000000E+00  0.00000000000E+00  0.74505805969E-08  0.10566000000E+00  0.10566000000E+00 0. -1.
     999900   -1    0    0    0    0 -0.00000000000E+00 -0.00000000000E+00 -0.74505805969E-08  0.93827000000E+00  0.93827000000E+00 0. -1.
     999902    2    1    2    0    0  0.13971156340E-01 -0.90395427235E-02  0.16521954614E-01  0.10204804472E+01  0.10202109888E+01 0.  0.
     999903    2    3    3    0    0  0.67846418762E-01 -0.75946252140E-01  0.84219665971E-01  0.13370988399E+00  0.20357091794E-01 0.  0.
         14    1    1    2    0    0 -0.13971156340E-01  0.90395427235E-02 -0.16521954614E-01  0.23449552797E-01  0.00000000000E+00 0.  1.
     999901    1    3    3    0    0 -0.53875262422E-01  0.66906709416E-01 -0.67697711357E-01  0.88677056322E+00  0.88000000000E+00 0. -1.
        -11    1    4    4    0    0  0.48425820719E-01 -0.47091448514E-01  0.44393756548E-01  0.80831499905E-01  0.51100000000E-03 0. -1.
         11    1    4    4    0    0  0.19420598043E-01 -0.28854803626E-01  0.39825909423E-01  0.52878384081E-01  0.51100000000E-03 0.  1.
</event>
<event>
 8    1  0.1202249E+005  0.1043930E+01  0.7957747E-01            NaN
         13   -1    0    0    0    0  0.00000000000E+00  0.00000000000E+00  0.74505805969E-08  0.10566000000E+00  0.10566000000E+00 0. -1.
     999900   -1    0    0    0    0 -0.00000000000E+00 -0.00000000000E+00 -0.74505805969E-08  0.93827000000E+00  0.93827000000E+00 0.  1.
     999902    2    1    2    0    0 -0.12318222382E-01 -0.65541870957E-03  0.19571957448E-01  0.10207949682E+01  0.10205327714E+01 0.  0.
     999903    2    3    3    0    0 -0.11407001680E+00  0.52817780915E-01  0.39517562405E-01  0.13309533553E+00  0.18736165273E-01 0.  0.
         14    1    1    2    0    0  0.12318222382E-01  0.65541870957E-03 -0.19571957448E-01  0.23135031763E-01  0.00000000000E+00 0.  1.
     999901    1    3    3    0    0  0.10175179442E+00 -0.53473199624E-01 -0.19945604956E-01  0.88769963270E+00  0.88000000000E+00 0.  1.
        -11    1    4    4    0    0 -0.42257829395E-01  0.17334046457E-01  0.52759256553E-02  0.45981407376E-01  0.51100000000E-03 0.  1.
         11    1    4    4    0    0 -0.71812187404E-01  0.35483734457E-01  0.34241636749E-01  0.87113928157E-01  0.51100000000E-03 0. -1.
</event>
<event>
 8    1  0.1202249E+005  0.1043930E+01  0.7957747E-01            NaN
         13   -1    0    0    0    0  0.00000000000E+00  0.00000000000E+00  0.74505805969E-08  0.10566000000E+00  0.10566000000E+00 0.  1.
     999900   -1    0    0    0    0 -0.00000000000E+00 -0.00000000000E+00 -0.74505805969E-08  0.93827000000E+00  0.93827000000E+00 0.  1.
     999902    2    1    2    0    0  0.22157221118E-01  0.38388227575E-02 -0.81442747029E-02  0.10200133067E+01  0.10197328756E+01 0.  0.
     999903    2    3    3    0    0  0.19560859904E-01  0.11165766442E+00  0.61649694441E-01  0.13068612178E+00  0.20690972399E-01 0.  0.
         14    1    1    2    0    0 -0.22157221118E-01 -0.38388227575E-02  0.81442747029E-02  0.23916693297E-01  0.00000000000E+00 0.  1.
     999901    1    3    3    0    0  0.25963612141E-02 -0.10781884166E+00 -0.69793969144E-01  0.88932718492E+00  0.88000000000E+00 0.  1.
        -11    1    4    4    0    0  0.10478522479E-01  0.30243633626E-01  0.88066374769E-02  0.33200825184E-01  0.51100000000E-03 0. -1.
         11    1    4    4    0    0  0.90823374247E-02  0.81414030792E-01  0.52843056964E-01  0.97485296600E-01  0.51100000000E-03 0.  1.
</event>
<event>
 8    1  0.1202249E+005  0.1043930E+01  0.7957747E-01            NaN
         13   -1    0    0    0    0  0.00000000000E+00  0.00000000000E+00  0.74505805969E-08  0.10566000000E+00  0.10566000000E+00 0. -1.
     999900   -1    0    0    0    0 -0.00000000000E+00 -0.00000000000E+00 -0.74505805969E-08  0.93827000000E+00  0.93827000000E+00 0. -1.
     999902    2    1    2    0    0 -0.80331736459E-02 -0.18834048645E-02 -0.22477819330E-01  0.10199856592E+01  0.10197045717E+01 0.  0.
     999903    2    3    3    0    0 -0.15831557339E-01  0.35540798396E-02 -0.13086350212E+00  0.13328512509E+00  0.19400997182E-01 0.  0.
         14    1    1    2    0    0  0.80331736459E-02  0.18834048645E-02  0.22477819330E-01  0.23944340763E-01  0.00000000000E+00 0. -1.
     999901    1    3    3    0    0  0.77983836936E-02 -0.54374847040E-02  0.10838568279E+00  0.88670053415E+00  0.88000000000E+00 0.  1.
        -11    1    4    4    0    0 -0.28157154771E-02  0.40133673900E-02 -0.94979310561E-01  0.95107128687E-01  0.51100000000E-03 0. -1.
         11    1    4    4    0    0 -0.13015841862E-01 -0.45928755044E-03 -0.35884191557E-01  0.38177996401E-01  0.51100000000E-03 0.  1.
</event>
<event>
 8    1  0.1202249E+005  0.1043930E+01  0.7957747E-01            NaN
         13   -1    0    0    0    0  0.00000000000E+00  0.00000000000E+00  0.74505805969E-08  0.10566000000E+00  0.10566000000E+00 0.  1.
     999900   -1    0    0    0    0 -0.00000000000E+00 -0.00000000000E+00 -0.74505805969E-08  0.93827000000E+00  0.93827000000E+00 0.  1.
     999902    2    1    2    0    0 -0.38654458787E-02  0.21786724248E-01  0.99552710832E-02  0.10196666439E+01  0.10193779252E+01 0.  0.
     999903    2    3    3    0    0  0.23974506369E-01 -0.11053216246E+00 -0.53326836930E-01  0.12709285095E+00  0.22731153338E-01 0.  0.
         14    1    1    2    0    0  0.38654458787E-02 -0.21786724248E-01 -0.99552710832E-02  0.24263356067E-01  0.00000000000E+00 0. -1.
     999901    1    3    3    0    0 -0.27839952248E-01  0.13231888671E+00  0.63282108014E-01  0.89257379298E+00  0.88000000000E+00 0.  1.
        -11    1    4    4    0    0  0.64629494189E-02 -0.54089668993E-01 -0.36748373323E-01  0.65712754240E-01  0.51100000000E-03 0. -1.
         11    1    4    4    0    0  0.17511556950E-01 -0.56442493469E-01 -0.16578463607E-01  0.61380096713E-01  0.51100000000E-03 0.  1.
</event>
<event>
 8    1  0.1202249E+005  0.1043930E+01  0.7957747E-01            NaN
         13   -1    0    0    0    0  0.00000000000E+00  0.00000000000E+00  0.74505805969E-08  0.10566000000E+00  0.10566000000E+00 0. -1.
     999900   -1    0    0    0    0 -0.00000000000E+00 -0.00000000000E+00 -0.74505805969E-08  0.93827000000E+00  0.93827000000E+00 0.  1.
     999902    2    1    2    0    0  0.22222624923E-01 -0.86441152251E-02 -0.32546844049E-02  0.10198642825E+01  0.10195803039E+01 0.  0.
     999903    2    3    3    0    0 -0.46822483518E-01  0.85966392668E-01 -0.81005121610E-01  0.12870576370E+00  0.20512880150E-01 0.  0.
         14    1    1    2    0    0 -0.22222624923E-01  0.86441152251E-02  0.32546844049E-02  0.24065717465E-01  0.00000000000E+00 0. -1.
     999901    1    3    3    0    0  0.69045108441E-01 -0.94610507893E-01  0.77750437205E-01  0.89115851883E+00  0.88000000000E+00 0.  1.
        -11    1    4    4    0    0 -0.14700049655E-01  0.33110625774E-01 -0.42496269762E-01  0.55844418375E-01  0.51100000000E-03 0. -1.
         11    1    4    4    0    0 -0.32122433863E-01  0.52855766893E-01 -0.38508851848E-01  0.72861345327E-01  0.51100000000E-03 0.  1.
</event>
<event>
 8    1  0.1202249E+005  0.1043930E+01  0.7957747E-01            NaN
         13   -1    0    0    0    0  0.00000000000E+00  0.00000000000E+00  0.74505805969E-08  0.10566000000E+00  0.10566000000E+00 0. -1.
     999900   -1    0    0    0    0 -0.00000000000E+00 -0.00000000000E+00 -0.74505805969E-08  0.93827000000E+00  0.93827000000E+00 0. -1.
     999902    2    1    2    0    0 -0.96116568225E-02 -0.65380124257E-02  0.19509619350E-01  0.10212197644E+01  0.10209672142E+01 0.  0.
     999903    2    3    3    0    0  0.32296179407E-01  0.10636800072E+00 -0.62730058338E-01  0.12921785907E+00  0.20124614352E-01 0.  0.
         14    1    1    2    0    0  0.96116568225E-02  0.65380124257E-02 -0.19509619350E-01  0.22710235589E-01  0.00000000000E+00 0.  1.
     999901    1    3    3    0    0 -0.41907836230E-01 -0.11290601314E+00  0.82239677688E-01  0.89200190534E+00  0.88000000000E+00 0.  1.
        -11    1    4    4    0    0  0.15274432842E-01  0.70187698691E-01 -0.48938355826E-01  0.86918612151E-01  0.51100000000E-03 0. -1.
         11    1    4    4    0    0  0.17021746565E-01  0.36180302027E-01 -0.13791702512E-01  0.42299246921E-01  0.51100000000E-03 0.  1.
</event>
<event>
 8    1  0.1202249E+005  0.1043930E+01  0.7957747E-01            NaN
         13   -1    0    0    0    0  0.00000000000E+00  0.00000000000E+00  0.74505805969E-08  0.10566000000E+00  0.10566000000E+00 0.  1.
     999900   -1    0    0    0    0 -0.00000000000E+00 -0.00000000000E+00 -0.74505805969E-08  0.93827000000E+00  0.93827000000E+00 0.  1.
     999902    2    1    2    0    0  0.56460901957E-02  0.19429879507E-02 -0.24282834428E-01  0.10189238091E+01  0.10186169148E+01 0.  0.
     999903    2    3    3    0    0 -0.14484481968E-01  0.57720000591E-03  0.12380221205E+00  0.12632295410E+00  0.20502869211E-01 0.  0.
         14    1    1    2    0    0 -0.56460901957E-02 -0.19429879507E-02  0.24282834428E-01  0.25006190925E-01  0.00000000000E+00 0.  1.
     999901    1    3    3    0    0  0.20130572164E-01  0.13657879448E-02 -0.14808504648E+00  0.89260085498E+00  0.88000000000E+00 0.  1.
        -11    1    4    4    0    0 -0.17807920539E-01  0.60290155552E-03  0.64279238930E-01  0.66705076288E-01  0.51100000000E-03 0. -1.
         11    1    4    4    0    0  0.33234385710E-02 -0.25701549614E-04  0.59522973122E-01  0.59617877812E-01  0.51100000000E-03 0.  1.
</event>
<event>
 8    1  0.1202249E+005  0.1043930E+01  0.7957747E-01            NaN
         13   -1    0    0    0    0  0.00000000000E+00  0.00000000000E+00  0.74505805969E-08  0.10566000000E+00  0.10566000000E+00 0.  1.
     999900   -1    0    0    0    0 -0.00000000000E+00 -0.00000000000E+00 -0.74505805969E-08  0.93827000000E+00  0.93827000000E+00 0.  1.
     999902    2    1    2    0    0 -0.19573330041E-01  0.11587168238E-01 -0.40911957403E-02  0.10208190589E+01  0.10205574141E+01 0.  0.
     999903    2    3    3    0    0  0.43047833209E-01 -0.10804811860E+00 -0.52583058780E-01  0.12919948041E+00  0.20000394729E-01 0.  0.
         14    1    1    2    0    0  0.19573330041E-01 -0.11587168238E-01  0.40911957403E-02  0.23110941116E-01  0.00000000000E+00 0. -1.
     999901    1    3    3    0    0 -0.62621163250E-01  0.11963528684E+00  0.48491863039E-01  0.89161957848E+00  0.88000000000E+00 0. -1.
        -11    1    4    4    0    0  0.18299544410E-01 -0.45425108347E-01 -0.11461522380E-01  0.50298522943E-01  0.51100000000E-03 0.  1.
         11    1    4    4    0    0  0.24748288799E-01 -0.62623010255E-01 -0.41121536399E-01  0.78900957464E-01  0.51100000000E-03 0. -1.
</event>
<event>
 8    1  0.1202249E+005  0.1043930E+01  0.7957747E-01            NaN
         13   -1    0    0    0    0  0.00000000000E+00  0.00000000000E+00  0.74505805969E-08  0.10566000000E+00  0.10566000000E+00 0. -1.
     999900   -1    0    0    0    0 -0.00000000000E+00 -0.00000000000E+00 -0.74505805969E-08  0.93827000000E+00  0.93827000000E+00 0.  1.
     999902    2    1    2    0    0  0.18604224584E-02 -0.99347512112E-02  0.21846241248E-01  0.10198588822E+01  0.10195747746E+01 0.  0.
     999903    2    3    3    0    0 -0.59263844906E-01  0.98641508613E-01 -0.50010481667E-01  0.12818160380E+00  0.26213064349E-01 0.  0.
         14    1    1    2    0    0 -0.18604224584E-02  0.99347512112E-02 -0.21846241248E-01  0.24071117756E-01  0.00000000000E+00 0.  1.
     999901    1    3    3    0    0  0.61124267365E-01 -0.10857625982E+00  0.71856722915E-01  0.89167727844E+00  0.88000000000E+00 0. -1.
        -11    1    4    4    0    0 -0.92663751295E-02  0.28996242993E-01 -0.23441931140E-01  0.38424381223E-01  0.51100000000E-03 0.  1.
         11    1    4    4    0    0 -0.49997469777E-01  0.69645265620E-01 -0.26568550527E-01  0.89757222581E-01  0.51100000000E-03 0. -1.
</event>
<event>
 8    1  0.1202249E+005  0.1043930E+01  0.7957747E-01            NaN
         13   -1    0    0    0    0  0.00000000000E+00  0.00000000000E+00  0.74505805969E-08  0.10566000000E+00  0.10566000000E+00 0.  1.
     999900   -1    0    0    0    0 -0.00000000000E+00 -0.00000000000E+00 -0.74505805969E-08  0.93827000000E+00  0.93827000000E+00 0. -1.
     999902    2    1    2    0    0 -0.17693840312E-02 -0.20854606034E-01 -0.98392015512E-02  0.10208030633E+01  0.10205410520E+01 0.  0.
     999903    2    3    3    0    0  0.54077115562E-01 -0.23537902284E-02 -0.11895784631E+00  0.13211414681E+00  0.19321072297E-01 0.  0.
         14    1    1    2    0    0  0.17693840312E-02  0.20854606034E-01  0.98392015512E-02  0.23126936673E-01  0.00000000000E+00 0.  1.
     999901    1    3    3    0    0 -0.55846499593E-01 -0.18500815806E-01  0.10911864475E+00  0.88868891651E+00  0.88000000000E+00 0.  1.
        -11    1    4    4    0    0  0.36892616216E-01  0.67227100563E-02 -0.86486401090E-01  0.94267802861E-01  0.51100000000E-03 0.  1.
         11    1    4    4    0    0  0.17184499346E-01 -0.90765002847E-02 -0.32471445215E-01  0.37846343952E-01  0.51100000000E-03 0. -1.
</event>
<event>
 8    1  0.1202249E+005  0.1043930E+01  0.7957747E-01            NaN
         13   -1    0    0    0    0  0.00000000000E+00  0.00000000000E+00  0.74505805969E-08  0.10566000000E+00  0.10566000000E+00 0.  1.
     999900   -1    0    0    0    0 -0.00000000000E+00 -0.00000000000E+00 -0.74505805969E-08  0.93827000000E+00  0.93827000000E+00 0. -1.
     999902    2    1    2    0    0 -0.17444255134E-01 -0.14572207182E-01 -0.64898553927E-02  0.10202916946E+01  0.10200178295E+01 0.  0.
     999903    2    3    3    0    0  0.12388010806E+00 -0.15904888335E-01 -0.24871832754E-01  0.12882534708E+00  0.19445188053E-01 0.  0.
         14    1    1    2    0    0  0.17444255134E-01  0.14572207182E-01  0.64898553927E-02  0.23638305403E-01  0.00000000000E+00 0.  1.
     999901    1    3    3    0    0 -0.14132436319E+00  0.13326811529E-02  0.18381977362E-01  0.89146634752E+00  0.88000000000E+00 0.  1.
        -11    1    4    4    0    0  0.99793343129E-01 -0.52938283427E-02 -0.22144226641E-01  0.10235899494E+00  0.51100000000E-03 0. -1.
         11    1    4    4    0    0  0.24086764932E-01 -0.10611059992E-01 -0.27276061137E-02  0.26466352131E-01  0.51100000000E-03 0.  1.
</event>
<event>
 8    1  0.1202249E+005  0.1043930E+01  0.7957747E-01            NaN
         13   -1    0    0    0    0  0.00000000000E+00  0.00000000000E+00  0.74505805969E-08  0.10566000000E+00  0.10566000000E+00 0. -1.
     999900   -1    0    0    0    0 -0.00000000000E+00 -0.00000000000E+00 -0.74505805969E-08  0.93827000000E+00  0.93827000000E+00 0. -1.
     999902    2    1    2    0    0 -0.15298692114E-01  0.14696944558E-01 -0.51995978928E-02  0.10220877021E+01  0.10218542875E+01 0.  0.
     999903    2    3    3    0    0  0.12348337350E+00  0.23491085593E-02  0.35765716893E-01  0.13018463123E+00  0.20376208274E-01 0.  0.
         14    1    1    2    0    0  0.15298692114E-01 -0.14696944558E-01  0.51995978928E-02  0.21842297910E-01  0.00000000000E+00 0. -1.
     999901    1    3    3    0    0 -0.13878206561E+00  0.12347835999E-01 -0.40965314785E-01  0.89190307086E+00  0.88000000000E+00 0.  1.
        -11    1    4    4    0    0  0.68111873078E-01 -0.26687271341E-02  0.29345850619E-01  0.74214482605E-01  0.51100000000E-03 0.  1.
         11    1    4    4    0    0  0.55371500418E-01  0.50178356935E-02  0.64198662734E-02  0.55970148629E-01  0.51100000000E-03 0. -1.
</event>
<event>
 8    1  0.1202249E+005  0.1043930E+01  0.7957747E-01            NaN
         13   -1    0    0    0    0  0.00000000000E+00  0.00000000000E+00  0.74505805969E-08  0.10566000000E+00  0.10566000000E+00 0.  1.
     999900   -1    0    0    0    0 -0.00000000000E+00 -0.00000000000E+00 -0.74505805969E-08  0.93827000000E+00  0.93827000000E+00 0.  1.
     999902    2    1    2    0    0 -0.46417402427E-02  0.20322841970E-01  0.10723028001E-01  0.10204875814E+01  0.10202182888E+01 0.  0.
     999903    2    3    3    0    0  0.12963854928E-01  0.30654720274E-01  0.12682161164E+00  0.13262746532E+00  0.19963716282E-01 0.  0.
         14    1    1    2    0    0  0.46417402427E-02 -0.20322841970E-01 -0.10723028001E-01  0.23442418556E-01  0.00000000000E+00 0.  1.
     999901    1    3    3    0    0 -0.17605595170E-01 -0.10331878303E-01 -0.11609858364E+00  0.88786011613E+00  0.88000000000E+00 0. -1.
        -11    1    4    4    0    0  0.73988349927E-02  0.10393784878E-02  0.40737868104E-01  0.41420503203E-01  0.51100000000E-03 0. -1.
         11    1    4    4    0    0  0.55650199349E-02  0.29615341786E-01  0.86083743534E-01  0.91206962113E-01  0.51100000000E-03 0.  1.
</event>
<event>
 8    1  0.1202249E+005  0.1043930E+01  0.7957747E-01            NaN
         13   -1    0    0    0    0  0.00000000000E+00  0.00000000000E+00  0.74505805969E-08  0.10566000000E+00  0.10566000000E+00 0. -1.
     999900   -1    0    0    0    0 -0.00000000000E+00 -0.00000000000E+00 -0.74505805969E-08  0.93827000000E+00  0.93827000000E+00 0. -1.
     999902    2    1    2    0    0  0.24272223816E-01  0.44590609016E-02  0.31745266773E-02  0.10190482458E+01  0.10187444358E+01 0.  0.
     999903    2    3    3    0    0 -0.50894248916E-01 -0.30652520926E-01  0.11218027353E+00  0.12845009025E+00  0.19626775169E-01 0.  0.
         14    1    1    2    0    0 -0.24272223816E-01 -0.44590609016E-02 -0.31745266773E-02  0.24881754214E-01  0.00000000000E+00 0.  1.
     999901    1    3    3    0    0  0.75166472733E-01  0.35111581827E-01 -0.10900574685E+00  0.89059815554E+00  0.88000000000E+00 0.  1.
        -11    1    4    4    0    0 -0.31794167773E-01 -0.22365516484E-01  0.89931432749E-01  0.97974533167E-01  0.51100000000E-03 0.  1.
         11    1    4    4    0    0 -0.19100081143E-01 -0.82870044418E-02  0.22248840781E-01  0.30475557081E-01  0.51100000000E-03 0. -1.
</event>
<event>
 8    1  0.1202249E+005  0.1043930E+01  0.7957747E-01            NaN
         13   -1    0    0    0    0  0.00000000000E+00  0.00000000000E+00  0.74505805969E-08  0.10566000000E+00  0.10566000000E+00 0.  1.
     999900   -1    0    0    0    0 -0.00000000000E+00 -0.00000000000E+00 -0.74505805969E-08  0.93827000000E+00  0.93827000000E+00 0. -1.
     999902    2    1    2    0    0  0.76062606293E-03  0.23550718814E-01 -0.83462199369E-02  0.10189325142E+01  0.10186258362E+01 0.  0.
     999903    2    3    3    0    0 -0.18607671855E-01 -0.12098614279E+00  0.24007328965E-01  0.12634482246E+00  0.20069133502E-01 0.  0.
         14    1    1    2    0    0 -0.76062606293E-03 -0.23550718814E-01  0.83462199369E-02  0.24997485791E-01  0.00000000000E+00 0.  1.
     999901    1    3    3    0    0  0.19368297918E-01  0.14453686161E+00 -0.32353548902E-01  0.89258769174E+00  0.88000000000E+00 0. -1.
        -11    1    4    4    0    0 -0.12365840789E-01 -0.30454489719E-01  0.11025637861E-01  0.34672983340E-01  0.51100000000E-03 0.  1.
         11    1    4    4    0    0 -0.62418310665E-02 -0.90531653075E-01  0.12981691104E-01  0.91671839124E-01  0.51100000000E-03 0. -1.
</event>
<event>
 8    1  0.1202249E+005  0.1043930E+01  0.7957747E-01            NaN
         13   -1    0    0    0    0  0.00000000000E+00  0.00000000000E+00  0.74505805969E-08  0.10566000000E+00  0.10566000000E+00 0.  1.
     999900   -1    0    0    0    0 -0.00000000000E+00 -0.00000000000E+00 -0.74505805969E-08  0.93827000000E+00  0.93827000000E+00 0.  1.
     999902    2    1    2    0    0  0.15122804379E-01  0.16950203820E-01 -0.10448410550E-01  0.10189264422E+01  0.10186196133E+01 0.  0.
     999903    2    3    3    0    0 -0.94220587024E-01 -0.10743846638E-01  0.81964716921E-01  0.12692693330E+00  0.19982049865E-01 0.  0.
         14    1    1    2    0    0 -0.15122804379E-01 -0.16950203820E-01  0.10448410550E-01  0.25003557844E-01  0.00000000000E+00 0. -1.
     999901    1    3    3    0    0  0.10934339140E+00  0.27694050458E-01 -0.92413127471E-01  0.89199950886E+00  0.88000000000E+00 0. -1.
        -11    1    4    4    0    0 -0.21982791107E-01 -0.10554948827E-01  0.16593618675E-01  0.29500158496E-01  0.51100000000E-03 0. -1.
         11    1    4    4    0    0 -0.72237795918E-01 -0.18889781110E-03  0.65371098246E-01  0.97426774802E-01  0.51100000000E-03 0.  1.
</event>
<event>
 7    1  0.1202249E+005  0.1043930E+01  0.7957747E-01            NaN
         13   -1    0    0    0    0  0.00000000000E+00  0.00000000000E+00  0.74505805969E-08  0.10566000000E+00  0.10566000000E+00 0.  1.
     999900   -1    0    0    0    0 -0.00000000000E+00 -0.00000000000E+00 -0.74505805969E-08  0.93827000000E+00  0.93827000000E+00 0.  1.
     999903    2    1    2    0    0 -0.85087671027E-01  0.60245506913E-02  0.67633120180E-01  0.10998476442E+00  0.15690840858E-01 0.  0.
         14    1    1    2    0    0  0.36801011458E-01 -0.29771184119E-01  0.11637889788E-01  0.48745033869E-01  0.00000000000E+00 0. -1.
     999901    1    1    2    0    0  0.48286659569E-01  0.23746633427E-01 -0.79271009969E-01  0.88520020171E+00  0.88000000000E+00 0.  1.
        -11    1    3    3    0    0 -0.60583860879E-01  0.75400672831E-03  0.39632844956E-01  0.72401631511E-01  0.51100000000E-03 0. -1.
         11    1    3    3    0    0 -0.24503810148E-01  0.52705439630E-02  0.28000275225E-01  0.37583132907E-01  0.51100000000E-03 0.  1.
</event>
<event>
 8    1  0.1202249E+005  0.1043930E+01  0.7957747E-01            NaN
         13   -1    0    0    0    0  0.00000000000E+00  0.00000000000E+00  0.74505805969E-08  0.10566000000E+00  0.10566000000E+00 0. -1.
     999900   -1    0    0    0    0 -0.00000000000E+00 -0.00000000000E+00 -0.74505805969E-08  0.93827000000E+00  0.93827000000E+00 0. -1.
     999902    2    1    2    0    0 -0.64796590225E-03  0.12733001042E-01  0.20390883863E-01  0.10198813551E+01  0.10195977840E+01 0.  0.
     999903    2    3    3    0    0 -0.81656438827E-01  0.39301205610E-01 -0.89454965050E-01  0.12896365259E+00  0.20422393403E-01 0.  0.
         14    1    1    2    0    0  0.64796590225E-03 -0.12733001042E-01 -0.20390883863E-01  0.24048644870E-01  0.00000000000E+00 0.  1.
     999901    1    3    3    0    0  0.81008472925E-01 -0.26568204567E-01  0.10984584891E+00  0.89091770254E+00  0.88000000000E+00 0.  1.
        -11    1    4    4    0    0 -0.53017153574E-01  0.35477491798E-01 -0.65435304605E-01  0.91386602996E-01  0.51100000000E-03 0.  1.
         11    1    4    4    0    0 -0.28639285254E-01  0.38237138121E-02 -0.24019660445E-01  0.37577049592E-01  0.51100000000E-03 0. -1.
</event>
<event>
 8    1  0.1202249E+005  0.1043930E+01  0.7957747E-01            NaN
         13   -1    0    0    0    0  0.00000000000E+00  0.00000000000E+00  0.74505805969E-08  0.10566000000E+00  0.10566000000E+00 0.  1.
     999900   -1    0    0    0    0 -0.00000000000E+00 -0.00000000000E+00 -0.74505805969E-08  0.93827000000E+00  0.93827000000E+00 0. -1.
     999902    2    1    2    0    0  0.15902808826E-01 -0.13274500001E-01  0.59631175533E-02  0.10223737840E+01  0.10221465079E+01 0.  0.
     999903    2    3    3    0    0  0.12998983571E+00 -0.22084249721E-01  0.19373683424E-01  0.13486417575E+00  0.20686585449E-01 0.  0.
         14    1    1    2    0    0 -0.15902808826E-01  0.13274500001E-01 -0.59631175533E-02  0.21556216036E-01  0.00000000000E+00 0. -1.
     999901    1    3    3    0    0 -0.11408702689E+00  0.88097497197E-02 -0.13410565871E-01  0.88750960821E+00  0.88000000000E+00 0. -1.
        -11    1    4    4    0    0  0.72140588425E-01 -0.11821417496E-01  0.34657732623E-03  0.73105346225E-01  0.51100000000E-03 0. -1.
         11    1    4    4    0    0  0.57849247287E-01 -0.10262832225E-01  0.19027106098E-01  0.61758829526E-01  0.51100000000E-03 0.  1.
</event>
<event>
 8    1  0.1202249E+005  0.1043930E+01  0.7957747E-01            NaN
         13   -1    0    0    0    0  0.00000000000E+00  0.00000000000E+00  0.74505805969E-08  0.10566000000E+00  0.10566000000E+00 0. -1.
     999900   -1    0    0    0    0 -0.00000000000E+00 -0.00000000000E+00 -0.74505805969E-08  0.93827000000E+00  0.93827000000E+00 0. -1.
     999902    2    1    2    0    0 -0.73497819340E-02  0.95143361001E-02 -0.20686883042E-01  0.10200032573E+01  0.10197225877E+01 0.  0.
     999903    2    3    3    0    0 -0.90366432729E-01  0.92739113436E-01  0.11668740652E-01  0.13159737357E+00  0.20373362442E-01 0.  0.
         14    1    1    2    0    0  0.73497819340E-02 -0.95143361001E-02  0.20686883042E-01  0.23926742693E-01  0.00000000000E+00 0. -1.
     999901    1    3    3    0    0  0.83016650795E-01 -0.83224777336E-01 -0.32355623695E-01  0.88840588374E+00  0.88000000000E+00 0.  1.
        -11    1    4    4    0    0 -0.25486767214E-01  0.18651913115E-01 -0.41343664392E-02  0.31856290944E-01  0.51100000000E-03 0.  1.
         11    1    4    4    0    0 -0.64879665516E-01  0.74087200321E-01  0.15803107092E-01  0.99741082627E-01  0.51100000000E-03 0. -1.
</event>
<event>
 8    1  0.1202249E+005  0.1043930E+01  0.7957747E-01            NaN
         13   -1    0    0    0    0  0.00000000000E+00  0.00000000000E+00  0.74505805969E-08  0.10566000000E+00  0.10566000000E+00 0.  1.
     999900   -1    0    0    0    0 -0.00000000000E+00 -0.00000000000E+00 -0.74505805969E-08  0.93827000000E+00  0.93827000000E+00 0. -1.
     999902    2    1    2    0    0  0.10001541186E-02  0.14920925084E-01  0.20533737088E-01  0.10185278609E+01  0.10182110462E+01 0.  0.
     999903    2    3    3    0    0 -0.12493529426E+00  0.25691381570E-02  0.26717540812E-01  0.12945500490E+00  0.20720595632E-01 0.  0.
         14    1    1    2    0    0 -0.10001541186E-02 -0.14920925084E-01 -0.20533737088E-01  0.25402139131E-01  0.00000000000E+00 0.  1.
     999901    1    3    3    0    0  0.12593544838E+00  0.12351786927E-01 -0.61838037243E-02  0.88907285597E+00  0.88000000000E+00 0.  1.
        -11    1    4    4    0    0 -0.61942425350E-01 -0.68636024786E-02  0.66807770396E-02  0.62680674853E-01  0.51100000000E-03 0. -1.
         11    1    4    4    0    0 -0.62992868909E-01  0.94327406356E-02  0.20036763773E-01  0.66774330044E-01  0.51100000000E-03 0.  1.
</event>
<event>
 8    1  0.1202249E+005  0.1043930E+01  0.7957747E-01            NaN
         13   -1    0    0    0    0  0.00000000000E+00  0.00000000000E+00  0.74505805969E-08  0.10566000000E+00  0.10566000000E+00 0.  1.
     999900   -1    0    0    0    0 -0.00000000000E+00 -0.00000000000E+00 -0.74505805969E-08  0.93827000000E+00  0.93827000000E+00 0. -1.
     999902    2    1    2    0    0  0.28273447086E-01  0.19737763154E-01 -0.18409695114E-02  0.10093994878E+01  0.10088086883E+01 0.  0.
     999903    2    3    3    0    0  0.10812742897E+00  0.15271716639E-01 -0.55523796407E-01  0.12414333848E+00  0.20097519675E-01 0.  0.
         14    1    1    2    0    0 -0.28273447086E-01 -0.19737763154E-01  0.18409695114E-02  0.34530512206E-01  0.00000000000E+00 0. -1.
     999901    1    3    3    0    0 -0.79853981883E-01  0.44660465155E-02  0.53682826896E-01  0.88525614931E+00  0.88000000000E+00 0.  1.
        -11    1    4    4    0    0  0.35094012145E-01  0.76834874460E-02 -0.84108002142E-02  0.36900248631E-01  0.51100000000E-03 0.  1.
         11    1    4    4    0    0  0.73033416824E-01  0.75882291930E-02 -0.47112996193E-01  0.87243089850E-01  0.51100000000E-03 0. -1.
</event>
<event>
 8    1  0.1202249E+005  0.1043930E+01  0.7957747E-01            NaN
         13   -1    0    0    0    0  0.00000000000E+00  0.00000000000E+00  0.74505805969E-08  0.10566000000E+00  0.10566000000E+00 0.  1.
     999900   -1    0    0    0    0 -0.00000000000E+00 -0.00000000000E+00 -0.74505805969E-08  0.93827000000E+00  0.93827000000E+00 0.  1.
     999902    2    1    2    0    0  0.12079711965E-01  0.12304069534E-01  0.20675393402E-01  0.10170082344E+01  0.10166518418E+01 0.  0.
     999903    2    3    3    0    0 -0.27827288875E-01  0.90127885447E-01  0.87172040126E-01  0.13017627795E+00  0.21201533421E-01 0.  0.
         14    1    1    2    0    0 -0.12079711965E-01 -0.12304069534E-01 -0.20675393402E-01  0.26921765555E-01  0.00000000000E+00 0. -1.
     999901    1    3    3    0    0  0.39907000840E-01 -0.77823815913E-01 -0.66496646723E-01  0.88683195650E+00  0.88000000000E+00 0.  1.
        -11    1    4    4    0    0 -0.75326315230E-02  0.26645726694E-01  0.13433870571E-01  0.30780924097E-01  0.51100000000E-03 0.  1.
         11    1    4    4    0    0 -0.20294657352E-01  0.63482158752E-01  0.73738169555E-01  0.99395353851E-01  0.51100000000E-03 0. -1.
</event>
<event>
 8    1  0.1202249E+005  0.1043930E+01  0.7957747E-01            NaN
         13   -1    0    0    0    0  0.00000000000E+00  0.00000000000E+00  0.74505805969E-08  0.10566000000E+00  0.10566000000E+00 0. -1.
     999900   -1    0    0    0    0 -0.00000000000E+00 -0.00000000000E+00 -0.74505805969E-08  0.93827000000E+00  0.93827000000E+00 0. -1.
     999902    2    1    2    0    0 -0.45057125202E-02  0.16144821803E-01  0.17196945497E-01  0.10199155949E+01  0.10196328404E+01 0.  0.
     999903    2    3    3    0    0  0.11108919837E+00 -0.50442705133E-01 -0.34483524124E-01  0.12836248204E+00  0.20063321337E-01 0.  0.
         14    1    1    2    0    0  0.45057125202E-02 -0.16144821803E-01 -0.17196945497E-01  0.24014405069E-01  0.00000000000E+00 0.  1.
     999901    1    3    3    0    0 -0.11559491089E+00  0.66587526936E-01  0.51680469621E-01  0.89155311289E+00  0.88000000000E+00 0.  1.
        -11    1    4    4    0    0  0.43682148409E-01 -0.93690804935E-02 -0.13791894392E-01  0.46758819819E-01  0.51100000000E-03 0. -1.
         11    1    4    4    0    0  0.67407049963E-01 -0.41073624640E-01 -0.20691629733E-01  0.81603662220E-01  0.51100000000E-03 0.  1.
</event>
<event>
 8    1  0.1202249E+005  0.1043930E+01  0.7957747E-01            NaN
         13   -1    0    0    0    0  0.00000000000E+00  0.00000000000E+00  0.74505805969E-08  0.10566000000E+00  0.10566000000E+00 0. -1.
     999900   -1    0    0    0    0 -0.00000000000E+00 -0.00000000000E+00 -0.74505805969E-08  0.93827000000E+00  0.93827000000E+00 0.  1.
     999902    2    1    2    0    0  0.15130912595E-01 -0.15382717550E-01  0.10926182501E-01  0.10197441781E+01  0.10194573237E+01 0.  0.
     999903    2    3    3    0    0  0.58751044482E-01 -0.11261659490E+00  0.34205496953E-01  0.13300911664E+00  0.19678069334E-01 0.  0.
         14    1    1    2    0    0 -0.15130912595E-01  0.15382717550E-01 -0.10926182501E-01  0.24185821864E-01  0.00000000000E+00 0.  1.
     999901    1    3    3    0    0 -0.43620131887E-01  0.97233877348E-01 -0.23279314452E-01  0.88673506150E+00  0.88000000000E+00 0.  1.
        -11    1    4    4    0    0  0.39739406918E-01 -0.80481655542E-01  0.14951381752E-01  0.90996276178E-01  0.51100000000E-03 0. -1.
         11    1    4    4    0    0  0.19011637564E-01 -0.32134939356E-01  0.19254115201E-01  0.42012840460E-01  0.51100000000E-03 0.  1.
</event>
<event>
 8    1  0.1202249E+005  0.1043930E+01  0.7957747E-01            NaN
         13   -1    0    0    0    0  0.00000000000E+00  0.00000000000E+00  0.74505805969E-08  0.10566000000E+00  0.10566000000E+00 0.  1.
     999900   -1    0    0    0    0 -0.00000000000E+00 -0.00000000000E+00 -0.74505805969E-08  0.93827000000E+00  0.93827000000E+00 0. -1.
     999902    2    1    2    0    0 -0.14990942258E-01  0.15374382674E-01  0.61086736689E-02  0.10216047702E+01  0.10213608033E+01 0.  0.
     999903    2    3    3    0    0 -0.10754502081E+00  0.74789214272E-01 -0.23035145905E-01  0.13427972157E+00  0.18468015790E-01 0.  0.
         14    1    1    2    0    0  0.14990942258E-01 -0.15374382674E-01 -0.61086736689E-02  0.22325229817E-01  0.00000000000E+00 0.  1.
     999901    1    3    3    0    0  0.92554078550E-01 -0.59414831598E-01  0.29143819574E-01  0.88732504861E+00  0.88000000000E+00 0.  1.
        -11    1    4    4    0    0 -0.37233202863E-01  0.16761896498E-01 -0.30500180587E-02  0.40949191699E-01  0.51100000000E-03 0.  1.
         11    1    4    4    0    0 -0.70311817944E-01  0.58027317774E-01 -0.19985127846E-01  0.93330529874E-01  0.51100000000E-03 0. -1.
</event>
<event>
 8    1  0.1202249E+005  0.1043930E+01  0.7957747E-01            NaN
         13   -1    0    0    0    0  0.00000000000E+00  0.00000000000E+00  0.74505805969E-08  0.10566000000E+00  0.10566000000E+00 0. -1.
     999900   -1    0    0    0    0 -0.00000000000E+00 -0.00000000000E+00 -0.74505805969E-08  0.93827000000E+00  0.93827000000E+00 0.  1.
     999902    2    1    2    0    0  0.18804431279E-04 -0.21484192561E-01  0.10749386933E-01  0.10199066738E+01  0.10196237066E+01 0.  0.
     999903    2    3    3    0    0 -0.22422242084E-01  0.45829725125E-01 -0.11580009257E+00  0.12802689777E+00  0.19444908505E-01 0.  0.
         14    1    1    2    0    0 -0.18804431279E-04  0.21484192561E-01 -0.10749386933E-01  0.24023326228E-01  0.00000000000E+00 0.  1.
     999901    1    3    3    0    0  0.22441046515E-01 -0.67313917686E-01  0.12654947951E+00  0.89187977600E+00  0.88000000000E+00 0. -1.
        -11    1    4    4    0    0 -0.18502961440E-01  0.27114213622E-01 -0.52683041316E-01  0.62074987924E-01  0.51100000000E-03 0. -1.
         11    1    4    4    0    0 -0.39192806437E-02  0.18715511502E-01 -0.63117051257E-01  0.65951909843E-01  0.51100000000E-03 0.  1.
</event>
<event>
 8    1  0.1202249E+005  0.1043930E+01  0.7957747E-01            NaN
         13   -1    0    0    0    0  0.00000000000E+00  0.00000000000E+00  0.74505805969E-08  0.10566000000E+00  0.10566000000E+00 0.  1.
     999900   -1    0    0    0    0 -0.00000000000E+00 -0.00000000000E+00 -0.74505805969E-08  0.93827000000E+00  0.93827000000E+00 0. -1.
     999902    2    1    2    0    0 -0.21785034545E-01 -0.94605287225E-02  0.22040277570E-03  0.10201784124E+01  0.10199018851E+01 0.  0.
     999903    2    3    3    0    0  0.17034369158E-01  0.12259596710E+00  0.29999877272E-01  0.12898108228E+00  0.20400638901E-01 0.  0.
         14    1    1    2    0    0  0.21785034545E-01  0.94605287225E-02 -0.22040277570E-03  0.23751587552E-01  0.00000000000E+00 0. -1.
     999901    1    3    3    0    0 -0.38819403703E-01 -0.13205649583E+00 -0.29779474496E-01  0.89119733017E+00  0.88000000000E+00 0.  1.
        -11    1    4    4    0    0  0.15752544248E-01  0.92243590896E-01  0.13936410197E-01  0.94612405962E-01  0.51100000000E-03 0.  1.
         11    1    4    4    0    0  0.12818249100E-02  0.30352376208E-01  0.16063467074E-01  0.34368676320E-01  0.51100000000E-03 0. -1.
</event>
<event>
 8    1  0.1202249E+005  0.1043930E+01  0.7957747E-01            NaN
         13   -1    0    0    0    0  0.00000000000E+00  0.00000000000E+00  0.74505805969E-08  0.10566000000E+00  0.10566000000E+00 0. -1.
     999900   -1    0    0    0    0 -0.00000000000E+00 -0.00000000000E+00 -0.74505805969E-08  0.93827000000E+00  0.93827000000E+00 0.  1.
     999902    2    1    2    0    0 -0.16662553747E-01  0.13186165872E-01  0.10254176056E-01  0.10203362764E+01  0.10200634554E+01 0.  0.
     999903    2    3    3    0    0  0.99274771100E-01 -0.18878662115E-01 -0.75693718370E-01  0.12800413135E+00  0.21062634755E-01 0.  0.
         14    1    1    2    0    0  0.16662553747E-01 -0.13186165872E-01 -0.10254176056E-01  0.23593723622E-01  0.00000000000E+00 0.  1.
     999901    1    3    3    0    0 -0.11593732485E+00  0.32064827987E-01  0.85947894426E-01  0.89233214502E+00  0.88000000000E+00 0. -1.
        -11    1    4    4    0    0  0.51957940670E-01 -0.36284040381E-02 -0.49288991992E-01  0.71710938964E-01  0.51100000000E-03 0.  1.
         11    1    4    4    0    0  0.47316830431E-01 -0.15250258077E-01 -0.26404726378E-01  0.56293192391E-01  0.51100000000E-03 0. -1.
</event>
<event>
 8    1  0.1244673E+005  0.1043930E+01  0.7957747E-01            NaN
         13   -1    0    0    0    0  0.00000000000E+00  0.00000000000E+00  0.74505805969E-08  0.10566000000E+00  0.10566000000E+00 0. -1.
     999900   -1    0    0    0    0 -0.00000000000E+00 -0.00000000000E+00 -0.74505805969E-08  0.93827000000E+00  0.93827000000E+00 0. -1.
     999902    2    1    2    0    0  0.10736785277E-01  0.44917235416E-02 -0.21060346625E-01  0.10198677404E+01  0.10195838443E+01 0.  0.
     999903    2    3    3    0    0  0.17181861752E-01  0.12811574206E+00 -0.95851576971E-02  0.13112924288E+00  0.19853043939E-01 0.  0.
         14    1    1    2    0    0 -0.10736785277E-01 -0.44917235416E-02  0.21060346625E-01  0.24062259628E-01  0.00000000000E+00 0. -1.
     999901    1    3    3    0    0 -0.64450764754E-02 -0.12362401852E+00 -0.11475188928E-01  0.88873849749E+00  0.88000000000E+00 0. -1.
        -11    1    4    4    0    0  0.36618680412E-02  0.56798222887E-01  0.48272651331E-02  0.57122771382E-01  0.51100000000E-03 0.  1.
         11    1    4    4    0    0  0.13519993711E-01  0.71317519171E-01 -0.14412422830E-01  0.74006471497E-01  0.51100000000E-03 0. -1.
</event>
<event>
 8    1  0.1202249E+005  0.1043930E+01  0.7957747E-01            NaN
         13   -1    0    0    0    0  0.00000000000E+00  0.00000000000E+00  0.74505805969E-08  0.10566000000E+00  0.10566000000E+00 0. -1.
     999900   -1    0    0    0    0 -0.00000000000E+00 -0.00000000000E+00 -0.74505805969E-08  0.93827000000E+00  0.93827000000E+00 0.  1.
     999902    2    1    2    0    0 -0.84464274452E-02  0.40941128270E-02 -0.20696774122E-01  0.10212042359E+01  0.10209513363E+01 0.  0.
     999903    2    3    3    0    0 -0.68968522940E-01  0.42123220877E-01 -0.10465278494E+00  0.13432332568E+00  0.23654334292E-01 0.  0.
         14    1    1    2    0    0  0.84464274452E-02 -0.40941128270E-02  0.20696774122E-01  0.22725764135E-01  0.00000000000E+00 0. -1.
     999901    1    3    3    0    0  0.60522095495E-01 -0.38029108050E-01  0.83956010822E-01  0.88688091019E+00  0.88000000000E+00 0. -1.
        -11    1    4    4    0    0 -0.22829610392E-01  0.10131324423E-01 -0.16957544488E-01  0.30193613253E-01  0.51100000000E-03 0. -1.
         11    1    4    4    0    0 -0.46138912548E-01  0.31991896454E-01 -0.87695240457E-01  0.10412971242E+00  0.51100000000E-03 0.  1.
</event>
<event>
 8    1  0.1202249E+005  0.1043930E+01  0.7957747E-01            NaN
         13   -1    0    0    0    0  0.00000000000E+00  0.00000000000E+00  0.74505805969E-08  0.10566000000E+00  0.10566000000E+00 0.  1.
     999900   -1    0    0    0    0 -0.00000000000E+00 -0.00000000000E+00 -0.74505805969E-08  0.93827000000E+00  0.93827000000E+00 0. -1.
     999902    2    1    2    0    0  0.10287188226E-02  0.21604132460E-01 -0.75379554492E-02  0.10210254683E+01  0.10207685287E+01 0.  0.
     999903    2    3    3    0    0 -0.47811966587E-01 -0.69680500978E-01  0.95199170019E-01  0.12902030359E+00  0.21023805570E-01 0.  0.
         14    1    1    2    0    0 -0.10287188226E-02 -0.21604132460E-01  0.75379554492E-02  0.22904531737E-01  0.00000000000E+00 0. -1.
     999901    1    3    3    0    0  0.48840685410E-01  0.91284633438E-01 -0.10273712547E+00  0.89200516467E+00  0.88000000000E+00 0. -1.
        -11    1    4    4    0    0 -0.26776976962E-01 -0.30331032769E-01  0.31655350330E-01  0.51374121594E-01  0.51100000000E-03 0.  1.
         11    1    4    4    0    0 -0.21034989625E-01 -0.39349468210E-01  0.63543819689E-01  0.77646181996E-01  0.51100000000E-03 0. -1.
</event>
<event>
 8    1  0.1202249E+005  0.1043930E+01  0.7957747E-01            NaN
         13   -1    0    0    0    0  0.00000000000E+00  0.00000000000E+00  0.74505805969E-08  0.10566000000E+00  0.10566000000E+00 0.  1.
     999900   -1    0    0    0    0 -0.00000000000E+00 -0.00000000000E+00 -0.74505805969E-08  0.93827000000E+00  0.93827000000E+00 0. -1.
     999902    2    1    2    0    0  0.15003159627E-01  0.34756453847E-02 -0.17811914061E-01  0.10203834675E+01  0.10201117496E+01 0.  0.
     999903    2    3    3    0    0  0.11767222260E+00  0.26649841136E-01 -0.53435466138E-01  0.13339585920E+00  0.19548406763E-01 0.  0.
         14    1    1    2    0    0 -0.15003159627E-01 -0.34756453847E-02  0.17811914061E-01  0.23546532487E-01  0.00000000000E+00 0.  1.
     999901    1    3    3    0    0 -0.10266906297E+00 -0.23174195751E-01  0.35623552077E-01  0.88698760831E+00  0.88000000000E+00 0. -1.
        -11    1    4    4    0    0  0.63165119595E-01  0.64784044591E-02 -0.34509148720E-01  0.72269942051E-01  0.51100000000E-03 0.  1.
         11    1    4    4    0    0  0.54507103001E-01  0.20171436677E-01 -0.18926317418E-01  0.61125917148E-01  0.51100000000E-03 0. -1.
</event>
<event>
 8    1  0.1202249E+005  0.1043930E+01  0.7957747E-01            NaN
         13   -1    0    0    0    0  0.00000000000E+00  0.00000000000E+00  0.74505805969E-08  0.10566000000E+00  0.10566000000E+00 0. -1.
     999900   -1    0    0    0    0 -0.00000000000E+00 -0.00000000000E+00 -0.74505805969E-08  0.93827000000E+00  0.93827000000E+00 0. -1.
     999902    2    1    2    0    0  0.27087267200E-02 -0.13934406326E-01  0.17464130147E-01  0.10214244291E+01  0.10211764606E+01 0.  0.
     999903    2    3    3    0    0 -0.95417411512E-01  0.11799945336E-01  0.89210423490E-01  0.13269582796E+00  0.20148497943E-01 0.  0.
         14    1    1    2    0    0 -0.27087267200E-02  0.13934406326E-01 -0.17464130147E-01  0.22505570908E-01  0.00000000000E+00 0.  1.
     999901    1    3    3    0    0  0.98126138232E-01 -0.25734351663E-01 -0.71746293342E-01  0.88872860113E+00  0.88000000000E+00 0. -1.
        -11    1    4    4    0    0 -0.51489141903E-01 -0.23663022183E-02  0.40179017766E-01  0.65355533123E-01  0.51100000000E-03 0. -1.
         11    1    4    4    0    0 -0.43928269608E-01  0.14166247555E-01  0.49031405724E-01  0.67340294838E-01  0.51100000000E-03 0.  1.
</event>
<event>
 8    1  0.1202249E+005  0.1043930E+01  0.7957747E-01            NaN
         13   -1    0    0    0    0  0.00000000000E+00  0.00000000000E+00  0.74505805969E-08  0.10566000000E+00  0.10566000000E+00 0. -1.
     999900   -1    0    0    0    0 -0.00000000000E+00 -0.00000000000E+00 -0.74505805969E-08  0.93827000000E+00  0.93827000000E+00 0.  1.
     999902    2    1    2    0    0 -0.10668988033E-01  0.47906365764E-03  0.21310717413E-01  0.10200929808E+01  0.10198144370E+01 0.  0.
     999903    2    3    3    0    0 -0.83069322175E-01 -0.67292534795E-02 -0.96820208273E-01  0.12922335856E+00  0.19460948837E-01 0.  0.
         14    1    1    2    0    0  0.10668988033E-01 -0.47906365764E-03 -0.21310717413E-01  0.23837019199E-01  0.00000000000E+00 0. -1.
     999901    1    3    3    0    0  0.72400334142E-01  0.72083171371E-02  0.11813092569E+00  0.89086962224E+00  0.88000000000E+00 0. -1.
        -11    1    4    4    0    0 -0.32009586969E-01 -0.11550988025E-01 -0.33748252065E-01  0.47929579810E-01  0.51100000000E-03 0.  1.
         11    1    4    4    0    0 -0.51059735206E-01  0.48217345457E-02 -0.63071956208E-01  0.81293778755E-01  0.51100000000E-03 0. -1.
</event>
<event>
 8    1  0.1202249E+005  0.1043930E+01  0.7957747E-01            NaN
         13   -1    0    0    0    0  0.00000000000E+00  0.00000000000E+00  0.74505805969E-08  0.10566000000E+00  0.10566000000E+00 0.  1.
     999900   -1    0    0    0    0 -0.00000000000E+00 -0.00000000000E+00 -0.74505805969E-08  0.93827000000E+00  0.93827000000E+00 0. -1.
     999902    2    1    2    0    0  0.71817080668E-02  0.16546449932E-01  0.18247884226E-01  0.10182717223E+01  0.10179484040E+01 0.  0.
     999903    2    3    3    0    0  0.90491659465E-01 -0.74937662502E-01 -0.45479122091E-01  0.12733344039E+00  0.18467831519E-01 0.  0.
         14    1    1    2    0    0 -0.71817080668E-02 -0.16546449932E-01 -0.18247884226E-01  0.25658277706E-01  0.00000000000E+00 0. -1.
     999901    1    3    3    0    0 -0.83309951399E-01  0.91484112434E-01  0.63727006317E-01  0.89093828191E+00  0.88000000000E+00 0. -1.
        -11    1    4    4    0    0  0.28003752526E-01 -0.34526557997E-01 -0.18939624755E-01  0.48324567971E-01  0.51100000000E-03 0.  1.
         11    1    4    4    0    0  0.62487906939E-01 -0.40411104505E-01 -0.26539497336E-01  0.79008872418E-01  0.51100000000E-03 0. -1.
</event>
<event>
 8    1  0.1202249E+005  0.1043930E+01  0.7957747E-01            NaN
         13   -1    0    0    0    0  0.00000000000E+00  0.00000000000E+00  0.74505805969E-08  0.10566000000E+00  0.10566000000E+00 0. -1.
     999900   -1    0    0    0    0 -0.00000000000E+00 -0.00000000000E+00 -0.74505805969E-08  0.93827000000E+00  0.93827000000E+00 0. -1.
     999902    2    1    2    0    0  0.19943373799E-01 -0.93788330913E-02  0.98712677089E-02  0.10197816544E+01  0.10194956989E+01 0.  0.
     999903    2    3    3    0    0  0.11507555428E+00  0.53335712250E-01  0.32571795134E-01  0.13214515228E+00  0.17729580910E-01 0.  0.
         14    1    1    2    0    0 -0.19943373799E-01  0.93788330913E-02 -0.98712677089E-02  0.24148345592E-01  0.00000000000E+00 0.  1.
     999901    1    3    3    0    0 -0.95132180482E-01 -0.62714545341E-01 -0.22700527425E-01  0.88763650213E+00  0.88000000000E+00 0.  1.
        -11    1    4    4    0    0  0.49088265966E-01  0.16067955573E-01  0.68103744968E-02  0.52100665770E-01  0.51100000000E-03 0. -1.
         11    1    4    4    0    0  0.65987288315E-01  0.37267756677E-01  0.25761420637E-01  0.80044486513E-01  0.51100000000E-03 0.  1.
</event>
<event>
 8    1  0.1202249E+005  0.1043930E+01  0.7957747E-01            NaN
         13   -1    0    0    0    0  0.00000000000E+00  0.00000000000E+00  0.74505805969E-08  0.10566000000E+00  0.10566000000E+00 0. -1.
     999900   -1    0    0    0    0 -0.00000000000E+00 -0.00000000000E+00 -0.74505805969E-08  0.93827000000E+00  0.93827000000E+00 0. -1.
     999902    2    1    2    0    0 -0.93598311840E-02  0.87455404028E-02 -0.19279762426E-01  0.10207826426E+01  0.10205201631E+01 0.  0.
     999903    2    3    3    0    0 -0.12683746565E+00 -0.27776136614E-02  0.28796219013E-01  0.13160039035E+00  0.19848996941E-01 0.  0.
         14    1    1    2    0    0  0.93598311840E-02 -0.87455404028E-02  0.19279762426E-01  0.23147357429E-01  0.00000000000E+00 0. -1.
     999901    1    3    3    0    0  0.11747763447E+00  0.11523154064E-01 -0.48075981439E-01  0.88918225222E+00  0.88000000000E+00 0. -1.
        -11    1    4    4    0    0 -0.60767511188E-01  0.36679170901E-02  0.50254728057E-02  0.61087318895E-01  0.51100000000E-03 0.  1.
         11    1    4    4    0    0 -0.66069954462E-01 -0.64455307516E-02  0.23770746207E-01  0.70513071452E-01  0.51100000000E-03 0. -1.
</event>
<event>
 8    1  0.1202249E+005  0.1043930E+01  0.7957747E-01            NaN
         13   -1    0    0    0    0  0.00000000000E+00  0.00000000000E+00  0.74505805969E-08  0.10566000000E+00  0.10566000000E+00 0.  1.
     999900   -1    0    0    0    0 -0.00000000000E+00 -0.00000000000E+00 -0.74505805969E-08  0.93827000000E+00  0.93827000000E+00 0. -1.
     999902    2    1    2    0    0 -0.55619057377E-02  0.97645352305E-02 -0.19857821424E-01  0.10211130323E+01  0.10208580757E+01 0.  0.
     999903    2    3    3    0    0 -0.12119183139E+00  0.44597562557E-01 -0.23650609185E-01  0.13285743578E+00  0.20379998666E-01 0.  0.
         14    1    1    2    0    0  0.55619057377E-02 -0.97645352305E-02  0.19857821424E-01  0.22816967709E-01  0.00000000000E+00 0.  1.
     999901    1    3    3    0    0  0.11562992565E+00 -0.34833027326E-01  0.37927877610E-02  0.88825559651E+00  0.88000000000E+00 0. -1.
        -11    1    4    4    0    0 -0.10924227411E+00  0.35439531312E-01 -0.25603356021E-01  0.11766744576E+00  0.51100000000E-03 0.  1.
         11    1    4    4    0    0 -0.11949557281E-01  0.91580312448E-02  0.19527468354E-02  0.15189990016E-01  0.51100000000E-03 0. -1.
</event>
<event>
 8    1  0.1202249E+005  0.1043930E+01  0.7957747E-01            NaN
         13   -1    0    0    0    0  0.00000000000E+00  0.00000000000E+00  0.74505805969E-08  0.10566000000E+00  0.10566000000E+00 0.  1.
     999900   -1    0    0    0    0 -0.00000000000E+00 -0.00000000000E+00 -0.74505805969E-08  0.93827000000E+00  0.93827000000E+00 0.  1.
     999902    2    1    2    0    0 -0.66303827860E-02  0.13560414463E-01 -0.18239443329E-01  0.10202546096E+01  0.10199798745E+01 0.  0.
     999903    2    3    3    0    0 -0.37511213433E-01  0.11151433230E+00  0.54695709179E-01  0.13128434455E+00  0.20035495493E-01 0.  0.
         14    1    1    2    0    0  0.66303827860E-02 -0.13560414463E-01  0.18239443329E-01  0.23675390372E-01  0.00000000000E+00 0.  1.
     999901    1    3    3    0    0  0.30880830647E-01 -0.97953917838E-01 -0.72935152508E-01  0.88897026508E+00  0.88000000000E+00 0.  1.
        -11    1    4    4    0    0 -0.80128988975E-02  0.31674942050E-01  0.24976773019E-01  0.41129172300E-01  0.51100000000E-03 0.  1.
         11    1    4    4    0    0 -0.29498314536E-01  0.79839390250E-01  0.29718936161E-01  0.90155172251E-01  0.51100000000E-03 0. -1.
</event>
<event>
 8    1  0.1202249E+005  0.1043930E+01  0.7957747E-01            NaN
         13   -1    0    0    0    0  0.00000000000E+00  0.00000000000E+00  0.74505805969E-08  0.10566000000E+00  0.10566000000E+00 0. -1.
     999900   -1    0    0    0    0 -0.00000000000E+00 -0.00000000000E+00 -0.74505805969E-08  0.93827000000E+00  0.93827000000E+00 0. -1.
     999902    2    1    2    0    0 -0.16661924586E-01  0.60707140107E-02  0.16729181565E-01  0.10195509349E+01  0.10192594223E+01 0.  0.
     999903    2    3    3    0    0  0.97372753236E-01  0.81753017385E-01  0.42485845281E-02  0.12888405885E+00  0.20689157298E-01 0.  0.
         14    1    1    2    0    0  0.16661924586E-01 -0.60707140107E-02 -0.16729181565E-01  0.24379065104E-01  0.00000000000E+00 0.  1.
     999901    1    3    3    0    0 -0.11403467782E+00 -0.75682303374E-01  0.12480597037E-01  0.89066687605E+00  0.88000000000E+00 0. -1.
        -11    1    4    4    0    0  0.50736640824E-01  0.51607217814E-01 -0.51731022863E-02  0.72557106894E-01  0.51100000000E-03 0.  1.
         11    1    4    4    0    0  0.46636112412E-01  0.30145799571E-01  0.94216868144E-02  0.56326951951E-01  0.51100000000E-03 0. -1.
</event>
<event>
 8    1  0.1202249E+005  0.1043930E+01  0.7957747E-01            NaN
         13   -1    0    0    0    0  0.00000000000E+00  0.00000000000E+00  0.74505805969E-08  0.10566000000E+00  0.10566000000E+00 0.  1.
     999900   -1    0    0    0    0 -0.00000000000E+00 -0.00000000000E+00 -0.74505805969E-08  0.93827000000E+00  0.93827000000E+00 0.  1.
     999902    2    1    2    0    0  0.34239370178E-02 -0.55986566072E-02  0.21997931991E-01  0.10209740136E+01  0.10207159052E+01 0.  0.
     999903    2    3    3    0    0  0.10426558929E+00 -0.34766768337E-01  0.72819340389E-01  0.13327888961E+00  0.19508069896E-01 0.  0.
         14    1    1    2    0    0 -0.34239370178E-02  0.55986566072E-02 -0.21997931991E-01  0.22955986417E-01  0.00000000000E+00 0. -1.
     999901    1    3    3    0    0 -0.10084165227E+00  0.29168111730E-01 -0.50821408397E-01  0.88769512397E+00  0.88000000000E+00 0.  1.
        -11    1    4    4    0    0  0.53733481620E-01 -0.15628103835E-01  0.48363908870E-01  0.73965218033E-01  0.51100000000E-03 0. -1.
         11    1    4    4    0    0  0.50532107666E-01 -0.19138664502E-01  0.24455431519E-01  0.59313671577E-01  0.51100000000E-03 0.  1.
</event>
<event>
 8    1  0.1202249E+005  0.1043930E+01  0.7957747E-01            NaN
         13   -1    0    0    0    0  0.00000000000E+00  0.00000000000E+00  0.74505805969E-08  0.10566000000E+00  0.10566000000E+00 0. -1.
     999900   -1    0    0    0    0 -0.00000000000E+00 -0.00000000000E+00 -0.74505805969E-08  0.93827000000E+00  0.93827000000E+00 0. -1.
     999902    2    1    2    0    0  0.12797759988E-01 -0.45572427613E-02 -0.19583501373E-01  0.10200958932E+01  0.10198174183E+01 0.  0.
     999903    2    3    3    0    0 -0.82729137835E-01 -0.80467997589E-01 -0.58434361434E-01  0.13082809311E+00  0.19550101449E-01 0.  0.
         14    1    1    2    0    0 -0.12797759988E-01  0.45572427613E-02  0.19583501373E-01  0.23834106829E-01  0.00000000000E+00 0. -1.
     999901    1    3    3    0    0  0.95526897823E-01  0.75910754828E-01  0.38850860060E-01  0.88926780007E+00  0.88000000000E+00 0. -1.
        -11    1    4    4    0    0 -0.27758402416E-01 -0.20798738591E-01 -0.90616744322E-02  0.35853751494E-01  0.51100000000E-03 0.  1.
         11    1    4    4    0    0 -0.54970735419E-01 -0.59669258998E-01 -0.49372687001E-01  0.94974341612E-01  0.51100000000E-03 0. -1.
</event>
<event>
 8    1  0.1202249E+005  0.1043930E+01  0.7957747E-01            NaN
         13   -1    0    0    0    0  0.00000000000E+00  0.00000000000E+00  0.74505805969E-08  0.10566000000E+00  0.10566000000E+00 0.  1.
     999900   -1    0    0    0    0 -0.00000000000E+00 -0.00000000000E+00 -0.74505805969E-08  0.93827000000E+00  0.93827000000E+00 0. -1.
     999902    2    1    2    0    0  0.14720240646E-02 -0.21543550264E-01  0.95580097779E-02  0.10203154502E+01  0.10200421417E+01 0.  0.
     999903    2    3    3    0    0 -0.38596340591E-01  0.90682199250E-01 -0.79050343679E-01  0.12787411708E+00  0.19745739175E-01 0.  0.
         14    1    1    2    0    0 -0.14720240646E-02  0.21543550264E-01 -0.95580097779E-02  0.23614549832E-01  0.00000000000E+00 0. -1.
     999901    1    3    3    0    0  0.40068364656E-01 -0.11222574951E+00  0.88608353457E-01  0.89244133309E+00  0.88000000000E+00 0.  1.
        -11    1    4    4    0    0 -0.22956962256E-01  0.61793487337E-01 -0.63478373803E-01  0.91516240390E-01  0.51100000000E-03 0. -1.
         11    1    4    4    0    0 -0.15639378335E-01  0.28888711913E-01 -0.15571969876E-01  0.36357876691E-01  0.51100000000E-03 0.  1.
</event>
<event>
 8    1  0.1202249E+005  0.1043930E+01  0.7957747E-01            NaN
         13   -1    0    0    0    0  0.00000000000E+00  0.00000000000E+00  0.74505805969E-08  0.10566000000E+00  0.10566000000E+00 0.  1.
     999900   -1    0    0    0    0 -0.00000000000E+00 -0.00000000000E+00 -0.74505805969E-08  0.93827000000E+00  0.93827000000E+00 0.  1.
     999902    2    1    2    0    0  0.22328190796E-01 -0.44615960966E-02 -0.22427873417E-02  0.10210502264E+01  0.10207938484E+01 0.  0.
     999903    2    3    3    0    0  0.55129793373E-01 -0.18257249742E-01 -0.11768323033E+00  0.13279758158E+00  0.20328150094E-01 0.  0.
         14    1    1    2    0    0 -0.22328190796E-01  0.44615960966E-02  0.22427873417E-02  0.22879773579E-01  0.00000000000E+00 0.  1.
     999901    1    3    3    0    0 -0.32801602577E-01  0.13795653646E-01  0.11544044299E+00  0.88825264484E+00  0.88000000000E+00 0. -1.
        -11    1    4    4    0    0  0.10047710936E-01 -0.67855319633E-02 -0.44120315031E-01  0.45758750623E-01  0.51100000000E-03 0.  1.
         11    1    4    4    0    0  0.45082082437E-01 -0.11471717779E-01 -0.73562915301E-01  0.87038830957E-01  0.51100000000E-03 0. -1.
</event>
<event>
 8    1  0.1202249E+005  0.1043930E+01  0.7957747E-01            NaN
         13   -1    0    0    0    0  0.00000000000E+00  0.00000000000E+00  0.74505805969E-08  0.10566000000E+00  0.10566000000E+00 0. -1.
     999900   -1    0    0    0    0 -0.00000000000E+00 -0.00000000000E+00 -0.74505805969E-08  0.93827000000E+00  0.93827000000E+00 0. -1.
     999902    2    1    2    0    0 -0.17738451874E-01  0.11149913529E-01 -0.11407684771E-01  0.10200740046E+01  0.10197950119E+01 0.  0.
     999903    2    3    3    0    0 -0.53413151592E-01 -0.76182290244E-01  0.87790393831E-01  0.12949000694E+00  0.20094838614E-01 0.  0.
         14    1    1    2    0    0  0.17738451874E-01 -0.11149913529E-01  0.11407684771E-01  0.23855995440E-01  0.00000000000E+00 0. -1.
     999901    1    3    3    0    0  0.35674699717E-01  0.87332203773E-01 -0.99198078602E-01  0.89058399762E+00  0.88000000000E+00 0. -1.
        -11    1    4    4    0    0 -0.14031205490E-01 -0.34750684073E-01  0.41621535534E-01  0.56009803716E-01  0.51100000000E-03 0. -1.
         11    1    4    4    0    0 -0.39381946102E-01 -0.41431606171E-01  0.46168858296E-01  0.73480203225E-01  0.51100000000E-03 0.  1.
</event>
<event>
 8    1  0.1202249E+005  0.1043930E+01  0.7957747E-01            NaN
         13   -1    0    0    0    0  0.00000000000E+00  0.00000000000E+00  0.74505805969E-08  0.10566000000E+00  0.10566000000E+00 0. -1.
     999900   -1    0    0    0    0 -0.00000000000E+00 -0.00000000000E+00 -0.74505805969E-08  0.93827000000E+00  0.93827000000E+00 0. -1.
     999902    2    1    2    0    0  0.18285118832E-01  0.14013277451E-01 -0.80955129410E-02  0.10195116699E+01  0.10192192062E+01 0.  0.
     999903    2    3    3    0    0 -0.16488556924E-01 -0.76758925387E-01 -0.10082054960E+00  0.12931689696E+00  0.19856270589E-01 0.  0.
         14    1    1    2    0    0 -0.18285118832E-01 -0.14013277451E-01  0.80955129410E-02  0.24418330110E-01  0.00000000000E+00 0. -1.
     999901    1    3    3    0    0  0.34773675756E-01  0.90772202838E-01  0.92725036655E-01  0.89019477293E+00  0.88000000000E+00 0.  1.
        -11    1    4    4    0    0  0.88380471443E-03 -0.31152189990E-01 -0.29647137423E-01  0.43016902844E-01  0.51100000000E-03 0.  1.
         11    1    4    4    0    0 -0.17372361638E-01 -0.45606735397E-01 -0.71173412174E-01  0.86299994113E-01  0.51100000000E-03 0. -1.
</event>
<event>
 8    1  0.1202249E+005  0.1043930E+01  0.7957747E-01            NaN
         13   -1    0    0    0    0  0.00000000000E+00  0.00000000000E+00  0.74505805969E-08  0.10566000000E+00  0.10566000000E+00 0.  1.
     999900   -1    0    0    0    0 -0.00000000000E+00 -0.00000000000E+00 -0.74505805969E-08  0.93827000000E+00  0.93827000000E+00 0.  1.
     999902    2    1    2    0    0 -0.75503229935E-02 -0.14379531906E-01  0.18120495783E-01  0.10195962645E+01  0.10193058481E+01 0.  0.
     999903    2    3    3    0    0  0.12501990582E+00  0.12607945915E-01  0.19865400320E-01  0.12925574864E+00  0.22879625763E-01 0.  0.
         14    1    1    2    0    0  0.75503229935E-02  0.14379531906E-01 -0.18120495783E-01  0.24333735483E-01  0.00000000000E+00 0. -1.
     999901    1    3    3    0    0 -0.13257022881E+00 -0.26987477821E-01 -0.17449045369E-02  0.89034051588E+00  0.88000000000E+00 0. -1.
        -11    1    4    4    0    0  0.55179097213E-01 -0.26273196959E-02  0.16649575500E-01  0.57698397408E-01  0.51100000000E-03 0. -1.
         11    1    4    4    0    0  0.69840808604E-01  0.15235265611E-01  0.32158248192E-02  0.71557351229E-01  0.51100000000E-03 0.  1.
</event>
<event>
 8    1  0.1202249E+005  0.1043930E+01  0.7957747E-01            NaN
         13   -1    0    0    0    0  0.00000000000E+00  0.00000000000E+00  0.74505805969E-08  0.10566000000E+00  0.10566000000E+00 0. -1.
     999900   -1    0    0    0    0 -0.00000000000E+00 -0.00000000000E+00 -0.74505805969E-08  0.93827000000E+00  0.93827000000E+00 0.  1.
     999902    2    1    2    0    0 -0.21114992084E-01 -0.76112905179E-02  0.34748733755E-02  0.10212176822E+01  0.10209650851E+01 0.  0.
     999903    2    3    3    0    0 -0.48773630407E-01 -0.85603156466E-01  0.87679931412E-01  0.13333355508E+00  0.19578026388E-01 0.  0.
         14    1    1    2    0    0  0.21114992084E-01  0.76112905179E-02 -0.34748733755E-02  0.22712317782E-01  0.00000000000E+00 0.  1.
     999901    1    3    3    0    0  0.27658638322E-01  0.77991865948E-01 -0.84205058037E-01  0.88788412714E+00  0.88000000000E+00 0. -1.
        -11    1    4    4    0    0 -0.36204718767E-01 -0.58223401872E-01  0.48859633972E-01  0.84191870982E-01  0.51100000000E-03 0. -1.
         11    1    4    4    0    0 -0.12568911640E-01 -0.27379754594E-01  0.38820297440E-01  0.49141684096E-01  0.51100000000E-03 0.  1.
</event>
<event>
 8    1  0.1202249E+005  0.1043930E+01  0.7957747E-01            NaN
         13   -1    0    0    0    0  0.00000000000E+00  0.00000000000E+00  0.74505805969E-08  0.10566000000E+00  0.10566000000E+00 0. -1.
     999900   -1    0    0    0    0 -0.00000000000E+00 -0.00000000000E+00 -0.74505805969E-08  0.93827000000E+00  0.93827000000E+00 0. -1.
     999902    2    1    2    0    0 -0.22146118940E-01 -0.41141495847E-03 -0.70498799754E-02  0.10206852016E+01  0.10204204820E+01 0.  0.
     999903    2    3    3    0    0  0.10461289800E+00 -0.10199184244E-01  0.68615162844E-01  0.12833501946E+00  0.26719933793E-01 0.  0.
         14    1    1    2    0    0  0.22146118940E-01  0.41141495847E-03  0.70498799754E-02  0.23244798429E-01  0.00000000000E+00 0. -1.
     999901    1    3    3    0    0 -0.12675901694E+00  0.97877692853E-02 -0.75665042819E-01  0.89235018211E+00  0.88000000000E+00 0. -1.
        -11    1    4    4    0    0  0.68333111278E-01 -0.31116416376E-02  0.58495108489E-01  0.90005751198E-01  0.51100000000E-03 0.  1.
         11    1    4    4    0    0  0.36279786719E-01 -0.70875426061E-02  0.10120054355E-01  0.38329268265E-01  0.51100000000E-03 0. -1.
</event>
<event>
 8    1  0.1202249E+005  0.1043930E+01  0.7957747E-01            NaN
         13   -1    0    0    0    0  0.00000000000E+00  0.00000000000E+00  0.74505805969E-08  0.10566000000E+00  0.10566000000E+00 0.  1.
     999900   -1    0    0    0    0 -0.00000000000E+00 -0.00000000000E+00 -0.74505805969E-08  0.93827000000E+00  0.93827000000E+00 0. -1.
     999902    2    1    2    0    0 -0.21907716933E-01 -0.29968896974E-02  0.70832536607E-02  0.10207114322E+01  0.10204473166E+01 0.  0.
     999903    2    3    3    0    0 -0.10849262671E+00  0.27821750994E-01  0.70168170169E-01  0.13367905289E+00  0.20045378493E-01 0.  0.
         14    1    1    2    0    0  0.21907716933E-01  0.29968896974E-02 -0.70832536607E-02  0.23218567818E-01  0.00000000000E+00 0. -1.
     999901    1    3    3    0    0  0.86584909777E-01 -0.30818640691E-01 -0.63084916508E-01  0.88703237929E+00  0.88000000000E+00 0. -1.
        -11    1    4    4    0    0 -0.56075836476E-01  0.15748075958E-01  0.24789579255E-01  0.63303125464E-01  0.51100000000E-03 0.  1.
         11    1    4    4    0    0 -0.52416790235E-01  0.12073675036E-01  0.45378590913E-01  0.70375927430E-01  0.51100000000E-03 0. -1.
</event>
<event>
 8    1  0.1202249E+005  0.1043930E+01  0.7957747E-01            NaN
         13   -1    0    0    0    0  0.00000000000E+00  0.00000000000E+00  0.74505805969E-08  0.10566000000E+00  0.10566000000E+00 0. -1.
     999900   -1    0    0    0    0 -0.00000000000E+00 -0.00000000000E+00 -0.74505805969E-08  0.93827000000E+00  0.93827000000E+00 0. -1.
     999902    2    1    2    0    0 -0.22943987402E-01  0.67260981372E-02  0.53746122169E-02  0.10194238087E+01  0.10191292108E+01 0.  0.
     999903    2    3    3    0    0 -0.58980543384E-01  0.10374148088E+00 -0.51787593135E-01  0.13151720577E+00  0.19334457779E-01 0.  0.
         14    1    1    2    0    0  0.22943987402E-01 -0.67260981372E-02 -0.53746122169E-02  0.24506191270E-01  0.00000000000E+00 0.  1.
     999901    1    3    3    0    0  0.36036555982E-01 -0.97015382746E-01  0.57162205352E-01  0.88790660296E+00  0.88000000000E+00 0.  1.
        -11    1    4    4    0    0 -0.33799054239E-01  0.75904436106E-01 -0.39625848625E-01  0.92056115975E-01  0.51100000000E-03 0.  1.
         11    1    4    4    0    0 -0.25181489145E-01  0.27837044777E-01 -0.12161744510E-01  0.39461089797E-01  0.51100000000E-03 0. -1.
</event>
<event>
 8    1  0.1202249E+005  0.1043930E+01  0.7957747E-01            NaN
         13   -1    0    0    0    0  0.00000000000E+00  0.00000000000E+00  0.74505805969E-08  0.10566000000E+00  0.10566000000E+00 0. -1.
     999900   -1    0    0    0    0 -0.00000000000E+00 -0.00000000000E+00 -0.74505805969E-08  0.93827000000E+00  0.93827000000E+00 0.  1.
     999902    2    1    2    0    0  0.20790438571E-01 -0.20361878413E-02  0.12061238651E-01  0.10198081867E+01  0.10195228668E+01 0.  0.
     999903    2    3    3    0    0  0.20912783520E-01  0.65691797956E-01 -0.10737086557E+00  0.12916172347E+00  0.20037245361E-01 0.  0.
         14    1    1    2    0    0 -0.20790438571E-01  0.20361878413E-02 -0.12061238651E-01  0.24121813254E-01  0.00000000000E+00 0.  1.
     999901    1    3    3    0    0 -0.12234494961E-03 -0.67727985798E-01  0.11943210423E+00  0.89064646328E+00  0.88000000000E+00 0. -1.
        -11    1    4    4    0    0  0.16795581557E-01  0.22193061196E-01 -0.36511413428E-01  0.45912612173E-01  0.51100000000E-03 0.  1.
         11    1    4    4    0    0  0.41172019630E-02  0.43498736760E-01 -0.70859452147E-01  0.83249111295E-01  0.51100000000E-03 0. -1.
</event>
<event>
 8    1  0.1202249E+005  0.1043930E+01  0.7957747E-01            NaN
         13   -1    0    0    0    0  0.00000000000E+00  0.00000000000E+00  0.74505805969E-08  0.10566000000E+00  0.10566000000E+00 0.  1.
     999900   -1    0    0    0    0 -0.00000000000E+00 -0.00000000000E+00 -0.74505805969E-08  0.93827000000E+00  0.93827000000E+00 0. -1.
     999902    2    1    2    0    0  0.19051091302E-02 -0.18400764205E-01 -0.13983941989E-01  0.10207401704E+01  0.10204767157E+01 0.  0.
     999903    2    3    3    0    0  0.84240747495E-01 -0.72105672578E-01 -0.71315550797E-01  0.13341256014E+00  0.20427233329E-01 0.  0.
         14    1    1    2    0    0 -0.19051091302E-02  0.18400764205E-01  0.13983941989E-01  0.23189829617E-01  0.00000000000E+00 0.  1.
     999901    1    3    3    0    0 -0.82335638365E-01  0.53704908373E-01  0.57331608807E-01  0.88732761024E+00  0.88000000000E+00 0.  1.
        -11    1    4    4    0    0  0.18927835372E-01 -0.28465004169E-01 -0.20745151533E-01  0.39989271653E-01  0.51100000000E-03 0. -1.
         11    1    4    4    0    0  0.65312912124E-01 -0.43640668409E-01 -0.50570399264E-01  0.93423288488E-01  0.51100000000E-03 0.  1.
</event>
<event>
 8    1  0.1202249E+005  0.1043930E+01  0.7957747E-01            NaN
         13   -1    0    0    0    0  0.00000000000E+00  0.00000000000E+00  0.74505805969E-08  0.10566000000E+00  0.10566000000E+00 0. -1.
     999900   -1    0    0    0    0 -0.00000000000E+00 -0.00000000000E+00 -0.74505805969E-08  0.93827000000E+00  0.93827000000E+00 0. -1.
     999902    2    1    2    0    0  0.62164122464E-02  0.14199689564E-01 -0.18984752736E-01  0.10194209037E+01  0.10191262351E+01 0.  0.
     999903    2    3    3    0    0 -0.39871925134E-01  0.89656821010E-01 -0.86424135528E-01  0.13242260388E+00  0.20940364134E-01 0.  0.
         14    1    1    2    0    0 -0.62164122464E-02 -0.14199689564E-01  0.18984752736E-01  0.24509096298E-01  0.00000000000E+00 0. -1.
     999901    1    3    3    0    0  0.46088337380E-01 -0.75457131446E-01  0.67439382792E-01  0.88699829982E+00  0.88000000000E+00 0. -1.
        -11    1    4    4    0    0 -0.21672706521E-02  0.55710244466E-02 -0.13946217871E-01  0.15181946165E-01  0.51100000000E-03 0. -1.
         11    1    4    4    0    0 -0.37704654482E-01  0.84085796563E-01 -0.72477917657E-01  0.11724065772E+00  0.51100000000E-03 0.  1.
</event>
<event>
 8    1  0.1202249E+005  0.1043930E+01  0.7957747E-01            NaN
         13   -1    0    0    0    0  0.00000000000E+00  0.00000000000E+00  0.74505805969E-08  0.10566000000E+00  0.10566000000E+00 0.  1.
     999900   -1    0    0    0    0 -0.00000000000E+00 -0.00000000000E+00 -0.74505805969E-08  0.93827000000E+00  0.93827000000E+00 0. -1.
     999902    2    1    2    0    0  0.18744511893E-02  0.21351697565E-01  0.10317363016E-01  0.10201422608E+01  0.10198648811E+01 0.  0.
     999903    2    3    3    0    0 -0.43486986676E-01  0.10946822955E+00  0.58409375837E-01  0.13327416185E+00  0.21815951529E-01 0.  0.
         14    1    1    2    0    0 -0.18744511893E-02 -0.21351697565E-01 -0.10317363016E-01  0.23787739190E-01  0.00000000000E+00 0. -1.
     999901    1    3    3    0    0  0.45361437865E-01 -0.88116531983E-01 -0.48092012820E-01  0.88686809896E+00  0.88000000000E+00 0. -1.
        -11    1    4    4    0    0 -0.30875778530E-01  0.97628241296E-01  0.48098832148E-01  0.11312977492E+00  0.51100000000E-03 0.  1.
         11    1    4    4    0    0 -0.12611208145E-01  0.11839988251E-01  0.10310543689E-01  0.20144386931E-01  0.51100000000E-03 0. -1.
</event>
<event>
 8    1  0.1202249E+005  0.1043930E+01  0.7957747E-01            NaN
         13   -1    0    0    0    0  0.00000000000E+00  0.00000000000E+00  0.74505805969E-08  0.10566000000E+00  0.10566000000E+00 0.  1.
     999900   -1    0    0    0    0 -0.00000000000E+00 -0.00000000000E+00 -0.74505805969E-08  0.93827000000E+00  0.93827000000E+00 0. -1.
     999902    2    1    2    0    0  0.59641504778E-02  0.22701347175E-01 -0.10085280624E-02  0.10204366098E+01  0.10201661312E+01 0.  0.
     999903    2    3    3    0    0  0.89627982542E-01 -0.26804196156E-01  0.88834599169E-01  0.13053649005E+00  0.19913539067E-01 0.  0.
         14    1    1    2    0    0 -0.59641504778E-02 -0.22701347175E-01  0.10085280624E-02  0.23493390206E-01  0.00000000000E+00 0. -1.
     999901    1    3    3    0    0 -0.83663832064E-01  0.49505543332E-01 -0.89843127231E-01  0.88990011975E+00  0.88000000000E+00 0. -1.
        -11    1    4    4    0    0  0.27283613634E-01 -0.54950095333E-02  0.15156115769E-01  0.31694789302E-01  0.51100000000E-03 0. -1.
         11    1    4    4    0    0  0.62344368908E-01 -0.21309186623E-01  0.73678483400E-01  0.98841700745E-01  0.51100000000E-03 0.  1.
</event>
<event>
 8    1  0.1202249E+005  0.1043930E+01  0.7957747E-01            NaN
         13   -1    0    0    0    0  0.00000000000E+00  0.00000000000E+00  0.74505805969E-08  0.10566000000E+00  0.10566000000E+00 0.  1.
     999900   -1    0    0    0    0 -0.00000000000E+00 -0.00000000000E+00 -0.74505805969E-08  0.93827000000E+00  0.93827000000E+00 0.  1.
     999902    2    1    2    0    0  0.73076970318E-02 -0.22275749550E-01  0.42996578871E-02  0.10200951828E+01  0.10198166911E+01 0.  0.
     999903    2    3    3    0    0 -0.53954836024E-01  0.75816901531E-01 -0.85598917436E-01  0.12798699428E+00  0.19853693598E-01 0.  0.
         14    1    1    2    0    0 -0.73076970318E-02  0.22275749550E-01 -0.42996578871E-02  0.23834817219E-01  0.00000000000E+00 0. -1.
     999901    1    3    3    0    0  0.61262533055E-01 -0.98092651081E-01  0.89898575323E-01  0.89210818850E+00  0.88000000000E+00 0. -1.
        -11    1    4    4    0    0 -0.44320254705E-01  0.53790750467E-01 -0.53421853580E-01  0.87817340963E-01  0.51100000000E-03 0. -1.
         11    1    4    4    0    0 -0.96345813190E-02  0.22026151064E-01 -0.32177063856E-01  0.40169653313E-01  0.51100000000E-03 0.  1.
</event>
<event>
 8    1  0.1202249E+005  0.1043930E+01  0.7957747E-01            NaN
         13   -1    0    0    0    0  0.00000000000E+00  0.00000000000E+00  0.74505805969E-08  0.10566000000E+00  0.10566000000E+00 0. -1.
     999900   -1    0    0    0    0 -0.00000000000E+00 -0.00000000000E+00 -0.74505805969E-08  0.93827000000E+00  0.93827000000E+00 0.  1.
     999902    2    1    2    0    0 -0.66113747710E-02 -0.34291549331E-02  0.22459647499E-01  0.10202676851E+01  0.10199932569E+01 0.  0.
     999903    2    3    3    0    0  0.17757081627E-01 -0.58312618060E-01  0.11659267649E+00  0.13321242002E+00  0.20881122192E-01 0.  0.
         14    1    1    2    0    0  0.66113747710E-02  0.34291549331E-02 -0.22459647499E-01  0.23662314884E-01  0.00000000000E+00 0.  1.
     999901    1    3    3    0    0 -0.24368456398E-01  0.54883463127E-01 -0.94133028987E-01  0.88705526510E+00  0.88000000000E+00 0.  1.
        -11    1    4    4    0    0  0.10505982913E-01 -0.23368189838E-01  0.69836808007E-01  0.74390112561E-01  0.51100000000E-03 0. -1.
         11    1    4    4    0    0  0.72510987138E-02 -0.34944428222E-01  0.46755868479E-01  0.58822307457E-01  0.51100000000E-03 0.  1.
</event>
<event>
 8    1  0.1202249E+005  0.1043930E+01  0.7957747E-01            NaN
         13   -1    0    0    0    0  0.00000000000E+00  0.00000000000E+00  0.74505805969E-08  0.10566000000E+00  0.10566000000E+00 0. -1.
     999900   -1    0    0    0    0 -0.00000000000E+00 -0.00000000000E+00 -0.74505805969E-08  0.93827000000E+00  0.93827000000E+00 0.  1.
     999902    2    1    2    0    0  0.89345613773E-02  0.19572516626E-01 -0.61708194285E-02  0.10215472208E+01  0.10213019805E+01 0.  0.
     999903    2    3    3    0    0  0.51110800948E-01 -0.30450691582E-01  0.11470301422E+00  0.13087801157E+00  0.20801775137E-01 0.  0.
         14    1    1    2    0    0 -0.89345613773E-02 -0.19572516626E-01  0.61708194285E-02  0.22382779240E-01  0.00000000000E+00 0. -1.
     999901    1    3    3    0    0 -0.42176239571E-01  0.50023208208E-01 -0.12087383365E+00  0.89066920919E+00  0.88000000000E+00 0.  1.
        -11    1    4    4    0    0  0.12318372435E-01 -0.98192155232E-02  0.51820155642E-01  0.54164092762E-01  0.51100000000E-03 0. -1.
         11    1    4    4    0    0  0.38792428513E-01 -0.20631476059E-01  0.62882858579E-01  0.76713918805E-01  0.51100000000E-03 0.  1.
</event>
<event>
 8    1  0.1202249E+005  0.1043930E+01  0.7957747E-01            NaN
         13   -1    0    0    0    0  0.00000000000E+00  0.00000000000E+00  0.74505805969E-08  0.10566000000E+00  0.10566000000E+00 0. -1.
     999900   -1    0    0    0    0 -0.00000000000E+00 -0.00000000000E+00 -0.74505805969E-08  0.93827000000E+00  0.93827000000E+00 0. -1.
     999902    2    1    2    0    0 -0.18366621116E-02 -0.45730055058E-02  0.22281190136E-01  0.10211103343E+01  0.10208553168E+01 0.  0.
     999903    2    3    3    0    0 -0.40044861114E-01  0.10695307315E+00 -0.57937391706E-01  0.12963237411E+00  0.20131078017E-01 0.  0.
         14    1    1    2    0    0  0.18366621116E-02  0.45730055058E-02 -0.22281190136E-01  0.22819665663E-01  0.00000000000E+00 0.  1.
     999901    1    3    3    0    0  0.38208199002E-01 -0.11152607866E+00  0.80218581842E-01  0.89147796022E+00  0.88000000000E+00 0.  1.
        -11    1    4    4    0    0 -0.91899230126E-02  0.77697937825E-02 -0.71595632296E-02  0.14012310553E-01  0.51100000000E-03 0. -1.
         11    1    4    4    0    0 -0.30854938101E-01  0.99183279371E-01 -0.50777828476E-01  0.11562006356E+00  0.51100000000E-03 0.  1.
</event>
<event>
 8    1  0.1202249E+005  0.1043930E+01  0.7957747E-01            NaN
         13   -1    0    0    0    0  0.00000000000E+00  0.00000000000E+00  0.74505805969E-08  0.10566000000E+00  0.10566000000E+00 0. -1.
     999900   -1    0    0    0    0 -0.00000000000E+00 -0.00000000000E+00 -0.74505805969E-08  0.93827000000E+00  0.93827000000E+00 0.  1.
     999902    2    1    2    0    0  0.11359656799E-01 -0.21157489443E-01 -0.40820989864E-03  0.10199123440E+01  0.10196295120E+01 0.  0.
     999903    2    3    3    0    0 -0.43245017384E-01  0.81904612401E-01  0.85975508138E-01  0.12802355388E+00  0.20487686263E-01 0.  0.
         14    1    1    2    0    0 -0.11359656799E-01  0.21157489443E-01  0.40820989864E-03  0.24017655952E-01  0.00000000000E+00 0.  1.
     999901    1    3    3    0    0  0.54604674183E-01 -0.10306210184E+00 -0.86383718037E-01  0.89188879016E+00  0.88000000000E+00 0.  1.
        -11    1    4    4    0    0  0.47345981831E-03  0.14459889890E-01  0.12605164539E-01  0.19195412834E-01  0.51100000000E-03 0. -1.
         11    1    4    4    0    0 -0.43718477202E-01  0.67444722511E-01  0.73370343599E-01  0.10882814105E+00  0.51100000000E-03 0.  1.
</event>
<event>
 8    1  0.1202249E+005  0.1043930E+01  0.7957747E-01            NaN
         13   -1    0    0    0    0  0.00000000000E+00  0.00000000000E+00  0.74505805969E-08  0.10566000000E+00  0.10566000000E+00 0. -1.
     999900   -1    0    0    0    0 -0.00000000000E+00 -0.00000000000E+00 -0.74505805969E-08  0.93827000000E+00  0.93827000000E+00 0. -1.
     999902    2    1    2    0    0 -0.29951898816E-02  0.13406725280E-01  0.16155108473E-01  0.10227238930E+01  0.10225040158E+01 0.  0.
     999903    2    3    3    0    0 -0.86352772553E-01  0.88066571132E-01 -0.46734159166E-01  0.13341087770E+00  0.20046405562E-01 0.  0.
         14    1    1    2    0    0  0.29951898816E-02 -0.13406725280E-01 -0.16155108473E-01  0.21206107020E-01  0.00000000000E+00 0. -1.
     999901    1    3    3    0    0  0.83357582671E-01 -0.74659845852E-01  0.62889267640E-01  0.88931301529E+00  0.88000000000E+00 0.  1.
        -11    1    4    4    0    0 -0.59797882127E-01  0.48309902238E-01 -0.33047847644E-01  0.83678281029E-01  0.51100000000E-03 0.  1.
         11    1    4    4    0    0 -0.26554890426E-01  0.39756668894E-01 -0.13686311523E-01  0.49732596666E-01  0.51100000000E-03 0. -1.
</event>
<event>
 8    1  0.1202249E+005  0.1043930E+01  0.7957747E-01            NaN
         13   -1    0    0    0    0  0.00000000000E+00  0.00000000000E+00  0.74505805969E-08  0.10566000000E+00  0.10566000000E+00 0. -1.
     999900   -1    0    0    0    0 -0.00000000000E+00 -0.00000000000E+00 -0.74505805969E-08  0.93827000000E+00  0.93827000000E+00 0. -1.
     999902    2    1    2    0    0 -0.63626888971E-02 -0.22486434399E-01  0.67135768123E-02  0.10196154847E+01  0.10193255324E+01 0.  0.
     999903    2    3    3    0    0  0.54678271039E-01 -0.10523060539E+00  0.55186393481E-01  0.13230369585E+00  0.19888093811E-01 0.  0.
         14    1    1    2    0    0  0.63626888971E-02  0.22486434399E-01 -0.67135768123E-02  0.24314515328E-01  0.00000000000E+00 0. -1.
     999901    1    3    3    0    0 -0.61040959937E-01  0.82744170994E-01 -0.48472816669E-01  0.88731178882E+00  0.88000000000E+00 0. -1.
        -11    1    4    4    0    0  0.21790953389E-01 -0.51537856732E-01  0.35763033669E-01  0.66409728386E-01  0.51100000000E-03 0.  1.
         11    1    4    4    0    0  0.32887317650E-01 -0.53692748662E-01  0.19423359812E-01  0.65893967466E-01  0.51100000000E-03 0. -1.
</event>
<event>
 8    1  0.1202249E+005  0.1043930E+01  0.7957747E-01            NaN
         13   -1    0    0    0    0  0.00000000000E+00  0.00000000000E+00  0.74505805969E-08  0.10566000000E+00  0.10566000000E+00 0.  1.
     999900   -1    0    0    0    0 -0.00000000000E+00 -0.00000000000E+00 -0.74505805969E-08  0.93827000000E+00  0.93827000000E+00 0.  1.
     999902    2    1    2    0    0  0.18609786857E-01  0.23482491146E-02 -0.14145316741E-01  0.10204368430E+01  0.10201663698E+01 0.  0.
     999903    2    3    3    0    0  0.10127629199E+00 -0.30349179321E-01  0.75438118112E-01  0.13143286960E+00  0.20142729292E-01 0.  0.
         14    1    1    2    0    0 -0.18609786857E-01 -0.23482491146E-02  0.14145316741E-01  0.23493157014E-01  0.00000000000E+00 0.  1.
     999901    1    3    3    0    0 -0.82666505128E-01  0.32697428436E-01 -0.89583434853E-01  0.88900397339E+00  0.88000000000E+00 0. -1.
        -11    1    4    4    0    0  0.77637926608E-01 -0.19621781782E-01  0.66113255135E-01  0.10384548904E+00  0.51100000000E-03 0. -1.
         11    1    4    4    0    0  0.23638365377E-01 -0.10727397539E-01  0.93248629771E-02  0.27587380561E-01  0.51100000000E-03 0.  1.
</event>
<event>
 8    1  0.1202249E+005  0.1043930E+01  0.7957747E-01            NaN
         13   -1    0    0    0    0  0.00000000000E+00  0.00000000000E+00  0.74505805969E-08  0.10566000000E+00  0.10566000000E+00 0. -1.
     999900   -1    0    0    0    0 -0.00000000000E+00 -0.00000000000E+00 -0.74505805969E-08  0.93827000000E+00  0.93827000000E+00 0.  1.
     999902    2    1    2    0    0  0.22079018282E-01  0.97746883332E-02 -0.29217637075E-02  0.10196079054E+01  0.10193177702E+01 0.  0.
     999903    2    3    3    0    0  0.70741377557E-01 -0.35402597613E-01 -0.10296234861E+00  0.13145412878E+00  0.20524529864E-01 0.  0.
         14    1    1    2    0    0 -0.22079018282E-01 -0.97746883332E-02  0.29217637075E-02  0.24322094553E-01  0.00000000000E+00 0. -1.
     999901    1    3    3    0    0 -0.48662359276E-01  0.45177285947E-01  0.10004058490E+00  0.88815377666E+00  0.88000000000E+00 0. -1.
        -11    1    4    4    0    0  0.17821201746E-01 -0.13849138937E-01 -0.17125628306E-01  0.28336233815E-01  0.51100000000E-03 0.  1.
         11    1    4    4    0    0  0.52920175811E-01 -0.21553458676E-01 -0.85836720304E-01  0.10311789497E+00  0.51100000000E-03 0. -1.
</event>
<event>
 8    1  0.1202249E+005  0.1043930E+01  0.7957747E-01            NaN
         13   -1    0    0    0    0  0.00000000000E+00  0.00000000000E+00  0.74505805969E-08  0.10566000000E+00  0.10566000000E+00 0. -1.
     999900   -1    0    0    0    0 -0.00000000000E+00 -0.00000000000E+00 -0.74505805969E-08  0.93827000000E+00  0.93827000000E+00 0. -1.
     999902    2    1    2    0    0 -0.21591434236E-01 -0.14675179896E-02 -0.68997183105E-02  0.10212154726E+01  0.10209628258E+01 0.  0.
     999903    2    3    3    0    0 -0.15174757351E-02  0.12845600946E+00 -0.18806625348E-01  0.13137005839E+00  0.20028828840E-01 0.  0.
         14    1    1    2    0    0  0.21591434236E-01  0.14675179896E-02  0.68997183105E-02  0.22714527381E-01  0.00000000000E+00 0. -1.
     999901    1    3    3    0    0 -0.20073958500E-01 -0.12992352745E+00  0.11906907038E-01  0.88984541423E+00  0.88000000000E+00 0. -1.
        -11    1    4    4    0    0  0.55810326311E-02  0.63988663945E-01 -0.15400601031E-02  0.64252081249E-01  0.51100000000E-03 0. -1.
         11    1    4    4    0    0 -0.70985083662E-02  0.64467345514E-01 -0.17266565245E-01  0.67117977138E-01  0.51100000000E-03 0.  1.
</event>
<event>
 8    1  0.1202249E+005  0.1043930E+01  0.7957747E-01            NaN
         13   -1    0    0    0    0  0.00000000000E+00  0.00000000000E+00  0.74505805969E-08  0.10566000000E+00  0.10566000000E+00 0. -1.
     999900   -1    0    0    0    0 -0.00000000000E+00 -0.00000000000E+00 -0.74505805969E-08  0.93827000000E+00  0.93827000000E+00 0. -1.
     999902    2    1    2    0    0 -0.13729098622E-01 -0.17239324522E-01 -0.84627510513E-02  0.10203227847E+01  0.10200496480E+01 0.  0.
     999903    2    3    3    0    0 -0.52206079145E-01  0.10847180406E+00  0.42341295829E-01  0.12910742517E+00  0.19604461888E-01 0.  0.
         14    1    1    2    0    0  0.13729098622E-01  0.17239324522E-01  0.84627510513E-02  0.23607215302E-01  0.00000000000E+00 0. -1.
     999901    1    3    3    0    0  0.38476980523E-01 -0.12571112858E+00 -0.50804046880E-01  0.89121535953E+00  0.88000000000E+00 0. -1.
        -11    1    4    4    0    0 -0.87648239901E-02  0.26284838782E-01  0.17880993674E-01  0.32980387280E-01  0.51100000000E-03 0.  1.
         11    1    4    4    0    0 -0.43441255155E-01  0.82186965277E-01  0.24460302155E-01  0.96127037890E-01  0.51100000000E-03 0. -1.
</event>
<event>
 8    1  0.1202249E+005  0.1043930E+01  0.7957747E-01            NaN
         13   -1    0    0    0    0  0.00000000000E+00  0.00000000000E+00  0.74505805969E-08  0.10566000000E+00  0.10566000000E+00 0.  1.
     999900   -1    0    0    0    0 -0.00000000000E+00 -0.00000000000E+00 -0.74505805969E-08  0.93827000000E+00  0.93827000000E+00 0.  1.
     999902    2    1    2    0    0  0.72336233278E-02  0.19070227918E-03 -0.22649069122E-01  0.10201530783E+01  0.10198759538E+01 0.  0.
     999903    2    3    3    0    0 -0.54234530486E-01 -0.77818299589E-01 -0.89794666058E-01  0.13202455747E+00  0.19243951654E-01 0.  0.
         14    1    1    2    0    0 -0.72336233278E-02 -0.19070227918E-03  0.22649069122E-01  0.23776921708E-01  0.00000000000E+00 0.  1.
     999901    1    3    3    0    0  0.61468153814E-01  0.78009001868E-01  0.67145596935E-01  0.88812852082E+00  0.88000000000E+00 0. -1.
        -11    1    4    4    0    0 -0.36379320221E-01 -0.38451078848E-01 -0.41952444781E-01  0.67544127416E-01  0.51100000000E-03 0. -1.
         11    1    4    4    0    0 -0.17855210265E-01 -0.39367220741E-01 -0.47842221276E-01  0.64480430056E-01  0.51100000000E-03 0.  1.
</event>
<event>
 8    1  0.1202249E+005  0.1043930E+01  0.7957747E-01            NaN
         13   -1    0    0    0    0  0.00000000000E+00  0.00000000000E+00  0.74505805969E-08  0.10566000000E+00  0.10566000000E+00 0.  1.
     999900   -1    0    0    0    0 -0.00000000000E+00 -0.00000000000E+00 -0.74505805969E-08  0.93827000000E+00  0.93827000000E+00 0. -1.
     999902    2    1    2    0    0  0.18251060739E-01 -0.14067676050E-01  0.82712821949E-02  0.10194470501E+01  0.10191530175E+01 0.  0.
     999903    2    3    3    0    0 -0.49070276432E-01 -0.94434773149E-01  0.73365514443E-01  0.13083673515E+00  0.20246830517E-01 0.  0.
         14    1    1    2    0    0 -0.18251060739E-01  0.14067676050E-01 -0.82712821949E-02  0.24482949918E-01  0.00000000000E+00 0. -1.
     999901    1    3    3    0    0  0.67321337171E-01  0.80367097099E-01 -0.65094232248E-01  0.88861031493E+00  0.88000000000E+00 0. -1.
        -11    1    4    4    0    0 -0.38487251706E-01 -0.87404425109E-01  0.66603588224E-01  0.11643496536E+00  0.51100000000E-03 0. -1.
         11    1    4    4    0    0 -0.10583024726E-01 -0.70303480405E-02  0.67619262186E-02  0.14401769791E-01  0.51100000000E-03 0.  1.
</event>
<event>
 8    1  0.1202249E+005  0.1043930E+01  0.7957747E-01            NaN
         13   -1    0    0    0    0  0.00000000000E+00  0.00000000000E+00  0.74505805969E-08  0.10566000000E+00  0.10566000000E+00 0. -1.
     999900   -1    0    0    0    0 -0.00000000000E+00 -0.00000000000E+00 -0.74505805969E-08  0.93827000000E+00  0.93827000000E+00 0.  1.
     999902    2    1    2    0    0 -0.31778049340E-03 -0.48355879461E-02 -0.21656714729E-01  0.10217377223E+01  0.10214966843E+01 0.  0.
     999903    2    3    3    0    0 -0.11451725175E+00 -0.37183274642E-01 -0.53715962679E-01  0.13319076947E+00  0.18909774267E-01 0.  0.
         14    1    1    2    0    0  0.31778049340E-03  0.48355879461E-02  0.21656714729E-01  0.22192277667E-01  0.00000000000E+00 0. -1.
     999901    1    3    3    0    0  0.11419947126E+00  0.32347686696E-01  0.32059247950E-01  0.88854695287E+00  0.88000000000E+00 0.  1.
        -11    1    4    4    0    0 -0.77307354530E-01 -0.20839739211E-01 -0.26767983489E-01  0.84424569030E-01  0.51100000000E-03 0.  1.
         11    1    4    4    0    0 -0.37209897220E-01 -0.16343535431E-01 -0.26947979190E-01  0.48766200436E-01  0.51100000000E-03 0. -1.
</event>
<event>
 8    1  0.1202249E+005  0.1043930E+01  0.7957747E-01            NaN
         13   -1    0    0    0    0  0.00000000000E+00  0.00000000000E+00  0.74505805969E-08  0.10566000000E+00  0.10566000000E+00 0. -1.
     999900   -1    0    0    0    0 -0.00000000000E+00 -0.00000000000E+00 -0.74505805969E-08  0.93827000000E+00  0.93827000000E+00 0. -1.
     999902    2    1    2    0    0 -0.47210217976E-02  0.10352112126E-01  0.20105571520E-01  0.10208283057E+01  0.10205668726E+01 0.  0.
     999903    2    3    3    0    0 -0.80414090129E-01 -0.93696538636E-01  0.39787973144E-01  0.13125371118E+00  0.19974650154E-01 0.  0.
         14    1    1    2    0    0  0.47210217976E-02 -0.10352112126E-01 -0.20105571520E-01  0.23101694276E-01  0.00000000000E+00 0.  1.
     999901    1    3    3    0    0  0.75693068332E-01  0.10404865076E+00 -0.19682401624E-01  0.88957459454E+00  0.88000000000E+00 0. -1.
        -11    1    4    4    0    0 -0.42857979393E-01 -0.46032218698E-01  0.30360784332E-01  0.69841319447E-01  0.51100000000E-03 0. -1.
         11    1    4    4    0    0 -0.37556110737E-01 -0.47664319938E-01  0.94271888115E-02  0.61412391736E-01  0.51100000000E-03 0.  1.
</event>
<event>
 8    1  0.1202249E+005  0.1043930E+01  0.7957747E-01            NaN
         13   -1    0    0    0    0  0.00000000000E+00  0.00000000000E+00  0.74505805969E-08  0.10566000000E+00  0.10566000000E+00 0. -1.
     999900   -1    0    0    0    0 -0.00000000000E+00 -0.00000000000E+00 -0.74505805969E-08  0.93827000000E+00  0.93827000000E+00 0. -1.
     999902    2    1    2    0    0 -0.67534660458E-02 -0.22166976457E-01 -0.57199505783E-02  0.10200615693E+01  0.10197822823E+01 0.  0.
     999903    2    3    3    0    0 -0.88029504522E-01  0.87521908538E-01  0.30438449292E-01  0.12880129543E+00  0.15937263516E-01 0.  0.
         14    1    1    2    0    0  0.67534660458E-02  0.22166976457E-01  0.57199505783E-02  0.23868430687E-01  0.00000000000E+00 0.  1.
     999901    1    3    3    0    0  0.81276038477E-01 -0.10968888499E+00 -0.36158399870E-01  0.89126027388E+00  0.88000000000E+00 0. -1.
        -11    1    4    4    0    0 -0.60894963955E-01  0.67034945282E-01  0.16524362504E-01  0.92060828810E-01  0.51100000000E-03 0. -1.
         11    1    4    4    0    0 -0.27134540567E-01  0.20486963256E-01  0.13914086788E-01  0.36740466619E-01  0.51100000000E-03 0.  1.
</event>
<event>
 8    1  0.1202249E+005  0.1043930E+01  0.7957747E-01            NaN
         13   -1    0    0    0    0  0.00000000000E+00  0.00000000000E+00  0.74505805969E-08  0.10566000000E+00  0.10566000000E+00 0. -1.
     999900   -1    0    0    0    0 -0.00000000000E+00 -0.00000000000E+00 -0.74505805969E-08  0.93827000000E+00  0.93827000000E+00 0. -1.
     999902    2    1    2    0    0 -0.13793738584E-01 -0.18397257509E-01  0.97848189170E-03  0.10209151410E+01  0.10206556919E+01 0.  0.
     999903    2    3    3    0    0 -0.24072581075E-01 -0.12424039654E+00 -0.38266754494E-01  0.13364482522E+00  0.19530220590E-01 0.  0.
         14    1    1    2    0    0  0.13793738584E-01  0.18397257509E-01 -0.97848189170E-03  0.23014859000E-01  0.00000000000E+00 0.  1.
     999901    1    3    3    0    0  0.10278842491E-01  0.10584313903E+00  0.39245236386E-01  0.88727031578E+00  0.88000000000E+00 0. -1.
        -11    1    4    4    0    0 -0.23038417940E-01 -0.80268082255E-01 -0.30905180407E-01  0.89045634520E-01  0.51100000000E-03 0. -1.
         11    1    4    4    0    0 -0.10341631351E-02 -0.43972314288E-01 -0.73615740874E-02  0.44599190702E-01  0.51100000000E-03 0.  1.
</event>
<event>
 8    1  0.1202249E+005  0.1043930E+01  0.7957747E-01            NaN
         13   -1    0    0    0    0  0.00000000000E+00  0.00000000000E+00  0.74505805969E-08  0.10566000000E+00  0.10566000000E+00 0.  1.
     999900   -1    0    0    0    0 -0.00000000000E+00 -0.00000000000E+00 -0.74505805969E-08  0.93827000000E+00  0.93827000000E+00 0. -1.
     999902    2    1    2    0    0  0.19093659821E-01 -0.12592178127E-01 -0.25416206108E-03  0.10210565352E+01  0.10208003001E+01 0.  0.
     999903    2    3    3    0    0  0.18288087859E-01 -0.10783508164E+00 -0.72730081501E-01  0.13295484137E+00  0.20602575063E-01 0.  0.
         14    1    1    2    0    0 -0.19093659821E-01  0.12592178127E-01  0.25416206108E-03  0.22873464838E-01  0.00000000000E+00 0. -1.
     999901    1    3    3    0    0  0.80557196238E-03  0.95242903512E-01  0.72475919440E-01  0.88810169379E+00  0.88000000000E+00 0.  1.
        -11    1    4    4    0    0  0.19326471039E-01 -0.10304783535E+00 -0.63730120763E-01  0.12269538812E+00  0.51100000000E-03 0. -1.
         11    1    4    4    0    0 -0.10383831804E-02 -0.47872462881E-02 -0.89999607378E-02  0.10259453247E-01  0.51100000000E-03 0.  1.
</event>
<event>
 8    1  0.1202249E+005  0.1043930E+01  0.7957747E-01            NaN
         13   -1    0    0    0    0  0.00000000000E+00  0.00000000000E+00  0.74505805969E-08  0.10566000000E+00  0.10566000000E+00 0. -1.
     999900   -1    0    0    0    0 -0.00000000000E+00 -0.00000000000E+00 -0.74505805969E-08  0.93827000000E+00  0.93827000000E+00 0.  1.
     999902    2    1    2    0    0  0.17446703149E-02 -0.18016515200E-01 -0.92020572781E-02  0.10236244207E+01  0.10234230005E+01 0.  0.
     999903    2    3    3    0    0 -0.58331116004E-01  0.85671018855E-01  0.77198420927E-01  0.13130987552E+00  0.23251766593E-01 0.  0.
         14    1    1    2    0    0 -0.17446703149E-02  0.18016515200E-01  0.92020572781E-02  0.20305579347E-01  0.00000000000E+00 0.  1.
     999901    1    3    3    0    0  0.60075786319E-01 -0.10368753406E+00 -0.86400478205E-01  0.89231454513E+00  0.88000000000E+00 0.  1.
        -11    1    4    4    0    0 -0.33347192786E-01  0.30911574547E-01  0.26641199421E-01  0.52702707097E-01  0.51100000000E-03 0. -1.
         11    1    4    4    0    0 -0.24983923218E-01  0.54759444308E-01  0.50557221506E-01  0.78607168424E-01  0.51100000000E-03 0.  1.
</event>
<event>
 8    1  0.1202249E+005  0.1043930E+01  0.7957747E-01            NaN
         13   -1    0    0    0    0  0.00000000000E+00  0.00000000000E+00  0.74505805969E-08  0.10566000000E+00  0.10566000000E+00 0.  1.
     999900   -1    0    0    0    0 -0.00000000000E+00 -0.00000000000E+00 -0.74505805969E-08  0.93827000000E+00  0.93827000000E+00 0.  1.
     999902    2    1    2    0    0 -0.72696444767E-02  0.70674383728E-02  0.20754010416E-01  0.10208318320E+01  0.10205704796E+01 0.  0.
     999903    2    3    3    0    0  0.15621958412E-01 -0.12406806478E+00  0.32684802989E-01  0.13074032577E+00  0.19692794481E-01 0.  0.
         14    1    1    2    0    0  0.72696444767E-02 -0.70674383728E-02 -0.20754010416E-01  0.23098167986E-01  0.00000000000E+00 0. -1.
     999901    1    3    3    0    0 -0.22891602888E-01  0.13113550315E+00 -0.11930792573E-01  0.89009150624E+00  0.88000000000E+00 0. -1.
        -11    1    4    4    0    0  0.12356046526E-02 -0.19052681508E-01  0.12532580144E-01  0.22844213218E-01  0.51100000000E-03 0. -1.
         11    1    4    4    0    0  0.14386353759E-01 -0.10501538327E+00  0.20152222845E-01  0.10789611256E+00  0.51100000000E-03 0.  1.
</event>
<event>
 8    1  0.1202249E+005  0.1043930E+01  0.7957747E-01            NaN
         13   -1    0    0    0    0  0.00000000000E+00  0.00000000000E+00  0.74505805969E-08  0.10566000000E+00  0.10566000000E+00 0. -1.
     999900   -1    0    0    0    0 -0.00000000000E+00 -0.00000000000E+00 -0.74505805969E-08  0.93827000000E+00  0.93827000000E+00 0. -1.
     999902    2    1    2    0    0  0.20749019313E-01  0.98964550648E-02 -0.52582543033E-02  0.10203479970E+01  0.10200754502E+01 0.  0.
     999903    2    3    3    0    0  0.10187890559E+00  0.50179065290E-01  0.65639095725E-01  0.13286212032E+00  0.21132963118E-01 0.  0.
         14    1    1    2    0    0 -0.20749019313E-01 -0.98964550648E-02  0.52582543033E-02  0.23582002960E-01  0.00000000000E+00 0. -1.
     999901    1    3    3    0    0 -0.81129886281E-01 -0.40282610225E-01 -0.70897350028E-01  0.88748587672E+00  0.88000000000E+00 0. -1.
        -11    1    4    4    0    0  0.81505240076E-01  0.44309379393E-01  0.44409071632E-01  0.10285354649E+00  0.51100000000E-03 0.  1.
         11    1    4    4    0    0  0.20373665518E-01  0.58696858968E-02  0.21230024093E-01  0.30008573827E-01  0.51100000000E-03 0. -1.
</event>
<event>
 8    1  0.1202249E+005  0.1043930E+01  0.7957747E-01            NaN
         13   -1    0    0    0    0  0.00000000000E+00  0.00000000000E+00  0.74505805969E-08  0.10566000000E+00  0.10566000000E+00 0.  1.
     999900   -1    0    0    0    0 -0.00000000000E+00 -0.00000000000E+00 -0.74505805969E-08  0.93827000000E+00  0.93827000000E+00 0. -1.
     999902    2    1    2    0    0 -0.43930836182E-02 -0.18374204777E-01 -0.12366509804E-01  0.10213503377E+01  0.10211007155E+01 0.  0.
     999903    2    3    3    0    0 -0.12689761354E+00 -0.16608794118E-01  0.25406852846E-01  0.13206000072E+00  0.20383308180E-01 0.  0.
         14    1    1    2    0    0  0.43930836182E-02  0.18374204777E-01  0.12366509804E-01  0.22579662300E-01  0.00000000000E+00 0.  1.
     999901    1    3    3    0    0  0.12250452993E+00 -0.17654106588E-02 -0.37773362650E-01  0.88929033698E+00  0.88000000000E+00 0. -1.
        -11    1    4    4    0    0 -0.67771626496E-01 -0.13749026066E-01  0.45789537645E-02  0.69305533792E-01  0.51100000000E-03 0. -1.
         11    1    4    4    0    0 -0.59125987048E-01 -0.28597680515E-02  0.20827899082E-01  0.62754466924E-01  0.51100000000E-03 0.  1.
</event>
<event>
 8    1  0.1202249E+005  0.1043930E+01  0.7957747E-01            NaN
         13   -1    0    0    0    0  0.00000000000E+00  0.00000000000E+00  0.74505805969E-08  0.10566000000E+00  0.10566000000E+00 0.  1.
     999900   -1    0    0    0    0 -0.00000000000E+00 -0.00000000000E+00 -0.74505805969E-08  0.93827000000E+00  0.93827000000E+00 0. -1.
     999902    2    1    2    0    0  0.11451985278E-01  0.23221005544E-01 -0.14988784769E-01  0.10140130026E+01  0.10135715775E+01 0.  0.
     999903    2    3    3    0    0 -0.98428568387E-01  0.72864830555E-01 -0.20717832369E-01  0.12577256925E+00  0.19800100771E-01 0.  0.
         14    1    1    2    0    0 -0.11451985278E-01 -0.23221005544E-01  0.14988784769E-01  0.29916997412E-01  0.00000000000E+00 0.  1.
     999901    1    3    3    0    0  0.10988055366E+00 -0.49643825010E-01  0.57290476000E-02  0.88824043334E+00  0.88000000000E+00 0. -1.
        -11    1    4    4    0    0 -0.74040273072E-01  0.43830282850E-01 -0.12163791620E-01  0.86898070628E-01  0.51100000000E-03 0. -1.
         11    1    4    4    0    0 -0.24388295315E-01  0.29034547705E-01 -0.85540407489E-02  0.38874498620E-01  0.51100000000E-03 0.  1.
</event>
<event>
 8    1  0.1202249E+005  0.1043930E+01  0.7957747E-01            NaN
         13   -1    0    0    0    0  0.00000000000E+00  0.00000000000E+00  0.74505805969E-08  0.10566000000E+00  0.10566000000E+00 0. -1.
     999900   -1    0    0    0    0 -0.00000000000E+00 -0.00000000000E+00 -0.74505805969E-08  0.93827000000E+00  0.93827000000E+00 0.  1.
     999902    2    1    2    0    0 -0.61853521957E-02  0.23451550414E-01 -0.93641823477E-03  0.10196583977E+01  0.10193694803E+01 0.  0.
     999903    2    3    3    0    0 -0.10900038244E+00  0.24795050999E-01  0.65540665650E-01  0.13118108336E+00  0.20421063878E-01 0.  0.
         14    1    1    2    0    0  0.61853521957E-02 -0.23451550414E-01  0.93641823477E-03  0.24271602290E-01  0.00000000000E+00 0. -1.
     999901    1    3    3    0    0  0.10281503025E+00 -0.13435005854E-02 -0.66477083885E-01  0.88847731435E+00  0.88000000000E+00 0.  1.
        -11    1    4    4    0    0 -0.20212020733E-01  0.42358654943E-02  0.35560535853E-02  0.20961273260E-01  0.51100000000E-03 0. -1.
         11    1    4    4    0    0 -0.88788361711E-01  0.20559185505E-01  0.61984612065E-01  0.11021981010E+00  0.51100000000E-03 0.  1.
</event>
<event>
 8    1  0.1202249E+005  0.1043930E+01  0.7957747E-01            NaN
         13   -1    0    0    0    0  0.00000000000E+00  0.00000000000E+00  0.74505805969E-08  0.10566000000E+00  0.10566000000E+00 0. -1.
     999900   -1    0    0    0    0 -0.00000000000E+00 -0.00000000000E+00 -0.74505805969E-08  0.93827000000E+00  0.93827000000E+00 0. -1.
     999902    2    1    2    0    0  0.40513893437E-02 -0.23545442848E-01  0.14419341037E-02  0.10199950714E+01  0.10197142074E+01 0.  0.
     999903    2    3    3    0    0  0.12651159829E+00 -0.11085097128E-01  0.25612775536E-01  0.13109913114E+00  0.20072469545E-01 0.  0.
         14    1    1    2    0    0 -0.40513893437E-02  0.23545442848E-01 -0.14419341037E-02  0.23934928629E-01  0.00000000000E+00 0. -1.
     999901    1    3    3    0    0 -0.12246020895E+00 -0.12460345720E-01 -0.24170841432E-01  0.88889594023E+00  0.88000000000E+00 0. -1.
        -11    1    4    4    0    0  0.42350637116E-01 -0.10111632051E-01  0.16033407183E-02  0.43573540014E-01  0.51100000000E-03 0.  1.
         11    1    4    4    0    0  0.84160961174E-01 -0.97346507762E-03  0.24009434818E-01  0.87525591122E-01  0.51100000000E-03 0. -1.
</event>
<event>
 8    1  0.1202249E+005  0.1043930E+01  0.7957747E-01            NaN
         13   -1    0    0    0    0  0.00000000000E+00  0.00000000000E+00  0.74505805969E-08  0.10566000000E+00  0.10566000000E+00 0.  1.
     999900   -1    0    0    0    0 -0.00000000000E+00 -0.00000000000E+00 -0.74505805969E-08  0.93827000000E+00  0.93827000000E+00 0. -1.
     999902    2    1    2    0    0 -0.33221546550E-02  0.24396136051E-01 -0.86263039571E-03  0.10192935981E+01  0.10189958228E+01 0.  0.
     999903    2    3    3    0    0 -0.17142145576E-01  0.93262136910E-01  0.90382546265E-01  0.13179193589E+00  0.14437117432E-01 0.  0.
         14    1    1    2    0    0  0.33221546550E-02 -0.24396136051E-01  0.86263039571E-03  0.24636401867E-01  0.00000000000E+00 0. -1.
     999901    1    3    3    0    0  0.13819990921E-01 -0.68866000859E-01 -0.91245176661E-01  0.88750166224E+00  0.88000000000E+00 0. -1.
        -11    1    4    4    0    0 -0.18622217335E-01  0.65221550905E-01  0.64391693549E-01  0.93526408035E-01  0.51100000000E-03 0. -1.
         11    1    4    4    0    0  0.14800717584E-02  0.28040586005E-01  0.25990852716E-01  0.38265527853E-01  0.51100000000E-03 0.  1.
</event>
<event>
 8    1  0.1202249E+005  0.1043930E+01  0.7957747E-01            NaN
         13   -1    0    0    0    0  0.00000000000E+00  0.00000000000E+00  0.74505805969E-08  0.10566000000E+00  0.10566000000E+00 0.  1.
     999900   -1    0    0    0    0 -0.00000000000E+00 -0.00000000000E+00 -0.74505805969E-08  0.93827000000E+00  0.93827000000E+00 0. -1.
     999902    2    1    2    0    0  0.35607159082E-02 -0.18943689952E-01 -0.14454725629E-01  0.10198368230E+01  0.10195521881E+01 0.  0.
     999903    2    3    3    0    0 -0.91918862017E-01 -0.27321606518E-01 -0.87848063981E-01  0.13159523341E+00  0.20111582112E-01 0.  0.
         14    1    1    2    0    0 -0.35607159082E-02  0.18943689952E-01  0.14454725629E-01  0.24093177038E-01  0.00000000000E+00 0. -1.
     999901    1    3    3    0    0  0.95479577925E-01  0.83779165655E-02  0.73393338352E-01  0.88824158955E+00  0.88000000000E+00 0.  1.
        -11    1    4    4    0    0 -0.68411622341E-01 -0.10843416848E-01 -0.62011093699E-01  0.92969708093E-01  0.51100000000E-03 0. -1.
         11    1    4    4    0    0 -0.23507239676E-01 -0.16478189669E-01 -0.25836970283E-01  0.38625525321E-01  0.51100000000E-03 0.  1.
</event>
<event>
 8    1  0.1202249E+005  0.1043930E+01  0.7957747E-01            NaN
         13   -1    0    0    0    0  0.00000000000E+00  0.00000000000E+00  0.74505805969E-08  0.10566000000E+00  0.10566000000E+00 0. -1.
     999900   -1    0    0    0    0 -0.00000000000E+00 -0.00000000000E+00 -0.74505805969E-08  0.93827000000E+00  0.93827000000E+00 0.  1.
     999902    2    1    2    0    0  0.65263983957E-03 -0.17115287307E-01 -0.17175618539E-01  0.10196738488E+01  0.10193853035E+01 0.  0.
     999903    2    3    3    0    0  0.18519772194E-01 -0.80029394387E-01 -0.10278691172E+00  0.13310365260E+00  0.20093461305E-01 0.  0.
         14    1    1    2    0    0 -0.65263983957E-03  0.17115287307E-01  0.17175618539E-01  0.24256151190E-01  0.00000000000E+00 0. -1.
     999901    1    3    3    0    0 -0.17867132354E-01  0.62914107080E-01  0.85611293177E-01  0.88657019621E+00  0.88000000000E+00 0. -1.
        -11    1    4    4    0    0  0.19753007931E-01 -0.67464110123E-01 -0.76242989305E-01  0.10370555441E+00  0.51100000000E-03 0. -1.
         11    1    4    4    0    0 -0.12332357371E-02 -0.12565284264E-01 -0.26543922411E-01  0.29398098186E-01  0.51100000000E-03 0.  1.
</event>
<event>
 8    1  0.1202249E+005  0.1043930E+01  0.7957747E-01            NaN
         13   -1    0    0    0    0  0.00000000000E+00  0.00000000000E+00  0.74505805969E-08  0.10566000000E+00  0.10566000000E+00 0. -1.
     999900   -1    0    0    0    0 -0.00000000000E+00 -0.00000000000E+00 -0.74505805969E-08  0.93827000000E+00  0.93827000000E+00 0. -1.
     999902    2    1    2    0    0  0.73069843785E-02  0.11958404318E-01  0.19348138887E-01  0.10200397105E+01  0.10197599056E+01 0.  0.
     999903    2    3    3    0    0  0.12785452134E+00 -0.16584286280E-01 -0.98432189429E-02  0.13088363351E+00  0.20293333440E-01 0.  0.
         14    1    1    2    0    0 -0.73069843785E-02 -0.11958404318E-01 -0.19348138887E-01  0.23890289512E-01  0.00000000000E+00 0.  1.
     999901    1    3    3    0    0 -0.12054753697E+00  0.28542690598E-01  0.29191357830E-01  0.88915607698E+00  0.88000000000E+00 0.  1.
        -11    1    4    4    0    0  0.56560281799E-01 -0.15643521164E-01 -0.10282528253E-01  0.59580002853E-01  0.51100000000E-03 0.  1.
         11    1    4    4    0    0  0.71294239545E-01 -0.94076511629E-03  0.43930931058E-03  0.71303630658E-01  0.51100000000E-03 0. -1.
</event>
<event>
 8    1  0.1202249E+005  0.1043930E+01  0.7957747E-01            NaN
         13   -1    0    0    0    0  0.00000000000E+00  0.00000000000E+00  0.74505805969E-08  0.10566000000E+00  0.10566000000E+00 0. -1.
     999900   -1    0    0    0    0 -0.00000000000E+00 -0.00000000000E+00 -0.74505805969E-08  0.93827000000E+00  0.93827000000E+00 0.  1.
     999902    2    1    2    0    0  0.18287761443E-01  0.72694504138E-02  0.15117518184E-01  0.10191141485E+01  0.10188119656E+01 0.  0.
     999903    2    3    3    0    0 -0.59863270758E-02 -0.50706632057E-01 -0.11479398641E+00  0.12735888136E+00  0.20871672155E-01 0.  0.
         14    1    1    2    0    0 -0.18287761443E-01 -0.72694504138E-02 -0.15117518184E-01  0.24815851465E-01  0.00000000000E+00 0.  1.
     999901    1    3    3    0    0  0.24274088519E-01  0.57976082471E-01  0.12991150459E+00  0.89175526718E+00  0.88000000000E+00 0. -1.
        -11    1    4    4    0    0  0.70530152032E-02 -0.20913719057E-01 -0.55503246256E-01  0.59732739215E-01  0.51100000000E-03 0. -1.
         11    1    4    4    0    0 -0.13039342279E-01 -0.29792913001E-01 -0.59290740154E-01  0.67626142143E-01  0.51100000000E-03 0.  1.
</event>
<event>
 8    1  0.1202249E+005  0.1043930E+01  0.7957747E-01            NaN
         13   -1    0    0    0    0  0.00000000000E+00  0.00000000000E+00  0.74505805969E-08  0.10566000000E+00  0.10566000000E+00 0. -1.
     999900   -1    0    0    0    0 -0.00000000000E+00 -0.00000000000E+00 -0.74505805969E-08  0.93827000000E+00  0.93827000000E+00 0. -1.
     999902    2    1    2    0    0 -0.15740987225E-01 -0.48008485533E-02  0.92411433401E-02  0.10250560615E+01  0.10248822877E+01 0.  0.
     999903    2    3    3    0    0 -0.88080088294E-01  0.94093647409E-01  0.38610931670E-01  0.13608156726E+00  0.20388047170E-01 0.  0.
         14    1    1    2    0    0  0.15740987225E-01  0.48008485533E-02 -0.92411433401E-02  0.18873938536E-01  0.00000000000E+00 0. -1.
     999901    1    3    3    0    0  0.72339101069E-01 -0.98894495962E-01 -0.29369788330E-01  0.88897449420E+00  0.88000000000E+00 0.  1.
        -11    1    4    4    0    0 -0.47511516449E-01  0.49768803933E-01  0.10009179664E-01  0.69532171250E-01  0.51100000000E-03 0.  1.
         11    1    4    4    0    0 -0.40568571845E-01  0.44324843476E-01  0.28601752006E-01  0.66549396012E-01  0.51100000000E-03 0. -1.
</event>
<event>
 8    1  0.1202249E+005  0.1043930E+01  0.7957747E-01            NaN
         13   -1    0    0    0    0  0.00000000000E+00  0.00000000000E+00  0.74505805969E-08  0.10566000000E+00  0.10566000000E+00 0. -1.
     999900   -1    0    0    0    0 -0.00000000000E+00 -0.00000000000E+00 -0.74505805969E-08  0.93827000000E+00  0.93827000000E+00 0.  1.
     999902    2    1    2    0    0 -0.82586087020E-02 -0.45752207327E-02 -0.22099466160E-01  0.10198982779E+01  0.10196151105E+01 0.  0.
     999903    2    3    3    0    0 -0.10323452875E+00  0.76148641863E-01  0.11992690287E-01  0.13046079133E+00  0.20499021222E-01 0.  0.
         14    1    1    2    0    0  0.82586087020E-02  0.45752207327E-02  0.22099466160E-01  0.24031722098E-01  0.00000000000E+00 0. -1.
     999901    1    3    3    0    0  0.94975920049E-01 -0.80723862595E-01 -0.34092156447E-01  0.88943748657E+00  0.88000000000E+00 0.  1.
        -11    1    4    4    0    0 -0.58338193259E-01  0.37096053285E-01 -0.26236769654E-02  0.69185307428E-01  0.51100000000E-03 0. -1.
         11    1    4    4    0    0 -0.44896335492E-01  0.39052588578E-01  0.14616367252E-01  0.61275483906E-01  0.51100000000E-03 0.  1.
</event>
<event>
 8    1  0.1202249E+005  0.1043930E+01  0.7957747E-01            NaN
         13   -1    0    0    0    0  0.00000000000E+00  0.00000000000E+00  0.74505805969E-08  0.10566000000E+00  0.10566000000E+00 0. -1.
     999900   -1    0    0    0    0 -0.00000000000E+00 -0.00000000000E+00 -0.74505805969E-08  0.93827000000E+00  0.93827000000E+00 0.  1.
     999902    2    1    2    0    0 -0.19385060598E-02 -0.17230839445E-01  0.17557371466E-01  0.10192536768E+01  0.10189549238E+01 0.  0.
     999903    2    3    3    0    0  0.10352589651E+00 -0.43873194939E-01  0.64812075684E-01  0.13129784322E+00  0.19901004990E-01 0.  0.
         14    1    1    2    0    0  0.19385060598E-02  0.17230839445E-01 -0.17557371466E-01  0.24676323197E-01  0.00000000000E+00 0.  1.
     999901    1    3    3    0    0 -0.10546440256E+00  0.26642355494E-01 -0.47254704218E-01  0.88795583358E+00  0.88000000000E+00 0.  1.
        -11    1    4    4    0    0  0.44854667859E-01 -0.12935135200E-01  0.17652021505E-01  0.49911060253E-01  0.51100000000E-03 0.  1.
         11    1    4    4    0    0  0.58671228646E-01 -0.30938059739E-01  0.47160054179E-01  0.81386782971E-01  0.51100000000E-03 0. -1.
</event>
<event>
 8    1  0.1202249E+005  0.1043930E+01  0.7957747E-01            NaN
         13   -1    0    0    0    0  0.00000000000E+00  0.00000000000E+00  0.74505805969E-08  0.10566000000E+00  0.10566000000E+00 0. -1.
     999900   -1    0    0    0    0 -0.00000000000E+00 -0.00000000000E+00 -0.74505805969E-08  0.93827000000E+00  0.93827000000E+00 0.  1.
     999902    2    1    2    0    0 -0.10032249597E-01  0.15385698021E-01 -0.15300902199E-01  0.10200242822E+01  0.10197441115E+01 0.  0.
     999903    2    3    3    0    0  0.10664799752E+00  0.71831825349E-01  0.70652423208E-02  0.13024864206E+00  0.19523949453E-01 0.  0.
         14    1    1    2    0    0  0.10032249597E-01 -0.15385698021E-01  0.15300902199E-01  0.23905717803E-01  0.00000000000E+00 0. -1.
     999901    1    3    3    0    0 -0.11668024712E+00 -0.56446127328E-01 -0.22366144519E-01  0.88977564014E+00  0.88000000000E+00 0. -1.
        -11    1    4    4    0    0  0.31501715797E-01  0.23875697628E-01 -0.65477914794E-02  0.40069211743E-01  0.51100000000E-03 0. -1.
         11    1    4    4    0    0  0.75146281721E-01  0.47956127721E-01  0.13613033800E-01  0.90179430319E-01  0.51100000000E-03 0.  1.
</event>
<event>
 8    1  0.1202249E+005  0.1043930E+01  0.7957747E-01            NaN
         13   -1    0    0    0    0  0.00000000000E+00  0.00000000000E+00  0.74505805969E-08  0.10566000000E+00  0.10566000000E+00 0. -1.
     999900   -1    0    0    0    0 -0.00000000000E+00 -0.00000000000E+00 -0.74505805969E-08  0.93827000000E+00  0.93827000000E+00 0.  1.
     999902    2    1    2    0    0  0.10870658919E-01 -0.52368680706E-02 -0.14061446960E-01  0.10254010955E+01  0.10252336740E+01 0.  0.
     999903    2    3    3    0    0  0.92090597046E-01 -0.56700668493E-01  0.78681050924E-01  0.13531886780E+00  0.20611752364E-01 0.  0.
         14    1    1    2    0    0 -0.10870658919E-01  0.52368680706E-02  0.14061446960E-01  0.18528904531E-01  0.00000000000E+00 0. -1.
     999901    1    3    3    0    0 -0.81219938127E-01  0.51463800422E-01 -0.92742497884E-01  0.89008222767E+00  0.88000000000E+00 0.  1.
        -11    1    4    4    0    0  0.70285360210E-01 -0.36598254715E-01  0.48023021849E-01  0.92660325148E-01  0.51100000000E-03 0.  1.
         11    1    4    4    0    0  0.21805236837E-01 -0.20102413778E-01  0.30658029075E-01  0.42658542649E-01  0.51100000000E-03 0. -1.
</event>
<event>
 8    1  0.1202249E+005  0.1043930E+01  0.7957747E-01            NaN
         13   -1    0    0    0    0  0.00000000000E+00  0.00000000000E+00  0.74505805969E-08  0.10566000000E+00  0.10566000000E+00 0.  1.
     999900   -1    0    0    0    0 -0.00000000000E+00 -0.00000000000E+00 -0.74505805969E-08  0.93827000000E+00  0.93827000000E+00 0.  1.
     999902    2    1    2    0    0  0.67464365132E-03 -0.14938407348E-01 -0.14328755726E-01  0.10232195099E+01  0.10230098930E+01 0.  0.
     999903    2    3    3    0    0 -0.71521576949E-01 -0.10703503408E+00  0.32796402606E-01  0.13422296130E+00  0.19192832703E-01 0.  0.
         14    1    1    2    0    0 -0.67464365132E-03  0.14938407348E-01  0.14328755726E-01  0.20710490067E-01  0.00000000000E+00 0.  1.
     999901    1    3    3    0    0  0.72196220600E-01  0.92096626734E-01 -0.47125158333E-01  0.88899654863E+00  0.88000000000E+00 0.  1.
        -11    1    4    4    0    0 -0.59903359895E-01 -0.76213646397E-01  0.28227212320E-01  0.10096518737E+00  0.51100000000E-03 0.  1.
         11    1    4    4    0    0 -0.11618217054E-01 -0.30821387686E-01  0.45691902869E-02  0.33257773937E-01  0.51100000000E-03 0. -1.
</event>
<event>
 8    1  0.1202249E+005  0.1043930E+01  0.7957747E-01            NaN
         13   -1    0    0    0    0  0.00000000000E+00  0.00000000000E+00  0.74505805969E-08  0.10566000000E+00  0.10566000000E+00 0.  1.
     999900   -1    0    0    0    0 -0.00000000000E+00 -0.00000000000E+00 -0.74505805969E-08  0.93827000000E+00  0.93827000000E+00 0. -1.
     999902    2    1    2    0    0 -0.11010070613E-01  0.20785458335E-01 -0.35472141032E-02  0.10201426155E+01  0.10198652442E+01 0.  0.
     999903    2    3    3    0    0 -0.73605692783E-01 -0.38365032654E-02  0.10613070301E+00  0.13078683832E+00  0.20222615784E-01 0.  0.
         14    1    1    2    0    0  0.11010070613E-01 -0.20785458335E-01  0.35472141032E-02  0.23787384492E-01  0.00000000000E+00 0. -1.
     999901    1    3    3    0    0  0.62595622170E-01  0.24621961600E-01 -0.10967791712E+00  0.88935577718E+00  0.88000000000E+00 0. -1.
        -11    1    4    4    0    0 -0.38880719083E-01 -0.12019151652E-01  0.54175552435E-01  0.67760031918E-01  0.51100000000E-03 0. -1.
         11    1    4    4    0    0 -0.34724973699E-01  0.81826483864E-02  0.51955150579E-01  0.63026806406E-01  0.51100000000E-03 0.  1.
</event>
<event>
 8    1  0.1202249E+005  0.1043930E+01  0.7957747E-01            NaN
         13   -1    0    0    0    0  0.00000000000E+00  0.00000000000E+00  0.74505805969E-08  0.10566000000E+00  0.10566000000E+00 0. -1.
     999900   -1    0    0    0    0 -0.00000000000E+00 -0.00000000000E+00 -0.74505805969E-08  0.93827000000E+00  0.93827000000E+00 0. -1.
     999902    2    1    2    0    0  0.56385980394E-02 -0.23074446188E-01 -0.27812084090E-02  0.10200143362E+01  0.10197339296E+01 0.  0.
     999903    2    3    3    0    0  0.11135104766E+00  0.62191068191E-01  0.14960043295E-01  0.12941898366E+00  0.16083707858E-01 0.  0.
         14    1    1    2    0    0 -0.56385980394E-02  0.23074446188E-01  0.27812084090E-02  0.23915663799E-01  0.00000000000E+00 0. -1.
     999901    1    3    3    0    0 -0.10571244962E+00 -0.85265514380E-01 -0.17741251704E-01  0.89059535254E+00  0.88000000000E+00 0. -1.
        -11    1    4    4    0    0  0.79752887828E-01  0.52367109959E-01  0.12638912666E-01  0.96243652033E-01  0.51100000000E-03 0.  1.
         11    1    4    4    0    0  0.31598159837E-01  0.98239582326E-02  0.23211306293E-02  0.33175331631E-01  0.51100000000E-03 0. -1.
</event>
<event>
 8    1  0.1202249E+005  0.1043930E+01  0.7957747E-01            NaN
         13   -1    0    0    0    0  0.00000000000E+00  0.00000000000E+00  0.74505805969E-08  0.10566000000E+00  0.10566000000E+00 0. -1.
     999900   -1    0    0    0    0 -0.00000000000E+00 -0.00000000000E+00 -0.74505805969E-08  0.93827000000E+00  0.93827000000E+00 0. -1.
     999902    2    1    2    0    0 -0.31494583757E-02 -0.19107966533E-01 -0.14189808874E-01  0.10199219982E+01  0.10196393962E+01 0.  0.
     999903    2    3    3    0    0  0.46251769578E-01  0.11692881032E+00 -0.14783002574E-01  0.12809979742E+00  0.19479426613E-01 0.  0.
         14    1    1    2    0    0  0.31494583757E-02  0.19107966533E-01  0.14189808874E-01  0.24008001770E-01  0.00000000000E+00 0.  1.
     999901    1    3    3    0    0 -0.49401227954E-01 -0.13603677686E+00  0.59319370038E-03  0.89182220081E+00  0.88000000000E+00 0.  1.
        -11    1    4    4    0    0  0.38721153683E-01  0.79894129892E-01 -0.16323218065E-01  0.90272411637E-01  0.51100000000E-03 0.  1.
         11    1    4    4    0    0  0.75306158947E-02  0.37034680430E-01  0.15402154908E-02  0.37827385782E-01  0.51100000000E-03 0. -1.
</event>
<event>
 8    1  0.1202249E+005  0.1043930E+01  0.7957747E-01            NaN
         13   -1    0    0    0    0  0.00000000000E+00  0.00000000000E+00  0.74505805969E-08  0.10566000000E+00  0.10566000000E+00 0.  1.
     999900   -1    0    0    0    0 -0.00000000000E+00 -0.00000000000E+00 -0.74505805969E-08  0.93827000000E+00  0.93827000000E+00 0. -1.
     999902    2    1    2    0    0  0.23250740544E-01 -0.48846981374E-03 -0.53554354842E-02  0.10200654609E+01  0.10197862660E+01 0.  0.
     999903    2    3    3    0    0  0.12719974194E+00 -0.16090304604E-01 -0.31200509409E-01  0.13343319212E+00  0.19805875921E-01 0.  0.
         14    1    1    2    0    0 -0.23250740544E-01  0.48846981374E-03  0.53554354842E-02  0.23864539128E-01  0.00000000000E+00 0. -1.
     999901    1    3    3    0    0 -0.10394900140E+00  0.15601834791E-01  0.25845073924E-01  0.88663226875E+00  0.88000000000E+00 0.  1.
        -11    1    4    4    0    0  0.44270315932E-01 -0.45553858616E-02 -0.20573770641E-01  0.49032168751E-01  0.51100000000E-03 0.  1.
         11    1    4    4    0    0  0.82929426008E-01 -0.11534918743E-01 -0.10626738768E-01  0.84401023372E-01  0.51100000000E-03 0. -1.
</event>
<event>
 8    1  0.1202249E+005  0.1043930E+01  0.7957747E-01            NaN
         13   -1    0    0    0    0  0.00000000000E+00  0.00000000000E+00  0.74505805969E-08  0.10566000000E+00  0.10566000000E+00 0.  1.
     999900   -1    0    0    0    0 -0.00000000000E+00 -0.00000000000E+00 -0.74505805969E-08  0.93827000000E+00  0.93827000000E+00 0. -1.
     999902    2    1    2    0    0 -0.86633236310E-03  0.17941946662E-01  0.22571996668E-01  0.10150828335E+01  0.10146728536E+01 0.  0.
     999903    2    3    3    0    0  0.54870487918E-01 -0.79654554506E-01  0.78476731228E-01  0.12617507140E+00  0.20147774058E-01 0.  0.
         14    1    1    2    0    0  0.86633236310E-03 -0.17941946662E-01 -0.22571996668E-01  0.28847166505E-01  0.00000000000E+00 0.  1.
     999901    1    3    3    0    0 -0.55736820281E-01  0.97596501167E-01 -0.55904734560E-01  0.88890776210E+00  0.88000000000E+00 0. -1.
        -11    1    4    4    0    0  0.13719459073E-01 -0.35367887512E-01  0.35889206010E-01  0.52224584760E-01  0.51100000000E-03 0.  1.
         11    1    4    4    0    0  0.41151028845E-01 -0.44286666994E-01  0.42587525218E-01  0.73950486636E-01  0.51100000000E-03 0. -1.
</event>
<event>
 8    1  0.1202249E+005  0.1043930E+01  0.7957747E-01            NaN
         13   -1    0    0    0    0  0.00000000000E+00  0.00000000000E+00  0.74505805969E-08  0.10566000000E+00  0.10566000000E+00 0. -1.
     999900   -1    0    0    0    0 -0.00000000000E+00 -0.00000000000E+00 -0.74505805969E-08  0.93827000000E+00  0.93827000000E+00 0.  1.
     999902    2    1    2    0    0 -0.54450070617E-02  0.11891739278E-01  0.18974679297E-01  0.10208843926E+01  0.10206242419E+01 0.  0.
     999903    2    3    3    0    0  0.30987003262E-01 -0.98839452724E-01 -0.72941932986E-01  0.12845100470E+00  0.21206207488E-01 0.  0.
         14    1    1    2    0    0  0.54450070617E-02 -0.11891739278E-01 -0.18974679297E-01  0.23045607377E-01  0.00000000000E+00 0.  1.
     999901    1    3    3    0    0 -0.36432010323E-01  0.11073119200E+00  0.91916612282E-01  0.89243338792E+00  0.88000000000E+00 0. -1.
        -11    1    4    4    0    0 -0.35209410025E-03 -0.21630985729E-01 -0.90884228245E-02  0.23470919545E-01  0.51100000000E-03 0.  1.
         11    1    4    4    0    0  0.31339097362E-01 -0.77208466995E-01 -0.63853510161E-01  0.10498008516E+00  0.51100000000E-03 0. -1.
</event>
<event>
 8    1  0.1202249E+005  0.1043930E+01  0.7957747E-01            NaN
         13   -1    0    0    0    0  0.00000000000E+00  0.00000000000E+00  0.74505805969E-08  0.10566000000E+00  0.10566000000E+00 0. -1.
     999900   -1    0    0    0    0 -0.00000000000E+00 -0.00000000000E+00 -0.74505805969E-08  0.93827000000E+00  0.93827000000E+00 0. -1.
     999902    2    1    2    0    0  0.97137013551E-02  0.63849978034E-03  0.23597912014E-01  0.10184030510E+01  0.10180830757E+01 0.  0.
     999903    2    3    3    0    0 -0.10509870611E+00  0.36193490110E-01  0.62764139101E-01  0.12936984596E+00  0.21012213903E-01 0.  0.
         14    1    1    2    0    0 -0.97137013551E-02 -0.63849978034E-03 -0.23597912014E-01  0.25526949043E-01  0.00000000000E+00 0.  1.
     999901    1    3    3    0    0  0.11481240747E+00 -0.35554990330E-01 -0.39166227087E-01  0.88903320500E+00  0.88000000000E+00 0. -1.
        -11    1    4    4    0    0 -0.83803488765E-01  0.19477098478E-01  0.47049077083E-01  0.98062525308E-01  0.51100000000E-03 0.  1.
         11    1    4    4    0    0 -0.21295217348E-01  0.16716391632E-01  0.15715062018E-01  0.31307320651E-01  0.51100000000E-03 0. -1.
</event>
<event>
 8    1  0.1280326E+005  0.1043930E+01  0.7957747E-01            NaN
         13   -1    0    0    0    0  0.00000000000E+00  0.00000000000E+00  0.74505805969E-08  0.10566000000E+00  0.10566000000E+00 0. -1.
     999900   -1    0    0    0    0 -0.00000000000E+00 -0.00000000000E+00 -0.74505805969E-08  0.93827000000E+00  0.93827000000E+00 0. -1.
     999902    2    1    2    0    0 -0.23164883810E-01  0.58082370014E-02  0.33237691483E-02  0.10198178682E+01  0.10195327799E+01 0.  0.
     999903    2    3    3    0    0  0.15886018490E-01  0.24627103685E-01 -0.12460744895E+00  0.12951144944E+00  0.19680939523E-01 0.  0.
         14    1    1    2    0    0  0.23164883810E-01 -0.58082370014E-02 -0.33237691483E-02  0.24112131808E-01  0.00000000000E+00 0.  1.
     999901    1    3    3    0    0 -0.39050902300E-01 -0.18818866684E-01  0.12793121810E+00  0.89030641876E+00  0.88000000000E+00 0.  1.
        -11    1    4    4    0    0  0.22507030885E-02  0.17443880444E-01 -0.43017356674E-01  0.46476969840E-01  0.51100000000E-03 0.  1.
         11    1    4    4    0    0  0.13635315402E-01  0.71832232410E-02 -0.81590092281E-01  0.83034479595E-01  0.51100000000E-03 0. -1.
</event>
<event>
 8    1  0.1202249E+005  0.1043930E+01  0.7957747E-01            NaN
         13   -1    0    0    0    0  0.00000000000E+00  0.00000000000E+00  0.74505805969E-08  0.10566000000E+00  0.10566000000E+00 0. -1.
     999900   -1    0    0    0    0 -0.00000000000E+00 -0.00000000000E+00 -0.74505805969E-08  0.93827000000E+00  0.93827000000E+00 0.  1.
     999902    2    1    2    0    0  0.14778351160E-01  0.56615594687E-02 -0.18427738908E-01  0.10196393746E+01  0.10193499987E+01 0.  0.
     999903    2    3    3    0    0  0.82471596656E-01  0.44613065441E-01 -0.93012045086E-01  0.13303776511E+00  0.15997392051E-01 0.  0.
         14    1    1    2    0    0 -0.14778351160E-01 -0.56615594687E-02  0.18427738908E-01  0.24290625350E-01  0.00000000000E+00 0. -1.
     999901    1    3    3    0    0 -0.67693245496E-01 -0.38951505972E-01  0.74584306177E-01  0.88660160954E+00  0.88000000000E+00 0.  1.
        -11    1    4    4    0    0  0.58843727509E-01  0.26417097013E-01 -0.71284611823E-01  0.96136383776E-01  0.51100000000E-03 0.  1.
         11    1    4    4    0    0  0.23627869147E-01  0.18195968428E-01 -0.21727433262E-01  0.36901381338E-01  0.51100000000E-03 0. -1.
</event>
<event>
 8    1  0.1202249E+005  0.1043930E+01  0.7957747E-01            NaN
         13   -1    0    0    0    0  0.00000000000E+00  0.00000000000E+00  0.74505805969E-08  0.10566000000E+00  0.10566000000E+00 0. -1.
     999900   -1    0    0    0    0 -0.00000000000E+00 -0.00000000000E+00 -0.74505805969E-08  0.93827000000E+00  0.93827000000E+00 0. -1.
     999902    2    1    2    0    0 -0.21600487856E-01 -0.52264400407E-02  0.85497079421E-02  0.10201183588E+01  0.10198404148E+01 0.  0.
     999903    2    3    3    0    0 -0.12117713927E+00  0.16009198129E-01 -0.46890011472E-01  0.13251483000E+00  0.20525922324E-01 0.  0.
         14    1    1    2    0    0  0.21600487856E-01  0.52264400407E-02 -0.85497079421E-02  0.23811641208E-01  0.00000000000E+00 0.  1.
     999901    1    3    3    0    0  0.99576651415E-01 -0.21235638170E-01  0.55439719414E-01  0.88760352879E+00  0.88000000000E+00 0.  1.
        -11    1    4    4    0    0 -0.20441520981E-01 -0.20592046286E-02 -0.16504228502E-02  0.20617495490E-01  0.51100000000E-03 0.  1.
         11    1    4    4    0    0 -0.10073561829E+00  0.18068402758E-01 -0.45239588621E-01  0.11189733451E+00  0.51100000000E-03 0. -1.
</event>
<event>
 8    1  0.1202249E+005  0.1043930E+01  0.7957747E-01            NaN
         13   -1    0    0    0    0  0.00000000000E+00  0.00000000000E+00  0.74505805969E-08  0.10566000000E+00  0.10566000000E+00 0.  1.
     999900   -1    0    0    0    0 -0.00000000000E+00 -0.00000000000E+00 -0.74505805969E-08  0.93827000000E+00  0.93827000000E+00 0. -1.
     999902    2    1    2    0    0  0.21713446550E-01 -0.85766029526E-02  0.21656083118E-02  0.10204838545E+01  0.10202144753E+01 0.  0.
     999903    2    3    3    0    0  0.94384551280E-01 -0.64866925604E-01  0.65589323581E-01  0.13342565036E+00  0.19603143814E-01 0.  0.
         14    1    1    2    0    0 -0.21713446550E-01  0.85766029526E-02 -0.21656083118E-02  0.23446145496E-01  0.00000000000E+00 0. -1.
     999901    1    3    3    0    0 -0.72671104730E-01  0.56290322652E-01 -0.63423715270E-01  0.88705820415E+00  0.88000000000E+00 0. -1.
        -11    1    4    4    0    0  0.42220788209E-01 -0.19041875861E-01  0.20628637162E-01  0.50704928611E-01  0.51100000000E-03 0. -1.
         11    1    4    4    0    0  0.52163763071E-01 -0.45825049744E-01  0.44960686419E-01  0.82720721745E-01  0.51100000000E-03 0.  1.
</event>
<event>
 8    1  0.1202249E+005  0.1043930E+01  0.7957747E-01            NaN
         13   -1    0    0    0    0  0.00000000000E+00  0.00000000000E+00  0.74505805969E-08  0.10566000000E+00  0.10566000000E+00 0. -1.
     999900   -1    0    0    0    0 -0.00000000000E+00 -0.00000000000E+00 -0.74505805969E-08  0.93827000000E+00  0.93827000000E+00 0. -1.
     999902    2    1    2    0    0  0.17932606215E-01 -0.21214357058E-01  0.81751936840E-02  0.10149738072E+01  0.10145606774E+01 0.  0.
     999903    2    3    3    0    0 -0.65118491813E-01 -0.97841113087E-01 -0.40981328683E-01  0.12638756583E+00  0.21932763368E-01 0.  0.
         14    1    1    2    0    0 -0.17932606215E-01  0.21214357058E-01 -0.81751936840E-02  0.28956192823E-01  0.00000000000E+00 0.  1.
     999901    1    3    3    0    0  0.83051098028E-01  0.76626756029E-01  0.49156522367E-01  0.88858624135E+00  0.88000000000E+00 0.  1.
        -11    1    4    4    0    0 -0.32444736794E-01 -0.46641291191E-01 -0.31337831179E-01  0.64887531727E-01  0.51100000000E-03 0. -1.
         11    1    4    4    0    0 -0.32673755019E-01 -0.51199821896E-01 -0.96434975041E-02  0.61500034101E-01  0.51100000000E-03 0.  1.
</event>
<event>
 8    1  0.1202249E+005  0.1043930E+01  0.7957747E-01            NaN
         13   -1    0    0    0    0  0.00000000000E+00  0.00000000000E+00  0.74505805969E-08  0.10566000000E+00  0.10566000000E+00 0.  1.
     999900   -1    0    0    0    0 -0.00000000000E+00 -0.00000000000E+00 -0.74505805969E-08  0.93827000000E+00  0.93827000000E+00 0. -1.
     999902    2    1    2    0    0  0.19886141533E-01  0.80738258938E-02 -0.97721981257E-02  0.10203473550E+01  0.10200747932E+01 0.  0.
     999903    2    3    3    0    0  0.48215216436E-01  0.56076903058E-01 -0.10889406458E+00  0.13303006320E+00  0.19228995307E-01 0.  0.
         14    1    1    2    0    0 -0.19886141533E-01 -0.80738258938E-02  0.97721981257E-02  0.23582645014E-01  0.00000000000E+00 0. -1.
     999901    1    3    3    0    0 -0.28329074904E-01 -0.48003077164E-01  0.99121866454E-01  0.88731729179E+00  0.88000000000E+00 0.  1.
        -11    1    4    4    0    0  0.29523164114E-01  0.20937852991E-01 -0.45004152061E-01  0.57755049398E-01  0.51100000000E-03 0. -1.
         11    1    4    4    0    0  0.18692052322E-01  0.35139050067E-01 -0.63889912518E-01  0.75275013798E-01  0.51100000000E-03 0.  1.
</event>
<event>
 8    1  0.1202249E+005  0.1043930E+01  0.7957747E-01            NaN
         13   -1    0    0    0    0  0.00000000000E+00  0.00000000000E+00  0.74505805969E-08  0.10566000000E+00  0.10566000000E+00 0. -1.
     999900   -1    0    0    0    0 -0.00000000000E+00 -0.00000000000E+00 -0.74505805969E-08  0.93827000000E+00  0.93827000000E+00 0. -1.
     999902    2    1    2    0    0 -0.23354852001E-01  0.29733157422E-02  0.21369952046E-02  0.10202898548E+01  0.10200159466E+01 0.  0.
     999903    2    3    3    0    0  0.12328101256E+00  0.18480670518E-01 -0.19548869795E-01  0.12775815697E+00  0.20006127073E-01 0.  0.
         14    1    1    2    0    0  0.23354852001E-01 -0.29733157422E-02 -0.21369952046E-02  0.23640145240E-01  0.00000000000E+00 0.  1.
     999901    1    3    3    0    0 -0.14663586456E+00 -0.15507354775E-01  0.21685864999E-01  0.89253169779E+00  0.88000000000E+00 0.  1.
        -11    1    4    4    0    0  0.62177541755E-01  0.70667130231E-03 -0.43833889373E-02  0.62337960366E-01  0.51100000000E-03 0. -1.
         11    1    4    4    0    0  0.61103470804E-01  0.17773999215E-01 -0.15165480857E-01  0.65420196599E-01  0.51100000000E-03 0.  1.
</event>
<event>
 8    1  0.1202249E+005  0.1043930E+01  0.7957747E-01            NaN
         13   -1    0    0    0    0  0.00000000000E+00  0.00000000000E+00  0.74505805969E-08  0.10566000000E+00  0.10566000000E+00 0. -1.
     999900   -1    0    0    0    0 -0.00000000000E+00 -0.00000000000E+00 -0.74505805969E-08  0.93827000000E+00  0.93827000000E+00 0.  1.
     999902    2    1    2    0    0  0.22334629823E-01 -0.87247157513E-03 -0.78600765505E-02  0.10202365895E+01  0.10199614311E+01 0.  0.
     999903    2    3    3    0    0  0.54843396795E-01 -0.83864135228E-01  0.82226433794E-01  0.13115840652E+00  0.20008744026E-01 0.  0.
         14    1    1    2    0    0 -0.22334629823E-01  0.87247157513E-03  0.78600765505E-02  0.23693410463E-01  0.00000000000E+00 0.  1.
     999901    1    3    3    0    0 -0.32508766972E-01  0.82991663653E-01 -0.90086510345E-01  0.88907818301E+00  0.88000000000E+00 0.  1.
        -11    1    4    4    0    0  0.19073845866E-01 -0.32972626337E-01  0.43761156713E-01  0.58019872816E-01  0.51100000000E-03 0. -1.
         11    1    4    4    0    0  0.35769550929E-01 -0.50891508891E-01  0.38465277081E-01  0.73138533707E-01  0.51100000000E-03 0.  1.
</event>
<event>
 8    1  0.1202249E+005  0.1043930E+01  0.7957747E-01            NaN
         13   -1    0    0    0    0  0.00000000000E+00  0.00000000000E+00  0.74505805969E-08  0.10566000000E+00  0.10566000000E+00 0. -1.
     999900   -1    0    0    0    0 -0.00000000000E+00 -0.00000000000E+00 -0.74505805969E-08  0.93827000000E+00  0.93827000000E+00 0.  1.
     999902    2    1    2    0    0 -0.11185011272E-01 -0.20673908718E-01  0.16484531477E-02  0.10203666306E+01  0.10200945194E+01 0.  0.
     999903    2    3    3    0    0  0.64016865355E-01  0.10035530611E+00 -0.41985197257E-01  0.12783803806E+00  0.20259829001E-01 0.  0.
         14    1    1    2    0    0  0.11185011272E-01  0.20673908718E-01 -0.16484531477E-02  0.23563369382E-01  0.00000000000E+00 0. -1.
     999901    1    3    3    0    0 -0.75201876627E-01 -0.12102921483E+00  0.43633650405E-01  0.89252859256E+00  0.88000000000E+00 0. -1.
        -11    1    4    4    0    0  0.80375499295E-02  0.26773269479E-01 -0.13812363149E-01  0.31184173297E-01  0.51100000000E-03 0.  1.
         11    1    4    4    0    0  0.55979315425E-01  0.73582036633E-01 -0.28172834107E-01  0.96653864761E-01  0.51100000000E-03 0. -1.
</event>
<event>
 8    1  0.1202249E+005  0.1043930E+01  0.7957747E-01            NaN
         13   -1    0    0    0    0  0.00000000000E+00  0.00000000000E+00  0.74505805969E-08  0.10566000000E+00  0.10566000000E+00 0. -1.
     999900   -1    0    0    0    0 -0.00000000000E+00 -0.00000000000E+00 -0.74505805969E-08  0.93827000000E+00  0.93827000000E+00 0. -1.
     999902    2    1    2    0    0 -0.71643830725E-02  0.90940570689E-03 -0.22602465690E-01  0.10202018130E+01  0.10199258367E+01 0.  0.
     999903    2    3    3    0    0 -0.55855434794E-01 -0.83500167739E-01  0.78575886391E-01  0.12906049225E+00  0.19756850154E-01 0.  0.
         14    1    1    2    0    0  0.71643830725E-02 -0.90940570689E-03  0.22602465690E-01  0.23728187011E-01  0.00000000000E+00 0. -1.
     999901    1    3    3    0    0  0.48691051722E-01  0.84409573446E-01 -0.10117835208E+00  0.89114132074E+00  0.88000000000E+00 0. -1.
        -11    1    4    4    0    0 -0.82458811283E-02 -0.27484650037E-01  0.18797721693E-01  0.34307666855E-01  0.51100000000E-03 0. -1.
         11    1    4    4    0    0 -0.47609553666E-01 -0.56015517702E-01  0.59778164698E-01  0.94752825390E-01  0.51100000000E-03 0.  1.
</event>
<event>
 8    1  0.1202249E+005  0.1043930E+01  0.7957747E-01            NaN
         13   -1    0    0    0    0  0.00000000000E+00  0.00000000000E+00  0.74505805969E-08  0.10566000000E+00  0.10566000000E+00 0. -1.
     999900   -1    0    0    0    0 -0.00000000000E+00 -0.00000000000E+00 -0.74505805969E-08  0.93827000000E+00  0.93827000000E+00 0. -1.
     999902    2    1    2    0    0 -0.71988319358E-02 -0.13823675431E-01  0.18761024910E-01  0.10195395666E+01  0.10192477789E+01 0.  0.
     999903    2    3    3    0    0  0.52428617094E-01  0.75129456971E-01  0.90326498881E-01  0.13016354408E+00  0.19760481090E-01 0.  0.
         14    1    1    2    0    0  0.71988319358E-02  0.13823675431E-01 -0.18761024910E-01  0.24390433357E-01  0.00000000000E+00 0.  1.
     999901    1    3    3    0    0 -0.59627449029E-01 -0.88953132402E-01 -0.71565473971E-01  0.88937602256E+00  0.88000000000E+00 0. -1.
        -11    1    4    4    0    0  0.11492734878E-01  0.58133117160E-02  0.89237808527E-02  0.15677134107E-01  0.51100000000E-03 0.  1.
         11    1    4    4    0    0  0.40935882215E-01  0.69316145255E-01  0.81402718028E-01  0.11448640998E+00  0.51100000000E-03 0. -1.
</event>
<event>
 8    1  0.1202249E+005  0.1043930E+01  0.7957747E-01            NaN
         13   -1    0    0    0    0  0.00000000000E+00  0.00000000000E+00  0.74505805969E-08  0.10566000000E+00  0.10566000000E+00 0. -1.
     999900   -1    0    0    0    0 -0.00000000000E+00 -0.00000000000E+00 -0.74505805969E-08  0.93827000000E+00  0.93827000000E+00 0.  1.
     999902    2    1    2    0    0 -0.87787260261E-03 -0.67866283954E-02 -0.23460852206E-01  0.10194914941E+01  0.10191985410E+01 0.  0.
     999903    2    3    3    0    0 -0.89695951614E-01  0.70470980599E-01 -0.61204698090E-01  0.13085096653E+00  0.19090247003E-01 0.  0.
         14    1    1    2    0    0  0.87787260261E-03  0.67866283954E-02  0.23460852206E-01  0.24438505919E-01  0.00000000000E+00 0.  1.
     999901    1    3    3    0    0  0.88818079011E-01 -0.77257608995E-01  0.37743845884E-01  0.88864052755E+00  0.88000000000E+00 0.  1.
        -11    1    4    4    0    0 -0.56372254696E-01  0.53281971382E-01 -0.47319352555E-01  0.90863534056E-01  0.51100000000E-03 0. -1.
         11    1    4    4    0    0 -0.33323696918E-01  0.17189009217E-01 -0.13885345535E-01  0.39987432473E-01  0.51100000000E-03 0.  1.
</event>
<event>
 8    1  0.1202249E+005  0.1043930E+01  0.7957747E-01            NaN
         13   -1    0    0    0    0  0.00000000000E+00  0.00000000000E+00  0.74505805969E-08  0.10566000000E+00  0.10566000000E+00 0.  1.
     999900   -1    0    0    0    0 -0.00000000000E+00 -0.00000000000E+00 -0.74505805969E-08  0.93827000000E+00  0.93827000000E+00 0.  1.
     999902    2    1    2    0    0  0.14345903422E-01 -0.18493768309E-01  0.96947921500E-02  0.10185959635E+01  0.10182808667E+01 0.  0.
     999903    2    3    3    0    0 -0.79866377424E-01  0.95576219583E-01 -0.15226314466E-02  0.12617580090E+00  0.20113734945E-01 0.  0.
         14    1    1    2    0    0 -0.14345903422E-01  0.18493768309E-01 -0.96947921500E-02  0.25334036514E-01  0.00000000000E+00 0. -1.
     999901    1    3    3    0    0  0.94212280846E-01 -0.11406998789E+00  0.11217423597E-01  0.89242016259E+00  0.88000000000E+00 0.  1.
        -11    1    4    4    0    0 -0.36980302484E-01  0.30588145297E-01  0.36964653491E-02  0.48136289653E-01  0.51100000000E-03 0. -1.
         11    1    4    4    0    0 -0.42886074941E-01  0.64988074285E-01 -0.52190967958E-02  0.78039511246E-01  0.51100000000E-03 0.  1.
</event>
<event>
 8    1  0.1202249E+005  0.1043930E+01  0.7957747E-01            NaN
         13   -1    0    0    0    0  0.00000000000E+00  0.00000000000E+00  0.74505805969E-08  0.10566000000E+00  0.10566000000E+00 0.  1.
     999900   -1    0    0    0    0 -0.00000000000E+00 -0.00000000000E+00 -0.74505805969E-08  0.93827000000E+00  0.93827000000E+00 0. -1.
     999902    2    1    2    0    0 -0.39815914362E-03  0.16024967367E-01 -0.18737381588E-01  0.10192713792E+01  0.10189730600E+01 0.  0.
     999903    2    3    3    0    0 -0.35003927753E-02  0.55190331589E-01 -0.11899238195E+00  0.13270800602E+00  0.19849494936E-01 0.  0.
         14    1    1    2    0    0  0.39815914362E-03 -0.16024967367E-01  0.18737381588E-01  0.24658620776E-01  0.00000000000E+00 0.  1.
     999901    1    3    3    0    0  0.31022336317E-02 -0.39165364222E-01  0.10025500036E+00  0.88656337320E+00  0.88000000000E+00 0.  1.
        -11    1    4    4    0    0 -0.11561617865E-01  0.38203463597E-01 -0.82780819947E-01  0.91902670857E-01  0.51100000000E-03 0. -1.
         11    1    4    4    0    0  0.80612250892E-02  0.16986867992E-01 -0.36211562003E-01  0.40805335163E-01  0.51100000000E-03 0.  1.
</event>
<event>
 8    1  0.1202249E+005  0.1043930E+01  0.7957747E-01            NaN
         13   -1    0    0    0    0  0.00000000000E+00  0.00000000000E+00  0.74505805969E-08  0.10566000000E+00  0.10566000000E+00 0.  1.
     999900   -1    0    0    0    0 -0.00000000000E+00 -0.00000000000E+00 -0.74505805969E-08  0.93827000000E+00  0.93827000000E+00 0. -1.
     999902    2    1    2    0    0 -0.15500709854E-01  0.15324509237E-01  0.31522847974E-02  0.10219061609E+01  0.10216688075E+01 0.  0.
     999903    2    3    3    0    0  0.64620103594E-01  0.10007874881E+00  0.54557710659E-01  0.13272387156E+00  0.21155815674E-01 0.  0.
         14    1    1    2    0    0  0.15500709854E-01 -0.15324509237E-01 -0.31522847974E-02  0.22023839101E-01  0.00000000000E+00 0. -1.
     999901    1    3    3    0    0 -0.80120813448E-01 -0.84754239572E-01 -0.51405425862E-01  0.88918228934E+00  0.88000000000E+00 0. -1.
        -11    1    4    4    0    0  0.32570257815E-01  0.48494536057E-01  0.15235531964E-01  0.60373208269E-01  0.51100000000E-03 0. -1.
         11    1    4    4    0    0  0.32049845780E-01  0.51584212752E-01  0.39322178695E-01  0.72350663287E-01  0.51100000000E-03 0.  1.
</event>
<event>
 8    1  0.1202249E+005  0.1043930E+01  0.7957747E-01            NaN
         13   -1    0    0    0    0  0.00000000000E+00  0.00000000000E+00  0.74505805969E-08  0.10566000000E+00  0.10566000000E+00 0. -1.
     999900   -1    0    0    0    0 -0.00000000000E+00 -0.00000000000E+00 -0.74505805969E-08  0.93827000000E+00  0.93827000000E+00 0.  1.
     999902    2    1    2    0    0 -0.54569964126E-02  0.16234309663E-01  0.19471699053E-01  0.10179978060E+01  0.10176674577E+01 0.  0.
     999903    2    3    3    0    0  0.67514926696E-01  0.88094947377E-01  0.62236498459E-01  0.13102673498E+00  0.31235211839E-01 0.  0.
         14    1    1    2    0    0  0.54569964126E-02 -0.16234309663E-01 -0.19471699053E-01  0.25932193969E-01  0.00000000000E+00 0.  1.
     999901    1    3    3    0    0 -0.72971923109E-01 -0.71860637714E-01 -0.42764799406E-01  0.88697107105E+00  0.88000000000E+00 0.  1.
        -11    1    4    4    0    0  0.39891104987E-01  0.29040439324E-01  0.19431706596E-01  0.53033005906E-01  0.51100000000E-03 0. -1.
         11    1    4    4    0    0  0.27623821709E-01  0.59054508053E-01  0.42804791863E-01  0.77993729072E-01  0.51100000000E-03 0.  1.
</event>
<event>
 8    1  0.1202249E+005  0.1043930E+01  0.7957747E-01            NaN
         13   -1    0    0    0    0  0.00000000000E+00  0.00000000000E+00  0.74505805969E-08  0.10566000000E+00  0.10566000000E+00 0.  1.
     999900   -1    0    0    0    0 -0.00000000000E+00 -0.00000000000E+00 -0.74505805969E-08  0.93827000000E+00  0.93827000000E+00 0.  1.
     999902    2    1    2    0    0 -0.15228120861E-01 -0.13868426999E-01 -0.11710559431E-01  0.10202368336E+01  0.10199616809E+01 0.  0.
     999903    2    3    3    0    0  0.96590956674E-01  0.17890905470E-01  0.79341835174E-01  0.12793492288E+00  0.20550432424E-01 0.  0.
         14    1    1    2    0    0  0.15228120861E-01  0.13868426999E-01  0.11710559431E-01  0.23693166411E-01  0.00000000000E+00 0.  1.
     999901    1    3    3    0    0 -0.11181907753E+00 -0.31759332469E-01 -0.91052394605E-01  0.89230191071E+00  0.88000000000E+00 0.  1.
        -11    1    4    4    0    0  0.30322767858E-01 -0.15195112815E-02  0.32584749121E-01  0.44539938947E-01  0.51100000000E-03 0.  1.
         11    1    4    4    0    0  0.66268188816E-01  0.19410416751E-01  0.46757086053E-01  0.83394983929E-01  0.51100000000E-03 0. -1.
</event>
<event>
 7    1  0.1202249E+005  0.1043930E+01  0.7957747E-01            NaN
         13   -1    0    0    0    0  0.00000000000E+00  0.00000000000E+00  0.74505805969E-08  0.10566000000E+00  0.10566000000E+00 0.  1.
     999900   -1    0    0    0    0 -0.00000000000E+00 -0.00000000000E+00 -0.74505805969E-08  0.93827000000E+00  0.93827000000E+00 0.  1.
     999902    2    1    2    0    0  0.16317468262E-01 -0.93000286859E-02  0.14368707065E-01  0.10202823776E+01  0.10200082940E+01 0.  0.
         14    1    1    2    0    0 -0.16317468262E-01  0.93000286859E-02 -0.14368707065E-01  0.23647622434E-01  0.00000000000E+00 0.  1.
     999901    1    3    3    0    0 -0.10178481491E-03 -0.41050512163E-01  0.12614133863E+00  0.88994201621E+00  0.88000000000E+00 0. -1.
        -11    1    3    3    0    0  0.28862650551E-01  0.20366185119E-01 -0.28544203446E-01  0.45418793076E-01  0.51100000000E-03 0.  1.
         11    1    3    3    0    0 -0.12443397474E-01  0.11384298358E-01 -0.83228428123E-01  0.84921568277E-01  0.51100000000E-03 0. -1.
</event>
<event>
 8    1  0.1202249E+005  0.1043930E+01  0.7957747E-01            NaN
         13   -1    0    0    0    0  0.00000000000E+00  0.00000000000E+00  0.74505805969E-08  0.10566000000E+00  0.10566000000E+00 0. -1.
     999900   -1    0    0    0    0 -0.00000000000E+00 -0.00000000000E+00 -0.74505805969E-08  0.93827000000E+00  0.93827000000E+00 0. -1.
     999902    2    1    2    0    0 -0.75826191029E-02  0.14214278209E-01  0.19030769964E-01  0.10189958463E+01  0.10186907395E+01 0.  0.
     999903    2    3    3    0    0  0.94173130988E-01 -0.12492119641E-01  0.86222088655E-01  0.13018645293E+00  0.22127636586E-01 0.  0.
         14    1    1    2    0    0  0.75826191029E-02 -0.14214278209E-01 -0.19030769964E-01  0.24934153743E-01  0.00000000000E+00 0.  1.
     999901    1    3    3    0    0 -0.10175575009E+00  0.26706397849E-01 -0.67191318691E-01  0.88880939333E+00  0.88000000000E+00 0. -1.
        -11    1    4    4    0    0  0.30111413349E-01  0.88803097089E-03  0.39937534872E-01  0.50027528677E-01  0.51100000000E-03 0. -1.
         11    1    4    4    0    0  0.64061717639E-01 -0.13380150611E-01  0.46284553783E-01  0.80158924251E-01  0.51100000000E-03 0.  1.
</event>
<event>
 8    1  0.1202249E+005  0.1043930E+01  0.7957747E-01            NaN
         13   -1    0    0    0    0  0.00000000000E+00  0.00000000000E+00  0.74505805969E-08  0.10566000000E+00  0.10566000000E+00 0. -1.
     999900   -1    0    0    0    0 -0.00000000000E+00 -0.00000000000E+00 -0.74505805969E-08  0.93827000000E+00  0.93827000000E+00 0. -1.
     999902    2    1    2    0    0  0.18337580283E-01  0.88822998327E-02 -0.62346446653E-02  0.10226219523E+01  0.10223999337E+01 0.  0.
     999903    2    3    3    0    0  0.80285060929E-01 -0.10069096567E+00 -0.29503364899E-01  0.13336089719E+00  0.18174674195E-01 0.  0.
         14    1    1    2    0    0 -0.18337580283E-01 -0.88822998327E-02  0.62346446653E-02  0.21308047659E-01  0.00000000000E+00 0. -1.
     999901    1    3    3    0    0 -0.61947480646E-01  0.10957326550E+00  0.23268720234E-01  0.88926105515E+00  0.88000000000E+00 0. -1.
        -11    1    4    4    0    0  0.31642632576E-01 -0.53171719148E-01 -0.17525994686E-01  0.64311037344E-01  0.51100000000E-03 0. -1.
         11    1    4    4    0    0  0.48642428353E-01 -0.47519246523E-01 -0.11977370213E-01  0.69049859843E-01  0.51100000000E-03 0.  1.
</event>
<event>
 8    1  0.1202249E+005  0.1043930E+01  0.7957747E-01            NaN
         13   -1    0    0    0    0  0.00000000000E+00  0.00000000000E+00  0.74505805969E-08  0.10566000000E+00  0.10566000000E+00 0. -1.
     999900   -1    0    0    0    0 -0.00000000000E+00 -0.00000000000E+00 -0.74505805969E-08  0.93827000000E+00  0.93827000000E+00 0. -1.
     999902    2    1    2    0    0  0.14941260297E-01 -0.84390803004E-02  0.11972493911E-01  0.10230063305E+01  0.10227923310E+01 0.  0.
     999903    2    3    3    0    0  0.10753442609E-03  0.43072356090E-01 -0.12231672641E+00  0.13120643017E+00  0.19962623453E-01 0.  0.
         14    1    1    2    0    0 -0.14941260297E-01  0.84390803004E-02 -0.11972493911E-01  0.20923669516E-01  0.00000000000E+00 0.  1.
     999901    1    3    3    0    0  0.14833725871E-01 -0.51511436390E-01  0.13428922032E+00  0.89179990031E+00  0.88000000000E+00 0.  1.
        -11    1    4    4    0    0 -0.63331009664E-02  0.81059454229E-02 -0.15356375275E-01  0.18490373215E-01  0.51100000000E-03 0.  1.
         11    1    4    4    0    0  0.64406353925E-02  0.34966410667E-01 -0.10696035114E+00  0.11271605696E+00  0.51100000000E-03 0. -1.
</event>
<event>
 8    1  0.1202249E+005  0.1043930E+01  0.7957747E-01            NaN
         13   -1    0    0    0    0  0.00000000000E+00  0.00000000000E+00  0.74505805969E-08  0.10566000000E+00  0.10566000000E+00 0. -1.
     999900   -1    0    0    0    0 -0.00000000000E+00 -0.00000000000E+00 -0.74505805969E-08  0.93827000000E+00  0.93827000000E+00 0. -1.
     999902    2    1    2    0    0 -0.21370605813E-02 -0.23860033880E-01  0.50753731151E-03  0.10199690768E+01  0.10196875952E+01 0.  0.
     999903    2    3    3    0    0 -0.12651643214E-01 -0.54194754840E-01 -0.11752581723E+00  0.13150825917E+00  0.19620626573E-01 0.  0.
         14    1    1    2    0    0  0.21370605813E-02  0.23860033880E-01 -0.50753731151E-03  0.23960923163E-01  0.00000000000E+00 0.  1.
     999901    1    3    3    0    0  0.10514582633E-01  0.30334720960E-01  0.11803335454E+00  0.88846081767E+00  0.88000000000E+00 0.  1.
        -11    1    4    4    0    0 -0.12893360608E-01 -0.49248810832E-01 -0.11533016972E+00  0.12606741563E+00  0.51100000000E-03 0.  1.
         11    1    4    4    0    0  0.24171739417E-03 -0.49459440077E-02 -0.21956475097E-02  0.54408435387E-02  0.51100000000E-03 0. -1.
</event>
<event>
 8    1  0.1215765E+005  0.1043930E+01  0.7957747E-01            NaN
         13   -1    0    0    0    0  0.00000000000E+00  0.00000000000E+00  0.74505805969E-08  0.10566000000E+00  0.10566000000E+00 0. -1.
     999900   -1    0    0    0    0 -0.00000000000E+00 -0.00000000000E+00 -0.74505805969E-08  0.93827000000E+00  0.93827000000E+00 0. -1.
     999902    2    1    2    0    0  0.15463048367E-01  0.17887479195E-01  0.42265750825E-02  0.10199105971E+01  0.10196277235E+01 0.  0.
     999903    2    3    3    0    0  0.99127161432E-01  0.71912716604E-01 -0.47146355520E-01  0.13280429681E+00  0.20410033537E-01 0.  0.
         14    1    1    2    0    0 -0.15463048367E-01 -0.17887479195E-01 -0.42265750825E-02  0.24019402858E-01  0.00000000000E+00 0. -1.
     999901    1    3    3    0    0 -0.83664113065E-01 -0.54025237409E-01  0.51372930603E-01  0.88710630033E+00  0.88000000000E+00 0.  1.
        -11    1    4    4    0    0  0.50045128202E-01  0.48648968464E-01 -0.28167291524E-01  0.75265492904E-01  0.51100000000E-03 0.  1.
         11    1    4    4    0    0  0.49082033230E-01  0.23263748140E-01 -0.18979063997E-01  0.57538803904E-01  0.51100000000E-03 0. -1.
</event>
<event>
 8    1  0.1202249E+005  0.1043930E+01  0.7957747E-01            NaN
         13   -1    0    0    0    0  0.00000000000E+00  0.00000000000E+00  0.74505805969E-08  0.10566000000E+00  0.10566000000E+00 0. -1.
     999900   -1    0    0    0    0 -0.00000000000E+00 -0.00000000000E+00 -0.74505805969E-08  0.93827000000E+00  0.93827000000E+00 0. -1.
     999902    2    1    2    0    0  0.14692097357E-01 -0.74617328548E-02 -0.14620191621E-01  0.10219008106E+01  0.10216633406E+01 0.  0.
     999903    2    3    3    0    0 -0.52513536775E-01  0.94209482121E-01 -0.72593251631E-01  0.13161180759E+00  0.20464350703E-01 0.  0.
         14    1    1    2    0    0 -0.14692097357E-01  0.74617328548E-02  0.14620191621E-01  0.22029189385E-01  0.00000000000E+00 0.  1.
     999901    1    3    3    0    0  0.67205634132E-01 -0.10167121498E+00  0.57973060010E-01  0.89028900302E+00  0.88000000000E+00 0.  1.
        -11    1    4    4    0    0 -0.44603742250E-01  0.76717005057E-01 -0.49634997760E-01  0.10168031673E+00  0.51100000000E-03 0. -1.
         11    1    4    4    0    0 -0.79097945252E-02  0.17492477064E-01 -0.22958253871E-01  0.29931490860E-01  0.51100000000E-03 0.  1.
</event>
<event>
 8    1  0.1202249E+005  0.1043930E+01  0.7957747E-01            NaN
         13   -1    0    0    0    0  0.00000000000E+00  0.00000000000E+00  0.74505805969E-08  0.10566000000E+00  0.10566000000E+00 0.  1.
     999900   -1    0    0    0    0 -0.00000000000E+00 -0.00000000000E+00 -0.74505805969E-08  0.93827000000E+00  0.93827000000E+00 0.  1.
     999902    2    1    2    0    0 -0.70843792823E-02 -0.20523498979E-01 -0.52954492414E-02  0.10215817512E+01  0.10213372755E+01 0.  0.
     999903    2    3    3    0    0  0.11640303353E+00  0.52815885782E-01 -0.41300795425E-02  0.12993767170E+00  0.22968608260E-01 0.  0.
         14    1    1    2    0    0  0.70843792823E-02  0.20523498979E-01  0.52954492414E-02  0.22348248764E-01  0.00000000000E+00 0.  1.
     999901    1    3    3    0    0 -0.12348741281E+00 -0.73339384761E-01 -0.11653696988E-02  0.89164407953E+00  0.88000000000E+00 0.  1.
        -11    1    4    4    0    0  0.31438071623E-01  0.61973546539E-02  0.56084573167E-02  0.32534219931E-01  0.51100000000E-03 0.  1.
         11    1    4    4    0    0  0.84964961904E-01  0.46618531128E-01 -0.97385368592E-02  0.97403451771E-01  0.51100000000E-03 0. -1.
</event>
<event>
 8    1  0.1202249E+005  0.1043930E+01  0.7957747E-01            NaN
         13   -1    0    0    0    0  0.00000000000E+00  0.00000000000E+00  0.74505805969E-08  0.10566000000E+00  0.10566000000E+00 0. -1.
     999900   -1    0    0    0    0 -0.00000000000E+00 -0.00000000000E+00 -0.74505805969E-08  0.93827000000E+00  0.93827000000E+00 0. -1.
     999902    2    1    2    0    0  0.20379630914E-01 -0.90281544518E-02  0.88141823043E-02  0.10199607126E+01  0.10196790321E+01 0.  0.
     999903    2    3    3    0    0  0.87198900900E-01 -0.94526294496E-01 -0.25725211140E-01  0.13262328157E+00  0.19704813064E-01 0.  0.
         14    1    1    2    0    0 -0.20379630914E-01  0.90281544518E-02 -0.88141823043E-02  0.23969287405E-01  0.00000000000E+00 0.  1.
     999901    1    3    3    0    0 -0.66819269986E-01  0.85498140044E-01  0.34539393444E-01  0.88733743102E+00  0.88000000000E+00 0. -1.
        -11    1    4    4    0    0  0.26110895927E-01 -0.19829588029E-01 -0.13583741823E-03  0.32791325383E-01  0.51100000000E-03 0. -1.
         11    1    4    4    0    0  0.61088004973E-01 -0.74696706467E-01 -0.25589373721E-01  0.99831956191E-01  0.51100000000E-03 0.  1.
</event>
<event>
 7    1  0.1202249E+005  0.1043930E+01  0.7957747E-01            NaN
         13   -1    0    0    0    0  0.00000000000E+00  0.00000000000E+00  0.74505805969E-08  0.10566000000E+00  0.10566000000E+00 0. -1.
     999900   -1    0    0    0    0 -0.00000000000E+00 -0.00000000000E+00 -0.74505805969E-08  0.93827000000E+00  0.93827000000E+00 0.  1.
     999902    2    1    2    0    0  0.17238492538E-01 -0.47013567656E-02  0.15360479211E-01  0.10203670481E+01  0.10200949466E+01 0.  0.
         14    1    1    2    0    0 -0.17238492538E-01  0.47013567656E-02 -0.15360479211E-01  0.23562951895E-01  0.00000000000E+00 0.  1.
     999901    1    3    3    0    0 -0.76676597625E-01 -0.63435944900E-01  0.59393430719E-01  0.88759844487E+00  0.88000000000E+00 0. -1.
        -11    1    3    3    0    0  0.74767171918E-01  0.19799009312E-01 -0.10765981142E-01  0.78091601579E-01  0.51100000000E-03 0.  1.
         11    1    3    3    0    0  0.19147918245E-01  0.38935578823E-01 -0.33266970366E-01  0.54677001653E-01  0.51100000000E-03 0. -1.
</event>
<event>
 8    1  0.1202249E+005  0.1043930E+01  0.7957747E-01            NaN
         13   -1    0    0    0    0  0.00000000000E+00  0.00000000000E+00  0.74505805969E-08  0.10566000000E+00  0.10566000000E+00 0.  1.
     999900   -1    0    0    0    0 -0.00000000000E+00 -0.00000000000E+00 -0.74505805969E-08  0.93827000000E+00  0.93827000000E+00 0. -1.
     999902    2    1    2    0    0  0.52788544440E-02 -0.42138730391E-02  0.22714117935E-01  0.10202328655E+01  0.10199576195E+01 0.  0.
     999903    2    3    3    0    0  0.92379736437E-01 -0.84243616862E-02  0.93242882963E-01  0.13311472311E+00  0.20501431909E-01 0.  0.
         14    1    1    2    0    0 -0.52788544440E-02  0.42138730391E-02 -0.22714117935E-01  0.23697134506E-01  0.00000000000E+00 0. -1.
     999901    1    3    3    0    0 -0.87100881993E-01  0.42104886471E-02 -0.70528765027E-01  0.88711814239E+00  0.88000000000E+00 0.  1.
        -11    1    4    4    0    0  0.60728960279E-01 -0.51061516987E-03  0.48415922389E-01  0.77670007121E-01  0.51100000000E-03 0. -1.
         11    1    4    4    0    0  0.31650776158E-01 -0.79137465163E-02  0.44826960574E-01  0.55444715985E-01  0.51100000000E-03 0.  1.
</event>
<event>
 8    1  0.1202249E+005  0.1043930E+01  0.7957747E-01            NaN
         13   -1    0    0    0    0  0.00000000000E+00  0.00000000000E+00  0.74505805969E-08  0.10566000000E+00  0.10566000000E+00 0. -1.
     999900   -1    0    0    0    0 -0.00000000000E+00 -0.00000000000E+00 -0.74505805969E-08  0.93827000000E+00  0.93827000000E+00 0.  1.
     999902    2    1    2    0    0  0.17561918905E-01  0.12037158291E-01  0.89750601875E-02  0.10208244621E+01  0.10205629410E+01 0.  0.
     999903    2    3    3    0    0  0.21648818698E-02 -0.84335695094E-01 -0.95860348588E-01  0.12924425902E+00  0.19941812325E-01 0.  0.
         14    1    1    2    0    0 -0.17561918905E-01 -0.12037158291E-01 -0.89750601875E-02  0.23105537880E-01  0.00000000000E+00 0.  1.
     999901    1    3    3    0    0  0.15397037035E-01  0.96372853385E-01  0.10483540878E+00  0.89158020310E+00  0.88000000000E+00 0. -1.
        -11    1    4    4    0    0  0.72176074209E-02 -0.10967432957E-01 -0.14021525846E-01  0.19215690219E-01  0.51100000000E-03 0.  1.
         11    1    4    4    0    0 -0.50527255511E-02 -0.73368262137E-01 -0.81838822743E-01  0.11002856881E+00  0.51100000000E-03 0. -1.
</event>
<event>
 8    1  0.1202249E+005  0.1043930E+01  0.7957747E-01            NaN
         13   -1    0    0    0    0  0.00000000000E+00  0.00000000000E+00  0.74505805969E-08  0.10566000000E+00  0.10566000000E+00 0. -1.
     999900   -1    0    0    0    0 -0.00000000000E+00 -0.00000000000E+00 -0.74505805969E-08  0.93827000000E+00  0.93827000000E+00 0. -1.
     999902    2    1    2    0    0 -0.11910947626E-01  0.16474824450E-01 -0.13402733746E-01  0.10195799736E+01  0.10192891635E+01 0.  0.
     999903    2    3    3    0    0  0.90786520366E-01 -0.59724830103E-01  0.62946340919E-01  0.12706535832E+00  0.19342074293E-01 0.  0.
         14    1    1    2    0    0  0.11910947626E-01 -0.16474824450E-01  0.13402733746E-01  0.24350026403E-01  0.00000000000E+00 0.  1.
     999901    1    3    3    0    0 -0.10269746799E+00  0.76199654553E-01 -0.76349074665E-01  0.89251461528E+00  0.88000000000E+00 0.  1.
        -11    1    4    4    0    0  0.47974088526E-01 -0.23602971049E-01  0.38812524914E-01  0.66070315751E-01  0.51100000000E-03 0.  1.
         11    1    4    4    0    0  0.42812431840E-01 -0.36121859055E-01  0.24133816005E-01  0.60995042566E-01  0.51100000000E-03 0. -1.
</event>
<event>
 8    1  0.1202249E+005  0.1043930E+01  0.7957747E-01            NaN
         13   -1    0    0    0    0  0.00000000000E+00  0.00000000000E+00  0.74505805969E-08  0.10566000000E+00  0.10566000000E+00 0. -1.
     999900   -1    0    0    0    0 -0.00000000000E+00 -0.00000000000E+00 -0.74505805969E-08  0.93827000000E+00  0.93827000000E+00 0. -1.
     999902    2    1    2    0    0  0.10972157235E-01  0.62417472224E-02 -0.19046019012E-01  0.10210805255E+01  0.10208248337E+01 0.  0.
     999903    2    3    3    0    0 -0.10410488752E+00 -0.61226023870E-01 -0.45474260669E-01  0.13063508739E+00  0.20277181026E-01 0.  0.
         14    1    1    2    0    0 -0.10972157235E-01 -0.62417472224E-02  0.19046019012E-01  0.22849474458E-01  0.00000000000E+00 0. -1.
     999901    1    3    3    0    0  0.11507704475E+00  0.67467771092E-01  0.26428241657E-01  0.89044543815E+00  0.88000000000E+00 0.  1.
        -11    1    4    4    0    0 -0.93871086762E-01 -0.61107334504E-01 -0.39481817922E-01  0.11876431420E+00  0.51100000000E-03 0. -1.
         11    1    4    4    0    0 -0.10233800756E-01 -0.11868936598E-03 -0.59924427480E-02  0.11870773192E-01  0.51100000000E-03 0.  1.
</event>
<event>
 8    1  0.1202249E+005  0.1043930E+01  0.7957747E-01            NaN
         13   -1    0    0    0    0  0.00000000000E+00  0.00000000000E+00  0.74505805969E-08  0.10566000000E+00  0.10566000000E+00 0. -1.
     999900   -1    0    0    0    0 -0.00000000000E+00 -0.00000000000E+00 -0.74505805969E-08  0.93827000000E+00  0.93827000000E+00 0. -1.
     999902    2    1    2    0    0  0.15942194688E-01  0.17820016968E-02 -0.16322202928E-01  0.10210445590E+01  0.10207880525E+01 0.  0.
     999903    2    3    3    0    0 -0.57977951824E-01 -0.11462119969E+00 -0.72758293672E-02  0.13026078600E+00  0.20383139109E-01 0.  0.
         14    1    1    2    0    0 -0.15942194688E-01 -0.17820016968E-02  0.16322202928E-01  0.22885441004E-01  0.00000000000E+00 0. -1.
     999901    1    3    3    0    0  0.73920146512E-01  0.11640320139E+00 -0.90463735610E-02  0.89078377299E+00  0.88000000000E+00 0.  1.
        -11    1    4    4    0    0 -0.13804394795E-01 -0.11952160031E-01 -0.18320808800E-02  0.18358460895E-01  0.51100000000E-03 0. -1.
         11    1    4    4    0    0 -0.44173557029E-01 -0.10266903966E+00 -0.54437484871E-02  0.11190232511E+00  0.51100000000E-03 0.  1.
</event>
<event>
 8    1  0.1202249E+005  0.1043930E+01  0.7957747E-01            NaN
         13   -1    0    0    0    0  0.00000000000E+00  0.00000000000E+00  0.74505805969E-08  0.10566000000E+00  0.10566000000E+00 0.  1.
     999900   -1    0    0    0    0 -0.00000000000E+00 -0.00000000000E+00 -0.74505805969E-08  0.93827000000E+00  0.93827000000E+00 0.  1.
     999902    2    1    2    0    0 -0.36174142828E-02 -0.22194605620E-01  0.93035136577E-02  0.10195939861E+01  0.10193035147E+01 0.  0.
     999903    2    3    3    0    0  0.17979852816E-01  0.12431861793E+00 -0.21572270059E-02  0.12714571581E+00  0.19570016582E-01 0.  0.
         14    1    1    2    0    0  0.36174142828E-02  0.22194605620E-01 -0.93035136577E-02  0.24336013870E-01  0.00000000000E+00 0.  1.
     999901    1    3    3    0    0 -0.21597267099E-01 -0.14651322355E+00  0.11460740664E-01  0.89244827032E+00  0.88000000000E+00 0. -1.
        -11    1    4    4    0    0  0.20031838991E-01  0.11173056517E+00 -0.64029788449E-02  0.11369368068E+00  0.51100000000E-03 0.  1.
         11    1    4    4    0    0 -0.20519861748E-02  0.12588052758E-01  0.42457518390E-02  0.13452035131E-01  0.51100000000E-03 0. -1.
</event>
<event>
 8    1  0.1202249E+005  0.1043930E+01  0.7957747E-01            NaN
         13   -1    0    0    0    0  0.00000000000E+00  0.00000000000E+00  0.74505805969E-08  0.10566000000E+00  0.10566000000E+00 0. -1.
     999900   -1    0    0    0    0 -0.00000000000E+00 -0.00000000000E+00 -0.74505805969E-08  0.93827000000E+00  0.93827000000E+00 0.  1.
     999902    2    1    2    0    0 -0.21669571143E-02  0.22800542547E-01 -0.55352630399E-02  0.10203673265E+01  0.10200952316E+01 0.  0.
     999903    2    3    3    0    0  0.80736551435E-01 -0.77054503934E-01  0.60675486514E-01  0.12838757039E+00  0.18602856009E-01 0.  0.
         14    1    1    2    0    0  0.21669571143E-02 -0.22800542547E-01  0.55352630399E-02  0.23562673458E-01  0.00000000000E+00 0. -1.
     999901    1    3    3    0    0 -0.82903508549E-01  0.99855046481E-01 -0.66210749553E-01  0.89197975616E+00  0.88000000000E+00 0.  1.
        -11    1    4    4    0    0  0.63774418428E-01 -0.52444410581E-01  0.50602158650E-01  0.96842305983E-01  0.51100000000E-03 0.  1.
         11    1    4    4    0    0  0.16962133006E-01 -0.24610093353E-01  0.10073327864E-01  0.31545264403E-01  0.51100000000E-03 0. -1.
</event>
<event>
 7    1  0.1202249E+005  0.1043930E+01  0.7957747E-01            NaN
         13   -1    0    0    0    0  0.00000000000E+00  0.00000000000E+00  0.74505805969E-08  0.10566000000E+00  0.10566000000E+00 0.  1.
     999900   -1    0    0    0    0 -0.00000000000E+00 -0.00000000000E+00 -0.74505805969E-08  0.93827000000E+00  0.93827000000E+00 0. -1.
     999903    2    1    2    0    0 -0.66503340582E-01  0.55435184856E-01 -0.75106482951E-01  0.11645568945E+00  0.20620130803E-01 0.  0.
         14    1    1    2    0    0  0.28972399765E-01 -0.10507521645E-01 -0.25244683494E-01  0.39838448815E-01  0.00000000000E+00 0. -1.
     999901    1    1    2    0    0  0.37530940818E-01 -0.44927663210E-01  0.10035116644E+00  0.88763586174E+00  0.88000000000E+00 0.  1.
        -11    1    3    3    0    0 -0.34456962681E-01  0.19924333975E-01 -0.44308341339E-01  0.59563005253E-01  0.51100000000E-03 0. -1.
         11    1    3    3    0    0 -0.32046377901E-01  0.35510850880E-01 -0.30798141612E-01  0.56892684192E-01  0.51100000000E-03 0.  1.
</event>
<event>
 8    1  0.1202249E+005  0.1043930E+01  0.7957747E-01            NaN
         13   -1    0    0    0    0  0.00000000000E+00  0.00000000000E+00  0.74505805969E-08  0.10566000000E+00  0.10566000000E+00 0.  1.
     999900   -1    0    0    0    0 -0.00000000000E+00 -0.00000000000E+00 -0.74505805969E-08  0.93827000000E+00  0.93827000000E+00 0. -1.
     999902    2    1    2    0    0  0.64337227969E-02  0.21893519996E-01  0.56048929564E-02  0.10204324718E+01  0.10201618968E+01 0.  0.
     999903    2    3    3    0    0 -0.85022626092E-01 -0.75063464841E-01  0.57352623032E-01  0.12889293356E+00  0.21463789317E-01 0.  0.
         14    1    1    2    0    0 -0.64337227969E-02 -0.21893519996E-01 -0.56048929564E-02  0.23497528208E-01  0.00000000000E+00 0. -1.
     999901    1    3    3    0    0  0.91456348889E-01  0.96956984837E-01 -0.51747730075E-01  0.89153953823E+00  0.88000000000E+00 0.  1.
        -11    1    4    4    0    0 -0.45461004546E-01 -0.26683720518E-01  0.30177092386E-01  0.60742422580E-01  0.51100000000E-03 0.  1.
         11    1    4    4    0    0 -0.39561621546E-01 -0.48379744323E-01  0.27175530646E-01  0.68150510981E-01  0.51100000000E-03 0. -1.
</event>
<event>
 8    1  0.1202249E+005  0.1043930E+01  0.7957747E-01            NaN
         13   -1    0    0    0    0  0.00000000000E+00  0.00000000000E+00  0.74505805969E-08  0.10566000000E+00  0.10566000000E+00 0. -1.
     999900   -1    0    0    0    0 -0.00000000000E+00 -0.00000000000E+00 -0.74505805969E-08  0.93827000000E+00  0.93827000000E+00 0.  1.
     999902    2    1    2    0    0 -0.21534135340E-01 -0.90260483269E-02 -0.12298343922E-02  0.10205483614E+01  0.10202804795E+01 0.  0.
     999903    2    3    3    0    0  0.10079655769E+00 -0.70433744637E-01 -0.32558787655E-01  0.12941581962E+00  0.23822705333E-01 0.  0.
         14    1    1    2    0    0  0.21534135340E-01  0.90260483269E-02  0.12298343922E-02  0.23381638648E-01  0.00000000000E+00 0.  1.
     999901    1    3    3    0    0 -0.12233069303E+00  0.61407696310E-01  0.31328953262E-01  0.89113254173E+00  0.88000000000E+00 0. -1.
        -11    1    4    4    0    0  0.51328767256E-01 -0.22862982615E-01 -0.93441025858E-02  0.56964301946E-01  0.51100000000E-03 0.  1.
         11    1    4    4    0    0  0.49467790430E-01 -0.47570762022E-01 -0.23214685069E-01  0.72451517674E-01  0.51100000000E-03 0. -1.
</event>
<event>
 8    1  0.1202249E+005  0.1043930E+01  0.7957747E-01            NaN
         13   -1    0    0    0    0  0.00000000000E+00  0.00000000000E+00  0.74505805969E-08  0.10566000000E+00  0.10566000000E+00 0.  1.
     999900   -1    0    0    0    0 -0.00000000000E+00 -0.00000000000E+00 -0.74505805969E-08  0.93827000000E+00  0.93827000000E+00 0.  1.
     999902    2    1    2    0    0  0.20811803756E-01 -0.70227009059E-02  0.14714574565E-02  0.10219160342E+01  0.10216788959E+01 0.  0.
     999903    2    3    3    0    0  0.11682208405E+00  0.22451483690E-01 -0.58742882663E-01  0.13415904704E+00  0.19911182745E-01 0.  0.
         14    1    1    2    0    0 -0.20811803756E-01  0.70227009059E-02 -0.14714574565E-02  0.22013965809E-01  0.00000000000E+00 0. -1.
     999901    1    3    3    0    0 -0.96010280292E-01 -0.29474184596E-01  0.60214340119E-01  0.88775698715E+00  0.88000000000E+00 0. -1.
        -11    1    4    4    0    0  0.45509615322E-01  0.12353259890E-01 -0.33464850495E-01  0.57826338777E-01  0.51100000000E-03 0.  1.
         11    1    4    4    0    0  0.71312468725E-01  0.10098223799E-01 -0.25278032167E-01  0.76332708264E-01  0.51100000000E-03 0. -1.
</event>
<event>
 8    1  0.1202249E+005  0.1043930E+01  0.7957747E-01            NaN
         13   -1    0    0    0    0  0.00000000000E+00  0.00000000000E+00  0.74505805969E-08  0.10566000000E+00  0.10566000000E+00 0. -1.
     999900   -1    0    0    0    0 -0.00000000000E+00 -0.00000000000E+00 -0.74505805969E-08  0.93827000000E+00  0.93827000000E+00 0.  1.
     999902    2    1    2    0    0  0.17190494109E-01 -0.86540653786E-02 -0.14163886257E-01  0.10200339416E+01  0.10197539999E+01 0.  0.
     999903    2    3    3    0    0 -0.39611296681E-01  0.74335302145E-01  0.93979158096E-01  0.12772872662E+00  0.19691456979E-01 0.  0.
         14    1    1    2    0    0 -0.17190494109E-01  0.86540653786E-02  0.14163886257E-01  0.23896058444E-01  0.00000000000E+00 0.  1.
     999901    1    3    3    0    0  0.56801790789E-01 -0.82989367524E-01 -0.10814304435E+00  0.89230521494E+00  0.88000000000E+00 0.  1.
        -11    1    4    4    0    0 -0.18102496997E-01  0.53611656235E-01  0.59611406047E-01  0.82193010248E-01  0.51100000000E-03 0.  1.
         11    1    4    4    0    0 -0.21508799683E-01  0.20723645911E-01  0.34367752049E-01  0.45535716372E-01  0.51100000000E-03 0. -1.
</event>
<event>
 8    1  0.1202249E+005  0.1043930E+01  0.7957747E-01            NaN
         13   -1    0    0    0    0  0.00000000000E+00  0.00000000000E+00  0.74505805969E-08  0.10566000000E+00  0.10566000000E+00 0. -1.
     999900   -1    0    0    0    0 -0.00000000000E+00 -0.00000000000E+00 -0.74505805969E-08  0.93827000000E+00  0.93827000000E+00 0. -1.
     999902    2    1    2    0    0 -0.78718253373E-02 -0.22315529722E-01  0.26984562891E-02  0.10201134056E+01  0.10198353446E+01 0.  0.
     999903    2    3    3    0    0 -0.34940756262E-01 -0.59963018307E-01 -0.11028595491E+00  0.13167908752E+00  0.18972881394E-01 0.  0.
         14    1    1    2    0    0  0.78718253373E-02  0.22315529722E-01 -0.26984562891E-02  0.23816594367E-01  0.00000000000E+00 0.  1.
     999901    1    3    3    0    0  0.27068930925E-01  0.37647488585E-01  0.11298441120E+00  0.88843431811E+00  0.88000000000E+00 0.  1.
        -11    1    4    4    0    0 -0.81682296305E-02 -0.17112228427E-01 -0.16471067233E-01  0.25121813506E-01  0.51100000000E-03 0. -1.
         11    1    4    4    0    0 -0.26772526631E-01 -0.42850789880E-01 -0.93814887677E-01  0.10655727402E+00  0.51100000000E-03 0.  1.
</event>
<event>
 8    1  0.1202249E+005  0.1043930E+01  0.7957747E-01            NaN
         13   -1    0    0    0    0  0.00000000000E+00  0.00000000000E+00  0.74505805969E-08  0.10566000000E+00  0.10566000000E+00 0.  1.
     999900   -1    0    0    0    0 -0.00000000000E+00 -0.00000000000E+00 -0.74505805969E-08  0.93827000000E+00  0.93827000000E+00 0.  1.
     999902    2    1    2    0    0 -0.32677054048E-02  0.18074724671E-01 -0.14822371296E-01  0.10203275370E+01  0.10200545115E+01 0.  0.
     999903    2    3    3    0    0 -0.32857390106E-01 -0.79918684942E-01  0.92286711103E-01  0.12794274703E+00  0.19644469564E-01 0.  0.
         14    1    1    2    0    0  0.32677054048E-02 -0.18074724671E-01  0.14822371296E-01  0.23602463037E-01  0.00000000000E+00 0.  1.
     999901    1    3    3    0    0  0.29589684701E-01  0.97993409614E-01 -0.10710908240E+00  0.89238478993E+00  0.88000000000E+00 0.  1.
        -11    1    4    4    0    0 -0.28325021973E-01 -0.53080554842E-01  0.53224637312E-01  0.80330413357E-01  0.51100000000E-03 0. -1.
         11    1    4    4    0    0 -0.45323681336E-02 -0.26838130100E-01  0.39062073790E-01  0.47612333675E-01  0.51100000000E-03 0.  1.
</event>
<event>
 8    1  0.1202249E+005  0.1043930E+01  0.7957747E-01            NaN
         13   -1    0    0    0    0  0.00000000000E+00  0.00000000000E+00  0.74505805969E-08  0.10566000000E+00  0.10566000000E+00 0. -1.
     999900   -1    0    0    0    0 -0.00000000000E+00 -0.00000000000E+00 -0.74505805969E-08  0.93827000000E+00  0.93827000000E+00 0. -1.
     999902    2    1    2    0    0  0.22896646872E-02  0.21941707397E-01 -0.98332048330E-02  0.10197768842E+01  0.10194908143E+01 0.  0.
     999903    2    3    3    0    0  0.24028499545E-01  0.42838299771E-01  0.11810275916E+00  0.13001463760E+00  0.23303552340E-01 0.  0.
         14    1    1    2    0    0 -0.22896646872E-02 -0.21941707397E-01  0.98332048330E-02  0.24153115848E-01  0.00000000000E+00 0.  1.
     999901    1    3    3    0    0 -0.21738834858E-01 -0.20896592374E-01 -0.12793596399E+00  0.88976224656E+00  0.88000000000E+00 0. -1.
        -11    1    4    4    0    0  0.11423721082E-01  0.39190146580E-01  0.95749748545E-01  0.10408959823E+00  0.51100000000E-03 0.  1.
         11    1    4    4    0    0  0.12604778463E-01  0.36481531915E-02  0.22353010610E-01  0.25925039366E-01  0.51100000000E-03 0. -1.
</event>
<event>
 8    1  0.1202249E+005  0.1043930E+01  0.7957747E-01            NaN
         13   -1    0    0    0    0  0.00000000000E+00  0.00000000000E+00  0.74505805969E-08  0.10566000000E+00  0.10566000000E+00 0. -1.
     999900   -1    0    0    0    0 -0.00000000000E+00 -0.00000000000E+00 -0.74505805969E-08  0.93827000000E+00  0.93827000000E+00 0.  1.
     999902    2    1    2    0    0  0.73112793771E-02  0.22778824550E-01 -0.28569981875E-02  0.10198365965E+01  0.10195519562E+01 0.  0.
     999903    2    3    3    0    0 -0.21640981564E-01 -0.16835889802E-01 -0.12543996760E+00  0.12998596667E+00  0.20233308932E-01 0.  0.
         14    1    1    2    0    0 -0.73112793771E-02 -0.22778824550E-01  0.28569981875E-02  0.24093403509E-01  0.00000000000E+00 0. -1.
     999901    1    3    3    0    0  0.28952260942E-01  0.39614714352E-01  0.12258296941E+00  0.88985062982E+00  0.88000000000E+00 0. -1.
        -11    1    4    4    0    0 -0.22092867171E-01 -0.87939538418E-02 -0.69278072862E-01  0.73247122159E-01  0.51100000000E-03 0. -1.
         11    1    4    4    0    0  0.45188560699E-03 -0.80419359605E-02 -0.56161894739E-01  0.56738844509E-01  0.51100000000E-03 0.  1.
</event>
<event>
 8    1  0.1202249E+005  0.1043930E+01  0.7957747E-01            NaN
         13   -1    0    0    0    0  0.00000000000E+00  0.00000000000E+00  0.74505805969E-08  0.10566000000E+00  0.10566000000E+00 0.  1.
     999900   -1    0    0    0    0 -0.00000000000E+00 -0.00000000000E+00 -0.74505805969E-08  0.93827000000E+00  0.93827000000E+00 0. -1.
     999902    2    1    2    0    0  0.14333470287E-01 -0.16964129412E-01  0.10838080620E-01  0.10192177753E+01  0.10189181417E+01 0.  0.
     999903    2    3    3    0    0  0.18492350547E-01 -0.12800850706E+00  0.18759888055E-01  0.13219415380E+00  0.19880040020E-01 0.  0.
         14    1    1    2    0    0 -0.14333470287E-01  0.16964129412E-01 -0.10838080620E-01  0.24712224681E-01  0.00000000000E+00 0. -1.
     999901    1    3    3    0    0 -0.41588802603E-02  0.11104437765E+00 -0.79218074347E-02  0.88702362152E+00  0.88000000000E+00 0.  1.
        -11    1    4    4    0    0  0.14138065948E-01 -0.73137278245E-01  0.20010585183E-01  0.77133851312E-01  0.51100000000E-03 0.  1.
         11    1    4    4    0    0  0.43542845990E-02 -0.54871228816E-01 -0.12506971281E-02  0.55060302492E-01  0.51100000000E-03 0. -1.
</event>
<event>
 8    1  0.1202249E+005  0.1043930E+01  0.7957747E-01            NaN
         13   -1    0    0    0    0  0.00000000000E+00  0.00000000000E+00  0.74505805969E-08  0.10566000000E+00  0.10566000000E+00 0.  1.
     999900   -1    0    0    0    0 -0.00000000000E+00 -0.00000000000E+00 -0.74505805969E-08  0.93827000000E+00  0.93827000000E+00 0. -1.
     999902    2    1    2    0    0 -0.20831223205E-01  0.94883208853E-02 -0.55469491025E-02  0.10203771501E+01  0.10201052846E+01 0.  0.
     999903    2    3    3    0    0 -0.63235009441E-01  0.93410005966E-01  0.65809884988E-01  0.13249611749E+00  0.22364806176E-01 0.  0.
         14    1    1    2    0    0  0.20831223205E-01 -0.94883208853E-02  0.55469491025E-02  0.23552849887E-01  0.00000000000E+00 0.  1.
     999901    1    3    3    0    0  0.42403786236E-01 -0.83921685081E-01 -0.71356834090E-01  0.88788103262E+00  0.88000000000E+00 0. -1.
        -11    1    4    4    0    0 -0.39869563143E-01  0.75547859486E-01  0.51933410559E-01  0.99972003038E-01  0.51100000000E-03 0.  1.
         11    1    4    4    0    0 -0.23365446298E-01  0.17862146480E-01  0.13876474428E-01  0.32524114456E-01  0.51100000000E-03 0. -1.
</event>
<event>
 8    1  0.1202249E+005  0.1043930E+01  0.7957747E-01            NaN
         13   -1    0    0    0    0  0.00000000000E+00  0.00000000000E+00  0.74505805969E-08  0.10566000000E+00  0.10566000000E+00 0. -1.
     999900   -1    0    0    0    0 -0.00000000000E+00 -0.00000000000E+00 -0.74505805969E-08  0.93827000000E+00  0.93827000000E+00 0. -1.
     999902    2    1    2    0    0  0.76289844283E-02  0.63027768323E-03 -0.22734758270E-01  0.10199410882E+01  0.10196589408E+01 0.  0.
     999903    2    3    3    0    0 -0.12153960400E+00  0.19150999744E-02 -0.42627439113E-01  0.13028840672E+00  0.19555751382E-01 0.  0.
         14    1    1    2    0    0 -0.76289844283E-02 -0.63027768323E-03  0.22734758270E-01  0.23988911751E-01  0.00000000000E+00 0. -1.
     999901    1    3    3    0    0  0.12916858843E+00 -0.12848222911E-02  0.19892680842E-01  0.88965268153E+00  0.88000000000E+00 0.  1.
        -11    1    4    4    0    0 -0.65305479279E-01  0.64885225344E-02 -0.31426124570E-01  0.72765163196E-01  0.51100000000E-03 0.  1.
         11    1    4    4    0    0 -0.56234124719E-01 -0.45734225600E-02 -0.11201314543E-01  0.57523243522E-01  0.51100000000E-03 0. -1.
</event>
<event>
 8    1  0.1202249E+005  0.1043930E+01  0.7957747E-01            NaN
         13   -1    0    0    0    0  0.00000000000E+00  0.00000000000E+00  0.74505805969E-08  0.10566000000E+00  0.10566000000E+00 0.  1.
     999900   -1    0    0    0    0 -0.00000000000E+00 -0.00000000000E+00 -0.74505805969E-08  0.93827000000E+00  0.93827000000E+00 0.  1.
     999902    2    1    2    0    0  0.14113440495E-01  0.13668682532E-01 -0.13061334101E-01  0.10203371932E+01  0.10200643937E+01 0.  0.
     999903    2    3    3    0    0  0.31194918459E-02 -0.10205810955E-01  0.12689646654E+00  0.12888946937E+00  0.19897042167E-01 0.  0.
         14    1    1    2    0    0 -0.14113440495E-01 -0.13668682532E-01  0.13061334101E-01  0.23592806812E-01  0.00000000000E+00 0. -1.
     999901    1    3    3    0    0  0.10993948649E-01  0.23874493488E-01 -0.13995780064E+00  0.89144772382E+00  0.88000000000E+00 0.  1.
        -11    1    4    4    0    0 -0.54154855566E-02 -0.49135785523E-02  0.16734516214E-01  0.18269534529E-01  0.51100000000E-03 0. -1.
         11    1    4    4    0    0  0.85349774025E-02 -0.52922324032E-02  0.11016195032E+00  0.11061993484E+00  0.51100000000E-03 0.  1.
</event>
<event>
 8    1  0.1202249E+005  0.1043930E+01  0.7957747E-01            NaN
         13   -1    0    0    0    0  0.00000000000E+00  0.00000000000E+00  0.74505805969E-08  0.10566000000E+00  0.10566000000E+00 0. -1.
     999900   -1    0    0    0    0 -0.00000000000E+00 -0.00000000000E+00 -0.74505805969E-08  0.93827000000E+00  0.93827000000E+00 0.  1.
     999902    2    1    2    0    0  0.18520193307E-01 -0.46666781996E-02 -0.13777830911E-01  0.10203799667E+01  0.10201081670E+01 0.  0.
     999903    2    3    3    0    0  0.40935946184E-01 -0.10014490819E-02  0.12141585029E+00  0.12976600354E+00  0.20509811829E-01 0.  0.
         14    1    1    2    0    0 -0.18520193307E-01  0.46666781996E-02  0.13777830911E-01  0.23550033337E-01  0.00000000000E+00 0. -1.
     999901    1    3    3    0    0 -0.22415752877E-01 -0.36652291177E-02 -0.13519368120E+00  0.89061396313E+00  0.88000000000E+00 0.  1.
        -11    1    4    4    0    0  0.11850369054E-01 -0.78621518780E-02  0.57071081050E-01  0.58818484273E-01  0.51100000000E-03 0. -1.
         11    1    4    4    0    0  0.29085577130E-01  0.68607027961E-02  0.64344769241E-01  0.70947519263E-01  0.51100000000E-03 0.  1.
</event>
<event>
 8    1  0.1202249E+005  0.1043930E+01  0.7957747E-01            NaN
         13   -1    0    0    0    0  0.00000000000E+00  0.00000000000E+00  0.74505805969E-08  0.10566000000E+00  0.10566000000E+00 0.  1.
     999900   -1    0    0    0    0 -0.00000000000E+00 -0.00000000000E+00 -0.74505805969E-08  0.93827000000E+00  0.93827000000E+00 0. -1.
     999902    2    1    2    0    0 -0.27763278267E-02 -0.23386495156E-01  0.25540395864E-02  0.10202411995E+01  0.10199661494E+01 0.  0.
     999903    2    3    3    0    0 -0.12655066547E+00 -0.28671401569E-01  0.69504362689E-02  0.13155264594E+00  0.20510238676E-01 0.  0.
         14    1    1    2    0    0  0.27763278267E-02  0.23386495156E-01 -0.25540395864E-02  0.23688800521E-01  0.00000000000E+00 0. -1.
     999901    1    3    3    0    0  0.12377433764E+00  0.52849064131E-02 -0.43963966826E-02  0.88868855354E+00  0.88000000000E+00 0.  1.
        -11    1    4    4    0    0 -0.11437318613E+00 -0.22213947324E-01  0.11379207559E-01  0.11706593290E+00  0.51100000000E-03 0.  1.
         11    1    4    4    0    0 -0.12177479340E-01 -0.64574542452E-02 -0.44287712903E-02  0.14486713034E-01  0.51100000000E-03 0. -1.
</event>
<event>
 8    1  0.1202249E+005  0.1043930E+01  0.7957747E-01            NaN
         13   -1    0    0    0    0  0.00000000000E+00  0.00000000000E+00  0.74505805969E-08  0.10566000000E+00  0.10566000000E+00 0.  1.
     999900   -1    0    0    0    0 -0.00000000000E+00 -0.00000000000E+00 -0.74505805969E-08  0.93827000000E+00  0.93827000000E+00 0.  1.
     999902    2    1    2    0    0 -0.52155239271E-02  0.10006230884E-01 -0.21264184471E-01  0.10198573623E+01  0.10195732183E+01 0.  0.
     999903    2    3    3    0    0 -0.54868967743E-01  0.90795072859E-01  0.72190062979E-01  0.12984275686E+00  0.19833997044E-01 0.  0.
         14    1    1    2    0    0  0.52155239271E-02 -0.10006230884E-01  0.21264184471E-01  0.24072637736E-01  0.00000000000E+00 0.  1.
     999901    1    3    3    0    0  0.49653443816E-01 -0.80788841976E-01 -0.93454247450E-01  0.89001460541E+00  0.88000000000E+00 0.  1.
        -11    1    4    4    0    0 -0.17066281367E-01  0.46955951158E-01  0.31088529597E-01  0.58846215701E-01  0.51100000000E-03 0. -1.
         11    1    4    4    0    0 -0.37802686377E-01  0.43839121701E-01  0.41101533382E-01  0.70996541156E-01  0.51100000000E-03 0.  1.
</event>
<event>
 8    1  0.1202249E+005  0.1043930E+01  0.7957747E-01            NaN
         13   -1    0    0    0    0  0.00000000000E+00  0.00000000000E+00  0.74505805969E-08  0.10566000000E+00  0.10566000000E+00 0. -1.
     999900   -1    0    0    0    0 -0.00000000000E+00 -0.00000000000E+00 -0.74505805969E-08  0.93827000000E+00  0.93827000000E+00 0.  1.
     999902    2    1    2    0    0 -0.19134812959E-01 -0.10958641673E-01 -0.84630123449E-02  0.10203110357E+01  0.10200376239E+01 0.  0.
     999903    2    3    3    0    0 -0.45682239181E-01 -0.10933124190E+00 -0.57483396525E-01  0.13307660654E+00  0.19101175373E-01 0.  0.
         14    1    1    2    0    0  0.19134812959E-01  0.10958641673E-01  0.84630123449E-02  0.23618964250E-01  0.00000000000E+00 0. -1.
     999901    1    3    3    0    0  0.26547426222E-01  0.98372600223E-01  0.49020384180E-01  0.88723442921E+00  0.88000000000E+00 0. -1.
        -11    1    4    4    0    0 -0.25590928076E-01 -0.37427504822E-01 -0.20590622148E-01  0.49799081903E-01  0.51100000000E-03 0.  1.
         11    1    4    4    0    0 -0.20091311106E-01 -0.71903737073E-01 -0.36892774378E-01  0.83277524635E-01  0.51100000000E-03 0. -1.
</event>
<event>
 8    1  0.1202249E+005  0.1043930E+01  0.7957747E-01            NaN
         13   -1    0    0    0    0  0.00000000000E+00  0.00000000000E+00  0.74505805969E-08  0.10566000000E+00  0.10566000000E+00 0. -1.
     999900   -1    0    0    0    0 -0.00000000000E+00 -0.00000000000E+00 -0.74505805969E-08  0.93827000000E+00  0.93827000000E+00 0.  1.
     999902    2    1    2    0    0  0.20149385402E-01 -0.11585419647E-01  0.55193012078E-02  0.10200410409E+01  0.10197612675E+01 0.  0.
     999903    2    3    3    0    0 -0.10799462074E+00 -0.47436029629E-01 -0.46787750551E-01  0.12850182124E+00  0.20263500290E-01 0.  0.
         14    1    1    2    0    0 -0.20149385402E-01  0.11585419647E-01 -0.55193012078E-02  0.23888959087E-01  0.00000000000E+00 0.  1.
     999901    1    3    3    0    0  0.12814400615E+00  0.35850609982E-01  0.52307051759E-01  0.89153921967E+00  0.88000000000E+00 0. -1.
        -11    1    4    4    0    0 -0.83614891091E-01 -0.33981426332E-01 -0.26572592064E-01  0.94087996671E-01  0.51100000000E-03 0. -1.
         11    1    4    4    0    0 -0.24379729654E-01 -0.13454603298E-01 -0.20215158487E-01  0.34413824570E-01  0.51100000000E-03 0.  1.
</event>
<event>
 8    1  0.1202249E+005  0.1043930E+01  0.7957747E-01            NaN
         13   -1    0    0    0    0  0.00000000000E+00  0.00000000000E+00  0.74505805969E-08  0.10566000000E+00  0.10566000000E+00 0. -1.
     999900   -1    0    0    0    0 -0.00000000000E+00 -0.00000000000E+00 -0.74505805969E-08  0.93827000000E+00  0.93827000000E+00 0.  1.
     999902    2    1    2    0    0 -0.11599010385E-01 -0.91786644856E-02 -0.18886457942E-01  0.10199407687E+01  0.10196586137E+01 0.  0.
     999903    2    3    3    0    0 -0.88587789072E-01 -0.88244628928E-01  0.34532496346E-01  0.13144074990E+00  0.21195908147E-01 0.  0.
         14    1    1    2    0    0  0.11599010385E-01  0.91786644856E-02  0.18886457942E-01  0.23989231277E-01  0.00000000000E+00 0. -1.
     999901    1    3    3    0    0  0.76988778687E-01  0.79065964443E-01 -0.53418954288E-01  0.88850001883E+00  0.88000000000E+00 0.  1.
        -11    1    4    4    0    0 -0.26416267998E-01 -0.14423928618E-01  0.11436040775E-01  0.32201134783E-01  0.51100000000E-03 0.  1.
         11    1    4    4    0    0 -0.62171521074E-01 -0.73820700310E-01  0.23096455571E-01  0.99239615114E-01  0.51100000000E-03 0. -1.
</event>
<event>
 8    1  0.1202249E+005  0.1043930E+01  0.7957747E-01            NaN
         13   -1    0    0    0    0  0.00000000000E+00  0.00000000000E+00  0.74505805969E-08  0.10566000000E+00  0.10566000000E+00 0.  1.
     999900   -1    0    0    0    0 -0.00000000000E+00 -0.00000000000E+00 -0.74505805969E-08  0.93827000000E+00  0.93827000000E+00 0. -1.
     999902    2    1    2    0    0  0.18394337911E-01  0.10575252888E-01 -0.10556788609E-01  0.10202311936E+01  0.10199559083E+01 0.  0.
     999903    2    3    3    0    0  0.12583695651E-01  0.11425330280E+00  0.61580742588E-01  0.13119422864E+00  0.14407330569E-01 0.  0.
         14    1    1    2    0    0 -0.18394337911E-01 -0.10575252888E-01  0.10556788609E-01  0.23698806438E-01  0.00000000000E+00 0.  1.
     999901    1    3    3    0    0  0.58106422601E-02 -0.10367804991E+00 -0.72137531197E-01  0.88903696493E+00  0.88000000000E+00 0.  1.
        -11    1    4    4    0    0  0.18050125331E-02  0.20763076281E-01  0.17735301719E-01  0.27370886996E-01  0.51100000000E-03 0.  1.
         11    1    4    4    0    0  0.10778683118E-01  0.93490226514E-01  0.43845440868E-01  0.10382334164E+00  0.51100000000E-03 0. -1.
</event>
<event>
 8    1  0.1202249E+005  0.1043930E+01  0.7957747E-01            NaN
         13   -1    0    0    0    0  0.00000000000E+00  0.00000000000E+00  0.74505805969E-08  0.10566000000E+00  0.10566000000E+00 0.  1.
     999900   -1    0    0    0    0 -0.00000000000E+00 -0.00000000000E+00 -0.74505805969E-08  0.93827000000E+00  0.93827000000E+00 0.  1.
     999902    2    1    2    0    0 -0.15171191482E-01  0.15446990093E-02 -0.21198232353E-01  0.10178164748E+01  0.10174814298E+01 0.  0.
     999903    2    3    3    0    0 -0.21762152254E-02 -0.50791646182E-01 -0.11869470494E+00  0.13079137668E+00  0.20818837592E-01 0.  0.
         14    1    1    2    0    0  0.15171191482E-01 -0.15446990093E-02  0.21198232353E-01  0.26113525249E-01  0.00000000000E+00 0.  1.
     999901    1    3    3    0    0 -0.12994976257E-01  0.52336345191E-01  0.97496472589E-01  0.88702509807E+00  0.88000000000E+00 0. -1.
        -11    1    4    4    0    0  0.47509796814E-02 -0.45200823659E-01 -0.10540662975E+00  0.11478895846E+00  0.51100000000E-03 0.  1.
         11    1    4    4    0    0 -0.69271949068E-02 -0.55908225230E-02 -0.13288075191E-01  0.16002418225E-01  0.51100000000E-03 0. -1.
</event>
<event>
 8    1  0.1202249E+005  0.1043930E+01  0.7957747E-01            NaN
         13   -1    0    0    0    0  0.00000000000E+00  0.00000000000E+00  0.74505805969E-08  0.10566000000E+00  0.10566000000E+00 0. -1.
     999900   -1    0    0    0    0 -0.00000000000E+00 -0.00000000000E+00 -0.74505805969E-08  0.93827000000E+00  0.93827000000E+00 0. -1.
     999902    2    1    2    0    0  0.29562801405E-02  0.12053284018E-01 -0.19710507763E-01  0.10206378261E+01  0.10203720139E+01 0.  0.
     999903    2    3    3    0    0 -0.10145233230E+00 -0.49903422694E-01  0.60056176007E-01  0.12872834882E+00  0.13465369955E-01 0.  0.
         14    1    1    2    0    0 -0.29562801405E-02 -0.12053284018E-01  0.19710507763E-01  0.23292173882E-01  0.00000000000E+00 0. -1.
     999901    1    3    3    0    0  0.10440861244E+00  0.61956706712E-01 -0.79766683769E-01  0.89190947730E+00  0.88000000000E+00 0.  1.
        -11    1    4    4    0    0 -0.25401815189E-01 -0.67147471025E-02  0.11402185425E-01  0.28646308611E-01  0.51100000000E-03 0.  1.
         11    1    4    4    0    0 -0.76050517108E-01 -0.43188675592E-01  0.48653990581E-01  0.10008204021E+00  0.51100000000E-03 0. -1.
</event>
<event>
 8    1  0.1202249E+005  0.1043930E+01  0.7957747E-01            NaN
         13   -1    0    0    0    0  0.00000000000E+00  0.00000000000E+00  0.74505805969E-08  0.10566000000E+00  0.10566000000E+00 0. -1.
     999900   -1    0    0    0    0 -0.00000000000E+00 -0.00000000000E+00 -0.74505805969E-08  0.93827000000E+00  0.93827000000E+00 0.  1.
     999902    2    1    2    0    0  0.18552876567E-01  0.67074161799E-02 -0.16815542450E-01  0.10180077870E+01  0.10176776961E+01 0.  0.
     999903    2    3    3    0    0  0.37673708464E-01  0.11426335684E+00  0.42739735359E-01  0.12925544930E+00  0.20121211943E-01 0.  0.
         14    1    1    2    0    0 -0.18552876567E-01 -0.67074161799E-02  0.16815542450E-01  0.25922213034E-01  0.00000000000E+00 0. -1.
     999901    1    3    3    0    0 -0.19120831897E-01 -0.10755594066E+00 -0.59555277809E-01  0.88875233766E+00  0.88000000000E+00 0.  1.
        -11    1    4    4    0    0  0.15822730075E-01  0.21749652796E-01  0.83876052347E-02  0.28178346764E-01  0.51100000000E-03 0.  1.
         11    1    4    4    0    0  0.21850978388E-01  0.92513704045E-01  0.34352130124E-01  0.10107710254E+00  0.51100000000E-03 0. -1.
</event>
<event>
 8    1  0.1202249E+005  0.1043930E+01  0.7957747E-01            NaN
         13   -1    0    0    0    0  0.00000000000E+00  0.00000000000E+00  0.74505805969E-08  0.10566000000E+00  0.10566000000E+00 0.  1.
     999900   -1    0    0    0    0 -0.00000000000E+00 -0.00000000000E+00 -0.74505805969E-08  0.93827000000E+00  0.93827000000E+00 0.  1.
     999902    2    1    2    0    0  0.13954188181E-01 -0.21618859645E-01  0.10648363938E-02  0.10181767801E+01  0.10178510339E+01 0.  0.
     999903    2    3    3    0    0  0.87874612201E-01  0.39771679217E-01 -0.83421928496E-01  0.12892369979E+00  0.18930617428E-01 0.  0.
         14    1    1    2    0    0 -0.13954188181E-01  0.21618859645E-01 -0.10648363938E-02  0.25753219928E-01  0.00000000000E+00 0. -1.
     999901    1    3    3    0    0 -0.73920424020E-01 -0.61390538862E-01  0.84486764890E-01  0.88925308028E+00  0.88000000000E+00 0.  1.
        -11    1    4    4    0    0  0.47868670469E-01  0.28803716186E-01 -0.56562337266E-01  0.79502344598E-01  0.51100000000E-03 0.  1.
         11    1    4    4    0    0  0.40005941733E-01  0.10967963032E-01 -0.26859591230E-01  0.49421355192E-01  0.51100000000E-03 0. -1.
</event>
<event>
 8    1  0.1202249E+005  0.1043930E+01  0.7957747E-01            NaN
         13   -1    0    0    0    0  0.00000000000E+00  0.00000000000E+00  0.74505805969E-08  0.10566000000E+00  0.10566000000E+00 0. -1.
     999900   -1    0    0    0    0 -0.00000000000E+00 -0.00000000000E+00 -0.74505805969E-08  0.93827000000E+00  0.93827000000E+00 0.  1.
     999902    2    1    2    0    0 -0.15020447308E-02  0.19609201556E-01 -0.69222042643E-02  0.10230806874E+01  0.10228682218E+01 0.  0.
     999903    2    3    3    0    0 -0.85008526849E-01  0.10057369956E-01 -0.10115521976E+00  0.13406750907E+00  0.20349893746E-01 0.  0.
         14    1    1    2    0    0  0.15020447308E-02 -0.19609201556E-01  0.69222042643E-02  0.20849312600E-01  0.00000000000E+00 0. -1.
     999901    1    3    3    0    0  0.83506482118E-01  0.95518315995E-02  0.94233015493E-01  0.88901317833E+00  0.88000000000E+00 0. -1.
        -11    1    4    4    0    0 -0.12029228559E-01 -0.53721297524E-02 -0.12057659086E-01  0.17866459678E-01  0.51100000000E-03 0. -1.
         11    1    4    4    0    0 -0.72979298290E-01  0.15429499709E-01 -0.89097560671E-01  0.11620104939E+00  0.51100000000E-03 0.  1.
</event>
<event>
 8    1  0.1202249E+005  0.1043930E+01  0.7957747E-01            NaN
         13   -1    0    0    0    0  0.00000000000E+00  0.00000000000E+00  0.74505805969E-08  0.10566000000E+00  0.10566000000E+00 0. -1.
     999900   -1    0    0    0    0 -0.00000000000E+00 -0.00000000000E+00 -0.74505805969E-08  0.93827000000E+00  0.93827000000E+00 0.  1.
     999902    2    1    2    0    0  0.36424571259E-03 -0.19479542841E-01 -0.12142720409E-01  0.10209728459E+01  0.10207147110E+01 0.  0.
     999903    2    3    3    0    0 -0.77190160728E-01  0.51735360592E-01 -0.90461819023E-01  0.13124247686E+00  0.20158833864E-01 0.  0.
         14    1    1    2    0    0 -0.36424571259E-03  0.19479542841E-01  0.12142720409E-01  0.22957154074E-01  0.00000000000E+00 0. -1.
     999901    1    3    3    0    0  0.77554406440E-01 -0.71214903433E-01  0.78319098614E-01  0.88973036907E+00  0.88000000000E+00 0. -1.
        -11    1    4    4    0    0 -0.27781055169E-01  0.89168467751E-02 -0.34447576340E-01  0.45146359980E-01  0.51100000000E-03 0.  1.
         11    1    4    4    0    0 -0.49409105559E-01  0.42818513817E-01 -0.56014242683E-01  0.86096116881E-01  0.51100000000E-03 0. -1.
</event>
<event>
 8    1  0.1202249E+005  0.1043930E+01  0.7957747E-01            NaN
         13   -1    0    0    0    0  0.00000000000E+00  0.00000000000E+00  0.74505805969E-08  0.10566000000E+00  0.10566000000E+00 0. -1.
     999900   -1    0    0    0    0 -0.00000000000E+00 -0.00000000000E+00 -0.74505805969E-08  0.93827000000E+00  0.93827000000E+00 0. -1.
     999902    2    1    2    0    0  0.14168781999E-01 -0.10882638977E-01  0.15499137386E-01  0.10202781613E+01  0.10200039789E+01 0.  0.
     999903    2    3    3    0    0  0.46079455230E-01 -0.19697911445E-01 -0.11791506565E+00  0.12960686970E+00  0.19561545381E-01 0.  0.
         14    1    1    2    0    0 -0.14168781999E-01  0.10882638977E-01 -0.15499137386E-01  0.23651838705E-01  0.00000000000E+00 0.  1.
     999901    1    3    3    0    0 -0.31910673231E-01  0.88152724676E-02  0.13341420303E+00  0.89067129159E+00  0.88000000000E+00 0.  1.
        -11    1    4    4    0    0  0.19533355291E-01 -0.17095681060E-01 -0.44838123856E-01  0.51812476796E-01  0.51100000000E-03 0.  1.
         11    1    4    4    0    0  0.26546099939E-01 -0.26022303845E-02 -0.73076941793E-01  0.77794392907E-01  0.51100000000E-03 0. -1.
</event>
<event>
 8    1  0.1202249E+005  0.1043930E+01  0.7957747E-01            NaN
         13   -1    0    0    0    0  0.00000000000E+00  0.00000000000E+00  0.74505805969E-08  0.10566000000E+00  0.10566000000E+00 0.  1.
     999900   -1    0    0    0    0 -0.00000000000E+00 -0.00000000000E+00 -0.74505805969E-08  0.93827000000E+00  0.93827000000E+00 0.  1.
     999902    2    1    2    0    0 -0.17399582405E-01 -0.24273433093E-02  0.14031787057E-01  0.10214460388E+01  0.10211985515E+01 0.  0.
     999903    2    3    3    0    0 -0.26839722040E-01 -0.12150927825E+00  0.40786004994E-01  0.13297239730E+00  0.23092961266E-01 0.  0.
         14    1    1    2    0    0  0.17399582405E-01  0.24273433093E-02 -0.14031787057E-01  0.22483961204E-01  0.00000000000E+00 0. -1.
     999901    1    3    3    0    0  0.94401396346E-02  0.11908193494E+00 -0.26754217938E-01  0.88847364150E+00  0.88000000000E+00 0.  1.
        -11    1    4    4    0    0 -0.11450568158E-01 -0.81378468726E-01  0.36008789024E-01  0.89724381811E-01  0.51100000000E-03 0.  1.
         11    1    4    4    0    0 -0.15389153882E-01 -0.40130809519E-01  0.47772159702E-02  0.43248015484E-01  0.51100000000E-03 0. -1.
</event>
<event>
 8    1  0.1202249E+005  0.1043930E+01  0.7957747E-01            NaN
         13   -1    0    0    0    0  0.00000000000E+00  0.00000000000E+00  0.74505805969E-08  0.10566000000E+00  0.10566000000E+00 0. -1.
     999900   -1    0    0    0    0 -0.00000000000E+00 -0.00000000000E+00 -0.74505805969E-08  0.93827000000E+00  0.93827000000E+00 0.  1.
     999902    2    1    2    0    0  0.14831892177E-01  0.18790450696E-01  0.78059085180E-02  0.10187506777E+01  0.10184394656E+01 0.  0.
     999903    2    3    3    0    0 -0.82333790696E-01 -0.62548105937E-01 -0.70326039827E-01  0.12624760653E+00  0.17366278534E-01 0.  0.
         14    1    1    2    0    0 -0.14831892177E-01 -0.18790450696E-01 -0.78059085180E-02  0.25179322285E-01  0.00000000000E+00 0.  1.
     999901    1    3    3    0    0  0.97165682873E-01  0.81338556633E-01  0.78131948345E-01  0.89250307119E+00  0.88000000000E+00 0. -1.
        -11    1    4    4    0    0 -0.76725033218E-01 -0.59355395654E-01 -0.60005326243E-01  0.11406442922E+00  0.51100000000E-03 0. -1.
         11    1    4    4    0    0 -0.56087574781E-02 -0.31927102827E-02 -0.10320713584E-01  0.12183177306E-01  0.51100000000E-03 0.  1.
</event>
<event>
 8    1  0.1202249E+005  0.1043930E+01  0.7957747E-01            NaN
         13   -1    0    0    0    0  0.00000000000E+00  0.00000000000E+00  0.74505805969E-08  0.10566000000E+00  0.10566000000E+00 0.  1.
     999900   -1    0    0    0    0 -0.00000000000E+00 -0.00000000000E+00 -0.74505805969E-08  0.93827000000E+00  0.93827000000E+00 0. -1.
     999902    2    1    2    0    0  0.15793176321E-01 -0.88495474266E-02  0.24932657935E-01  0.10131180488E+01  0.10126493985E+01 0.  0.
     999903    2    3    3    0    0  0.11544005498E+00  0.16563078518E-01  0.40148845831E-01  0.12699907573E+00  0.30267037333E-01 0.  0.
         14    1    1    2    0    0 -0.15793176321E-01  0.88495474266E-02 -0.24932657935E-01  0.30811951248E-01  0.00000000000E+00 0. -1.
     999901    1    3    3    0    0 -0.99646878663E-01 -0.25412625944E-01 -0.15216187896E-01  0.88611897303E+00  0.88000000000E+00 0.  1.
        -11    1    4    4    0    0  0.79890383859E-01  0.70132299576E-02  0.41215493154E-01  0.90170043942E-01  0.51100000000E-03 0.  1.
         11    1    4    4    0    0  0.35549671125E-01  0.95498485601E-02 -0.10666473227E-02  0.36829031783E-01  0.51100000000E-03 0. -1.
</event>
<event>
 8    1  0.1202249E+005  0.1043930E+01  0.7957747E-01            NaN
         13   -1    0    0    0    0  0.00000000000E+00  0.00000000000E+00  0.74505805969E-08  0.10566000000E+00  0.10566000000E+00 0. -1.
     999900   -1    0    0    0    0 -0.00000000000E+00 -0.00000000000E+00 -0.74505805969E-08  0.93827000000E+00  0.93827000000E+00 0. -1.
     999902    2    1    2    0    0  0.15578800310E-01  0.13280150884E-01 -0.14865454279E-01  0.10186309258E+01  0.10183167090E+01 0.  0.
     999903    2    3    3    0    0  0.29618490570E-01 -0.87877231638E-02  0.12179840891E+00  0.12769820357E+00  0.22748620129E-01 0.  0.
         14    1    1    2    0    0 -0.15578800310E-01 -0.13280150884E-01  0.14865454279E-01  0.25299074243E-01  0.00000000000E+00 0. -1.
     999901    1    3    3    0    0 -0.14039690259E-01  0.22067874048E-01 -0.13666386319E+00  0.89093272219E+00  0.88000000000E+00 0. -1.
        -11    1    4    4    0    0  0.29153303057E-01 -0.13856808576E-01  0.92873159641E-01  0.98324010932E-01  0.51100000000E-03 0. -1.
         11    1    4    4    0    0  0.46518751240E-03  0.50690854126E-02  0.28925249273E-01  0.29374192633E-01  0.51100000000E-03 0.  1.
</event>
<event>
 8    1  0.1202249E+005  0.1043930E+01  0.7957747E-01            NaN
         13   -1    0    0    0    0  0.00000000000E+00  0.00000000000E+00  0.74505805969E-08  0.10566000000E+00  0.10566000000E+00 0.  1.
     999900   -1    0    0    0    0 -0.00000000000E+00 -0.00000000000E+00 -0.74505805969E-08  0.93827000000E+00  0.93827000000E+00 0.  1.
     999902    2    1    2    0    0 -0.16786291705E-01  0.91037378373E-02 -0.14629165303E-01  0.10198744370E+01  0.10195907008E+01 0.  0.
     999903    2    3    3    0    0 -0.12251323565E+00  0.30412570817E-01  0.33023674997E-01  0.13201011958E+00  0.20042235049E-01 0.  0.
         14    1    1    2    0    0  0.16786291705E-01 -0.91037378373E-02  0.14629165303E-01  0.24055562959E-01  0.00000000000E+00 0.  1.
     999901    1    3    3    0    0  0.10572694395E+00 -0.21308832980E-01 -0.47652840300E-01  0.88786431747E+00  0.88000000000E+00 0.  1.
        -11    1    4    4    0    0 -0.64818280780E-01  0.77761396754E-02  0.23045611819E-01  0.69233223358E-01  0.51100000000E-03 0. -1.
         11    1    4    4    0    0 -0.57694954875E-01  0.22636431142E-01  0.99780631781E-02  0.62776896217E-01  0.51100000000E-03 0.  1.
</event>
<event>
 8    1  0.1202249E+005  0.1043930E+01  0.7957747E-01            NaN
         13   -1    0    0    0    0  0.00000000000E+00  0.00000000000E+00  0.74505805969E-08  0.10566000000E+00  0.10566000000E+00 0.  1.
     999900   -1    0    0    0    0 -0.00000000000E+00 -0.00000000000E+00 -0.74505805969E-08  0.93827000000E+00  0.93827000000E+00 0.  1.
     999902    2    1    2    0    0 -0.14523307954E-01  0.38464712250E-02  0.12654762481E-01  0.10242865576E+01  0.10240981825E+01 0.  0.
     999903    2    3    3    0    0 -0.15893330765E-01 -0.62143287859E-01  0.11777238435E+00  0.13557612127E+00  0.19903867820E-01 0.  0.
         14    1    1    2    0    0  0.14523307954E-01 -0.38464712250E-02 -0.12654762481E-01  0.19643442373E-01  0.00000000000E+00 0. -1.
     999901    1    3    3    0    0  0.13700228116E-02  0.65989759084E-01 -0.10511762187E+00  0.88871043636E+00  0.88000000000E+00 0.  1.
        -11    1    4    4    0    0  0.45024531779E-02 -0.12611433252E-01  0.27857618951E-01  0.30913239686E-01  0.51100000000E-03 0. -1.
         11    1    4    4    0    0 -0.20395783943E-01 -0.49531854607E-01  0.89914765398E-01  0.10466288158E+00  0.51100000000E-03 0.  1.
</event>
<event>
 8    1  0.1202249E+005  0.1043930E+01  0.7957747E-01            NaN
         13   -1    0    0    0    0  0.00000000000E+00  0.00000000000E+00  0.74505805969E-08  0.10566000000E+00  0.10566000000E+00 0. -1.
     999900   -1    0    0    0    0 -0.00000000000E+00 -0.00000000000E+00 -0.74505805969E-08  0.93827000000E+00  0.93827000000E+00 0. -1.
     999902    2    1    2    0    0  0.18050345962E-01 -0.14825532816E-01 -0.66790167139E-02  0.10196355423E+01  0.10193460739E+01 0.  0.
     999903    2    3    3    0    0  0.52415832603E-01 -0.12007710655E+00 -0.10832526260E-01  0.13268789325E+00  0.17966701544E-01 0.  0.
         14    1    1    2    0    0 -0.18050345962E-01  0.14825532816E-01  0.66790167139E-02  0.24294457740E-01  0.00000000000E+00 0. -1.
     999901    1    3    3    0    0 -0.34365486641E-01  0.10525157374E+00  0.41535095460E-02  0.88694764901E+00  0.88000000000E+00 0.  1.
        -11    1    4    4    0    0  0.26315617331E-01 -0.65960444047E-01  0.28135317516E-02  0.71073686948E-01  0.51100000000E-03 0.  1.
         11    1    4    4    0    0  0.26100215273E-01 -0.54116662503E-01 -0.13646058012E-01  0.61614206301E-01  0.51100000000E-03 0. -1.
</event>
<event>
 8    1  0.1202249E+005  0.1043930E+01  0.7957747E-01            NaN
         13   -1    0    0    0    0  0.00000000000E+00  0.00000000000E+00  0.74505805969E-08  0.10566000000E+00  0.10566000000E+00 0. -1.
     999900   -1    0    0    0    0 -0.00000000000E+00 -0.00000000000E+00 -0.74505805969E-08  0.93827000000E+00  0.93827000000E+00 0.  1.
     999902    2    1    2    0    0 -0.86850556878E-02  0.22206245066E-01 -0.88873976953E-02  0.10184833234E+01  0.10181653828E+01 0.  0.
     999903    2    3    3    0    0  0.28055483259E-02 -0.61937264463E-01  0.10843125231E+00  0.12664486840E+00  0.20916270809E-01 0.  0.
         14    1    1    2    0    0  0.86850556878E-02 -0.22206245066E-01  0.88873976953E-02  0.25446676601E-01  0.00000000000E+00 0. -1.
     999901    1    3    3    0    0 -0.11490604014E-01  0.84143509529E-01 -0.11731865000E+00  0.89183845500E+00  0.88000000000E+00 0.  1.
        -11    1    4    4    0    0 -0.20568466636E-03 -0.62019830827E-01  0.99947139307E-01  0.11762735013E+00  0.51100000000E-03 0.  1.
         11    1    4    4    0    0  0.30112329923E-02  0.82566364596E-04  0.84841130005E-02  0.90175182697E-02  0.51100000000E-03 0. -1.
</event>
<event>
 8    1  0.1202249E+005  0.1043930E+01  0.7957747E-01            NaN
         13   -1    0    0    0    0  0.00000000000E+00  0.00000000000E+00  0.74505805969E-08  0.10566000000E+00  0.10566000000E+00 0.  1.
     999900   -1    0    0    0    0 -0.00000000000E+00 -0.00000000000E+00 -0.74505805969E-08  0.93827000000E+00  0.93827000000E+00 0. -1.
     999902    2    1    2    0    0  0.12254620871E-02 -0.10895677460E-01  0.20128958360E-01  0.10210085579E+01  0.10207512345E+01 0.  0.
     999903    2    3    3    0    0  0.18983093004E-01 -0.54593097240E-01 -0.11426284770E+00  0.12955695768E+00  0.19703878622E-01 0.  0.
         14    1    1    2    0    0 -0.12254620871E-02  0.10895677460E-01 -0.20128958360E-01  0.22921442130E-01  0.00000000000E+00 0. -1.
     999901    1    3    3    0    0 -0.17757630917E-01  0.43697419780E-01  0.13439180606E+00  0.89145160019E+00  0.88000000000E+00 0.  1.
        -11    1    4    4    0    0  0.28383600964E-02 -0.34503352006E-01 -0.55892187182E-01  0.65747511715E-01  0.51100000000E-03 0. -1.
         11    1    4    4    0    0  0.16144732907E-01 -0.20089745234E-01 -0.58370660514E-01  0.63809445962E-01  0.51100000000E-03 0.  1.
</event>
<event>
 8    1  0.1202249E+005  0.1043930E+01  0.7957747E-01            NaN
         13   -1    0    0    0    0  0.00000000000E+00  0.00000000000E+00  0.74505805969E-08  0.10566000000E+00  0.10566000000E+00 0.  1.
     999900   -1    0    0    0    0 -0.00000000000E+00 -0.00000000000E+00 -0.74505805969E-08  0.93827000000E+00  0.93827000000E+00 0.  1.
     999902    2    1    2    0    0  0.22359437411E-01  0.12026924962E-01 -0.58195212489E-02  0.10178827700E+01  0.10175494461E+01 0.  0.
     999903    2    3    3    0    0  0.43343168887E-01 -0.30206693659E-01 -0.11671264076E+00  0.12967036322E+00  0.20037164299E-01 0.  0.
         14    1    1    2    0    0 -0.22359437411E-01 -0.12026924962E-01  0.58195212489E-02  0.26047230044E-01  0.00000000000E+00 0.  1.
     999901    1    3    3    0    0 -0.20983731476E-01  0.42233618622E-01  0.11089311951E+00  0.88821240674E+00  0.88000000000E+00 0. -1.
        -11    1    4    4    0    0  0.20438669407E-01 -0.95483894860E-02 -0.29352504207E-01  0.37023527292E-01  0.51100000000E-03 0. -1.
         11    1    4    4    0    0  0.22904499479E-01 -0.20658304173E-01 -0.87360136552E-01  0.92646835926E-01  0.51100000000E-03 0.  1.
</event>
<event>
 8    1  0.1202249E+005  0.1043930E+01  0.7957747E-01            NaN
         13   -1    0    0    0    0  0.00000000000E+00  0.00000000000E+00  0.74505805969E-08  0.10566000000E+00  0.10566000000E+00 0.  1.
     999900   -1    0    0    0    0 -0.00000000000E+00 -0.00000000000E+00 -0.74505805969E-08  0.93827000000E+00  0.93827000000E+00 0.  1.
     999902    2    1    2    0    0 -0.11932442839E-01  0.58433101194E-02  0.20756573895E-01  0.10192852678E+01  0.10189872886E+01 0.  0.
     999903    2    3    3    0    0  0.92720139383E-01 -0.80843499104E-01 -0.27562318066E-01  0.12754456492E+00  0.19371088467E-01 0.  0.
         14    1    1    2    0    0  0.11932442839E-01 -0.58433101194E-02 -0.20756573895E-01  0.24644732198E-01  0.00000000000E+00 0. -1.
     999901    1    3    3    0    0 -0.10465258222E+00  0.86686809223E-01  0.48318891961E-01  0.89174070288E+00  0.88000000000E+00 0. -1.
        -11    1    4    4    0    0  0.56279049391E-01 -0.55621747758E-01 -0.25650141079E-01  0.83182336360E-01  0.51100000000E-03 0. -1.
         11    1    4    4    0    0  0.36441089992E-01 -0.25221751346E-01 -0.19121769865E-02  0.44362228557E-01  0.51100000000E-03 0.  1.
</event>
<event>
 8    1  0.1202249E+005  0.1043930E+01  0.7957747E-01            NaN
         13   -1    0    0    0    0  0.00000000000E+00  0.00000000000E+00  0.74505805969E-08  0.10566000000E+00  0.10566000000E+00 0.  1.
     999900   -1    0    0    0    0 -0.00000000000E+00 -0.00000000000E+00 -0.74505805969E-08  0.93827000000E+00  0.93827000000E+00 0.  1.
     999902    2    1    2    0    0 -0.93831682200E-02  0.11637586589E-01  0.17530878215E-01  0.10208907084E+01  0.10206307018E+01 0.  0.
     999903    2    3    3    0    0 -0.52339610294E-01  0.76834440008E-01  0.94353326269E-01  0.13410010506E+00  0.20912245733E-01 0.  0.
         14    1    1    2    0    0  0.93831682200E-02 -0.11637586589E-01 -0.17530878215E-01  0.23039291622E-01  0.00000000000E+00 0. -1.
     999901    1    3    3    0    0  0.42956442074E-01 -0.65196853419E-01 -0.76822448054E-01  0.88679060332E+00  0.88000000000E+00 0.  1.
        -11    1    4    4    0    0 -0.69687127217E-02  0.26940187307E-01  0.28771996002E-01  0.40030307569E-01  0.51100000000E-03 0.  1.
         11    1    4    4    0    0 -0.45370897572E-01  0.49894252701E-01  0.65581330267E-01  0.94069797490E-01  0.51100000000E-03 0. -1.
</event>
<event>
 8    1  0.1202249E+005  0.1043930E+01  0.7957747E-01            NaN
         13   -1    0    0    0    0  0.00000000000E+00  0.00000000000E+00  0.74505805969E-08  0.10566000000E+00  0.10566000000E+00 0.  1.
     999900   -1    0    0    0    0 -0.00000000000E+00 -0.00000000000E+00 -0.74505805969E-08  0.93827000000E+00  0.93827000000E+00 0. -1.
     999902    2    1    2    0    0  0.23406530194E-01 -0.41429378666E-02 -0.14622297021E-02  0.10201147170E+01  0.10198366870E+01 0.  0.
     999903    2    3    3    0    0  0.13124323483E+00 -0.47007925084E-02  0.11605457294E-01  0.13343561464E+00  0.20578932844E-01 0.  0.
         14    1    1    2    0    0 -0.23406530194E-01  0.41429378666E-02  0.14622297021E-02  0.23815283025E-01  0.00000000000E+00 0. -1.
     999901    1    3    3    0    0 -0.10783670464E+00  0.55785464175E-03 -0.13067686996E-01  0.88667910233E+00  0.88000000000E+00 0.  1.
        -11    1    4    4    0    0  0.22975949247E-01 -0.35693732268E-02  0.95503828952E-02  0.25141710433E-01  0.51100000000E-03 0.  1.
         11    1    4    4    0    0  0.10826728558E+00 -0.11314192816E-02  0.20550743989E-02  0.10829390421E+00  0.51100000000E-03 0. -1.
</event>
<event>
 8    1  0.1202249E+005  0.1043930E+01  0.7957747E-01            NaN
         13   -1    0    0    0    0  0.00000000000E+00  0.00000000000E+00  0.74505805969E-08  0.10566000000E+00  0.10566000000E+00 0.  1.
     999900   -1    0    0    0    0 -0.00000000000E+00 -0.00000000000E+00 -0.74505805969E-08  0.93827000000E+00  0.93827000000E+00 0.  1.
     999902    2    1    2    0    0  0.55770811503E-02 -0.21763056888E-01 -0.77287953918E-02  0.10201714488E+01  0.10198947574E+01 0.  0.
     999903    2    3    3    0    0 -0.10009329468E+00  0.95082414684E-02  0.78351365554E-01  0.12913053132E+00  0.20656314732E-01 0.  0.
         14    1    1    2    0    0 -0.55770811503E-02  0.21763056888E-01  0.77287953918E-02  0.23758551250E-01  0.00000000000E+00 0.  1.
     999901    1    3    3    0    0  0.10567037583E+00 -0.31271298356E-01 -0.86080160946E-01  0.89104091743E+00  0.88000000000E+00 0.  1.
        -11    1    4    4    0    0 -0.13446988197E-01 -0.47848266125E-02  0.66304196457E-02  0.15746099294E-01  0.51100000000E-03 0.  1.
         11    1    4    4    0    0 -0.86646306485E-01  0.14293068081E-01  0.71720945909E-01  0.11338443203E+00  0.51100000000E-03 0. -1.
</event>
<event>
 8    1  0.1202249E+005  0.1043930E+01  0.7957747E-01            NaN
         13   -1    0    0    0    0  0.00000000000E+00  0.00000000000E+00  0.74505805969E-08  0.10566000000E+00  0.10566000000E+00 0.  1.
     999900   -1    0    0    0    0 -0.00000000000E+00 -0.00000000000E+00 -0.74505805969E-08  0.93827000000E+00  0.93827000000E+00 0.  1.
     999902    2    1    2    0    0  0.71324139644E-02 -0.19683150786E-02 -0.23332099205E-01  0.10194528178E+01  0.10191589255E+01 0.  0.
     999903    2    3    3    0    0 -0.11591705910E+00 -0.31376118857E-01  0.40495709219E-01  0.12811675278E+00  0.18782290946E-01 0.  0.
         14    1    1    2    0    0 -0.71324139644E-02  0.19683150786E-02  0.23332099205E-01  0.24477182161E-01  0.00000000000E+00 0.  1.
     999901    1    3    3    0    0  0.12304947306E+00  0.29407803778E-01 -0.63827808424E-01  0.89133606506E+00  0.88000000000E+00 0.  1.
        -11    1    4    4    0    0 -0.69461182206E-01 -0.95313917714E-02  0.20854359027E-01  0.73149632083E-01  0.51100000000E-03 0.  1.
         11    1    4    4    0    0 -0.46455876895E-01 -0.21844727086E-01  0.19641350192E-01  0.54967120698E-01  0.51100000000E-03 0. -1.
</event>
<event>
 8    1  0.1202249E+005  0.1043930E+01  0.7957747E-01            NaN
         13   -1    0    0    0    0  0.00000000000E+00  0.00000000000E+00  0.74505805969E-08  0.10566000000E+00  0.10566000000E+00 0. -1.
     999900   -1    0    0    0    0 -0.00000000000E+00 -0.00000000000E+00 -0.74505805969E-08  0.93827000000E+00  0.93827000000E+00 0.  1.
     999902    2    1    2    0    0 -0.16379283504E-01  0.14301420555E-01 -0.92478929066E-02  0.10203008849E+01  0.10200272352E+01 0.  0.
     999903    2    3    3    0    0  0.30660419861E-01 -0.81603256634E-01  0.92026814724E-01  0.12807501258E+00  0.18306320766E-01 0.  0.
         14    1    1    2    0    0  0.16379283504E-01 -0.14301420555E-01  0.92478929066E-02  0.23629115117E-01  0.00000000000E+00 0. -1.
     999901    1    3    3    0    0 -0.47039703365E-01  0.95904677189E-01 -0.10127470763E+00  0.89222587230E+00  0.88000000000E+00 0.  1.
        -11    1    4    4    0    0  0.25071916723E-01 -0.40943303379E-01  0.50839942355E-01  0.69927934043E-01  0.51100000000E-03 0. -1.
         11    1    4    4    0    0  0.55885031377E-02 -0.40659953255E-01  0.41186872369E-01  0.58147078539E-01  0.51100000000E-03 0.  1.
</event>
<event>
 8    1  0.1202249E+005  0.1043930E+01  0.7957747E-01            NaN
         13   -1    0    0    0    0  0.00000000000E+00  0.00000000000E+00  0.74505805969E-08  0.10566000000E+00  0.10566000000E+00 0. -1.
     999900   -1    0    0    0    0 -0.00000000000E+00 -0.00000000000E+00 -0.74505805969E-08  0.93827000000E+00  0.93827000000E+00 0.  1.
     999902    2    1    2    0    0  0.17806690092E-01 -0.15418543349E-01  0.10264187588E-01  0.10182363580E+01  0.10179121365E+01 0.  0.
     999903    2    3    3    0    0 -0.93697808589E-01 -0.84765804448E-01 -0.91288232093E-02  0.12828221049E+00  0.20210620407E-01 0.  0.
         14    1    1    2    0    0 -0.17806690092E-01  0.15418543349E-01 -0.10264187588E-01  0.25693641973E-01  0.00000000000E+00 0. -1.
     999901    1    3    3    0    0  0.11150449868E+00  0.69347261099E-01  0.19393010797E-01  0.88995414754E+00  0.88000000000E+00 0. -1.
        -11    1    4    4    0    0 -0.67448061601E-01 -0.66462618505E-01  0.10458483945E-02  0.94698867956E-01  0.51100000000E-03 0. -1.
         11    1    4    4    0    0 -0.26249746988E-01 -0.18303185943E-01 -0.10174671604E-01  0.33583342535E-01  0.51100000000E-03 0.  1.
</event>
<event>
 8    1  0.1202249E+005  0.1043930E+01  0.7957747E-01            NaN
         13   -1    0    0    0    0  0.00000000000E+00  0.00000000000E+00  0.74505805969E-08  0.10566000000E+00  0.10566000000E+00 0. -1.
     999900   -1    0    0    0    0 -0.00000000000E+00 -0.00000000000E+00 -0.74505805969E-08  0.93827000000E+00  0.93827000000E+00 0. -1.
     999902    2    1    2    0    0  0.45160551986E-02  0.15878884835E-01 -0.40502775764E-02  0.10269318093E+01  0.10267911192E+01 0.  0.
     999903    2    3    3    0    0 -0.26908847885E-01  0.39090758549E-01  0.12633001700E+00  0.13646825766E+00  0.20301198362E-01 0.  0.
         14    1    1    2    0    0 -0.45160551986E-02 -0.15878884835E-01  0.40502775764E-02  0.16998190687E-01  0.00000000000E+00 0.  1.
     999901    1    3    3    0    0  0.31424903084E-01 -0.23211873714E-01 -0.13038029457E+00  0.89046355166E+00  0.88000000000E+00 0. -1.
        -11    1    4    4    0    0 -0.29200942922E-01  0.28720492107E-01  0.98617632545E-01  0.10678604920E+00  0.51100000000E-03 0. -1.
         11    1    4    4    0    0  0.22920950365E-02  0.10370266442E-01  0.27712384453E-01  0.29682208455E-01  0.51100000000E-03 0.  1.
</event>
<event>
 8    1  0.1202249E+005  0.1043930E+01  0.7957747E-01            NaN
         13   -1    0    0    0    0  0.00000000000E+00  0.00000000000E+00  0.74505805969E-08  0.10566000000E+00  0.10566000000E+00 0.  1.
     999900   -1    0    0    0    0 -0.00000000000E+00 -0.00000000000E+00 -0.74505805969E-08  0.93827000000E+00  0.93827000000E+00 0.  1.
     999902    2    1    2    0    0 -0.17709685922E-01  0.16176318018E-01 -0.16185047799E-02  0.10198899127E+01  0.10196065458E+01 0.  0.
     999903    2    3    3    0    0 -0.30088608802E-02  0.10430649530E-02  0.12849957758E+00  0.13007204090E+00  0.19911131472E-01 0.  0.
         14    1    1    2    0    0  0.17709685922E-01 -0.16176318018E-01  0.16185047799E-02  0.24040087308E-01  0.00000000000E+00 0.  1.
     999901    1    3    3    0    0 -0.14700825042E-01  0.15133253065E-01 -0.13011808236E+00  0.88981787179E+00  0.88000000000E+00 0.  1.
        -11    1    4    4    0    0  0.24117106020E-02 -0.84752562871E-02  0.45192702890E-01  0.46046583290E-01  0.51100000000E-03 0.  1.
         11    1    4    4    0    0 -0.54205714821E-02  0.95183212402E-02  0.83306874692E-01  0.84025457609E-01  0.51100000000E-03 0. -1.
</event>
<event>
 8    1  0.1202249E+005  0.1043930E+01  0.7957747E-01            NaN
         13   -1    0    0    0    0  0.00000000000E+00  0.00000000000E+00  0.74505805969E-08  0.10566000000E+00  0.10566000000E+00 0.  1.
     999900   -1    0    0    0    0 -0.00000000000E+00 -0.00000000000E+00 -0.74505805969E-08  0.93827000000E+00  0.93827000000E+00 0.  1.
     999902    2    1    2    0    0  0.11564742846E-01 -0.23305322546E-02 -0.20725663055E-01  0.10200819861E+01  0.10198031823E+01 0.  0.
     999903    2    3    3    0    0  0.94699222017E-01  0.55157277539E-01  0.66746878466E-01  0.12998781388E+00  0.20770605605E-01 0.  0.
         14    1    1    2    0    0 -0.11564742846E-01  0.23305322546E-02  0.20725663055E-01  0.23848013895E-01  0.00000000000E+00 0.  1.
     999901    1    3    3    0    0 -0.83134479171E-01 -0.57487809794E-01 -0.87472541520E-01  0.89009417222E+00  0.88000000000E+00 0.  1.
        -11    1    4    4    0    0  0.41750762765E-01  0.31646583276E-01  0.22178438087E-01  0.56892676694E-01  0.51100000000E-03 0.  1.
         11    1    4    4    0    0  0.52948459252E-01  0.23510694264E-01  0.44568440379E-01  0.73095137190E-01  0.51100000000E-03 0. -1.
</event>
<event>
 8    1  0.1202249E+005  0.1043930E+01  0.7957747E-01            NaN
         13   -1    0    0    0    0  0.00000000000E+00  0.00000000000E+00  0.74505805969E-08  0.10566000000E+00  0.10566000000E+00 0.  1.
     999900   -1    0    0    0    0 -0.00000000000E+00 -0.00000000000E+00 -0.74505805969E-08  0.93827000000E+00  0.93827000000E+00 0. -1.
     999902    2    1    2    0    0  0.44492104314E-02 -0.23336626170E-01 -0.20143126670E-02  0.10200877885E+01  0.10198091219E+01 0.  0.
     999903    2    3    3    0    0 -0.72829424167E-01  0.10076967342E+00 -0.20960025584E-01  0.12782476616E+00  0.21004667749E-01 0.  0.
         14    1    1    2    0    0 -0.44492104314E-02  0.23336626170E-01  0.20143126670E-02  0.23842211516E-01  0.00000000000E+00 0.  1.
     999901    1    3    3    0    0  0.77278634598E-01 -0.12410629959E+00  0.18945712917E-01  0.89226302232E+00  0.88000000000E+00 0.  1.
        -11    1    4    4    0    0 -0.62217023495E-01  0.90592878766E-01 -0.11892951373E-01  0.11054289262E+00  0.51100000000E-03 0.  1.
         11    1    4    4    0    0 -0.10612400672E-01  0.10176794651E-01 -0.90670742110E-02  0.17281873543E-01  0.51100000000E-03 0. -1.
</event>
<event>
 8    1  0.1202249E+005  0.1043930E+01  0.7957747E-01            NaN
         13   -1    0    0    0    0  0.00000000000E+00  0.00000000000E+00  0.74505805969E-08  0.10566000000E+00  0.10566000000E+00 0.  1.
     999900   -1    0    0    0    0 -0.00000000000E+00 -0.00000000000E+00 -0.74505805969E-08  0.93827000000E+00  0.93827000000E+00 0. -1.
     999902    2    1    2    0    0 -0.37891880717E-02 -0.21339374418E-01 -0.11929739141E-01  0.10191904462E+01  0.10188901413E+01 0.  0.
     999903    2    3    3    0    0  0.89502964095E-02 -0.10333466767E+00 -0.80337881314E-01  0.13264366429E+00  0.19544952137E-01 0.  0.
         14    1    1    2    0    0  0.37891880717E-02  0.21339374418E-01  0.11929739141E-01  0.24739553811E-01  0.00000000000E+00 0.  1.
     999901    1    3    3    0    0 -0.12739484481E-01  0.81995293252E-01  0.68408142172E-01  0.88654678190E+00  0.88000000000E+00 0.  1.
        -11    1    4    4    0    0  0.11179359764E-01 -0.54629902721E-01 -0.52005901653E-01  0.76251421520E-01  0.51100000000E-03 0. -1.
         11    1    4    4    0    0 -0.22290633545E-02 -0.48704764949E-01 -0.28331979661E-01  0.56392242770E-01  0.51100000000E-03 0.  1.
</event>
<event>
 8    1  0.1202249E+005  0.1043930E+01  0.7957747E-01            NaN
         13   -1    0    0    0    0  0.00000000000E+00  0.00000000000E+00  0.74505805969E-08  0.10566000000E+00  0.10566000000E+00 0. -1.
     999900   -1    0    0    0    0 -0.00000000000E+00 -0.00000000000E+00 -0.74505805969E-08  0.93827000000E+00  0.93827000000E+00 0. -1.
     999902    2    1    2    0    0  0.23271110343E-01  0.54760786416E-02  0.56763265945E-03  0.10200165264E+01  0.10197361717E+01 0.  0.
     999903    2    3    3    0    0  0.80794475677E-02 -0.42570055139E-01 -0.12061974366E+00  0.13028308440E+00  0.23389580014E-01 0.  0.
         14    1    1    2    0    0 -0.23271110343E-01 -0.54760786416E-02 -0.56763265945E-03  0.23913473623E-01  0.00000000000E+00 0.  1.
     999901    1    3    3    0    0  0.15191662775E-01  0.48046133780E-01  0.12118737632E+00  0.88973344197E+00  0.88000000000E+00 0.  1.
        -11    1    4    4    0    0  0.98791368487E-02 -0.73725270733E-02 -0.18368279097E-01  0.22127049019E-01  0.51100000000E-03 0.  1.
         11    1    4    4    0    0 -0.17996892811E-02 -0.35197528065E-01 -0.10225146456E+00  0.10815603538E+00  0.51100000000E-03 0. -1.
</event>
<event>
 8    1  0.1202249E+005  0.1043930E+01  0.7957747E-01            NaN
         13   -1    0    0    0    0  0.00000000000E+00  0.00000000000E+00  0.74505805969E-08  0.10566000000E+00  0.10566000000E+00 0. -1.
     999900   -1    0    0    0    0 -0.00000000000E+00 -0.00000000000E+00 -0.74505805969E-08  0.93827000000E+00  0.93827000000E+00 0.  1.
     999902    2    1    2    0    0 -0.13896662023E-01  0.11489634013E-01 -0.15920362794E-01  0.10198761675E+01  0.10195924726E+01 0.  0.
     999903    2    3    3    0    0  0.10864857839E-01 -0.11773866315E+00 -0.48944434905E-01  0.12948093226E+00  0.19731096646E-01 0.  0.
         14    1    1    2    0    0  0.13896662023E-01 -0.11489634013E-01  0.15920362794E-01  0.24053832473E-01  0.00000000000E+00 0. -1.
     999901    1    3    3    0    0 -0.24761519863E-01  0.12922829716E+00  0.33024072111E-01  0.89039523527E+00  0.88000000000E+00 0. -1.
        -11    1    4    4    0    0 -0.11578358253E-02 -0.83084338962E-01 -0.31553739319E-01  0.88883336743E-01  0.51100000000E-03 0.  1.
         11    1    4    4    0    0  0.12022693665E-01 -0.34654324183E-01 -0.17390695587E-01  0.40597595514E-01  0.51100000000E-03 0. -1.
</event>
<event>
 8    1  0.1202249E+005  0.1043930E+01  0.7957747E-01            NaN
         13   -1    0    0    0    0  0.00000000000E+00  0.00000000000E+00  0.74505805969E-08  0.10566000000E+00  0.10566000000E+00 0.  1.
     999900   -1    0    0    0    0 -0.00000000000E+00 -0.00000000000E+00 -0.74505805969E-08  0.93827000000E+00  0.93827000000E+00 0. -1.
     999902    2    1    2    0    0 -0.84765276291E-02  0.22942714412E-01  0.55071179001E-02  0.10188591402E+01  0.10185506367E+01 0.  0.
     999903    2    3    3    0    0 -0.10168952106E+00 -0.75035951724E-01 -0.11697963104E-01  0.12836237096E+00  0.19206852748E-01 0.  0.
         14    1    1    2    0    0  0.84765276291E-02 -0.22942714412E-01 -0.55071179001E-02  0.25070859834E-01  0.00000000000E+00 0.  1.
     999901    1    3    3    0    0  0.93212993429E-01  0.97978666136E-01  0.17205081004E-01  0.89049676921E+00  0.88000000000E+00 0. -1.
        -11    1    4    4    0    0 -0.59803211844E-01 -0.34399092558E-01 -0.83085967116E-03  0.68997631586E-01  0.51100000000E-03 0. -1.
         11    1    4    4    0    0 -0.41886309214E-01 -0.40636859166E-01 -0.10867103433E-01  0.59364739370E-01  0.51100000000E-03 0.  1.
</event>
<event>
 8    1  0.1202249E+005  0.1043930E+01  0.7957747E-01            NaN
         13   -1    0    0    0    0  0.00000000000E+00  0.00000000000E+00  0.74505805969E-08  0.10566000000E+00  0.10566000000E+00 0.  1.
     999900   -1    0    0    0    0 -0.00000000000E+00 -0.00000000000E+00 -0.74505805969E-08  0.93827000000E+00  0.93827000000E+00 0.  1.
     999902    2    1    2    0    0  0.16018076567E-01  0.75379661308E-02 -0.15385012458E-01  0.10204758251E+01  0.10202062592E+01 0.  0.
     999903    2    3    3    0    0  0.29904275881E-01  0.12137247457E+00 -0.40673678957E-01  0.13267481224E+00  0.17964251808E-01 0.  0.
         14    1    1    2    0    0 -0.16018076567E-01 -0.75379661308E-02  0.15385012458E-01  0.23454174866E-01  0.00000000000E+00 0.  1.
     999901    1    3    3    0    0 -0.13886199313E-01 -0.11383450844E+00  0.25288666499E-01  0.88780101289E+00  0.88000000000E+00 0.  1.
        -11    1    4    4    0    0  0.24802067862E-01  0.81150151438E-01 -0.34748649497E-01  0.91696343501E-01  0.51100000000E-03 0.  1.
         11    1    4    4    0    0  0.51022080186E-02  0.40222323134E-01 -0.59250294601E-02  0.40978468738E-01  0.51100000000E-03 0. -1.
</event>
<event>
 8    1  0.1202249E+005  0.1043930E+01  0.7957747E-01            NaN
         13   -1    0    0    0    0  0.00000000000E+00  0.00000000000E+00  0.74505805969E-08  0.10566000000E+00  0.10566000000E+00 0.  1.
     999900   -1    0    0    0    0 -0.00000000000E+00 -0.00000000000E+00 -0.74505805969E-08  0.93827000000E+00  0.93827000000E+00 0. -1.
     999902    2    1    2    0    0 -0.22426561643E-02  0.12405301627E-02  0.22900860047E-01  0.10208861763E+01  0.10206260662E+01 0.  0.
     999903    2    3    3    0    0  0.28266492778E-01 -0.12427986743E+00  0.24022734732E-01  0.13145521380E+00  0.21421983752E-01 0.  0.
         14    1    1    2    0    0  0.22426561643E-02 -0.12405301627E-02 -0.22900860047E-01  0.23043823742E-01  0.00000000000E+00 0. -1.
     999901    1    3    3    0    0 -0.30509148942E-01  0.12552039759E+00 -0.11218746849E-02  0.88943096246E+00  0.88000000000E+00 0. -1.
        -11    1    4    4    0    0  0.26085491772E-01 -0.66858232733E-01  0.14049655444E-01  0.73130910730E-01  0.51100000000E-03 0.  1.
         11    1    4    4    0    0  0.21810010060E-02 -0.57421634698E-01  0.99730792881E-02  0.58324303067E-01  0.51100000000E-03 0. -1.
</event>
<event>
 8    1  0.1202249E+005  0.1043930E+01  0.7957747E-01            NaN
         13   -1    0    0    0    0  0.00000000000E+00  0.00000000000E+00  0.74505805969E-08  0.10566000000E+00  0.10566000000E+00 0.  1.
     999900   -1    0    0    0    0 -0.00000000000E+00 -0.00000000000E+00 -0.74505805969E-08  0.93827000000E+00  0.93827000000E+00 0.  1.
     999902    2    1    2    0    0 -0.49971836581E-02 -0.21022522948E-01 -0.11359402981E-01  0.10195178237E+01  0.10192255091E+01 0.  0.
     999903    2    3    3    0    0 -0.13253729797E-01 -0.60083052816E-01 -0.11522127124E+00  0.13251095607E+00  0.22306446195E-01 0.  0.
         14    1    1    2    0    0  0.49971836581E-02  0.21022522948E-01  0.11359402981E-01  0.24412176300E-01  0.00000000000E+00 0.  1.
     999901    1    3    3    0    0  0.82565461386E-02  0.39060529868E-01  0.10386186826E+00  0.88700686763E+00  0.88000000000E+00 0. -1.
        -11    1    4    4    0    0 -0.41957979150E-02 -0.51096008283E-01 -0.10181846759E+00  0.11399854493E+00  0.51100000000E-03 0.  1.
         11    1    4    4    0    0 -0.90579318816E-02 -0.89870445329E-02 -0.13402803657E-01  0.18512411141E-01  0.51100000000E-03 0. -1.
</event>
<event>
 8    1  0.1202249E+005  0.1043930E+01  0.7957747E-01            NaN
         13   -1    0    0    0    0  0.00000000000E+00  0.00000000000E+00  0.74505805969E-08  0.10566000000E+00  0.10566000000E+00 0. -1.
     999900   -1    0    0    0    0 -0.00000000000E+00 -0.00000000000E+00 -0.74505805969E-08  0.93827000000E+00  0.93827000000E+00 0. -1.
     999902    2    1    2    0    0 -0.20735609100E-01 -0.74431745869E-02 -0.66769611564E-02  0.10209093974E+01  0.10206498173E+01 0.  0.
     999903    2    3    3    0    0 -0.15747303059E-01  0.54754307888E-02  0.12773466537E+00  0.13059582407E+00  0.21474790570E-01 0.  0.
         14    1    1    2    0    0  0.20735609100E-01  0.74431745869E-02  0.66769611564E-02  0.23020602576E-01  0.00000000000E+00 0.  1.
     999901    1    3    3    0    0 -0.49883060407E-02 -0.12918605376E-01 -0.13441162653E+00  0.89031357336E+00  0.88000000000E+00 0. -1.
        -11    1    4    4    0    0 -0.16528131062E-01 -0.38390000121E-02  0.96748264596E-01  0.98226294142E-01  0.51100000000E-03 0. -1.
         11    1    4    4    0    0  0.78082800249E-03  0.93144308009E-02  0.30986400774E-01  0.32369529923E-01  0.51100000000E-03 0.  1.
</event>
<event>
 8    1  0.1202249E+005  0.1043930E+01  0.7957747E-01            NaN
         13   -1    0    0    0    0  0.00000000000E+00  0.00000000000E+00  0.74505805969E-08  0.10566000000E+00  0.10566000000E+00 0.  1.
     999900   -1    0    0    0    0 -0.00000000000E+00 -0.00000000000E+00 -0.74505805969E-08  0.93827000000E+00  0.93827000000E+00 0.  1.
     999902    2    1    2    0    0 -0.19983971087E-02  0.21500584319E-01 -0.10975082210E-01  0.10197076726E+01  0.10194199411E+01 0.  0.
     999903    2    3    3    0    0 -0.26084509308E-01 -0.24279320778E-01  0.12154870670E+00  0.12828269247E+00  0.20309456993E-01 0.  0.
         14    1    1    2    0    0  0.19983971087E-02 -0.21500584319E-01  0.10975082210E-01  0.24222327439E-01  0.00000000000E+00 0.  1.
     999901    1    3    3    0    0  0.24086112199E-01  0.45779905097E-01 -0.13252378891E+00  0.89142498010E+00  0.88000000000E+00 0.  1.
        -11    1    4    4    0    0 -0.57889022456E-02 -0.93080001729E-02  0.13854479389E-01  0.17673652044E-01  0.51100000000E-03 0.  1.
         11    1    4    4    0    0 -0.20295607062E-01 -0.14971320605E-01  0.10769422731E+00  0.11060904042E+00  0.51100000000E-03 0. -1.
</event>
<event>
 7    1  0.1202249E+005  0.1043930E+01  0.7957747E-01            NaN
         13   -1    0    0    0    0  0.00000000000E+00  0.00000000000E+00  0.74505805969E-08  0.10566000000E+00  0.10566000000E+00 0. -1.
     999900   -1    0    0    0    0 -0.00000000000E+00 -0.00000000000E+00 -0.74505805969E-08  0.93827000000E+00  0.93827000000E+00 0.  1.
     999903    2    1    2    0    0  0.38943951787E-01  0.89320005897E-01 -0.39750136655E-01  0.10714330887E+00  0.20122634948E-01 0.  0.
         14    1    1    2    0    0  0.13996047253E-01 -0.15629005548E-01  0.47673559662E-01  0.52085731674E-01  0.00000000000E+00 0. -1.
     999901    1    1    2    0    0 -0.52939999040E-01 -0.73691000349E-01 -0.79234230072E-02  0.88470095946E+00  0.88000000000E+00 0.  1.
        -11    1    3    3    0    0  0.20372651916E-01  0.41364976281E-01 -0.29389993527E-01  0.54682163905E-01  0.51100000000E-03 0.  1.
         11    1    3    3    0    0  0.18571299871E-01  0.47955029616E-01 -0.10360143128E-01  0.52461144965E-01  0.51100000000E-03 0. -1.
</event>
<event>
 8    1  0.1202249E+005  0.1043930E+01  0.7957747E-01            NaN
         13   -1    0    0    0    0  0.00000000000E+00  0.00000000000E+00  0.74505805969E-08  0.10566000000E+00  0.10566000000E+00 0.  1.
     999900   -1    0    0    0    0 -0.00000000000E+00 -0.00000000000E+00 -0.74505805969E-08  0.93827000000E+00  0.93827000000E+00 0. -1.
     999902    2    1    2    0    0  0.23280788113E-01 -0.26810943572E-02 -0.20947249432E-02  0.10204019054E+01  0.10201306178E+01 0.  0.
     999903    2    3    3    0    0 -0.13221499256E-01 -0.21168532439E-01  0.12610765064E+00  0.13017156924E+00  0.20459303035E-01 0.  0.
         14    1    1    2    0    0 -0.23280788113E-01  0.26810943572E-02  0.20947249432E-02  0.23528094583E-01  0.00000000000E+00 0.  1.
     999901    1    3    3    0    0  0.36502287370E-01  0.18487438082E-01 -0.12820237558E+00  0.89023033618E+00  0.88000000000E+00 0. -1.
        -11    1    4    4    0    0 -0.54577418053E-02 -0.22554419095E-01  0.76676589397E-01  0.80112728382E-01  0.51100000000E-03 0.  1.
         11    1    4    4    0    0 -0.77637574512E-02  0.13858866553E-02  0.49431061239E-01  0.50058840855E-01  0.51100000000E-03 0. -1.
</event>
<event>
 8    1  0.1202249E+005  0.1043930E+01  0.7957747E-01            NaN
         13   -1    0    0    0    0  0.00000000000E+00  0.00000000000E+00  0.74505805969E-08  0.10566000000E+00  0.10566000000E+00 0.  1.
     999900   -1    0    0    0    0 -0.00000000000E+00 -0.00000000000E+00 -0.74505805969E-08  0.93827000000E+00  0.93827000000E+00 0. -1.
     999902    2    1    2    0    0  0.76239784295E-02  0.77715310999E-02 -0.19027673998E-01  0.10220079992E+01  0.10217728594E+01 0.  0.
     999903    2    3    3    0    0 -0.11932679942E+00  0.49496102556E-01  0.10036670979E-01  0.13144515691E+00  0.22098535787E-01 0.  0.
         14    1    1    2    0    0 -0.76239784295E-02 -0.77715310999E-02  0.19027673998E-01  0.21922000833E-01  0.00000000000E+00 0.  1.
     999901    1    3    3    0    0  0.12695077785E+00 -0.41724571456E-01 -0.29064344977E-01  0.89056284226E+00  0.88000000000E+00 0. -1.
        -11    1    4    4    0    0 -0.81729756412E-01  0.37239346792E-01  0.16657797968E-01  0.91346950616E-01  0.51100000000E-03 0.  1.
         11    1    4    4    0    0 -0.37597043004E-01  0.12256755764E-01 -0.66211269885E-02  0.40098206295E-01  0.51100000000E-03 0. -1.
</event>
<event>
 8    1  0.1202249E+005  0.1043930E+01  0.7957747E-01            NaN
         13   -1    0    0    0    0  0.00000000000E+00  0.00000000000E+00  0.74505805969E-08  0.10566000000E+00  0.10566000000E+00 0. -1.
     999900   -1    0    0    0    0 -0.00000000000E+00 -0.00000000000E+00 -0.74505805969E-08  0.93827000000E+00  0.93827000000E+00 0.  1.
     999902    2    1    2    0    0 -0.13518072793E-01  0.18624517794E-01 -0.55222867953E-02  0.10202634285E+01  0.10199889004E+01 0.  0.
     999903    2    3    3    0    0  0.96753050855E-01  0.45134929266E-01  0.71082342996E-01  0.12968452019E+00  0.19158825660E-01 0.  0.
         14    1    1    2    0    0  0.13518072793E-01 -0.18624517794E-01  0.55222867953E-02  0.23666571500E-01  0.00000000000E+00 0. -1.
     999901    1    3    3    0    0 -0.11027112365E+00 -0.26510411472E-01 -0.76604629791E-01  0.89057890831E+00  0.88000000000E+00 0.  1.
        -11    1    4    4    0    0  0.68120902727E-01  0.40652016833E-01  0.48969760556E-01  0.93227369537E-01  0.51100000000E-03 0.  1.
         11    1    4    4    0    0  0.28632148128E-01  0.44829124330E-02  0.22112582440E-01  0.36457150649E-01  0.51100000000E-03 0. -1.
</event>
<event>
 8    1  0.1202249E+005  0.1043930E+01  0.7957747E-01            NaN
         13   -1    0    0    0    0  0.00000000000E+00  0.00000000000E+00  0.74505805969E-08  0.10566000000E+00  0.10566000000E+00 0. -1.
     999900   -1    0    0    0    0 -0.00000000000E+00 -0.00000000000E+00 -0.74505805969E-08  0.93827000000E+00  0.93827000000E+00 0. -1.
     999902    2    1    2    0    0 -0.30055702794E-02 -0.22509499022E-01 -0.25569784657E-02  0.10210772291E+01  0.10208214627E+01 0.  0.
     999903    2    3    3    0    0 -0.21307466305E-01  0.12221050341E-02  0.12742796212E+00  0.13102429067E+00  0.21771025545E-01 0.  0.
         14    1    1    2    0    0  0.30055702794E-02  0.22509499022E-01  0.25569784657E-02  0.22852770899E-01  0.00000000000E+00 0. -1.
     999901    1    3    3    0    0  0.18301896026E-01 -0.23731604056E-01 -0.12998494059E+00  0.89005293843E+00  0.88000000000E+00 0. -1.
        -11    1    4    4    0    0 -0.19374701390E-01 -0.73123294690E-02  0.72500129517E-01  0.75401453017E-01  0.51100000000E-03 0.  1.
         11    1    4    4    0    0 -0.19327649146E-02  0.85344345031E-02  0.54927832608E-01  0.55622837652E-01  0.51100000000E-03 0. -1.
</event>
<event>
 8    1  0.1202249E+005  0.1043930E+01  0.7957747E-01            NaN
         13   -1    0    0    0    0  0.00000000000E+00  0.00000000000E+00  0.74505805969E-08  0.10566000000E+00  0.10566000000E+00 0. -1.
     999900   -1    0    0    0    0 -0.00000000000E+00 -0.00000000000E+00 -0.74505805969E-08  0.93827000000E+00  0.93827000000E+00 0. -1.
     999902    2    1    2    0    0  0.76668429816E-02 -0.13032514554E-01 -0.28942478222E-01  0.10112758431E+01  0.10107485033E+01 0.  0.
     999903    2    3    3    0    0 -0.35446839348E-01 -0.81562986757E-01 -0.83743908106E-01  0.12586158303E+00  0.30316607821E-01 0.  0.
         14    1    1    2    0    0 -0.76668429816E-02  0.13032514554E-01  0.28942478222E-01  0.32654156895E-01  0.00000000000E+00 0. -1.
     999901    1    3    3    0    0  0.43113682329E-01  0.68530472203E-01  0.54801429884E-01  0.88541426007E+00  0.88000000000E+00 0.  1.
        -11    1    4    4    0    0 -0.82140994904E-02 -0.39923054658E-01 -0.54801275765E-01  0.68299067857E-01  0.51100000000E-03 0.  1.
         11    1    4    4    0    0 -0.27232739857E-01 -0.41639932099E-01 -0.28942632341E-01  0.57562515174E-01  0.51100000000E-03 0. -1.
</event>
<event>
 8    1  0.1202249E+005  0.1043930E+01  0.7957747E-01            NaN
         13   -1    0    0    0    0  0.00000000000E+00  0.00000000000E+00  0.74505805969E-08  0.10566000000E+00  0.10566000000E+00 0. -1.
     999900   -1    0    0    0    0 -0.00000000000E+00 -0.00000000000E+00 -0.74505805969E-08  0.93827000000E+00  0.93827000000E+00 0. -1.
     999902    2    1    2    0    0 -0.94716871454E-02  0.44472711045E-02  0.21251286820E-01  0.10202422760E+01  0.10199672512E+01 0.  0.
     999903    2    3    3    0    0  0.57442249515E-01  0.11025549749E+00  0.37011026179E-01  0.13124214939E+00  0.19969951463E-01 0.  0.
         14    1    1    2    0    0  0.94716871454E-02 -0.44472711045E-02 -0.21251286820E-01  0.23687724018E-01  0.00000000000E+00 0.  1.
     999901    1    3    3    0    0 -0.66913936661E-01 -0.10580822639E+00 -0.15759739359E-01  0.88900012659E+00  0.88000000000E+00 0. -1.
        -11    1    4    4    0    0  0.36235026371E-01  0.66389385018E-01  0.32449651501E-01  0.82302907498E-01  0.51100000000E-03 0.  1.
         11    1    4    4    0    0  0.21207223144E-01  0.43866112476E-01  0.45613746781E-02  0.48939241894E-01  0.51100000000E-03 0. -1.
</event>
<event>
 8    1  0.1202249E+005  0.1043930E+01  0.7957747E-01            NaN
         13   -1    0    0    0    0  0.00000000000E+00  0.00000000000E+00  0.74505805969E-08  0.10566000000E+00  0.10566000000E+00 0.  1.
     999900   -1    0    0    0    0 -0.00000000000E+00 -0.00000000000E+00 -0.74505805969E-08  0.93827000000E+00  0.93827000000E+00 0.  1.
     999902    2    1    2    0    0  0.36231408243E-02 -0.20567865906E-01 -0.10688179608E-01  0.10204693640E+01  0.10201996478E+01 0.  0.
     999903    2    3    3    0    0  0.37490080030E-01 -0.89445638616E-01  0.85858636015E-01  0.13186798840E+00  0.24727163568E-01 0.  0.
         14    1    1    2    0    0 -0.36231408243E-02  0.20567865906E-01  0.10688179608E-01  0.23460635982E-01  0.00000000000E+00 0. -1.
     999901    1    3    3    0    0 -0.33866939206E-01  0.68877772710E-01 -0.96546815622E-01  0.88860137562E+00  0.88000000000E+00 0.  1.
        -11    1    4    4    0    0  0.95569250993E-02 -0.44825358317E-02  0.75005490209E-02  0.12959448347E-01  0.51100000000E-03 0. -1.
         11    1    4    4    0    0  0.27933154931E-01 -0.84963102784E-01  0.78358086994E-01  0.11890854005E+00  0.51100000000E-03 0.  1.
</event>
<event>
 8    1  0.1202249E+005  0.1043930E+01  0.7957747E-01            NaN
         13   -1    0    0    0    0  0.00000000000E+00  0.00000000000E+00  0.74505805969E-08  0.10566000000E+00  0.10566000000E+00 0.  1.
     999900   -1    0    0    0    0 -0.00000000000E+00 -0.00000000000E+00 -0.74505805969E-08  0.93827000000E+00  0.93827000000E+00 0. -1.
     999902    2    1    2    0    0  0.15505133264E-01 -0.95477965100E-02 -0.15501185163E-01  0.10200164825E+01  0.10197361268E+01 0.  0.
     999903    2    3    3    0    0 -0.58288751845E-01 -0.60600172455E-01  0.95148320428E-01  0.12855969971E+00  0.20110544908E-01 0.  0.
         14    1    1    2    0    0 -0.15505133264E-01  0.95477965100E-02  0.15501185163E-01  0.23913517457E-01  0.00000000000E+00 0.  1.
     999901    1    3    3    0    0  0.73793885108E-01  0.51052375945E-01 -0.11064950559E+00  0.89145678283E+00  0.88000000000E+00 0. -1.
        -11    1    4    4    0    0 -0.39357330090E-02 -0.10200623238E-01  0.55459141005E-02  0.12270329783E-01  0.51100000000E-03 0.  1.
         11    1    4    4    0    0 -0.54353018836E-01 -0.50399549216E-01  0.89602406327E-01  0.11628936993E+00  0.51100000000E-03 0. -1.
</event>
<event>
 8    1  0.1202249E+005  0.1043930E+01  0.7957747E-01            NaN
         13   -1    0    0    0    0  0.00000000000E+00  0.00000000000E+00  0.74505805969E-08  0.10566000000E+00  0.10566000000E+00 0.  1.
     999900   -1    0    0    0    0 -0.00000000000E+00 -0.00000000000E+00 -0.74505805969E-08  0.93827000000E+00  0.93827000000E+00 0.  1.
     999902    2    1    2    0    0 -0.19349986505E-01 -0.14233164170E-02 -0.45720536423E-02  0.10239963229E+01  0.10238022846E+01 0.  0.
     999903    2    3    3    0    0  0.34691855676E-02  0.30614694102E-01  0.12800627322E+00  0.13319659151E+00  0.20160140456E-01 0.  0.
         14    1    1    2    0    0  0.19349986505E-01  0.14233164170E-02  0.45720536423E-02  0.19933677078E-01  0.00000000000E+00 0.  1.
     999901    1    3    3    0    0 -0.22819172072E-01 -0.32038010519E-01 -0.13257832686E+00  0.89079973141E+00  0.88000000000E+00 0.  1.
        -11    1    4    4    0    0  0.42070421892E-03  0.25468222113E-01  0.63627423297E-01  0.68538437727E-01  0.51100000000E-03 0.  1.
         11    1    4    4    0    0  0.30484813486E-02  0.51464719893E-02  0.64378849920E-01  0.64658153782E-01  0.51100000000E-03 0. -1.
</event>
<event>
 8    1  0.1202249E+005  0.1043930E+01  0.7957747E-01            NaN
         13   -1    0    0    0    0  0.00000000000E+00  0.00000000000E+00  0.74505805969E-08  0.10566000000E+00  0.10566000000E+00 0. -1.
     999900   -1    0    0    0    0 -0.00000000000E+00 -0.00000000000E+00 -0.74505805969E-08  0.93827000000E+00  0.93827000000E+00 0.  1.
     999902    2    1    2    0    0  0.19732978510E-01  0.36437017698E-02 -0.11973372315E-01  0.10205627441E+01  0.10202951955E+01 0.  0.
     999903    2    3    3    0    0  0.46815440443E-01  0.89068511417E-01  0.81282972884E-01  0.13110920189E+00  0.21396634040E-01 0.  0.
         14    1    1    2    0    0 -0.19732978510E-01 -0.36437017698E-02  0.11973372315E-01  0.23367255895E-01  0.00000000000E+00 0. -1.
     999901    1    3    3    0    0 -0.27082461932E-01 -0.85424809648E-01 -0.93256345199E-01  0.88945354222E+00  0.88000000000E+00 0.  1.
        -11    1    4    4    0    0  0.35313240101E-02  0.34914771384E-03  0.58914306647E-02  0.68965375130E-02  0.51100000000E-03 0.  1.
         11    1    4    4    0    0  0.43284116432E-01  0.88719363704E-01  0.75391542219E-01  0.12421266437E+00  0.51100000000E-03 0. -1.
</event>
<event>
 8    1  0.1202249E+005  0.1043930E+01  0.7957747E-01            NaN
         13   -1    0    0    0    0  0.00000000000E+00  0.00000000000E+00  0.74505805969E-08  0.10566000000E+00  0.10566000000E+00 0. -1.
     999900   -1    0    0    0    0 -0.00000000000E+00 -0.00000000000E+00 -0.74505805969E-08  0.93827000000E+00  0.93827000000E+00 0.  1.
     999902    2    1    2    0    0  0.10139089184E-01 -0.41136444085E-02 -0.25560399286E-01  0.10161260936E+01  0.10157456280E+01 0.  0.
     999903    2    3    3    0    0  0.65202182615E-01 -0.50043930731E-02  0.10454098681E+00  0.12485783524E+00  0.19603380557E-01 0.  0.
         14    1    1    2    0    0 -0.10139089184E-01  0.41136444085E-02  0.25560399286E-01  0.27803906407E-01  0.00000000000E+00 0. -1.
     999901    1    3    3    0    0 -0.55063093431E-01  0.89074866461E-03 -0.13010138609E+00  0.89126825836E+00  0.88000000000E+00 0.  1.
        -11    1    4    4    0    0  0.31812204186E-01  0.25889896195E-02  0.35184711234E-01  0.47507307102E-01  0.51100000000E-03 0.  1.
         11    1    4    4    0    0  0.33389978429E-01 -0.75933826926E-02  0.69356275574E-01  0.77350528135E-01  0.51100000000E-03 0. -1.
</event>
<event>
 8    1  0.1202249E+005  0.1043930E+01  0.7957747E-01            NaN
         13   -1    0    0    0    0  0.00000000000E+00  0.00000000000E+00  0.74505805969E-08  0.10566000000E+00  0.10566000000E+00 0. -1.
     999900   -1    0    0    0    0 -0.00000000000E+00 -0.00000000000E+00 -0.74505805969E-08  0.93827000000E+00  0.93827000000E+00 0. -1.
     999902    2    1    2    0    0 -0.19956364678E-02  0.23285486392E-01  0.54414290290E-02  0.10199340505E+01  0.10196517356E+01 0.  0.
     999903    2    3    3    0    0 -0.11735933660E+00  0.55015514800E-01 -0.11590865905E-01  0.13167413525E+00  0.20094998530E-01 0.  0.
         14    1    1    2    0    0  0.19956364678E-02 -0.23285486392E-01 -0.54414290290E-02  0.23995949477E-01  0.00000000000E+00 0.  1.
     999901    1    3    3    0    0  0.11536370013E+00 -0.31730028408E-01  0.17032294934E-01  0.88825991527E+00  0.88000000000E+00 0.  1.
        -11    1    4    4    0    0 -0.56936178167E-01  0.37072742942E-01 -0.95149190197E-02  0.68606934478E-01  0.51100000000E-03 0.  1.
         11    1    4    4    0    0 -0.60423158430E-01  0.17942771858E-01 -0.20759468853E-02  0.63067200771E-01  0.51100000000E-03 0. -1.
</event>
<event>
 8    1  0.1202249E+005  0.1043930E+01  0.7957747E-01            NaN
         13   -1    0    0    0    0  0.00000000000E+00  0.00000000000E+00  0.74505805969E-08  0.10566000000E+00  0.10566000000E+00 0. -1.
     999900   -1    0    0    0    0 -0.00000000000E+00 -0.00000000000E+00 -0.74505805969E-08  0.93827000000E+00  0.93827000000E+00 0.  1.
     999902    2    1    2    0    0  0.11537993557E-01 -0.11441195456E-01  0.17107293154E-01  0.10203358116E+01  0.10200629797E+01 0.  0.
     999903    2    3    3    0    0  0.20198399987E-01  0.28998292541E-02 -0.12577635646E+00  0.12865402698E+00  0.17770268528E-01 0.  0.
         14    1    1    2    0    0 -0.11537993557E-01  0.11441195456E-01 -0.17107293154E-01  0.23594188434E-01  0.00000000000E+00 0.  1.
     999901    1    3    3    0    0 -0.86604064298E-02 -0.14341024710E-01  0.14288364961E+00  0.89168178458E+00  0.88000000000E+00 0. -1.
        -11    1    4    4    0    0 -0.25180675634E-02 -0.17890264430E-02 -0.27427246306E-01  0.27605366159E-01  0.51100000000E-03 0. -1.
         11    1    4    4    0    0  0.22716467550E-01  0.46888556971E-02 -0.98349110152E-01  0.10104866082E+00  0.51100000000E-03 0.  1.
</event>
<event>
 8    1  0.1202249E+005  0.1043930E+01  0.7957747E-01            NaN
         13   -1    0    0    0    0  0.00000000000E+00  0.00000000000E+00  0.74505805969E-08  0.10566000000E+00  0.10566000000E+00 0. -1.
     999900   -1    0    0    0    0 -0.00000000000E+00 -0.00000000000E+00 -0.74505805969E-08  0.93827000000E+00  0.93827000000E+00 0.  1.
     999902    2    1    2    0    0 -0.59046971279E-02 -0.20976908198E-02 -0.22437152634E-01  0.10206342585E+01  0.10203683639E+01 0.  0.
     999903    2    3    3    0    0 -0.12838498140E+00  0.21753123548E-01 -0.11749513070E-01  0.13176727910E+00  0.16390941156E-01 0.  0.
         14    1    1    2    0    0  0.59046971279E-02  0.20976908198E-02  0.22437152634E-01  0.23295741526E-01  0.00000000000E+00 0. -1.
     999901    1    3    3    0    0  0.12248028427E+00 -0.23850814367E-01 -0.10687639564E-01  0.88886697937E+00  0.88000000000E+00 0.  1.
        -11    1    4    4    0    0 -0.99245118167E-01  0.12328124816E-01 -0.36122385703E-02  0.10007439997E+00  0.51100000000E-03 0. -1.
         11    1    4    4    0    0 -0.29139863230E-01  0.94249987318E-02 -0.81372744996E-02  0.31692879128E-01  0.51100000000E-03 0.  1.
</event>
<event>
 8    1  0.1202249E+005  0.1043930E+01  0.7957747E-01            NaN
         13   -1    0    0    0    0  0.00000000000E+00  0.00000000000E+00  0.74505805969E-08  0.10566000000E+00  0.10566000000E+00 0.  1.
     999900   -1    0    0    0    0 -0.00000000000E+00 -0.00000000000E+00 -0.74505805969E-08  0.93827000000E+00  0.93827000000E+00 0.  1.
     999902    2    1    2    0    0 -0.25472629891E-02  0.15187513594E-01 -0.18274808602E-01  0.10200319300E+01  0.10197519407E+01 0.  0.
     999903    2    3    3    0    0 -0.11219942731E+00 -0.59590467752E-01 -0.21280976007E-01  0.13007441383E+00  0.18075891615E-01 0.  0.
         14    1    1    2    0    0  0.25472629891E-02 -0.15187513594E-01  0.18274808602E-01  0.23898069950E-01  0.00000000000E+00 0.  1.
     999901    1    3    3    0    0  0.10965216432E+00  0.74777981346E-01  0.30061674047E-02  0.88995751622E+00  0.88000000000E+00 0.  1.
        -11    1    4    4    0    0 -0.72981837655E-01 -0.46412145053E-01 -0.92453482682E-02  0.86983753779E-01  0.51100000000E-03 0.  1.
         11    1    4    4    0    0 -0.39217589655E-01 -0.13178322699E-01 -0.12035627739E-01  0.43090660050E-01  0.51100000000E-03 0. -1.
</event>
<event>
 8    1  0.1202249E+005  0.1043930E+01  0.7957747E-01            NaN
         13   -1    0    0    0    0  0.00000000000E+00  0.00000000000E+00  0.74505805969E-08  0.10566000000E+00  0.10566000000E+00 0.  1.
     999900   -1    0    0    0    0 -0.00000000000E+00 -0.00000000000E+00 -0.74505805969E-08  0.93827000000E+00  0.93827000000E+00 0. -1.
     999902    2    1    2    0    0 -0.12583445810E-01  0.11083617805E-01  0.95099212577E-02  0.10246523369E+01  0.10244709773E+01 0.  0.
     999903    2    3    3    0    0  0.13247180323E-01  0.12631069574E+00  0.47109272689E-01  0.13596892198E+00  0.11763695296E-01 0.  0.
         14    1    1    2    0    0  0.12583445810E-01 -0.11083617805E-01 -0.95099212577E-02  0.19277663095E-01  0.00000000000E+00 0. -1.
     999901    1    3    3    0    0 -0.25830626133E-01 -0.11522707793E+00 -0.37599351432E-01  0.88868341493E+00  0.88000000000E+00 0.  1.
        -11    1    4    4    0    0  0.96560053521E-02  0.42557906905E-01  0.13951143386E-01  0.45818221291E-01  0.51100000000E-03 0. -1.
         11    1    4    4    0    0  0.35911749704E-02  0.83752788831E-01  0.33158129304E-01  0.90150700688E-01  0.51100000000E-03 0.  1.
</event>
<event>
 8    1  0.1202249E+005  0.1043930E+01  0.7957747E-01            NaN
         13   -1    0    0    0    0  0.00000000000E+00  0.00000000000E+00  0.74505805969E-08  0.10566000000E+00  0.10566000000E+00 0. -1.
     999900   -1    0    0    0    0 -0.00000000000E+00 -0.00000000000E+00 -0.74505805969E-08  0.93827000000E+00  0.93827000000E+00 0. -1.
     999902    2    1    2    0    0  0.23907174293E-01  0.74157413074E-03  0.11921288448E-02  0.10199816371E+01  0.10197004540E+01 0.  0.
     999903    2    3    3    0    0  0.80838399984E-01 -0.99984003966E-01  0.23867154807E-01  0.13211849260E+00  0.18815075000E-01 0.  0.
         14    1    1    2    0    0 -0.23907174293E-01 -0.74157413074E-03 -0.11921288448E-02  0.23948362909E-01  0.00000000000E+00 0.  1.
     999901    1    3    3    0    0 -0.56931225692E-01  0.10072557810E+00 -0.22675025962E-01  0.88786314449E+00  0.88000000000E+00 0. -1.
        -11    1    4    4    0    0  0.25333946665E-01 -0.24888207974E-01 -0.82155052789E-03  0.35527001225E-01  0.51100000000E-03 0. -1.
         11    1    4    4    0    0  0.55504453320E-01 -0.75095795992E-01  0.24688705335E-01  0.96591491376E-01  0.51100000000E-03 0.  1.
</event>
<event>
 8    1  0.1202249E+005  0.1043930E+01  0.7957747E-01            NaN
         13   -1    0    0    0    0  0.00000000000E+00  0.00000000000E+00  0.74505805969E-08  0.10566000000E+00  0.10566000000E+00 0. -1.
     999900   -1    0    0    0    0 -0.00000000000E+00 -0.00000000000E+00 -0.74505805969E-08  0.93827000000E+00  0.93827000000E+00 0.  1.
     999902    2    1    2    0    0 -0.41566940476E-02  0.15372399160E-01  0.17435516503E-01  0.10203167411E+01  0.10200434629E+01 0.  0.
     999903    2    3    3    0    0 -0.72402945376E-01  0.37933607097E-01  0.10326489116E+00  0.13322416390E+00  0.20097140437E-01 0.  0.
         14    1    1    2    0    0  0.41566940476E-02 -0.15372399160E-01 -0.17435516503E-01  0.23613258925E-01  0.00000000000E+00 0.  1.
     999901    1    3    3    0    0  0.68246251328E-01 -0.22561207937E-01 -0.85829374659E-01  0.88709257717E+00  0.88000000000E+00 0.  1.
        -11    1    4    4    0    0 -0.33684078532E-01  0.66502290105E-02  0.44521552391E-01  0.56225194003E-01  0.51100000000E-03 0.  1.
         11    1    4    4    0    0 -0.38718866844E-01  0.31283378087E-01  0.58743338771E-01  0.76998969897E-01  0.51100000000E-03 0. -1.
</event>
<event>
 8    1  0.1202249E+005  0.1043930E+01  0.7957747E-01            NaN
         13   -1    0    0    0    0  0.00000000000E+00  0.00000000000E+00  0.74505805969E-08  0.10566000000E+00  0.10566000000E+00 0.  1.
     999900   -1    0    0    0    0 -0.00000000000E+00 -0.00000000000E+00 -0.74505805969E-08  0.93827000000E+00  0.93827000000E+00 0. -1.
     999902    2    1    2    0    0 -0.80730282042E-02 -0.10732350518E-02 -0.22916962532E-01  0.10196089641E+01  0.10193188543E+01 0.  0.
     999903    2    3    3    0    0 -0.38108766277E-01  0.88133400596E-02  0.12019781576E+00  0.12748692661E+00  0.16596641614E-01 0.  0.
         14    1    1    2    0    0  0.80730282042E-02  0.10732350518E-02  0.22916962532E-01  0.24321035947E-01  0.00000000000E+00 0.  1.
     999901    1    3    3    0    0  0.30035738072E-01 -0.98865751114E-02 -0.14311477829E+00  0.89212203744E+00  0.88000000000E+00 0. -1.
        -11    1    4    4    0    0 -0.71123857114E-02 -0.36194288668E-02  0.36603158048E-01  0.37466499648E-01  0.51100000000E-03 0. -1.
         11    1    4    4    0    0 -0.30996380565E-01  0.12432768926E-01  0.83594657711E-01  0.90020426960E-01  0.51100000000E-03 0.  1.
</event>
<event>
 8    1  0.1202249E+005  0.1043930E+01  0.7957747E-01            NaN
         13   -1    0    0    0    0  0.00000000000E+00  0.00000000000E+00  0.74505805969E-08  0.10566000000E+00  0.10566000000E+00 0.  1.
     999900   -1    0    0    0    0 -0.00000000000E+00 -0.00000000000E+00 -0.74505805969E-08  0.93827000000E+00  0.93827000000E+00 0. -1.
     999902    2    1    2    0    0  0.12734701437E-01  0.11015974382E-01 -0.16877583246E-01  0.10200893388E+01  0.10198107089E+01 0.  0.
     999903    2    3    3    0    0  0.49628601797E-01 -0.88184742905E-01  0.76965747566E-01  0.12879336495E+00  0.20602367780E-01 0.  0.
         14    1    1    2    0    0 -0.12734701437E-01 -0.11015974382E-01  0.16877583246E-01  0.23840661243E-01  0.00000000000E+00 0.  1.
     999901    1    3    3    0    0 -0.36893900360E-01  0.99200717287E-01 -0.93843330812E-01  0.89129597381E+00  0.88000000000E+00 0. -1.
        -11    1    4    4    0    0  0.38249155760E-01 -0.48387474519E-01  0.49855383189E-01  0.79310566513E-01  0.51100000000E-03 0.  1.
         11    1    4    4    0    0  0.11379446037E-01 -0.39797268386E-01  0.27110364377E-01  0.49482798433E-01  0.51100000000E-03 0. -1.
</event>
<event>
 8    1  0.1202249E+005  0.1043930E+01  0.7957747E-01            NaN
         13   -1    0    0    0    0  0.00000000000E+00  0.00000000000E+00  0.74505805969E-08  0.10566000000E+00  0.10566000000E+00 0. -1.
     999900   -1    0    0    0    0 -0.00000000000E+00 -0.00000000000E+00 -0.74505805969E-08  0.93827000000E+00  0.93827000000E+00 0.  1.
     999902    2    1    2    0    0  0.11748408160E-02  0.29698411251E-01 -0.11023513582E-01  0.10122299411E+01  0.10117334431E+01 0.  0.
     999903    2    3    3    0    0 -0.87978101574E-01  0.66137150864E-01  0.54722121211E-01  0.12453713537E+00  0.20017953297E-01 0.  0.
         14    1    1    2    0    0 -0.11748408160E-02 -0.29698411251E-01  0.11023513582E-01  0.31700058887E-01  0.00000000000E+00 0. -1.
     999901    1    3    3    0    0  0.89152942390E-01 -0.36438739614E-01 -0.65745634793E-01  0.88769280575E+00  0.88000000000E+00 0.  1.
        -11    1    4    4    0    0 -0.44482253041E-01  0.43285152400E-01  0.37241371215E-01  0.72384087373E-01  0.51100000000E-03 0. -1.
         11    1    4    4    0    0 -0.43495848534E-01  0.22851998464E-01  0.17480749996E-01  0.52153047992E-01  0.51100000000E-03 0.  1.
</event>
<event>
 8    1  0.1202249E+005  0.1043930E+01  0.7957747E-01            NaN
         13   -1    0    0    0    0  0.00000000000E+00  0.00000000000E+00  0.74505805969E-08  0.10566000000E+00  0.10566000000E+00 0.  1.
     999900   -1    0    0    0    0 -0.00000000000E+00 -0.00000000000E+00 -0.74505805969E-08  0.93827000000E+00  0.93827000000E+00 0. -1.
     999902    2    1    2    0    0  0.32979985531E-02 -0.21611720802E-01 -0.68190277064E-02  0.10210292924E+01  0.10207724396E+01 0.  0.
     999903    2    3    3    0    0  0.11341953389E+00 -0.66071408660E-01  0.64254288398E-02  0.13295337670E+00  0.20146774691E-01 0.  0.
         14    1    1    2    0    0 -0.32979985531E-02  0.21611720802E-01  0.68190277064E-02  0.22900707617E-01  0.00000000000E+00 0.  1.
     999901    1    3    3    0    0 -0.11012153533E+00  0.44459687858E-01 -0.13244456546E-01  0.88807591568E+00  0.88000000000E+00 0. -1.
        -11    1    4    4    0    0  0.72452594027E-01 -0.48125597958E-01  0.12280240938E-01  0.87843707791E-01  0.51100000000E-03 0.  1.
         11    1    4    4    0    0  0.40966939860E-01 -0.17945810703E-01 -0.58548120987E-02  0.45109668908E-01  0.51100000000E-03 0. -1.
</event>
<event>
 8    1  0.1202249E+005  0.1043930E+01  0.7957747E-01            NaN
         13   -1    0    0    0    0  0.00000000000E+00  0.00000000000E+00  0.74505805969E-08  0.10566000000E+00  0.10566000000E+00 0. -1.
     999900   -1    0    0    0    0 -0.00000000000E+00 -0.00000000000E+00 -0.74505805969E-08  0.93827000000E+00  0.93827000000E+00 0.  1.
     999902    2    1    2    0    0  0.92270181865E-02 -0.21229876179E-01  0.89318010168E-02  0.10191182573E+01  0.10188161756E+01 0.  0.
     999903    2    3    3    0    0  0.22519452697E-01 -0.54023179887E-01 -0.11430462627E+00  0.12982679404E+00  0.19074043846E-01 0.  0.
         14    1    1    2    0    0 -0.92270181865E-02  0.21229876179E-01 -0.89318010168E-02  0.24811742715E-01  0.00000000000E+00 0. -1.
     999901    1    3    3    0    0 -0.13292434511E-01  0.32793303709E-01  0.12323642729E+00  0.88929146324E+00  0.88000000000E+00 0. -1.
        -11    1    4    4    0    0  0.24136219890E-01 -0.37286541723E-01 -0.76765689904E-01  0.88690899035E-01  0.51100000000E-03 0.  1.
         11    1    4    4    0    0 -0.16167671932E-02 -0.16736638164E-01 -0.37538936371E-01  0.41135895008E-01  0.51100000000E-03 0. -1.
</event>
<event>
 8    1  0.1202249E+005  0.1043930E+01  0.7957747E-01            NaN
         13   -1    0    0    0    0  0.00000000000E+00  0.00000000000E+00  0.74505805969E-08  0.10566000000E+00  0.10566000000E+00 0.  1.
     999900   -1    0    0    0    0 -0.00000000000E+00 -0.00000000000E+00 -0.74505805969E-08  0.93827000000E+00  0.93827000000E+00 0. -1.
     999902    2    1    2    0    0  0.91831383083E-02 -0.18010630922E-02 -0.21539524366E-01  0.10204454313E+01  0.10201751581E+01 0.  0.
     999903    2    3    3    0    0 -0.83025302166E-01 -0.96025030078E-02  0.94669987485E-01  0.12799492308E+00  0.20853895099E-01 0.  0.
         14    1    1    2    0    0 -0.91831383083E-02  0.18010630922E-02  0.21539524366E-01  0.23484568707E-01  0.00000000000E+00 0.  1.
     999901    1    3    3    0    0  0.92208440474E-01  0.78014399156E-02 -0.11620951185E+00  0.89245050821E+00  0.88000000000E+00 0. -1.
        -11    1    4    4    0    0 -0.27690467359E-01 -0.11314558936E-01  0.24872684528E-01  0.38906204944E-01  0.51100000000E-03 0. -1.
         11    1    4    4    0    0 -0.55334834806E-01  0.17120559285E-02  0.69797302958E-01  0.89088718139E-01  0.51100000000E-03 0.  1.
</event>
<event>
 8    1  0.1202249E+005  0.1043930E+01  0.7957747E-01            NaN
         13   -1    0    0    0    0  0.00000000000E+00  0.00000000000E+00  0.74505805969E-08  0.10566000000E+00  0.10566000000E+00 0.  1.
     999900   -1    0    0    0    0 -0.00000000000E+00 -0.00000000000E+00 -0.74505805969E-08  0.93827000000E+00  0.93827000000E+00 0. -1.
     999902    2    1    2    0    0 -0.17458223994E-01  0.15846241006E-01  0.41967473395E-02  0.10199820225E+01  0.10197008486E+01 0.  0.
     999903    2    3    3    0    0 -0.12528429794E+00 -0.58157601350E-02 -0.36702110378E-01  0.13219352229E+00  0.19952545008E-01 0.  0.
         14    1    1    2    0    0  0.17458223994E-01 -0.15846241006E-01 -0.41967473395E-02  0.23947977520E-01  0.00000000000E+00 0.  1.
     999901    1    3    3    0    0  0.10782607394E+00  0.21662001141E-01  0.40898857718E-01  0.88778850019E+00  0.88000000000E+00 0.  1.
        -11    1    4    4    0    0 -0.23043593427E-02  0.18606120211E-02 -0.34292606869E-02  0.45599231278E-02  0.51100000000E-03 0. -1.
         11    1    4    4    0    0 -0.12297993859E+00 -0.76763721561E-02 -0.33272849691E-01  0.12763359916E+00  0.51100000000E-03 0.  1.
</event>
<event>
 8    1  0.1350740E+005  0.1043930E+01  0.7957747E-01            NaN
         13   -1    0    0    0    0  0.00000000000E+00  0.00000000000E+00  0.74505805969E-08  0.10566000000E+00  0.10566000000E+00 0. -1.
     999900   -1    0    0    0    0 -0.00000000000E+00 -0.00000000000E+00 -0.74505805969E-08  0.93827000000E+00  0.93827000000E+00 0. -1.
     999902    2    1    2    0    0 -0.30469143502E-02 -0.15376259847E-01  0.16992533026E-01  0.10208116257E+01  0.10205498106E+01 0.  0.
     999903    2    3    3    0    0  0.10943776341E-01  0.10505417563E-01 -0.12621397305E+00  0.12875013448E+00  0.20408333958E-01 0.  0.
         14    1    1    2    0    0  0.30469143502E-02  0.15376259847E-01 -0.16992533026E-01  0.23118374350E-01  0.00000000000E+00 0.  1.
     999901    1    3    3    0    0 -0.13990690691E-01 -0.25881677410E-01  0.14320650608E+00  0.89206149117E+00  0.88000000000E+00 0.  1.
        -11    1    4    4    0    0 -0.32609606018E-03 -0.23398579214E-02 -0.68859948615E-01  0.68902357855E-01  0.51100000000E-03 0. -1.
         11    1    4    4    0    0  0.11269872401E-01  0.12845275484E-01 -0.57354024439E-01  0.59847776621E-01  0.51100000000E-03 0.  1.
</event>
<event>
 8    1  0.1202249E+005  0.1043930E+01  0.7957747E-01            NaN
         13   -1    0    0    0    0  0.00000000000E+00  0.00000000000E+00  0.74505805969E-08  0.10566000000E+00  0.10566000000E+00 0.  1.
     999900   -1    0    0    0    0 -0.00000000000E+00 -0.00000000000E+00 -0.74505805969E-08  0.93827000000E+00  0.93827000000E+00 0.  1.
     999902    2    1    2    0    0  0.19262018512E-01  0.13411549248E-01  0.14675981230E-02  0.10204130092E+01  0.10201419806E+01 0.  0.
     999903    2    3    3    0    0  0.83241701238E-01 -0.84152503837E-01  0.53288180039E-01  0.13120127013E+00  0.19060913520E-01 0.  0.
         14    1    1    2    0    0 -0.19262018512E-01 -0.13411549248E-01 -0.14675981230E-02  0.23516990765E-01  0.00000000000E+00 0.  1.
     999901    1    3    3    0    0 -0.63979682726E-01  0.97564053085E-01 -0.51820581916E-01  0.88921173911E+00  0.88000000000E+00 0.  1.
        -11    1    4    4    0    0  0.48059540454E-01 -0.51539105186E-01  0.41556080813E-01  0.81811782559E-01  0.51100000000E-03 0.  1.
         11    1    4    4    0    0  0.35182160784E-01 -0.32613398652E-01  0.11732099226E-01  0.49389487569E-01  0.51100000000E-03 0. -1.
</event>
<event>
 8    1  0.1202249E+005  0.1043930E+01  0.7957747E-01            NaN
         13   -1    0    0    0    0  0.00000000000E+00  0.00000000000E+00  0.74505805969E-08  0.10566000000E+00  0.10566000000E+00 0.  1.
     999900   -1    0    0    0    0 -0.00000000000E+00 -0.00000000000E+00 -0.74505805969E-08  0.93827000000E+00  0.93827000000E+00 0. -1.
     999902    2    1    2    0    0 -0.51757069990E-02 -0.16548784449E-01  0.13609404971E-01  0.10218876291E+01  0.10216498718E+01 0.  0.
     999903    2    3    3    0    0 -0.49138991292E-01 -0.51838509331E-01 -0.10882124109E+00  0.13162508463E+00  0.19525083274E-01 0.  0.
         14    1    1    2    0    0  0.51757069990E-02  0.16548784449E-01 -0.13609404971E-01  0.22042370865E-01  0.00000000000E+00 0. -1.
     999901    1    3    3    0    0  0.43963284293E-01  0.35289724882E-01  0.12243064606E+00  0.89026254450E+00  0.88000000000E+00 0.  1.
        -11    1    4    4    0    0 -0.46002311503E-01 -0.44127307605E-01 -0.84065620038E-01  0.10550223473E+00  0.51100000000E-03 0. -1.
         11    1    4    4    0    0 -0.31366797889E-02 -0.77112017269E-02 -0.24755621054E-01  0.26122849901E-01  0.51100000000E-03 0.  1.
</event>
<event>
 8    1  0.1202249E+005  0.1043930E+01  0.7957747E-01            NaN
         13   -1    0    0    0    0  0.00000000000E+00  0.00000000000E+00  0.74505805969E-08  0.10566000000E+00  0.10566000000E+00 0. -1.
     999900   -1    0    0    0    0 -0.00000000000E+00 -0.00000000000E+00 -0.74505805969E-08  0.93827000000E+00  0.93827000000E+00 0.  1.
     999902    2    1    2    0    0  0.20862504130E-01 -0.64687084970E-02 -0.80592142345E-02  0.10206482646E+01  0.10203826933E+01 0.  0.
     999903    2    3    3    0    0 -0.46600295446E-01 -0.10530633773E+00  0.57286512605E-01  0.13014830937E+00  0.19895366405E-01 0.  0.
         14    1    1    2    0    0 -0.20862504130E-01  0.64687084970E-02  0.80592142345E-02  0.23281735379E-01  0.00000000000E+00 0.  1.
     999901    1    3    3    0    0  0.67462799576E-01  0.98837629234E-01 -0.65345726840E-01  0.89049995525E+00  0.88000000000E+00 0.  1.
        -11    1    4    4    0    0 -0.30956357814E-01 -0.63218478326E-01  0.24446215153E-01  0.74516780978E-01  0.51100000000E-03 0.  1.
         11    1    4    4    0    0 -0.15643937632E-01 -0.42087859405E-01  0.32840297452E-01  0.55631528396E-01  0.51100000000E-03 0. -1.
</event>
<event>
 8    1  0.1202249E+005  0.1043930E+01  0.7957747E-01            NaN
         13   -1    0    0    0    0  0.00000000000E+00  0.00000000000E+00  0.74505805969E-08  0.10566000000E+00  0.10566000000E+00 0.  1.
     999900   -1    0    0    0    0 -0.00000000000E+00 -0.00000000000E+00 -0.74505805969E-08  0.93827000000E+00  0.93827000000E+00 0. -1.
     999902    2    1    2    0    0  0.20942618863E-01 -0.95055793016E-02 -0.53250096073E-02  0.10203226908E+01  0.10200495518E+01 0.  0.
     999903    2    3    3    0    0 -0.73185015753E-01  0.10322011181E+00 -0.13986559181E-02  0.12814417202E+00  0.20212238118E-01 0.  0.
         14    1    1    2    0    0 -0.20942618863E-01  0.95055793016E-02  0.53250096073E-02  0.23607309250E-01  0.00000000000E+00 0. -1.
     999901    1    3    3    0    0  0.94127634616E-01 -0.11272569112E+00 -0.39263536892E-02  0.89217851873E+00  0.88000000000E+00 0. -1.
        -11    1    4    4    0    0 -0.22707164761E-01  0.49257174895E-01 -0.30381276935E-03  0.54242400696E-01  0.51100000000E-03 0. -1.
         11    1    4    4    0    0 -0.50477850993E-01  0.53962936919E-01 -0.10948431487E-02  0.73901771321E-01  0.51100000000E-03 0.  1.
</event>
<event>
 8    1  0.1202249E+005  0.1043930E+01  0.7957747E-01            NaN
         13   -1    0    0    0    0  0.00000000000E+00  0.00000000000E+00  0.74505805969E-08  0.10566000000E+00  0.10566000000E+00 0.  1.
     999900   -1    0    0    0    0 -0.00000000000E+00 -0.00000000000E+00 -0.74505805969E-08  0.93827000000E+00  0.93827000000E+00 0.  1.
     999902    2    1    2    0    0  0.17289130112E-01  0.11900822321E-01  0.59145112903E-02  0.10221234635E+01  0.10218908207E+01 0.  0.
     999903    2    3    3    0    0  0.64647552967E-01  0.11579711566E+00 -0.10881575161E-01  0.13458790445E+00  0.20179624536E-01 0.  0.
         14    1    1    2    0    0 -0.17289130112E-01 -0.11900822321E-01 -0.59145112903E-02  0.21806536537E-01  0.00000000000E+00 0. -1.
     999901    1    3    3    0    0 -0.47358422855E-01 -0.10389629334E+00  0.16796086451E-01  0.88753555901E+00  0.88000000000E+00 0. -1.
        -11    1    4    4    0    0  0.27020327399E-01  0.31229093220E-01 -0.74223100189E-02  0.41960769334E-01  0.51100000000E-03 0.  1.
         11    1    4    4    0    0  0.37627225568E-01  0.84568022445E-01 -0.34592651421E-02  0.92627135120E-01  0.51100000000E-03 0. -1.
</event>
<event>
 8    1  0.1202249E+005  0.1043930E+01  0.7957747E-01            NaN
         13   -1    0    0    0    0  0.00000000000E+00  0.00000000000E+00  0.74505805969E-08  0.10566000000E+00  0.10566000000E+00 0. -1.
     999900   -1    0    0    0    0 -0.00000000000E+00 -0.00000000000E+00 -0.74505805969E-08  0.93827000000E+00  0.93827000000E+00 0.  1.
     999902    2    1    2    0    0 -0.11624262411E-01 -0.21202376309E-01  0.13401556717E-02  0.10197130585E+01  0.10194254565E+01 0.  0.
     999903    2    3    3    0    0 -0.91075512426E-01  0.78718714417E-01 -0.42649909750E-01  0.12941431576E+00  0.20920453095E-01 0.  0.
         14    1    1    2    0    0  0.11624262411E-01  0.21202376309E-01 -0.13401556717E-02  0.24216941486E-01  0.00000000000E+00 0. -1.
     999901    1    3    3    0    0  0.79451250015E-01 -0.99921090725E-01  0.43990065421E-01  0.89029874276E+00  0.88000000000E+00 0. -1.
        -11    1    4    4    0    0 -0.21814516998E-01  0.22350475017E-01 -0.20099480554E-02  0.31300445644E-01  0.51100000000E-03 0. -1.
         11    1    4    4    0    0 -0.69260995428E-01  0.56368239400E-01 -0.40639961694E-01  0.98113870111E-01  0.51100000000E-03 0.  1.
</event>
<event>
 8    1  0.1202249E+005  0.1043930E+01  0.7957747E-01            NaN
         13   -1    0    0    0    0  0.00000000000E+00  0.00000000000E+00  0.74505805969E-08  0.10566000000E+00  0.10566000000E+00 0. -1.
     999900   -1    0    0    0    0 -0.00000000000E+00 -0.00000000000E+00 -0.74505805969E-08  0.93827000000E+00  0.93827000000E+00 0.  1.
     999902    2    1    2    0    0 -0.93580773122E-02 -0.16174977550E-01 -0.15068974354E-01  0.10199242195E+01  0.10196416704E+01 0.  0.
     999903    2    3    3    0    0 -0.37959988940E-01 -0.12443174376E+00  0.13905998254E-01  0.13235611179E+00  0.20013593479E-01 0.  0.
         14    1    1    2    0    0  0.93580773122E-02  0.16174977550E-01  0.15068974354E-01  0.24005780508E-01  0.00000000000E+00 0.  1.
     999901    1    3    3    0    0  0.28601911628E-01  0.10825676621E+00 -0.28974972608E-01  0.88756810771E+00  0.88000000000E+00 0. -1.
        -11    1    4    4    0    0 -0.30719057877E-04 -0.27174245714E-01  0.13775786196E-02  0.27213956303E-01  0.51100000000E-03 0.  1.
         11    1    4    4    0    0 -0.37929269882E-01 -0.97257498047E-01  0.12528419634E-01  0.10514215548E+00  0.51100000000E-03 0. -1.
</event>
<event>
 8    1  0.1202249E+005  0.1043930E+01  0.7957747E-01            NaN
         13   -1    0    0    0    0  0.00000000000E+00  0.00000000000E+00  0.74505805969E-08  0.10566000000E+00  0.10566000000E+00 0. -1.
     999900   -1    0    0    0    0 -0.00000000000E+00 -0.00000000000E+00 -0.74505805969E-08  0.93827000000E+00  0.93827000000E+00 0. -1.
     999902    2    1    2    0    0  0.10558357014E-01 -0.12747609311E-01  0.18891263101E-01  0.10188130681E+01  0.10185034155E+01 0.  0.
     999903    2    3    3    0    0  0.12334935322E+00 -0.16815440244E-01  0.39007235818E-01  0.13137686847E+00  0.15507906104E-01 0.  0.
         14    1    1    2    0    0 -0.10558357014E-01  0.12747609311E-01 -0.18891263101E-01  0.25116931890E-01  0.00000000000E+00 0.  1.
     999901    1    3    3    0    0 -0.11279099621E+00  0.40678309329E-02 -0.20115972717E-01  0.88743619964E+00  0.88000000000E+00 0. -1.
        -11    1    4    4    0    0  0.70067659378E-01 -0.29925801912E-02  0.26129036060E-01  0.74842635398E-01  0.51100000000E-03 0. -1.
         11    1    4    4    0    0  0.53281693844E-01 -0.13822860053E-01  0.12878199758E-01  0.56534233072E-01  0.51100000000E-03 0.  1.
</event>
<event>
 8    1  0.1202249E+005  0.1043930E+01  0.7957747E-01            NaN
         13   -1    0    0    0    0  0.00000000000E+00  0.00000000000E+00  0.74505805969E-08  0.10566000000E+00  0.10566000000E+00 0. -1.
     999900   -1    0    0    0    0 -0.00000000000E+00 -0.00000000000E+00 -0.74505805969E-08  0.93827000000E+00  0.93827000000E+00 0. -1.
     999902    2    1    2    0    0 -0.63685484904E-02 -0.23545670176E-01  0.17388306991E-02  0.10194763597E+01  0.10191830392E+01 0.  0.
     999903    2    3    3    0    0 -0.64091206727E-01  0.35594197248E-01  0.10478594053E+00  0.12961786751E+00  0.21120335891E-01 0.  0.
         14    1    1    2    0    0  0.63685484904E-02  0.23545670176E-01 -0.17388306991E-02  0.24453640345E-01  0.00000000000E+00 0. -1.
     999901    1    3    3    0    0  0.57722658237E-01 -0.59139867424E-01 -0.10304710983E+00  0.88985849214E+00  0.88000000000E+00 0. -1.
        -11    1    4    4    0    0 -0.26997575939E-01  0.20073296669E-01  0.64206931743E-01  0.72488602902E-01  0.51100000000E-03 0. -1.
         11    1    4    4    0    0 -0.37093630788E-01  0.15520900579E-01  0.40579008787E-01  0.57129264611E-01  0.51100000000E-03 0.  1.
</event>
<event>
 8    1  0.1202249E+005  0.1043930E+01  0.7957747E-01            NaN
         13   -1    0    0    0    0  0.00000000000E+00  0.00000000000E+00  0.74505805969E-08  0.10566000000E+00  0.10566000000E+00 0. -1.
     999900   -1    0    0    0    0 -0.00000000000E+00 -0.00000000000E+00 -0.74505805969E-08  0.93827000000E+00  0.93827000000E+00 0.  1.
     999902    2    1    2    0    0  0.11852693002E-01  0.15706918152E-01 -0.12313276811E-01  0.10207177103E+01  0.10204537391E+01 0.  0.
     999903    2    3    3    0    0 -0.82031568891E-01  0.10009347156E+00  0.10889736642E-01  0.13140689572E+00  0.20032586799E-01 0.  0.
         14    1    1    2    0    0 -0.11852693002E-01 -0.15706918152E-01  0.12313276811E-01  0.23212289742E-01  0.00000000000E+00 0.  1.
     999901    1    3    3    0    0  0.93884261892E-01 -0.84386553410E-01 -0.23203013453E-01  0.88931081454E+00  0.88000000000E+00 0. -1.
        -11    1    4    4    0    0 -0.72133457923E-01  0.75496320933E-01  0.95498135383E-02  0.10485413814E+00  0.51100000000E-03 0. -1.
         11    1    4    4    0    0 -0.98981109676E-02  0.24597150629E-01  0.13399231036E-02  0.26552757573E-01  0.51100000000E-03 0.  1.
</event>
<event>
 8    1  0.1202249E+005  0.1043930E+01  0.7957747E-01            NaN
         13   -1    0    0    0    0  0.00000000000E+00  0.00000000000E+00  0.74505805969E-08  0.10566000000E+00  0.10566000000E+00 0. -1.
     999900   -1    0    0    0    0 -0.00000000000E+00 -0.00000000000E+00 -0.74505805969E-08  0.93827000000E+00  0.93827000000E+00 0.  1.
     999902    2    1    2    0    0 -0.29336122425E-02 -0.51290300217E-02 -0.21579202006E-01  0.10215564668E+01  0.10213114314E+01 0.  0.
     999903    2    3    3    0    0  0.10511569122E+00  0.52427306431E-01 -0.57644290425E-01  0.13235003717E+00  0.19893142522E-01 0.  0.
         14    1    1    2    0    0  0.29336122425E-02  0.51290300217E-02  0.21579202006E-01  0.22373533225E-01  0.00000000000E+00 0. -1.
     999901    1    3    3    0    0 -0.10804930347E+00 -0.57556336453E-01  0.36065088419E-01  0.88920642960E+00  0.88000000000E+00 0. -1.
        -11    1    4    4    0    0  0.51493523245E-01  0.31954054151E-01 -0.38690433875E-01  0.71901705872E-01  0.51100000000E-03 0.  1.
         11    1    4    4    0    0  0.53622167980E-01  0.20473252281E-01 -0.18953856550E-01  0.60448331299E-01  0.51100000000E-03 0. -1.
</event>
<event>
 8    1  0.1202249E+005  0.1043930E+01  0.7957747E-01            NaN
         13   -1    0    0    0    0  0.00000000000E+00  0.00000000000E+00  0.74505805969E-08  0.10566000000E+00  0.10566000000E+00 0.  1.
     999900   -1    0    0    0    0 -0.00000000000E+00 -0.00000000000E+00 -0.74505805969E-08  0.93827000000E+00  0.93827000000E+00 0. -1.
     999902    2    1    2    0    0 -0.34932888088E-02 -0.79255263110E-02  0.21830267667E-01  0.10204443103E+01  0.10201740110E+01 0.  0.
     999903    2    3    3    0    0  0.19272868885E-01 -0.63951795583E-01  0.11392528787E+00  0.13357412052E+00  0.20044920136E-01 0.  0.
         14    1    1    2    0    0  0.34932888088E-02  0.79255263110E-02 -0.21830267667E-01  0.23485689694E-01  0.00000000000E+00 0. -1.
     999901    1    3    3    0    0 -0.22766157694E-01  0.56026269272E-01 -0.92095020202E-01  0.88687018979E+00  0.88000000000E+00 0. -1.
        -11    1    4    4    0    0  0.17365367277E-01 -0.55305680738E-01  0.81877279661E-01  0.10032160459E+00  0.51100000000E-03 0. -1.
         11    1    4    4    0    0  0.19075016079E-02 -0.86461148442E-02  0.32048008209E-01  0.33252515926E-01  0.51100000000E-03 0.  1.
</event>
<event>
 8    1  0.1202249E+005  0.1043930E+01  0.7957747E-01            NaN
         13   -1    0    0    0    0  0.00000000000E+00  0.00000000000E+00  0.74505805969E-08  0.10566000000E+00  0.10566000000E+00 0.  1.
     999900   -1    0    0    0    0 -0.00000000000E+00 -0.00000000000E+00 -0.74505805969E-08  0.93827000000E+00  0.93827000000E+00 0. -1.
     999902    2    1    2    0    0 -0.87678452301E-02 -0.21790020106E-01  0.41635801182E-02  0.10200759545E+01  0.10197970080E+01 0.  0.
     999903    2    3    3    0    0  0.29393378063E-01  0.11953537588E+00  0.27358293742E-01  0.12768190409E+00  0.20037854994E-01 0.  0.
         14    1    1    2    0    0  0.87678452301E-02  0.21790020106E-01 -0.41635801182E-02  0.23854045477E-01  0.00000000000E+00 0. -1.
     999901    1    3    3    0    0 -0.38161223293E-01 -0.14132539599E+00 -0.23194713623E-01  0.89239405044E+00  0.88000000000E+00 0. -1.
        -11    1    4    4    0    0  0.73137938916E-02  0.66303389339E-01  0.19620092395E-01  0.69533014932E-01  0.51100000000E-03 0. -1.
         11    1    4    4    0    0  0.22079584171E-01  0.53231986546E-01  0.77382013461E-02  0.58148889154E-01  0.51100000000E-03 0.  1.
</event>
<event>
 8    1  0.1202249E+005  0.1043930E+01  0.7957747E-01            NaN
         13   -1    0    0    0    0  0.00000000000E+00  0.00000000000E+00  0.74505805969E-08  0.10566000000E+00  0.10566000000E+00 0. -1.
     999900   -1    0    0    0    0 -0.00000000000E+00 -0.00000000000E+00 -0.74505805969E-08  0.93827000000E+00  0.93827000000E+00 0. -1.
     999902    2    1    2    0    0  0.20887830950E-01  0.51054345301E-02 -0.96675624800E-02  0.10203539802E+01  0.10200815733E+01 0.  0.
     999903    2    3    3    0    0 -0.15405058874E-01 -0.92427562167E-01 -0.88890128652E-01  0.13068770894E+00  0.19941218840E-01 0.  0.
         14    1    1    2    0    0 -0.20887830950E-01 -0.51054345301E-02  0.96675624800E-02  0.23576019762E-01  0.00000000000E+00 0.  1.
     999901    1    3    3    0    0  0.36292889824E-01  0.97532996697E-01  0.79222566172E-01  0.88966627130E+00  0.88000000000E+00 0.  1.
        -11    1    4    4    0    0 -0.91882278694E-02 -0.83825054098E-01 -0.83872215319E-01  0.11893642356E+00  0.51100000000E-03 0. -1.
         11    1    4    4    0    0 -0.62168310044E-02 -0.86025080684E-02 -0.50179133330E-02  0.11751285377E-01  0.51100000000E-03 0.  1.
</event>
<event>
 8    1  0.1202249E+005  0.1043930E+01  0.7957747E-01            NaN
         13   -1    0    0    0    0  0.00000000000E+00  0.00000000000E+00  0.74505805969E-08  0.10566000000E+00  0.10566000000E+00 0. -1.
     999900   -1    0    0    0    0 -0.00000000000E+00 -0.00000000000E+00 -0.74505805969E-08  0.93827000000E+00  0.93827000000E+00 0. -1.
     999902    2    1    2    0    0 -0.22774201618E-01 -0.32069096142E-02  0.30748096411E-02  0.10207264877E+01  0.10204627184E+01 0.  0.
     999903    2    3    3    0    0 -0.15492292625E-01  0.57450014406E-01  0.11556036095E+00  0.13146539675E+00  0.19708836455E-01 0.  0.
         14    1    1    2    0    0  0.22774201618E-01  0.32069096142E-02 -0.30748096411E-02  0.23203512298E-01  0.00000000000E+00 0.  1.
     999901    1    3    3    0    0 -0.72819089927E-02 -0.60656924020E-01 -0.11248555131E+00  0.88926109095E+00  0.88000000000E+00 0. -1.
        -11    1    4    4    0    0 -0.15688357237E-01  0.27063772682E-01  0.46876152707E-01  0.56357849126E-01  0.51100000000E-03 0. -1.
         11    1    4    4    0    0  0.19606461148E-03  0.30386241724E-01  0.68684208240E-01  0.75107547623E-01  0.51100000000E-03 0.  1.
</event>
<event>
 8    1  0.1202249E+005  0.1043930E+01  0.7957747E-01            NaN
         13   -1    0    0    0    0  0.00000000000E+00  0.00000000000E+00  0.74505805969E-08  0.10566000000E+00  0.10566000000E+00 0.  1.
     999900   -1    0    0    0    0 -0.00000000000E+00 -0.00000000000E+00 -0.74505805969E-08  0.93827000000E+00  0.93827000000E+00 0.  1.
     999902    2    1    2    0    0 -0.21884090019E-01 -0.26681298127E-02 -0.17852286918E-02  0.10218116964E+01  0.10215722801E+01 0.  0.
     999903    2    3    3    0    0 -0.35144913859E-01  0.68520303203E-01  0.10620143276E+00  0.13225857179E+00  0.16834148944E-01 0.  0.
         14    1    1    2    0    0  0.21884090019E-01  0.26681298127E-02  0.17852286918E-02  0.22118303600E-01  0.00000000000E+00 0.  1.
     999901    1    3    3    0    0  0.13260823840E-01 -0.71188433015E-01 -0.10798666146E+00  0.88955312461E+00  0.88000000000E+00 0.  1.
        -11    1    4    4    0    0 -0.11872364190E-01  0.90821296700E-02  0.21753354506E-01  0.26399008771E-01  0.51100000000E-03 0.  1.
         11    1    4    4    0    0 -0.23272549668E-01  0.59438173533E-01  0.84448078258E-01  0.10585956302E+00  0.51100000000E-03 0. -1.
</event>
<event>
 8    1  0.1202249E+005  0.1043930E+01  0.7957747E-01            NaN
         13   -1    0    0    0    0  0.00000000000E+00  0.00000000000E+00  0.74505805969E-08  0.10566000000E+00  0.10566000000E+00 0.  1.
     999900   -1    0    0    0    0 -0.00000000000E+00 -0.00000000000E+00 -0.74505805969E-08  0.93827000000E+00  0.93827000000E+00 0. -1.
     999902    2    1    2    0    0 -0.45668144215E-02  0.52046205553E-02 -0.19655865768E-01  0.10230902081E+01  0.10228779384E+01 0.  0.
     999903    2    3    3    0    0 -0.48424978340E-01  0.69876306779E-01 -0.10375586090E+00  0.13563385718E+00  0.20089493900E-01 0.  0.
         14    1    1    2    0    0  0.45668144215E-02 -0.52046205553E-02  0.19655865768E-01  0.20839791942E-01  0.00000000000E+00 0.  1.
     999901    1    3    3    0    0  0.43858163918E-01 -0.64671686224E-01  0.84099995131E-01  0.88745635088E+00  0.88000000000E+00 0.  1.
        -11    1    4    4    0    0 -0.15681807161E-01  0.88857949831E-02 -0.18885956331E-01  0.26111623769E-01  0.51100000000E-03 0.  1.
         11    1    4    4    0    0 -0.32743171179E-01  0.60990511796E-01 -0.84869904568E-01  0.10952223341E+00  0.51100000000E-03 0. -1.
</event>
<event>
 8    1  0.1202249E+005  0.1043930E+01  0.7957747E-01            NaN
         13   -1    0    0    0    0  0.00000000000E+00  0.00000000000E+00  0.74505805969E-08  0.10566000000E+00  0.10566000000E+00 0. -1.
     999900   -1    0    0    0    0 -0.00000000000E+00 -0.00000000000E+00 -0.74505805969E-08  0.93827000000E+00  0.93827000000E+00 0. -1.
     999902    2    1    2    0    0  0.20599917015E-01  0.76403899797E-02  0.10516367370E-01  0.10195717135E+01  0.10192807036E+01 0.  0.
     999903    2    3    3    0    0  0.85617184507E-01 -0.25527014583E-01  0.95253493786E-01  0.13249353067E+00  0.22346741051E-01 0.  0.
         14    1    1    2    0    0 -0.20599917015E-01 -0.76403899797E-02 -0.10516367370E-01  0.24358286531E-01  0.00000000000E+00 0. -1.
     999901    1    3    3    0    0 -0.65017267492E-01  0.33167404563E-01 -0.84737126416E-01  0.88707818279E+00  0.88000000000E+00 0. -1.
        -11    1    4    4    0    0  0.37135901340E-01 -0.51206612666E-02  0.26436301475E-01  0.45874126660E-01  0.51100000000E-03 0. -1.
         11    1    4    4    0    0  0.48481283167E-01 -0.20406353317E-01  0.68817192310E-01  0.86619404014E-01  0.51100000000E-03 0.  1.
</event>
<event>
 8    1  0.1202249E+005  0.1043930E+01  0.7957747E-01            NaN
         13   -1    0    0    0    0  0.00000000000E+00  0.00000000000E+00  0.74505805969E-08  0.10566000000E+00  0.10566000000E+00 0.  1.
     999900   -1    0    0    0    0 -0.00000000000E+00 -0.00000000000E+00 -0.74505805969E-08  0.93827000000E+00  0.93827000000E+00 0. -1.
     999902    2    1    2    0    0  0.21970359856E-01 -0.17663269776E-02  0.63360190894E-02  0.10209961438E+01  0.10207385384E+01 0.  0.
     999903    2    3    3    0    0 -0.70331273517E-01  0.72241389898E-01 -0.78181930257E-01  0.12906564344E+00  0.19499221737E-01 0.  0.
         14    1    1    2    0    0 -0.21970359856E-01  0.17663269776E-02 -0.63360190894E-02  0.22933856219E-01  0.00000000000E+00 0. -1.
     999901    1    3    3    0    0  0.92301633373E-01 -0.74007716875E-01  0.84517949347E-01  0.89193050034E+00  0.88000000000E+00 0.  1.
        -11    1    4    4    0    0 -0.40314600243E-01  0.46461951488E-01 -0.58414910792E-01  0.84832439861E-01  0.51100000000E-03 0.  1.
         11    1    4    4    0    0 -0.30016673274E-01  0.25779438410E-01 -0.19767019465E-01  0.44233203577E-01  0.51100000000E-03 0. -1.
</event>
<event>
 8    1  0.1202249E+005  0.1043930E+01  0.7957747E-01            NaN
         13   -1    0    0    0    0  0.00000000000E+00  0.00000000000E+00  0.74505805969E-08  0.10566000000E+00  0.10566000000E+00 0.  1.
     999900   -1    0    0    0    0 -0.00000000000E+00 -0.00000000000E+00 -0.74505805969E-08  0.93827000000E+00  0.93827000000E+00 0. -1.
     999902    2    1    2    0    0 -0.11901709335E-01 -0.11812083948E-01 -0.22624285398E-01  0.10157691353E+01  0.10153786988E+01 0.  0.
     999903    2    3    3    0    0 -0.74186685285E-01 -0.69539730901E-01  0.72919790128E-01  0.12653318806E+00  0.18812587301E-01 0.  0.
         14    1    1    2    0    0  0.11901709335E-01  0.11812083948E-01  0.22624285398E-01  0.28160864725E-01  0.00000000000E+00 0.  1.
     999901    1    3    3    0    0  0.62284975950E-01  0.57727646953E-01 -0.95544075526E-01  0.88923594722E+00  0.88000000000E+00 0. -1.
        -11    1    4    4    0    0 -0.38690977754E-01 -0.40742135915E-01  0.50812787267E-01  0.75756939413E-01  0.51100000000E-03 0.  1.
         11    1    4    4    0    0 -0.35495707531E-01 -0.28797594986E-01  0.22107002862E-01  0.50776248647E-01  0.51100000000E-03 0. -1.
</event>
<event>
 8    1  0.1202249E+005  0.1043930E+01  0.7957747E-01            NaN
         13   -1    0    0    0    0  0.00000000000E+00  0.00000000000E+00  0.74505805969E-08  0.10566000000E+00  0.10566000000E+00 0. -1.
     999900   -1    0    0    0    0 -0.00000000000E+00 -0.00000000000E+00 -0.74505805969E-08  0.93827000000E+00  0.93827000000E+00 0.  1.
     999902    2    1    2    0    0  0.17689026047E-01 -0.14861689217E-01  0.42792238474E-02  0.10204335491E+01  0.10201629992E+01 0.  0.
     999903    2    3    3    0    0  0.34492843158E-01  0.11648620962E+00 -0.40486352814E-01  0.12940122888E+00  0.18620956208E-01 0.  0.
         14    1    1    2    0    0 -0.17689026047E-01  0.14861689217E-01 -0.42792238474E-02  0.23496450915E-01  0.00000000000E+00 0. -1.
     999901    1    3    3    0    0 -0.16803817112E-01 -0.13134789884E+00  0.44765576662E-01  0.89103232021E+00  0.88000000000E+00 0.  1.
        -11    1    4    4    0    0  0.13270330792E-01  0.76265658229E-01 -0.26382781720E-01  0.81785479131E-01  0.51100000000E-03 0.  1.
         11    1    4    4    0    0  0.21222512366E-01  0.40220551392E-01 -0.14103571094E-01  0.47615749748E-01  0.51100000000E-03 0. -1.
</event>
<event>
 8    1  0.1202249E+005  0.1043930E+01  0.7957747E-01            NaN
         13   -1    0    0    0    0  0.00000000000E+00  0.00000000000E+00  0.74505805969E-08  0.10566000000E+00  0.10566000000E+00 0. -1.
     999900   -1    0    0    0    0 -0.00000000000E+00 -0.00000000000E+00 -0.74505805969E-08  0.93827000000E+00  0.93827000000E+00 0. -1.
     999902    2    1    2    0    0 -0.19813110127E-01  0.30241844464E-02  0.12581623971E-01  0.10202656326E+01  0.10199911562E+01 0.  0.
     999903    2    3    3    0    0 -0.38905543295E-01 -0.26113086725E-01  0.12289579914E+00  0.13269438538E+00  0.17575206093E-01 0.  0.
         14    1    1    2    0    0  0.19813110127E-01 -0.30241844464E-02 -0.12581623971E-01  0.23664367437E-01  0.00000000000E+00 0.  1.
     999901    1    3    3    0    0  0.19092433169E-01  0.29137271172E-01 -0.11031417517E+00  0.88757124718E+00  0.88000000000E+00 0. -1.
        -11    1    4    4    0    0 -0.16144579707E-01 -0.10537634647E-02  0.39954038665E-01  0.43108516537E-01  0.51100000000E-03 0.  1.
         11    1    4    4    0    0 -0.22760963589E-01 -0.25059323260E-01  0.82941760473E-01  0.89585868847E-01  0.51100000000E-03 0. -1.
</event>
<event>
 8    1  0.1202249E+005  0.1043930E+01  0.7957747E-01            NaN
         13   -1    0    0    0    0  0.00000000000E+00  0.00000000000E+00  0.74505805969E-08  0.10566000000E+00  0.10566000000E+00 0. -1.
     999900   -1    0    0    0    0 -0.00000000000E+00 -0.00000000000E+00 -0.74505805969E-08  0.93827000000E+00  0.93827000000E+00 0.  1.
     999902    2    1    2    0    0 -0.17045867234E-01 -0.39041788699E-03 -0.17655956264E-01  0.10193852081E+01  0.10190896701E+01 0.  0.
     999903    2    3    3    0    0 -0.58819683118E-01 -0.11521360038E+00 -0.24231638187E-02  0.13081250267E+00  0.19290160677E-01 0.  0.
         14    1    1    2    0    0  0.17045867234E-01  0.39041788699E-03  0.17655956264E-01  0.24544791861E-01  0.00000000000E+00 0. -1.
     999901    1    3    3    0    0  0.41773815884E-01  0.11482318249E+00 -0.15232792445E-01  0.88857270546E+00  0.88000000000E+00 0. -1.
        -11    1    4    4    0    0 -0.20624467340E-01 -0.61478189517E-01 -0.21442434407E-02  0.64882935663E-01  0.51100000000E-03 0. -1.
         11    1    4    4    0    0 -0.38195215779E-01 -0.53735410861E-01 -0.27892037793E-03  0.65929567012E-01  0.51100000000E-03 0.  1.
</event>
<event>
 8    1  0.1202249E+005  0.1043930E+01  0.7957747E-01            NaN
         13   -1    0    0    0    0  0.00000000000E+00  0.00000000000E+00  0.74505805969E-08  0.10566000000E+00  0.10566000000E+00 0.  1.
     999900   -1    0    0    0    0 -0.00000000000E+00 -0.00000000000E+00 -0.74505805969E-08  0.93827000000E+00  0.93827000000E+00 0.  1.
     999902    2    1    2    0    0  0.56769725285E-02 -0.22662537822E-01 -0.39377993797E-02  0.10202377038E+01  0.10199625715E+01 0.  0.
     999903    2    3    3    0    0  0.11648583004E+00 -0.25891356117E-01 -0.52327341653E-01  0.13196377305E+00  0.20903965907E-01 0.  0.
         14    1    1    2    0    0 -0.56769725285E-02  0.22662537822E-01  0.39377993797E-02  0.23692296249E-01  0.00000000000E+00 0. -1.
     999901    1    3    3    0    0 -0.11080885751E+00  0.32288182955E-02  0.48389542274E-01  0.88827393071E+00  0.88000000000E+00 0. -1.
        -11    1    4    4    0    0  0.53952552233E-01 -0.58269818278E-02 -0.14495409945E-01  0.56171252791E-01  0.51100000000E-03 0. -1.
         11    1    4    4    0    0  0.62533277804E-01 -0.20064374289E-01 -0.37831931709E-01  0.75792520254E-01  0.51100000000E-03 0.  1.
</event>
<event>
 7    1  0.1202249E+005  0.1043930E+01  0.7957747E-01            NaN
         13   -1    0    0    0    0  0.00000000000E+00  0.00000000000E+00  0.74505805969E-08  0.10566000000E+00  0.10566000000E+00 0.  1.
     999900   -1    0    0    0    0 -0.00000000000E+00 -0.00000000000E+00 -0.74505805969E-08  0.93827000000E+00  0.93827000000E+00 0. -1.
     999903    2    1    2    0    0  0.10653127354E+00 -0.29561960567E-01 -0.18711531820E-02  0.11233174781E+00  0.19801479685E-01 0.  0.
         14    1    1    2    0    0 -0.23639950926E-01 -0.38293922933E-01  0.29777703515E-02  0.45101429353E-01  0.00000000000E+00 0.  1.
     999901    1    1    2    0    0 -0.82891322617E-01  0.67855883500E-01 -0.11066171695E-02  0.88649682283E+00  0.88000000000E+00 0.  1.
        -11    1    3    3    0    0  0.25133116718E-01 -0.25533057764E-02 -0.75751281822E-02  0.26378715176E-01  0.51100000000E-03 0.  1.
         11    1    3    3    0    0  0.81398156825E-01 -0.27008654791E-01  0.57039750002E-02  0.85953032639E-01  0.51100000000E-03 0. -1.
</event>
<event>
 8    1  0.1202249E+005  0.1043930E+01  0.7957747E-01            NaN
         13   -1    0    0    0    0  0.00000000000E+00  0.00000000000E+00  0.74505805969E-08  0.10566000000E+00  0.10566000000E+00 0.  1.
     999900   -1    0    0    0    0 -0.00000000000E+00 -0.00000000000E+00 -0.74505805969E-08  0.93827000000E+00  0.93827000000E+00 0. -1.
     999902    2    1    2    0    0 -0.29920712629E-02 -0.91719351232E-02 -0.20679634667E-01  0.10211106185E+01  0.10208556073E+01 0.  0.
     999903    2    3    3    0    0 -0.25247257484E-01  0.89690673852E-01  0.87207620806E-01  0.12874927423E+00  0.17010746642E-01 0.  0.
         14    1    1    2    0    0  0.29920712629E-02  0.91719351232E-02  0.20679634667E-01  0.22819381550E-01  0.00000000000E+00 0.  1.
     999901    1    3    3    0    0  0.22255186221E-01 -0.98862608975E-01 -0.10788725547E+00  0.89236134422E+00  0.88000000000E+00 0. -1.
        -11    1    4    4    0    0 -0.76990882361E-02  0.85702545958E-02  0.13415548488E-01  0.17690768376E-01  0.51100000000E-03 0.  1.
         11    1    4    4    0    0 -0.17548169248E-01  0.81120419256E-01  0.73792072318E-01  0.11105850585E+00  0.51100000000E-03 0. -1.
</event>
<event>
 8    1  0.1202249E+005  0.1043930E+01  0.7957747E-01            NaN
         13   -1    0    0    0    0  0.00000000000E+00  0.00000000000E+00  0.74505805969E-08  0.10566000000E+00  0.10566000000E+00 0. -1.
     999900   -1    0    0    0    0 -0.00000000000E+00 -0.00000000000E+00 -0.74505805969E-08  0.93827000000E+00  0.93827000000E+00 0. -1.
     999902    2    1    2    0    0  0.61729920295E-02  0.22807412242E-01  0.52546050789E-02  0.10197247370E+01  0.10194374157E+01 0.  0.
     999903    2    3    3    0    0  0.11770957232E+00 -0.20347227239E-01 -0.48029396445E-01  0.13003832229E+00  0.18264426302E-01 0.  0.
         14    1    1    2    0    0 -0.61729920295E-02 -0.22807412242E-01 -0.52546050789E-02  0.24205263029E-01  0.00000000000E+00 0.  1.
     999901    1    3    3    0    0 -0.11153658029E+00  0.43154639481E-01  0.53284001524E-01  0.88968641468E+00  0.88000000000E+00 0.  1.
        -11    1    4    4    0    0  0.92230984640E-01 -0.86252282041E-02 -0.39643888512E-01  0.10076134232E+00  0.51100000000E-03 0. -1.
         11    1    4    4    0    0  0.25478587682E-01 -0.11721999035E-01 -0.83855079338E-02  0.29276979966E-01  0.51100000000E-03 0.  1.
</event>
<event>
 8    1  0.1202249E+005  0.1043930E+01  0.7957747E-01            NaN
         13   -1    0    0    0    0  0.00000000000E+00  0.00000000000E+00  0.74505805969E-08  0.10566000000E+00  0.10566000000E+00 0.  1.
     999900   -1    0    0    0    0 -0.00000000000E+00 -0.00000000000E+00 -0.74505805969E-08  0.93827000000E+00  0.93827000000E+00 0. -1.
     999902    2    1    2    0    0  0.78516037126E-02  0.15162656221E-01  0.15870164169E-01  0.10206187166E+01  0.10203524630E+01 0.  0.
     999903    2    3    3    0    0 -0.68651951299E-01  0.16386445744E-01  0.10961269227E+00  0.13233838178E+00  0.22735412130E-01 0.  0.
         14    1    1    2    0    0 -0.78516037126E-02 -0.15162656221E-01 -0.15870164169E-01  0.23311283433E-01  0.00000000000E+00 0. -1.
     999901    1    3    3    0    0  0.76503555012E-01 -0.12237895233E-02 -0.93742528102E-01  0.88828033478E+00  0.88000000000E+00 0. -1.
        -11    1    4    4    0    0 -0.27668101858E-01  0.18410208477E-02  0.61604860336E-01  0.67559848699E-01  0.51100000000E-03 0.  1.
         11    1    4    4    0    0 -0.40983849441E-01  0.14545424897E-01  0.48007831935E-01  0.64778533084E-01  0.51100000000E-03 0. -1.
</event>
<event>
 8    1  0.1202249E+005  0.1043930E+01  0.7957747E-01            NaN
         13   -1    0    0    0    0  0.00000000000E+00  0.00000000000E+00  0.74505805969E-08  0.10566000000E+00  0.10566000000E+00 0. -1.
     999900   -1    0    0    0    0 -0.00000000000E+00 -0.00000000000E+00 -0.74505805969E-08  0.93827000000E+00  0.93827000000E+00 0.  1.
     999902    2    1    2    0    0  0.10961975096E-01  0.16221843791E-01 -0.12339811558E-01  0.10207873108E+01  0.10205249384E+01 0.  0.
     999903    2    3    3    0    0 -0.20100559742E-01  0.10736228746E+00  0.70584370537E-01  0.13165971506E+00  0.20528856121E-01 0.  0.
         14    1    1    2    0    0 -0.10961975096E-01 -0.16221843791E-01  0.12339811558E-01  0.23142689197E-01  0.00000000000E+00 0. -1.
     999901    1    3    3    0    0  0.31062534838E-01 -0.91140443670E-01 -0.82924182095E-01  0.88912759575E+00  0.88000000000E+00 0.  1.
        -11    1    4    4    0    0 -0.21070680899E-01  0.90592412291E-01  0.51833050369E-01  0.10647950502E+00  0.51100000000E-03 0.  1.
         11    1    4    4    0    0  0.97012115733E-03  0.16769875170E-01  0.18751320168E-01  0.25180210033E-01  0.51100000000E-03 0. -1.
</event>
<event>
 8    1  0.1202249E+005  0.1043930E+01  0.7957747E-01            NaN
         13   -1    0    0    0    0  0.00000000000E+00  0.00000000000E+00  0.74505805969E-08  0.10566000000E+00  0.10566000000E+00 0. -1.
     999900   -1    0    0    0    0 -0.00000000000E+00 -0.00000000000E+00 -0.74505805969E-08  0.93827000000E+00  0.93827000000E+00 0. -1.
     999902    2    1    2    0    0  0.62764284986E-02  0.10638505128E-01 -0.19519366223E-01  0.10208307142E+01  0.10205693362E+01 0.  0.
     999903    2    3    3    0    0  0.13018196503E+00  0.67576694456E-03 -0.18182791246E-01  0.13209361891E+00  0.13050271223E-01 0.  0.
         14    1    1    2    0    0 -0.62764284986E-02 -0.10638505128E-01  0.19519366223E-01  0.23099285786E-01  0.00000000000E+00 0. -1.
     999901    1    3    3    0    0 -0.12390553653E+00  0.99627381839E-02 -0.13365749769E-02  0.88873709530E+00  0.88000000000E+00 0.  1.
        -11    1    4    4    0    0  0.47801318515E-01 -0.34527223991E-02 -0.11810091968E-01  0.49362199475E-01  0.51100000000E-03 0.  1.
         11    1    4    4    0    0  0.82380646516E-01  0.41284893437E-02 -0.63726992787E-02  0.82731419436E-01  0.51100000000E-03 0. -1.
</event>
<event>
 8    1  0.1202249E+005  0.1043930E+01  0.7957747E-01            NaN
         13   -1    0    0    0    0  0.00000000000E+00  0.00000000000E+00  0.74505805969E-08  0.10566000000E+00  0.10566000000E+00 0. -1.
     999900   -1    0    0    0    0 -0.00000000000E+00 -0.00000000000E+00 -0.74505805969E-08  0.93827000000E+00  0.93827000000E+00 0.  1.
     999902    2    1    2    0    0  0.18518011999E-01  0.20166278620E-02 -0.14751982089E-01  0.10201685915E+01  0.10198918328E+01 0.  0.
     999903    2    3    3    0    0 -0.50401996552E-01 -0.75069562080E-01  0.88507892168E-01  0.12811766817E+00  0.20116896227E-01 0.  0.
         14    1    1    2    0    0 -0.18518011999E-01 -0.20166278620E-02  0.14751982089E-01  0.23761408458E-01  0.00000000000E+00 0. -1.
     999901    1    3    3    0    0  0.68920008551E-01  0.77086189942E-01 -0.10325987426E+00  0.89205092337E+00  0.88000000000E+00 0.  1.
        -11    1    4    4    0    0 -0.25070231795E-01 -0.50111314701E-01  0.44629836785E-01  0.71636190824E-01  0.51100000000E-03 0. -1.
         11    1    4    4    0    0 -0.25331764756E-01 -0.24958247380E-01  0.43878055383E-01  0.56481477346E-01  0.51100000000E-03 0.  1.
</event>
<event>
 8    1  0.1202249E+005  0.1043930E+01  0.7957747E-01            NaN
         13   -1    0    0    0    0  0.00000000000E+00  0.00000000000E+00  0.74505805969E-08  0.10566000000E+00  0.10566000000E+00 0. -1.
     999900   -1    0    0    0    0 -0.00000000000E+00 -0.00000000000E+00 -0.74505805969E-08  0.93827000000E+00  0.93827000000E+00 0.  1.
     999902    2    1    2    0    0 -0.15001770489E-01  0.16971854971E-01  0.89281448459E-02  0.10195823359E+01  0.10192915828E+01 0.  0.
     999903    2    3    3    0    0  0.91211485682E-01  0.55225390209E-02 -0.87221894923E-01  0.12792255053E+00  0.20161508425E-01 0.  0.
         14    1    1    2    0    0  0.15001770489E-01 -0.16971854971E-01 -0.89281448459E-02  0.24347664145E-01  0.00000000000E+00 0.  1.
     999901    1    3    3    0    0 -0.10621325617E+00  0.11449315950E-01  0.96150039769E-01  0.89165978533E+00  0.88000000000E+00 0. -1.
        -11    1    4    4    0    0  0.31850953688E-01  0.36399161250E-02 -0.44114040626E-01  0.54534777359E-01  0.51100000000E-03 0. -1.
         11    1    4    4    0    0  0.59360531994E-01  0.18826228960E-02 -0.43107854297E-01  0.73387773169E-01  0.51100000000E-03 0.  1.
</event>
<event>
 8    1  0.1202249E+005  0.1043930E+01  0.7957747E-01            NaN
         13   -1    0    0    0    0  0.00000000000E+00  0.00000000000E+00  0.74505805969E-08  0.10566000000E+00  0.10566000000E+00 0.  1.
     999900   -1    0    0    0    0 -0.00000000000E+00 -0.00000000000E+00 -0.74505805969E-08  0.93827000000E+00  0.93827000000E+00 0. -1.
     999902    2    1    2    0    0  0.45475880583E-02 -0.23945601300E-02  0.23409792527E-01  0.10199626710E+01  0.10196810370E+01 0.  0.
     999903    2    3    3    0    0  0.10231099993E+00 -0.62811631583E-01 -0.45621085784E-01  0.12980921824E+00  0.18876119919E-01 0.  0.
         14    1    1    2    0    0 -0.45475880583E-02  0.23945601300E-02 -0.23409792527E-01  0.23967329044E-01  0.00000000000E+00 0. -1.
     999901    1    3    3    0    0 -0.97763411870E-01  0.60417071453E-01  0.69030878311E-01  0.89015345272E+00  0.88000000000E+00 0. -1.
        -11    1    4    4    0    0  0.33020518487E-01 -0.28295646234E-01 -0.10154595301E-01  0.44658427689E-01  0.51100000000E-03 0. -1.
         11    1    4    4    0    0  0.69290481442E-01 -0.34515985349E-01 -0.35466490484E-01  0.85150790550E-01  0.51100000000E-03 0.  1.
</event>
<event>
 8    1  0.1202249E+005  0.1043930E+01  0.7957747E-01            NaN
         13   -1    0    0    0    0  0.00000000000E+00  0.00000000000E+00  0.74505805969E-08  0.10566000000E+00  0.10566000000E+00 0.  1.
     999900   -1    0    0    0    0 -0.00000000000E+00 -0.00000000000E+00 -0.74505805969E-08  0.93827000000E+00  0.93827000000E+00 0.  1.
     999902    2    1    2    0    0 -0.11209609414E-01 -0.20314820477E-01  0.44367718599E-02  0.10203072944E+01  0.10200337949E+01 0.  0.
     999903    2    3    3    0    0  0.40842766425E-01  0.78026963190E-01  0.91411518542E-01  0.12904685953E+00  0.23252691854E-01 0.  0.
         14    1    1    2    0    0  0.11209609414E-01  0.20314820477E-01 -0.44367718599E-02  0.23622705577E-01  0.00000000000E+00 0.  1.
     999901    1    3    3    0    0 -0.52052375839E-01 -0.98341783667E-01 -0.86974746682E-01  0.89126043489E+00  0.88000000000E+00 0.  1.
        -11    1    4    4    0    0  0.19423688632E-01  0.18756225459E-01  0.36847095393E-01  0.45684190191E-01  0.51100000000E-03 0.  1.
         11    1    4    4    0    0  0.21419077793E-01  0.59270737730E-01  0.54564423149E-01  0.83362669338E-01  0.51100000000E-03 0. -1.
</event>
<event>
 8    1  0.1202249E+005  0.1043930E+01  0.7957747E-01            NaN
         13   -1    0    0    0    0  0.00000000000E+00  0.00000000000E+00  0.74505805969E-08  0.10566000000E+00  0.10566000000E+00 0.  1.
     999900   -1    0    0    0    0 -0.00000000000E+00 -0.00000000000E+00 -0.74505805969E-08  0.93827000000E+00  0.93827000000E+00 0. -1.
     999902    2    1    2    0    0  0.92172704317E-02  0.20300886725E-01 -0.46378215649E-02  0.10211573527E+01  0.10209033968E+01 0.  0.
     999903    2    3    3    0    0 -0.86990091981E-01  0.73046368326E-01 -0.64797703380E-01  0.13230576003E+00  0.20075451332E-01 0.  0.
         14    1    1    2    0    0 -0.92172704317E-02 -0.20300886725E-01  0.46378215649E-02  0.22772647297E-01  0.00000000000E+00 0. -1.
     999901    1    3    3    0    0  0.96207362413E-01 -0.52745481601E-01  0.60159881816E-01  0.88885159267E+00  0.88000000000E+00 0. -1.
        -11    1    4    4    0    0 -0.20390314093E-01  0.22990236855E-01 -0.89726535096E-02  0.32016956937E-01  0.51100000000E-03 0.  1.
         11    1    4    4    0    0 -0.66599777887E-01  0.50056131471E-01 -0.55825049871E-01  0.10028880310E+00  0.51100000000E-03 0. -1.
</event>
<event>
 8    1  0.1202249E+005  0.1043930E+01  0.7957747E-01            NaN
         13   -1    0    0    0    0  0.00000000000E+00  0.00000000000E+00  0.74505805969E-08  0.10566000000E+00  0.10566000000E+00 0. -1.
     999900   -1    0    0    0    0 -0.00000000000E+00 -0.00000000000E+00 -0.74505805969E-08  0.93827000000E+00  0.93827000000E+00 0.  1.
     999902    2    1    2    0    0  0.50236414136E-03 -0.19388441860E-01  0.12092191351E-01  0.10210742537E+01  0.10208184199E+01 0.  0.
     999903    2    3    3    0    0  0.32343381168E-01 -0.11758639937E+00  0.52048496285E-01  0.13413953483E+00  0.20290717470E-01 0.  0.
         14    1    1    2    0    0 -0.50236414136E-03  0.19388441860E-01 -0.12092191351E-01  0.22855746305E-01  0.00000000000E+00 0.  1.
     999901    1    3    3    0    0 -0.31841017027E-01  0.98197957515E-01 -0.39956304935E-01  0.88693471887E+00  0.88000000000E+00 0.  1.
        -11    1    4    4    0    0  0.15398851416E-01 -0.50580406419E-01  0.11863787301E-01  0.54189599634E-01  0.51100000000E-03 0. -1.
         11    1    4    4    0    0  0.16944529752E-01 -0.67005992956E-01  0.40184708985E-01  0.79949935195E-01  0.51100000000E-03 0.  1.
</event>
<event>
 8    1  0.1202249E+005  0.1043930E+01  0.7957747E-01            NaN
         13   -1    0    0    0    0  0.00000000000E+00  0.00000000000E+00  0.74505805969E-08  0.10566000000E+00  0.10566000000E+00 0. -1.
     999900   -1    0    0    0    0 -0.00000000000E+00 -0.00000000000E+00 -0.74505805969E-08  0.93827000000E+00  0.93827000000E+00 0.  1.
     999902    2    1    2    0    0 -0.16507669383E-01  0.65620575908E-02  0.61504712431E-02  0.10251312754E+01  0.10249588967E+01 0.  0.
     999903    2    3    3    0    0 -0.56963477601E-01  0.98993677980E-02  0.12210312056E+00  0.13659718666E+00  0.20168889138E-01 0.  0.
         14    1    1    2    0    0  0.16507669383E-01 -0.65620575908E-02 -0.61504712431E-02  0.18798724552E-01  0.00000000000E+00 0.  1.
     999901    1    3    3    0    0  0.40455808218E-01 -0.33373102072E-02 -0.11595264932E+00  0.88853408879E+00  0.88000000000E+00 0.  1.
        -11    1    4    4    0    0 -0.37027010285E-01  0.13644072084E-01  0.93872782015E-01  0.10183084267E+00  0.51100000000E-03 0.  1.
         11    1    4    4    0    0 -0.19936467316E-01 -0.37447042859E-02  0.28230338546E-01  0.34766343993E-01  0.51100000000E-03 0. -1.
</event>
<event>
 8    1  0.1202249E+005  0.1043930E+01  0.7957747E-01            NaN
         13   -1    0    0    0    0  0.00000000000E+00  0.00000000000E+00  0.74505805969E-08  0.10566000000E+00  0.10566000000E+00 0.  1.
     999900   -1    0    0    0    0 -0.00000000000E+00 -0.00000000000E+00 -0.74505805969E-08  0.93827000000E+00  0.93827000000E+00 0.  1.
     999902    2    1    2    0    0  0.43673667557E-02 -0.83287615086E-02 -0.20675400744E-01  0.10212162518E+01  0.10209636226E+01 0.  0.
     999903    2    3    3    0    0  0.16571722215E-01  0.10078221414E-01 -0.13116351551E+00  0.13403228734E+00  0.19611061296E-01 0.  0.
         14    1    1    2    0    0 -0.43673667557E-02  0.83287615086E-02  0.20675400744E-01  0.22713748184E-01  0.00000000000E+00 0.  1.
     999901    1    3    3    0    0 -0.12204355459E-01 -0.18406982922E-01  0.11048811477E+00  0.88718396447E+00  0.88000000000E+00 0. -1.
        -11    1    4    4    0    0  0.60220845481E-02 -0.52296536368E-02 -0.24829146217E-01  0.26083757443E-01  0.51100000000E-03 0.  1.
         11    1    4    4    0    0  0.10549637666E-01  0.15307875051E-01 -0.10633436929E+00  0.10794852990E+00  0.51100000000E-03 0. -1.
</event>
<event>
 8    1  0.1202249E+005  0.1043930E+01  0.7957747E-01            NaN
         13   -1    0    0    0    0  0.00000000000E+00  0.00000000000E+00  0.74505805969E-08  0.10566000000E+00  0.10566000000E+00 0.  1.
     999900   -1    0    0    0    0 -0.00000000000E+00 -0.00000000000E+00 -0.74505805969E-08  0.93827000000E+00  0.93827000000E+00 0. -1.
     999902    2    1    2    0    0 -0.42116052836E-02  0.22245080834E-01  0.62163857484E-02  0.10204518252E+01  0.10201817009E+01 0.  0.
     999903    2    3    3    0    0  0.94702774562E-01  0.58474980768E-01 -0.66435790526E-01  0.13119651939E+00  0.20270016063E-01 0.  0.
         14    1    1    2    0    0  0.42116052836E-02 -0.22245080834E-01 -0.62163857484E-02  0.23478174804E-01  0.00000000000E+00 0.  1.
     999901    1    3    3    0    0 -0.98914379845E-01 -0.36229899934E-01  0.72652176275E-01  0.88925530581E+00  0.88000000000E+00 0.  1.
        -11    1    4    4    0    0  0.65001199469E-01  0.39495035160E-01 -0.34080118529E-01  0.83347041547E-01  0.51100000000E-03 0. -1.
         11    1    4    4    0    0  0.29701575093E-01  0.18979945608E-01 -0.32355671997E-01  0.47849477841E-01  0.51100000000E-03 0.  1.
</event>
<event>
 8    1  0.1202249E+005  0.1043930E+01  0.7957747E-01            NaN
         13   -1    0    0    0    0  0.00000000000E+00  0.00000000000E+00  0.74505805969E-08  0.10566000000E+00  0.10566000000E+00 0. -1.
     999900   -1    0    0    0    0 -0.00000000000E+00 -0.00000000000E+00 -0.74505805969E-08  0.93827000000E+00  0.93827000000E+00 0.  1.
     999902    2    1    2    0    0  0.32856845847E-02 -0.21741712366E-01  0.80564244929E-02  0.10205119780E+01  0.10202432521E+01 0.  0.
     999903    2    3    3    0    0 -0.77836333896E-01  0.43232649632E-01 -0.90952514739E-01  0.12888132594E+00  0.20260290502E-01 0.  0.
         14    1    1    2    0    0 -0.32856845847E-02  0.21741712366E-01 -0.80564244929E-02  0.23418022021E-01  0.00000000000E+00 0.  1.
     999901    1    3    3    0    0  0.81122018480E-01 -0.64974361998E-01  0.99008939232E-01  0.89163065203E+00  0.88000000000E+00 0.  1.
        -11    1    4    4    0    0 -0.44890191934E-01  0.26539239187E-01 -0.66807684682E-01  0.84752512659E-01  0.51100000000E-03 0. -1.
         11    1    4    4    0    0 -0.32946141962E-01  0.16693410446E-01 -0.24144830057E-01  0.44128813285E-01  0.51100000000E-03 0.  1.
</event>
<event>
 8    1  0.1202249E+005  0.1043930E+01  0.7957747E-01            NaN
         13   -1    0    0    0    0  0.00000000000E+00  0.00000000000E+00  0.74505805969E-08  0.10566000000E+00  0.10566000000E+00 0.  1.
     999900   -1    0    0    0    0 -0.00000000000E+00 -0.00000000000E+00 -0.74505805969E-08  0.93827000000E+00  0.93827000000E+00 0.  1.
     999902    2    1    2    0    0  0.59752714818E-02 -0.15307882367E-01  0.19605480629E-01  0.10183485614E+01  0.10180272012E+01 0.  0.
     999903    2    3    3    0    0 -0.51172290894E-01 -0.93631387817E-01  0.74074018016E-01  0.13134955519E+00  0.19501419544E-01 0.  0.
         14    1    1    2    0    0 -0.59752714818E-02  0.15307882367E-01 -0.19605480629E-01  0.25581438633E-01  0.00000000000E+00 0.  1.
     999901    1    3    3    0    0  0.57147562376E-01  0.78323505450E-01 -0.54468537387E-01  0.88699900618E+00  0.88000000000E+00 0. -1.
        -11    1    4    4    0    0 -0.17922391709E-01 -0.26271524467E-01  0.12340149422E-01  0.34116645954E-01  0.51100000000E-03 0. -1.
         11    1    4    4    0    0 -0.33249899185E-01 -0.67359863349E-01  0.61733868593E-01  0.97232909237E-01  0.51100000000E-03 0.  1.
</event>
<event>
 8    1  0.1202249E+005  0.1043930E+01  0.7957747E-01            NaN
         13   -1    0    0    0    0  0.00000000000E+00  0.00000000000E+00  0.74505805969E-08  0.10566000000E+00  0.10566000000E+00 0. -1.
     999900   -1    0    0    0    0 -0.00000000000E+00 -0.00000000000E+00 -0.74505805969E-08  0.93827000000E+00  0.93827000000E+00 0. -1.
     999902    2    1    2    0    0  0.19481011386E-01  0.81948182063E-02 -0.12092898300E-01  0.10195803996E+01  0.10192895998E+01 0.  0.
     999903    2    3    3    0    0 -0.36304004701E-01  0.11706590614E+00 -0.40729948674E-01  0.13065691445E+00  0.19745719435E-01 0.  0.
         14    1    1    2    0    0 -0.19481011386E-01 -0.81948182063E-02  0.12092898300E-01  0.24349600394E-01  0.00000000000E+00 0. -1.
     999901    1    3    3    0    0  0.55785016087E-01 -0.10887108794E+00  0.28637050374E-01  0.88892348516E+00  0.88000000000E+00 0. -1.
        -11    1    4    4    0    0 -0.14522272200E-01  0.36656563070E-01 -0.22419258913E-01  0.45359500627E-01  0.51100000000E-03 0. -1.
         11    1    4    4    0    0 -0.21781732501E-01  0.80409343074E-01 -0.18310689761E-01  0.85297413823E-01  0.51100000000E-03 0.  1.
</event>
<event>
 7    1  0.1202249E+005  0.1043930E+01  0.7957747E-01            NaN
         13   -1    0    0    0    0  0.00000000000E+00  0.00000000000E+00  0.74505805969E-08  0.10566000000E+00  0.10566000000E+00 0. -1.
     999900   -1    0    0    0    0 -0.00000000000E+00 -0.00000000000E+00 -0.74505805969E-08  0.93827000000E+00  0.93827000000E+00 0.  1.
     999902    2    1    2    0    0  0.50763052464E-02 -0.21840656508E-01 -0.16909187746E-02  0.10214435072E+01  0.10211959636E+01 0.  0.
         14    1    1    2    0    0 -0.50763052464E-02  0.21840656508E-01  0.16909187746E-02  0.22486492789E-01  0.00000000000E+00 0.  1.
     999901    1    3    3    0    0 -0.61122971335E-01 -0.10669865290E+00  0.60617502424E-01  0.89061501321E+00  0.88000000000E+00 0.  1.
        -11    1    3    3    0    0  0.35380495372E-01  0.35952873589E-01 -0.51366134210E-01  0.71993954168E-01  0.51100000000E-03 0. -1.
         11    1    3    3    0    0  0.30818781209E-01  0.48905122804E-01 -0.10942286989E-01  0.58834539832E-01  0.51100000000E-03 0.  1.
</event>
<event>
 8    1  0.1202249E+005  0.1043930E+01  0.7957747E-01            NaN
         13   -1    0    0    0    0  0.00000000000E+00  0.00000000000E+00  0.74505805969E-08  0.10566000000E+00  0.10566000000E+00 0.  1.
     999900   -1    0    0    0    0 -0.00000000000E+00 -0.00000000000E+00 -0.74505805969E-08  0.93827000000E+00  0.93827000000E+00 0. -1.
     999902    2    1    2    0    0  0.56371146844E-02 -0.14994102569E-01 -0.81442497053E-02  0.10259597753E+01  0.10258023842E+01 0.  0.
     999903    2    3    3    0    0 -0.52486068583E-01  0.58266540519E-01 -0.10823846905E+00  0.13536206642E+00  0.21390317976E-01 0.  0.
         14    1    1    2    0    0 -0.56371146844E-02  0.14994102569E-01  0.81442497053E-02  0.17970224736E-01  0.00000000000E+00 0.  1.
     999901    1    3    3    0    0  0.58123183267E-01 -0.73260643088E-01  0.10009421934E+00  0.89059770885E+00  0.88000000000E+00 0.  1.
        -11    1    4    4    0    0 -0.39304187308E-02  0.16381257349E-01 -0.27523216202E-01  0.32273554729E-01  0.51100000000E-03 0.  1.
         11    1    4    4    0    0 -0.48555649852E-01  0.41885283170E-01 -0.80715252846E-01  0.10308851169E+00  0.51100000000E-03 0. -1.
</event>
<event>
 8    1  0.1202249E+005  0.1043930E+01  0.7957747E-01            NaN
         13   -1    0    0    0    0  0.00000000000E+00  0.00000000000E+00  0.74505805969E-08  0.10566000000E+00  0.10566000000E+00 0. -1.
     999900   -1    0    0    0    0 -0.00000000000E+00 -0.00000000000E+00 -0.74505805969E-08  0.93827000000E+00  0.93827000000E+00 0.  1.
     999902    2    1    2    0    0  0.97009116827E-02 -0.43315844379E-02  0.20887232662E-01  0.10204961186E+01  0.10202270243E+01 0.  0.
     999903    2    3    3    0    0 -0.52350600104E-01  0.10464655326E+00 -0.49843155034E-01  0.12879582566E+00  0.20311035484E-01 0.  0.
         14    1    1    2    0    0 -0.97009116827E-02  0.43315844379E-02 -0.20887232662E-01  0.23433881443E-01  0.00000000000E+00 0.  1.
     999901    1    3    3    0    0  0.62051511787E-01 -0.10897813770E+00  0.70730387696E-01  0.89170029290E+00  0.88000000000E+00 0. -1.
        -11    1    4    4    0    0 -0.13147480590E-01  0.45771049123E-01 -0.25271567461E-01  0.53914361970E-01  0.51100000000E-03 0.  1.
         11    1    4    4    0    0 -0.39203119515E-01  0.58875504139E-01 -0.24571587573E-01  0.74881463688E-01  0.51100000000E-03 0. -1.
</event>
<event>
 8    1  0.1202249E+005  0.1043930E+01  0.7957747E-01            NaN
         13   -1    0    0    0    0  0.00000000000E+00  0.00000000000E+00  0.74505805969E-08  0.10566000000E+00  0.10566000000E+00 0.  1.
     999900   -1    0    0    0    0 -0.00000000000E+00 -0.00000000000E+00 -0.74505805969E-08  0.93827000000E+00  0.93827000000E+00 0. -1.
     999902    2    1    2    0    0  0.26315931409E-02  0.17887905349E-02 -0.23618021071E-01  0.10200985927E+01  0.10198201816E+01 0.  0.
     999903    2    3    3    0    0 -0.68121755239E-01 -0.31757285470E-01  0.10151300643E+00  0.12780427492E+00  0.19492139315E-01 0.  0.
         14    1    1    2    0    0 -0.26315931409E-02 -0.17887905349E-02  0.23618021071E-01  0.23831407288E-01  0.00000000000E+00 0.  1.
     999901    1    3    3    0    0  0.70753348380E-01  0.33546076005E-01 -0.12513102750E+00  0.89229431779E+00  0.88000000000E+00 0. -1.
        -11    1    4    4    0    0 -0.31157987389E-01 -0.13384676119E-01  0.61949453270E-01  0.70625530896E-01  0.51100000000E-03 0.  1.
         11    1    4    4    0    0 -0.36963767850E-01 -0.18372609351E-01  0.39563553163E-01  0.57178744022E-01  0.51100000000E-03 0. -1.
</event>
<event>
 8    1  0.1202249E+005  0.1043930E+01  0.7957747E-01            NaN
         13   -1    0    0    0    0  0.00000000000E+00  0.00000000000E+00  0.74505805969E-08  0.10566000000E+00  0.10566000000E+00 0. -1.
     999900   -1    0    0    0    0 -0.00000000000E+00 -0.00000000000E+00 -0.74505805969E-08  0.93827000000E+00  0.93827000000E+00 0.  1.
     999902    2    1    2    0    0  0.22146876367E-01 -0.19642851818E-02  0.90958642803E-02  0.10199075668E+01  0.10196246209E+01 0.  0.
     999903    2    3    3    0    0 -0.59981463616E-01  0.73322515727E-01 -0.83757785608E-01  0.12803595783E+00  0.20096580733E-01 0.  0.
         14    1    1    2    0    0 -0.22146876367E-01  0.19642851818E-02 -0.90958642803E-02  0.24022433184E-01  0.00000000000E+00 0.  1.
     999901    1    3    3    0    0  0.82128339983E-01 -0.75286800908E-01  0.92853649888E-01  0.89187160899E+00  0.88000000000E+00 0. -1.
        -11    1    4    4    0    0 -0.53323589686E-01  0.54121574991E-01 -0.71293834643E-01  0.10419031661E+00  0.51100000000E-03 0.  1.
         11    1    4    4    0    0 -0.66578739300E-02  0.19200940735E-01 -0.12463950965E-01  0.23845641217E-01  0.51100000000E-03 0. -1.
</event>
<event>
 8    1  0.1202249E+005  0.1043930E+01  0.7957747E-01            NaN
         13   -1    0    0    0    0  0.00000000000E+00  0.00000000000E+00  0.74505805969E-08  0.10566000000E+00  0.10566000000E+00 0. -1.
     999900   -1    0    0    0    0 -0.00000000000E+00 -0.00000000000E+00 -0.74505805969E-08  0.93827000000E+00  0.93827000000E+00 0. -1.
     999902    2    1    2    0    0 -0.19016957758E-01 -0.13306174424E-01 -0.35219569934E-03  0.10207174387E+01  0.10204534613E+01 0.  0.
     999903    2    3    3    0    0  0.10553813809E+00  0.69311887097E-01 -0.77410472140E-02  0.12808408109E+00  0.20079136728E-01 0.  0.
         14    1    1    2    0    0  0.19016957758E-01  0.13306174424E-01  0.35219569934E-03  0.23212561297E-01  0.00000000000E+00 0. -1.
     999901    1    3    3    0    0 -0.12455509585E+00 -0.82618061521E-01  0.73888515147E-02  0.89263335761E+00  0.88000000000E+00 0. -1.
        -11    1    4    4    0    0  0.57113040929E-01  0.40806953633E-01  0.53050932512E-02  0.70395397892E-01  0.51100000000E-03 0.  1.
         11    1    4    4    0    0  0.48425097166E-01  0.28504933464E-01 -0.13046140465E-01  0.57688683200E-01  0.51100000000E-03 0. -1.
</event>
<event>
 8    1  0.1202249E+005  0.1043930E+01  0.7957747E-01            NaN
         13   -1    0    0    0    0  0.00000000000E+00  0.00000000000E+00  0.74505805969E-08  0.10566000000E+00  0.10566000000E+00 0. -1.
     999900   -1    0    0    0    0 -0.00000000000E+00 -0.00000000000E+00 -0.74505805969E-08  0.93827000000E+00  0.93827000000E+00 0. -1.
     999902    2    1    2    0    0  0.20547840391E-01  0.30540100701E-02  0.11358976326E-01  0.10202537025E+01  0.10199789460E+01 0.  0.
     999903    2    3    3    0    0 -0.66204603572E-01  0.98286067641E-01  0.49649478351E-01  0.13005075151E+00  0.20122789122E-01 0.  0.
         14    1    1    2    0    0 -0.20547840391E-01 -0.30540100701E-02 -0.11358976326E-01  0.23676297544E-01  0.00000000000E+00 0.  1.
     999901    1    3    3    0    0  0.86752443962E-01 -0.95232057571E-01 -0.38290502025E-01  0.89020295094E+00  0.88000000000E+00 0.  1.
        -11    1    4    4    0    0 -0.26747373099E-01  0.43228509600E-01  0.31932406758E-01  0.60033871542E-01  0.51100000000E-03 0.  1.
         11    1    4    4    0    0 -0.39457230473E-01  0.55057558041E-01  0.17717071593E-01  0.70016879971E-01  0.51100000000E-03 0. -1.
</event>
<event>
 8    1  0.1202249E+005  0.1043930E+01  0.7957747E-01            NaN
         13   -1    0    0    0    0  0.00000000000E+00  0.00000000000E+00  0.74505805969E-08  0.10566000000E+00  0.10566000000E+00 0. -1.
     999900   -1    0    0    0    0 -0.00000000000E+00 -0.00000000000E+00 -0.74505805969E-08  0.93827000000E+00  0.93827000000E+00 0. -1.
     999902    2    1    2    0    0  0.23541829207E-01  0.34604811109E-02 -0.29648424327E-02  0.10199511981E+01  0.10196692912E+01 0.  0.
     999903    2    3    3    0    0  0.72460603374E-01 -0.29556798717E-01  0.10376022080E+00  0.13154057996E+00  0.20312492756E-01 0.  0.
         14    1    1    2    0    0 -0.23541829207E-01 -0.34604811109E-02  0.29648424327E-02  0.23978801942E-01  0.00000000000E+00 0.  1.
     999901    1    3    3    0    0 -0.48918774168E-01  0.33017279828E-01 -0.10672506324E+00  0.88841061810E+00  0.88000000000E+00 0. -1.
        -11    1    4    4    0    0  0.39171225862E-01 -0.75498382489E-02  0.62413694006E-01  0.74075065397E-01  0.51100000000E-03 0.  1.
         11    1    4    4    0    0  0.33289377513E-01 -0.22006960468E-01  0.41346526799E-01  0.57465514559E-01  0.51100000000E-03 0. -1.
</event>
<event>
 8    1  0.1202249E+005  0.1043930E+01  0.7957747E-01            NaN
         13   -1    0    0    0    0  0.00000000000E+00  0.00000000000E+00  0.74505805969E-08  0.10566000000E+00  0.10566000000E+00 0.  1.
     999900   -1    0    0    0    0 -0.00000000000E+00 -0.00000000000E+00 -0.74505805969E-08  0.93827000000E+00  0.93827000000E+00 0.  1.
     999902    2    1    2    0    0  0.18226914292E-01 -0.74426238002E-02  0.15553851500E-01  0.10188394570E+01  0.10185304628E+01 0.  0.
     999903    2    3    3    0    0  0.50678922153E-01  0.71639867329E-02  0.11990170305E+00  0.13196011905E+00  0.20429849933E-01 0.  0.
         14    1    1    2    0    0 -0.18226914292E-01  0.74426238002E-02 -0.15553851500E-01  0.25090543041E-01  0.00000000000E+00 0. -1.
     999901    1    3    3    0    0 -0.32452007862E-01 -0.14606610533E-01 -0.10434785155E+00  0.88687933791E+00  0.88000000000E+00 0.  1.
        -11    1    4    4    0    0  0.29297690715E-01  0.13439453343E-01  0.80075547821E-01  0.86321075452E-01  0.51100000000E-03 0.  1.
         11    1    4    4    0    0  0.21381231439E-01 -0.62754666102E-02  0.39826155232E-01  0.45639043598E-01  0.51100000000E-03 0. -1.
</event>
<event>
 8    1  0.1202249E+005  0.1043930E+01  0.7957747E-01            NaN
         13   -1    0    0    0    0  0.00000000000E+00  0.00000000000E+00  0.74505805969E-08  0.10566000000E+00  0.10566000000E+00 0.  1.
     999900   -1    0    0    0    0 -0.00000000000E+00 -0.00000000000E+00 -0.74505805969E-08  0.93827000000E+00  0.93827000000E+00 0. -1.
     999902    2    1    2    0    0  0.60377912639E-02  0.88989356653E-02 -0.15609969819E-01  0.10249743376E+01  0.10247990416E+01 0.  0.
     999903    2    3    3    0    0  0.59826546385E-01  0.38569466461E-01 -0.11551958360E+00  0.13719311370E+00  0.20257266748E-01 0.  0.
         14    1    1    2    0    0 -0.60377912639E-02 -0.88989356653E-02  0.15609969819E-01  0.18955662401E-01  0.00000000000E+00 0.  1.
     999901    1    3    3    0    0 -0.53788755122E-01 -0.29670530796E-01  0.99909613784E-01  0.88778122390E+00  0.88000000000E+00 0.  1.
        -11    1    4    4    0    0  0.38580928697E-01  0.15079800703E-01 -0.54674604036E-01  0.68596369408E-01  0.51100000000E-03 0.  1.
         11    1    4    4    0    0  0.21245617688E-01  0.23489665758E-01 -0.60844979567E-01  0.68596744295E-01  0.51100000000E-03 0. -1.
</event>
<event>
 8    1  0.1202249E+005  0.1043930E+01  0.7957747E-01            NaN
         13   -1    0    0    0    0  0.00000000000E+00  0.00000000000E+00  0.74505805969E-08  0.10566000000E+00  0.10566000000E+00 0.  1.
     999900   -1    0    0    0    0 -0.00000000000E+00 -0.00000000000E+00 -0.74505805969E-08  0.93827000000E+00  0.93827000000E+00 0. -1.
     999902    2    1    2    0    0  0.12720810105E-01  0.21640457577E-01 -0.13846668604E-01  0.10152619229E+01  0.10148570901E+01 0.  0.
     999903    2    3    3    0    0  0.58193519464E-01  0.91188158861E-01  0.64702292080E-01  0.12786427286E+00  0.21473696690E-01 0.  0.
         14    1    1    2    0    0 -0.12720810105E-01 -0.21640457577E-01  0.13846668604E-01  0.28668077112E-01  0.00000000000E+00 0. -1.
     999901    1    3    3    0    0 -0.45472709360E-01 -0.69547701284E-01 -0.78548960684E-01  0.88739765003E+00  0.88000000000E+00 0. -1.
        -11    1    4    4    0    0  0.35168456195E-01  0.36645951814E-01  0.34481225920E-01  0.61391873708E-01  0.51100000000E-03 0.  1.
         11    1    4    4    0    0  0.23025063270E-01  0.54542207048E-01  0.30221066160E-01  0.66472399152E-01  0.51100000000E-03 0. -1.
</event>
<event>
 8    1  0.1202249E+005  0.1043930E+01  0.7957747E-01            NaN
         13   -1    0    0    0    0  0.00000000000E+00  0.00000000000E+00  0.74505805969E-08  0.10566000000E+00  0.10566000000E+00 0.  1.
     999900   -1    0    0    0    0 -0.00000000000E+00 -0.00000000000E+00 -0.74505805969E-08  0.93827000000E+00  0.93827000000E+00 0. -1.
     999902    2    1    2    0    0 -0.13594932684E-01 -0.19216827827E-01 -0.40280687743E-02  0.10200483333E+01  0.10197687327E+01 0.  0.
     999903    2    3    3    0    0  0.38367746744E-01  0.11875027176E+00  0.17273645713E-01  0.12753009614E+00  0.19794836497E-01 0.  0.
         14    1    1    2    0    0  0.13594932684E-01  0.19216827827E-01  0.40280687743E-02  0.23881666702E-01  0.00000000000E+00 0.  1.
     999901    1    3    3    0    0 -0.51962679427E-01 -0.13796709959E+00 -0.21301714487E-01  0.89251823716E+00  0.88000000000E+00 0. -1.
        -11    1    4    4    0    0  0.25817194673E-01  0.87789452072E-01  0.40540147650E-02  0.91598098193E-01  0.51100000000E-03 0. -1.
         11    1    4    4    0    0  0.12550552071E-01  0.30960819688E-01  0.13219630948E-01  0.35931997946E-01  0.51100000000E-03 0.  1.
</event>
<event>
 8    1  0.1202249E+005  0.1043930E+01  0.7957747E-01            NaN
         13   -1    0    0    0    0  0.00000000000E+00  0.00000000000E+00  0.74505805969E-08  0.10566000000E+00  0.10566000000E+00 0.  1.
     999900   -1    0    0    0    0 -0.00000000000E+00 -0.00000000000E+00 -0.74505805969E-08  0.93827000000E+00  0.93827000000E+00 0.  1.
     999902    2    1    2    0    0  0.14201851473E-01  0.10830571495E-01 -0.42923292150E-02  0.10255610601E+01  0.10253965428E+01 0.  0.
     999903    2    3    3    0    0  0.34589666599E-01 -0.44668915394E-01  0.12077550411E+00  0.13475366282E+00  0.19495389553E-01 0.  0.
         14    1    1    2    0    0 -0.14201851473E-01 -0.10830571495E-01  0.42923292150E-02  0.18368939933E-01  0.00000000000E+00 0.  1.
     999901    1    3    3    0    0 -0.20387815126E-01  0.55499486890E-01 -0.12506783332E+00  0.89080739724E+00  0.88000000000E+00 0.  1.
        -11    1    4    4    0    0  0.12603924754E-01 -0.23849572204E-01  0.76448992155E-01  0.81070158111E-01  0.51100000000E-03 0. -1.
         11    1    4    4    0    0  0.21985741845E-01 -0.20819343191E-01  0.44326511953E-01  0.53683504713E-01  0.51100000000E-03 0.  1.
</event>
<event>
 8    1  0.1202249E+005  0.1043930E+01  0.7957747E-01            NaN
         13   -1    0    0    0    0  0.00000000000E+00  0.00000000000E+00  0.74505805969E-08  0.10566000000E+00  0.10566000000E+00 0. -1.
     999900   -1    0    0    0    0 -0.00000000000E+00 -0.00000000000E+00 -0.74505805969E-08  0.93827000000E+00  0.93827000000E+00 0.  1.
     999902    2    1    2    0    0  0.23055141385E-01  0.44983907850E-02 -0.45669714356E-02  0.10200002634E+01  0.10197195228E+01 0.  0.
     999903    2    3    3    0    0 -0.40159842354E-01  0.27763609651E-01 -0.11916744864E+00  0.13001673890E+00  0.17884088407E-01 0.  0.
         14    1    1    2    0    0 -0.23055141385E-01 -0.44983907850E-02  0.45669714356E-02  0.23929736564E-01  0.00000000000E+00 0.  1.
     999901    1    3    3    0    0  0.63214983739E-01 -0.23265218866E-01  0.11460047721E+00  0.88998352454E+00  0.88000000000E+00 0. -1.
        -11    1    4    4    0    0 -0.30639907828E-01  0.17050636468E-01 -0.63587875344E-01  0.72616851815E-01  0.51100000000E-03 0.  1.
         11    1    4    4    0    0 -0.95199345254E-02  0.10712973183E-01 -0.55579573298E-01  0.57399887080E-01  0.51100000000E-03 0. -1.
</event>
<event>
 8    1  0.1202249E+005  0.1043930E+01  0.7957747E-01            NaN
         13   -1    0    0    0    0  0.00000000000E+00  0.00000000000E+00  0.74505805969E-08  0.10566000000E+00  0.10566000000E+00 0. -1.
     999900   -1    0    0    0    0 -0.00000000000E+00 -0.00000000000E+00 -0.74505805969E-08  0.93827000000E+00  0.93827000000E+00 0.  1.
     999902    2    1    2    0    0  0.20985105335E-01  0.11103223027E-02  0.83542560932E-02  0.10213158218E+01  0.10210654273E+01 0.  0.
     999903    2    3    3    0    0  0.20264570847E-01  0.12538032996E+00  0.30899390643E-01  0.13229847827E+00  0.20426332013E-01 0.  0.
         14    1    1    2    0    0 -0.20985105335E-01 -0.11103223027E-02 -0.83542560932E-02  0.22614178216E-01  0.00000000000E+00 0.  1.
     999901    1    3    3    0    0  0.72053448726E-03 -0.12427000765E+00 -0.22545134550E-01  0.88901734351E+00  0.88000000000E+00 0.  1.
        -11    1    4    4    0    0  0.10532231430E-01  0.27416677659E-01  0.13488877250E-01  0.32323567922E-01  0.51100000000E-03 0. -1.
         11    1    4    4    0    0  0.97323394173E-02  0.97963652297E-01  0.17410513393E-01  0.99974910350E-01  0.51100000000E-03 0.  1.
</event>
<event>
 8    1  0.1202249E+005  0.1043930E+01  0.7957747E-01            NaN
         13   -1    0    0    0    0  0.00000000000E+00  0.00000000000E+00  0.74505805969E-08  0.10566000000E+00  0.10566000000E+00 0.  1.
     999900   -1    0    0    0    0 -0.00000000000E+00 -0.00000000000E+00 -0.74505805969E-08  0.93827000000E+00  0.93827000000E+00 0.  1.
     999902    2    1    2    0    0  0.33336955619E-01 -0.42730907543E-02  0.13468904356E-01  0.10077219443E+01  0.10070712456E+01 0.  0.
     999903    2    3    3    0    0  0.10987580668E+00 -0.15292257056E-01  0.50660875721E-01  0.12354839769E+00  0.19777164228E-01 0.  0.
         14    1    1    2    0    0 -0.33336955619E-01  0.42730907543E-02 -0.13468904356E-01  0.36208055721E-01  0.00000000000E+00 0. -1.
     999901    1    3    3    0    0 -0.76538851058E-01  0.11019166301E-01 -0.37191971365E-01  0.88417354659E+00  0.88000000000E+00 0.  1.
        -11    1    4    4    0    0  0.30507028993E-01 -0.11097597742E-01  0.84251916780E-02  0.33542219208E-01  0.51100000000E-03 0.  1.
         11    1    4    4    0    0  0.79368777685E-01 -0.41946593140E-02  0.42235684043E-01  0.90006178485E-01  0.51100000000E-03 0. -1.
</event>
<event>
 8    1  0.1202249E+005  0.1043930E+01  0.7957747E-01            NaN
         13   -1    0    0    0    0  0.00000000000E+00  0.00000000000E+00  0.74505805969E-08  0.10566000000E+00  0.10566000000E+00 0. -1.
     999900   -1    0    0    0    0 -0.00000000000E+00 -0.00000000000E+00 -0.74505805969E-08  0.93827000000E+00  0.93827000000E+00 0. -1.
     999902    2    1    2    0    0  0.21344322755E-01 -0.11468853691E-01  0.34005134725E-02  0.10194620984E+01  0.10191684315E+01 0.  0.
     999903    2    3    3    0    0 -0.49238812068E-01  0.34723045639E-01 -0.11114031829E+00  0.12803892577E+00  0.20289052460E-01 0.  0.
         14    1    1    2    0    0 -0.21344322755E-01  0.11468853691E-01 -0.34005134725E-02  0.24467901641E-01  0.00000000000E+00 0. -1.
     999901    1    3    3    0    0  0.70583134823E-01 -0.46191899329E-01  0.11454083177E+00  0.89142317259E+00  0.88000000000E+00 0.  1.
        -11    1    4    4    0    0 -0.17362299863E-01  0.94706155646E-02 -0.19497236522E-01  0.27776705505E-01  0.51100000000E-03 0. -1.
         11    1    4    4    0    0 -0.31876512205E-01  0.25252430074E-01 -0.91643081772E-01  0.10026222027E+00  0.51100000000E-03 0.  1.
</event>
<event>
 8    1  0.1202249E+005  0.1043930E+01  0.7957747E-01            NaN
         13   -1    0    0    0    0  0.00000000000E+00  0.00000000000E+00  0.74505805969E-08  0.10566000000E+00  0.10566000000E+00 0. -1.
     999900   -1    0    0    0    0 -0.00000000000E+00 -0.00000000000E+00 -0.74505805969E-08  0.93827000000E+00  0.93827000000E+00 0.  1.
     999902    2    1    2    0    0  0.47519167572E-02 -0.21352914134E-01 -0.86686098043E-02  0.10203997546E+01  0.10201284167E+01 0.  0.
     999903    2    3    3    0    0  0.10294825010E+00  0.77291973169E-02 -0.79059623933E-01  0.13166853311E+00  0.20690475734E-01 0.  0.
         14    1    1    2    0    0 -0.47519167572E-02  0.21352914134E-01  0.86686098043E-02  0.23530245448E-01  0.00000000000E+00 0. -1.
     999901    1    3    3    0    0 -0.98196333343E-01 -0.29082111451E-01  0.70391014129E-01  0.88873122144E+00  0.88000000000E+00 0. -1.
        -11    1    4    4    0    0  0.33388368829E-01  0.22118470578E-02 -0.38281439082E-01  0.50846879351E-01  0.51100000000E-03 0. -1.
         11    1    4    4    0    0  0.69559881272E-01  0.55173502591E-02 -0.40778184851E-01  0.80821653764E-01  0.51100000000E-03 0.  1.
</event>
<event>
 8    1  0.1202249E+005  0.1043930E+01  0.7957747E-01            NaN
         13   -1    0    0    0    0  0.00000000000E+00  0.00000000000E+00  0.74505805969E-08  0.10566000000E+00  0.10566000000E+00 0.  1.
     999900   -1    0    0    0    0 -0.00000000000E+00 -0.00000000000E+00 -0.74505805969E-08  0.93827000000E+00  0.93827000000E+00 0.  1.
     999902    2    1    2    0    0 -0.24536518044E-02 -0.20755436705E-01 -0.10964442008E-01  0.10203285689E+01  0.10200555676E+01 0.  0.
     999903    2    3    3    0    0  0.21304412736E-02 -0.12526583094E+00 -0.41915596790E-01  0.13359218736E+00  0.19846614018E-01 0.  0.
         14    1    1    2    0    0  0.24536518044E-02  0.20755436705E-01  0.10964442008E-01  0.23601431070E-01  0.00000000000E+00 0.  1.
     999901    1    3    3    0    0 -0.45840930780E-02  0.10451039424E+00  0.30951154781E-01  0.88673638157E+00  0.88000000000E+00 0. -1.
        -11    1    4    4    0    0  0.10073707119E-01 -0.67950457121E-01 -0.27207583643E-01  0.73886791287E-01  0.51100000000E-03 0. -1.
         11    1    4    4    0    0 -0.79432658454E-02 -0.57315373823E-01 -0.14708013147E-01  0.59705396075E-01  0.51100000000E-03 0.  1.
</event>
<event>
 8    1  0.1202249E+005  0.1043930E+01  0.7957747E-01            NaN
         13   -1    0    0    0    0  0.00000000000E+00  0.00000000000E+00  0.74505805969E-08  0.10566000000E+00  0.10566000000E+00 0. -1.
     999900   -1    0    0    0    0 -0.00000000000E+00 -0.00000000000E+00 -0.74505805969E-08  0.93827000000E+00  0.93827000000E+00 0. -1.
     999902    2    1    2    0    0  0.12855905928E-01  0.10316538965E-01  0.14022117742E-01  0.10222891803E+01  0.10220600975E+01 0.  0.
     999903    2    3    3    0    0 -0.62364654759E-01  0.10677808552E+00 -0.41813437857E-01  0.13207540144E+00  0.20115625047E-01 0.  0.
         14    1    1    2    0    0 -0.12855905928E-01 -0.10316538965E-01 -0.14022117742E-01  0.21640819749E-01  0.00000000000E+00 0.  1.
     999901    1    3    3    0    0  0.75220560687E-01 -0.96461546551E-01  0.55835555599E-01  0.89021377881E+00  0.88000000000E+00 0.  1.
        -11    1    4    4    0    0 -0.21796799277E-01  0.48323770158E-01 -0.92157590024E-02  0.53809651142E-01  0.51100000000E-03 0. -1.
         11    1    4    4    0    0 -0.40567855482E-01  0.58454315357E-01 -0.32597678855E-01  0.78265750300E-01  0.51100000000E-03 0.  1.
</event>
<event>
 8    1  0.1202249E+005  0.1043930E+01  0.7957747E-01            NaN
         13   -1    0    0    0    0  0.00000000000E+00  0.00000000000E+00  0.74505805969E-08  0.10566000000E+00  0.10566000000E+00 0.  1.
     999900   -1    0    0    0    0 -0.00000000000E+00 -0.00000000000E+00 -0.74505805969E-08  0.93827000000E+00  0.93827000000E+00 0. -1.
     999902    2    1    2    0    0  0.21472527621E-01  0.92969862420E-02 -0.25496981293E-02  0.10203927029E+01  0.10201212005E+01 0.  0.
     999903    2    3    3    0    0 -0.49899272265E-01  0.40697425320E-01  0.11096219559E+00  0.12968238441E+00  0.18939223249E-01 0.  0.
         14    1    1    2    0    0 -0.21472527621E-01 -0.92969862420E-02  0.25496981293E-02  0.23537297130E-01  0.00000000000E+00 0.  1.
     999901    1    3    3    0    0  0.71371799886E-01 -0.31400439078E-01 -0.11351189371E+00  0.89071031846E+00  0.88000000000E+00 0. -1.
        -11    1    4    4    0    0 -0.22582478166E-01  0.27527085270E-01  0.71834040945E-01  0.80175428300E-01  0.51100000000E-03 0. -1.
         11    1    4    4    0    0 -0.27316794099E-01  0.13170340050E-01  0.39128154640E-01  0.49506956112E-01  0.51100000000E-03 0.  1.
</event>
<event>
 8    1  0.1202249E+005  0.1043930E+01  0.7957747E-01            NaN
         13   -1    0    0    0    0  0.00000000000E+00  0.00000000000E+00  0.74505805969E-08  0.10566000000E+00  0.10566000000E+00 0.  1.
     999900   -1    0    0    0    0 -0.00000000000E+00 -0.00000000000E+00 -0.74505805969E-08  0.93827000000E+00  0.93827000000E+00 0.  1.
     999902    2    1    2    0    0 -0.79055746419E-02  0.21901433765E-01  0.39289235551E-02  0.10203162889E+01  0.10200430001E+01 0.  0.
     999903    2    3    3    0    0 -0.58565029088E-01  0.11214854883E+00  0.38495136872E-01  0.13357746309E+00  0.18812321647E-01 0.  0.
         14    1    1    2    0    0  0.79055746419E-02 -0.21901433765E-01 -0.39289235551E-02  0.23613711095E-01  0.00000000000E+00 0.  1.
     999901    1    3    3    0    0  0.50659454447E-01 -0.90247115067E-01 -0.34566213316E-01  0.88673882581E+00  0.88000000000E+00 0. -1.
        -11    1    4    4    0    0 -0.43538600574E-01  0.95633354207E-01  0.36137335538E-01  0.11111937868E+00  0.51100000000E-03 0. -1.
         11    1    4    4    0    0 -0.15026428514E-01  0.16515194625E-01  0.23578013333E-02  0.22458084414E-01  0.51100000000E-03 0.  1.
</event>
<event>
 8    1  0.1202249E+005  0.1043930E+01  0.7957747E-01            NaN
         13   -1    0    0    0    0  0.00000000000E+00  0.00000000000E+00  0.74505805969E-08  0.10566000000E+00  0.10566000000E+00 0.  1.
     999900   -1    0    0    0    0 -0.00000000000E+00 -0.00000000000E+00 -0.74505805969E-08  0.93827000000E+00  0.93827000000E+00 0.  1.
     999902    2    1    2    0    0  0.86308924338E-02 -0.21241874772E-01 -0.73907197788E-02  0.10198399131E+01  0.10195553521E+01 0.  0.
     999903    2    3    3    0    0 -0.82204195848E-01 -0.94460426091E-01  0.33705351639E-01  0.13118876861E+00  0.19852968726E-01 0.  0.
         14    1    1    2    0    0 -0.86308924338E-02  0.21241874772E-01  0.73907197788E-02  0.24090086901E-01  0.00000000000E+00 0. -1.
     999901    1    3    3    0    0  0.90835088282E-01  0.73218551319E-01 -0.41096071417E-01  0.88865114449E+00  0.88000000000E+00 0. -1.
        -11    1    4    4    0    0 -0.58115100166E-01 -0.74406890469E-01  0.32382394747E-01  0.99812979252E-01  0.51100000000E-03 0. -1.
         11    1    4    4    0    0 -0.24089095682E-01 -0.20053535622E-01  0.13229568913E-02  0.31375789355E-01  0.51100000000E-03 0.  1.
</event>
<event>
 8    1  0.1202249E+005  0.1043930E+01  0.7957747E-01            NaN
         13   -1    0    0    0    0  0.00000000000E+00  0.00000000000E+00  0.74505805969E-08  0.10566000000E+00  0.10566000000E+00 0. -1.
     999900   -1    0    0    0    0 -0.00000000000E+00 -0.00000000000E+00 -0.74505805969E-08  0.93827000000E+00  0.93827000000E+00 0.  1.
     999902    2    1    2    0    0  0.85173938330E-02 -0.23558304651E-01  0.49286335610E-02  0.10183990160E+01  0.10180789383E+01 0.  0.
     999903    2    3    3    0    0  0.71085785258E-01  0.41705476520E-01  0.96930367716E-01  0.12899557332E+00  0.21256201782E-01 0.  0.
         14    1    1    2    0    0 -0.85173938330E-02  0.23558304651E-01 -0.49286335610E-02  0.25530984010E-01  0.00000000000E+00 0. -1.
     999901    1    3    3    0    0 -0.62568391425E-01 -0.65263781172E-01 -0.92001734155E-01  0.88940344267E+00  0.88000000000E+00 0.  1.
        -11    1    4    4    0    0  0.10843158727E-01  0.32984811067E-02  0.25772794920E-01  0.28159406026E-01  0.51100000000E-03 0. -1.
         11    1    4    4    0    0  0.60242626531E-01  0.38406995414E-01  0.71157572796E-01  0.10083616730E+00  0.51100000000E-03 0.  1.
</event>
<event>
 8    1  0.1202249E+005  0.1043930E+01  0.7957747E-01            NaN
         13   -1    0    0    0    0  0.00000000000E+00  0.00000000000E+00  0.74505805969E-08  0.10566000000E+00  0.10566000000E+00 0. -1.
     999900   -1    0    0    0    0 -0.00000000000E+00 -0.00000000000E+00 -0.74505805969E-08  0.93827000000E+00  0.93827000000E+00 0. -1.
     999902    2    1    2    0    0 -0.16818048151E-01 -0.70964909555E-02 -0.14625137125E-01  0.10205397977E+01  0.10202717173E+01 0.  0.
     999903    2    3    3    0    0 -0.10779512009E+00  0.71772459728E-01 -0.18319175486E-01  0.13233329867E+00  0.20135437863E-01 0.  0.
         14    1    1    2    0    0  0.16818048151E-01  0.70964909555E-02  0.14625137125E-01  0.23390202296E-01  0.00000000000E+00 0. -1.
     999901    1    3    3    0    0  0.90977071934E-01 -0.78868950684E-01  0.36940383609E-02  0.88820649903E+00  0.88000000000E+00 0. -1.
        -11    1    4    4    0    0 -0.28795684916E-01  0.29864674758E-01 -0.86749948297E-02  0.42386400230E-01  0.51100000000E-03 0.  1.
         11    1    4    4    0    0 -0.78999435169E-01  0.41907784970E-01 -0.96441806566E-02  0.89946898444E-01  0.51100000000E-03 0. -1.
</event>
<event>
 8    1  0.1202249E+005  0.1043930E+01  0.7957747E-01            NaN
         13   -1    0    0    0    0  0.00000000000E+00  0.00000000000E+00  0.74505805969E-08  0.10566000000E+00  0.10566000000E+00 0.  1.
     999900   -1    0    0    0    0 -0.00000000000E+00 -0.00000000000E+00 -0.74505805969E-08  0.93827000000E+00  0.93827000000E+00 0. -1.
     999902    2    1    2    0    0 -0.20242250983E-01 -0.68669492100E-02 -0.10505292299E-01  0.10201126768E+01  0.10198345986E+01 0.  0.
     999903    2    3    3    0    0 -0.10326146983E+00 -0.15185652566E-01  0.77634943497E-01  0.13178273099E+00  0.21117967216E-01 0.  0.
         14    1    1    2    0    0  0.20242250983E-01  0.68669492100E-02  0.10505292299E-01  0.23817323162E-01  0.00000000000E+00 0.  1.
     999901    1    3    3    0    0  0.83019218851E-01  0.83187033555E-02 -0.88140235795E-01  0.88832994585E+00  0.88000000000E+00 0. -1.
        -11    1    4    4    0    0 -0.36824096224E-01  0.65765536600E-03  0.37488464428E-01  0.52555614918E-01  0.51100000000E-03 0.  1.
         11    1    4    4    0    0 -0.66437373610E-01 -0.15843307931E-01  0.40146479069E-01  0.79227116072E-01  0.51100000000E-03 0. -1.
</event>
<event>
 8    1  0.1202249E+005  0.1043930E+01  0.7957747E-01            NaN
         13   -1    0    0    0    0  0.00000000000E+00  0.00000000000E+00  0.74505805969E-08  0.10566000000E+00  0.10566000000E+00 0.  1.
     999900   -1    0    0    0    0 -0.00000000000E+00 -0.00000000000E+00 -0.74505805969E-08  0.93827000000E+00  0.93827000000E+00 0. -1.
     999902    2    1    2    0    0  0.38306113512E-02  0.13045164508E-02  0.22460968761E-01  0.10211074133E+01  0.10208523297E+01 0.  0.
     999903    2    3    3    0    0 -0.14964393319E-01  0.11668609506E+00 -0.52160566442E-01  0.13024573244E+00  0.20090999963E-01 0.  0.
         14    1    1    2    0    0 -0.38306113512E-02 -0.13045164508E-02 -0.22460968761E-01  0.22822586710E-01  0.00000000000E+00 0. -1.
     999901    1    3    3    0    0  0.18795004670E-01 -0.11538157861E+00  0.74621535203E-01  0.89086168085E+00  0.88000000000E+00 0.  1.
        -11    1    4    4    0    0 -0.10124127188E-01  0.34828597197E-01 -0.81434185978E-02  0.37176679807E-01  0.51100000000E-03 0.  1.
         11    1    4    4    0    0 -0.48402661307E-02  0.81857497867E-01 -0.44017147844E-01  0.93069052636E-01  0.51100000000E-03 0. -1.
</event>
<event>
 8    1  0.1202249E+005  0.1043930E+01  0.7957747E-01            NaN
         13   -1    0    0    0    0  0.00000000000E+00  0.00000000000E+00  0.74505805969E-08  0.10566000000E+00  0.10566000000E+00 0. -1.
     999900   -1    0    0    0    0 -0.00000000000E+00 -0.00000000000E+00 -0.74505805969E-08  0.93827000000E+00  0.93827000000E+00 0.  1.
     999902    2    1    2    0    0 -0.26910176490E-01  0.18053038906E-04 -0.61195532865E-02  0.10163327745E+01  0.10159580216E+01 0.  0.
     999903    2    3    3    0    0 -0.11868969885E+00 -0.19014778105E-01  0.43677546189E-01  0.12995504432E+00  0.23060336149E-01 0.  0.
         14    1    1    2    0    0  0.26910176490E-01 -0.18053038906E-04  0.61195532865E-02  0.27597225532E-01  0.00000000000E+00 0.  1.
     999901    1    3    3    0    0  0.91779522362E-01  0.19032831144E-01 -0.49797099476E-01  0.88637773015E+00  0.88000000000E+00 0.  1.
        -11    1    4    4    0    0 -0.56718227835E-01 -0.15187918436E-01  0.31663426301E-01  0.66711797467E-01  0.51100000000E-03 0.  1.
         11    1    4    4    0    0 -0.61971471016E-01 -0.38268596691E-02  0.12014119888E-01  0.63243246853E-01  0.51100000000E-03 0. -1.
</event>
<event>
 8    1  0.1202249E+005  0.1043930E+01  0.7957747E-01            NaN
         13   -1    0    0    0    0  0.00000000000E+00  0.00000000000E+00  0.74505805969E-08  0.10566000000E+00  0.10566000000E+00 0.  1.
     999900   -1    0    0    0    0 -0.00000000000E+00 -0.00000000000E+00 -0.74505805969E-08  0.93827000000E+00  0.93827000000E+00 0. -1.
     999902    2    1    2    0    0  0.24243148869E-02 -0.11211843171E-01  0.22050203839E-01  0.10190745334E+01  0.10187713730E+01 0.  0.
     999903    2    3    3    0    0  0.10748133099E+00  0.62521619344E-02  0.72715380548E-01  0.13120690350E+00  0.18341180920E-01 0.  0.
         14    1    1    2    0    0 -0.24243148869E-02  0.11211843171E-01 -0.22050203839E-01  0.24855466588E-01  0.00000000000E+00 0. -1.
     999901    1    3    3    0    0 -0.10505701611E+00 -0.17464005105E-01 -0.50665176709E-01  0.88786762991E+00  0.88000000000E+00 0. -1.
        -11    1    4    4    0    0  0.53316287866E-01 -0.44956984801E-02  0.29628488948E-01  0.61163276032E-01  0.51100000000E-03 0.  1.
         11    1    4    4    0    0  0.54165043129E-01  0.10747860414E-01  0.43086891601E-01  0.70043627472E-01  0.51100000000E-03 0. -1.
</event>
<event>
 8    1  0.1202249E+005  0.1043930E+01  0.7957747E-01            NaN
         13   -1    0    0    0    0  0.00000000000E+00  0.00000000000E+00  0.74505805969E-08  0.10566000000E+00  0.10566000000E+00 0. -1.
     999900   -1    0    0    0    0 -0.00000000000E+00 -0.00000000000E+00 -0.74505805969E-08  0.93827000000E+00  0.93827000000E+00 0.  1.
     999902    2    1    2    0    0  0.44475522277E-02 -0.22255584753E-01 -0.65533987548E-02  0.10203071549E+01  0.10200336522E+01 0.  0.
     999903    2    3    3    0    0  0.78763137679E-01  0.92668873343E-01  0.36755578556E-01  0.12867600652E+00  0.20381122542E-01 0.  0.
         14    1    1    2    0    0 -0.44475522277E-02  0.22255584753E-01  0.65533987548E-02  0.23622845061E-01  0.00000000000E+00 0.  1.
     999901    1    3    3    0    0 -0.74315585452E-01 -0.11492445810E+00 -0.43308977311E-01  0.89163114842E+00  0.88000000000E+00 0.  1.
        -11    1    4    4    0    0  0.37266156031E-01  0.50181675912E-01  0.91217261747E-02  0.63169882001E-01  0.51100000000E-03 0. -1.
         11    1    4    4    0    0  0.41496981649E-01  0.42487197431E-01  0.27633852382E-01  0.65506124523E-01  0.51100000000E-03 0.  1.
</event>
<event>
 8    1  0.1202249E+005  0.1043930E+01  0.7957747E-01            NaN
         13   -1    0    0    0    0  0.00000000000E+00  0.00000000000E+00  0.74505805969E-08  0.10566000000E+00  0.10566000000E+00 0. -1.
     999900   -1    0    0    0    0 -0.00000000000E+00 -0.00000000000E+00 -0.74505805969E-08  0.93827000000E+00  0.93827000000E+00 0.  1.
     999902    2    1    2    0    0 -0.23047495452E-01 -0.18653301265E-02 -0.75970461966E-03  0.10207946665E+01  0.10205324628E+01 0.  0.
     999903    2    3    3    0    0 -0.12894632593E+00  0.15338040845E-01 -0.25450406701E-01  0.13393495439E+00  0.20698752115E-01 0.  0.
         14    1    1    2    0    0  0.23047495452E-01  0.18653301265E-02  0.75970461966E-03  0.23135333457E-01  0.00000000000E+00 0. -1.
     999901    1    3    3    0    0  0.10589883048E+00 -0.17203370971E-01  0.24690702081E-01  0.88685971215E+00  0.88000000000E+00 0. -1.
        -11    1    4    4    0    0 -0.45924653393E-01 -0.42324812929E-02 -0.67933837148E-02  0.46619726195E-01  0.51100000000E-03 0.  1.
         11    1    4    4    0    0 -0.83021672535E-01  0.19570522138E-01 -0.18657022986E-01  0.87315228196E-01  0.51100000000E-03 0. -1.
</event>
<event>
 8    1  0.1202249E+005  0.1043930E+01  0.7957747E-01            NaN
         13   -1    0    0    0    0  0.00000000000E+00  0.00000000000E+00  0.74505805969E-08  0.10566000000E+00  0.10566000000E+00 0.  1.
     999900   -1    0    0    0    0 -0.00000000000E+00 -0.00000000000E+00 -0.74505805969E-08  0.93827000000E+00  0.93827000000E+00 0. -1.
     999902    2    1    2    0    0  0.20351759547E-01 -0.12326264609E-01  0.56876253546E-02  0.10194661492E+01  0.10191725807E+01 0.  0.
     999903    2    3    3    0    0 -0.68361674224E-01  0.92871321508E-01  0.50865934572E-01  0.12762665402E+00  0.20070342701E-01 0.  0.
         14    1    1    2    0    0 -0.20351759547E-01  0.12326264609E-01 -0.56876253546E-02  0.24463850842E-01  0.00000000000E+00 0.  1.
     999901    1    3    3    0    0  0.88713433771E-01 -0.10519758612E+00 -0.45178309218E-01  0.89183949513E+00  0.88000000000E+00 0.  1.
        -11    1    4    4    0    0 -0.36945069107E-01  0.41367547748E-01  0.33697168660E-01  0.64899710590E-01  0.51100000000E-03 0.  1.
         11    1    4    4    0    0 -0.31416605117E-01  0.51503773760E-01  0.17168765912E-01  0.62726943434E-01  0.51100000000E-03 0. -1.
</event>
<event>
 8    1  0.1202249E+005  0.1043930E+01  0.7957747E-01            NaN
         13   -1    0    0    0    0  0.00000000000E+00  0.00000000000E+00  0.74505805969E-08  0.10566000000E+00  0.10566000000E+00 0. -1.
     999900   -1    0    0    0    0 -0.00000000000E+00 -0.00000000000E+00 -0.74505805969E-08  0.93827000000E+00  0.93827000000E+00 0. -1.
     999902    2    1    2    0    0 -0.17725549951E-01 -0.13193255845E-01  0.96982868482E-02  0.10197988192E+01  0.10195132749E+01 0.  0.
     999903    2    3    3    0    0  0.55792963987E-02  0.12222215251E+00 -0.33916536050E-01  0.12806864615E+00  0.16788793761E-01 0.  0.
         14    1    1    2    0    0  0.17725549951E-01  0.13193255845E-01 -0.96982868482E-02  0.24131180838E-01  0.00000000000E+00 0.  1.
     999901    1    3    3    0    0 -0.23304846349E-01 -0.13541540836E+00  0.43614822898E-01  0.89173017301E+00  0.88000000000E+00 0. -1.
        -11    1    4    4    0    0 -0.54732948930E-02  0.52121205212E-01 -0.17166147881E-01  0.55149929681E-01  0.51100000000E-03 0.  1.
         11    1    4    4    0    0  0.11052591292E-01  0.70100947300E-01 -0.16750388170E-01  0.72918716469E-01  0.51100000000E-03 0. -1.
</event>
<event>
 8    1  0.1202249E+005  0.1043930E+01  0.7957747E-01            NaN
         13   -1    0    0    0    0  0.00000000000E+00  0.00000000000E+00  0.74505805969E-08  0.10566000000E+00  0.10566000000E+00 0. -1.
     999900   -1    0    0    0    0 -0.00000000000E+00 -0.00000000000E+00 -0.74505805969E-08  0.93827000000E+00  0.93827000000E+00 0. -1.
     999902    2    1    2    0    0  0.20938715774E-01  0.53274098861E-02 -0.11636779914E-01  0.10193897115E+01  0.10190942832E+01 0.  0.
     999903    2    3    3    0    0  0.22133000521E-01 -0.81899447015E-01 -0.97540818032E-01  0.13091379472E+00  0.20659654695E-01 0.  0.
         14    1    1    2    0    0 -0.20938715774E-01 -0.53274098861E-02  0.11636779914E-01  0.24540288530E-01  0.00000000000E+00 0. -1.
     999901    1    3    3    0    0 -0.11942847461E-02  0.87226856901E-01  0.85904038118E-01  0.88847591675E+00  0.88000000000E+00 0.  1.
        -11    1    4    4    0    0  0.16795963928E-01 -0.38081439215E-01 -0.35122175827E-01  0.54462177451E-01  0.51100000000E-03 0. -1.
         11    1    4    4    0    0  0.53370365927E-02 -0.43818007800E-01 -0.62418642205E-01  0.76451617268E-01  0.51100000000E-03 0.  1.
</event>
<event>
 8    1  0.1202249E+005  0.1043930E+01  0.7957747E-01            NaN
         13   -1    0    0    0    0  0.00000000000E+00  0.00000000000E+00  0.74505805969E-08  0.10566000000E+00  0.10566000000E+00 0.  1.
     999900   -1    0    0    0    0 -0.00000000000E+00 -0.00000000000E+00 -0.74505805969E-08  0.93827000000E+00  0.93827000000E+00 0. -1.
     999902    2    1    2    0    0 -0.13083976300E-01  0.11825630069E-01  0.17269241475E-01  0.10192467534E+01  0.10189478307E+01 0.  0.
     999903    2    3    3    0    0 -0.77053217585E-01  0.72218330236E-01  0.77684772970E-01  0.13279913592E+00  0.21166033809E-01 0.  0.
         14    1    1    2    0    0  0.13083976300E-01 -0.11825630069E-01 -0.17269241475E-01  0.24683246615E-01  0.00000000000E+00 0. -1.
     999901    1    3    3    0    0  0.63969241286E-01 -0.60392700167E-01 -0.60415531494E-01  0.88644761747E+00  0.88000000000E+00 0. -1.
        -11    1    4    4    0    0 -0.38290448281E-01  0.36878482820E-01  0.26090021867E-01  0.59221037535E-01  0.51100000000E-03 0. -1.
         11    1    4    4    0    0 -0.38762769304E-01  0.35339847416E-01  0.51594751103E-01  0.73578098384E-01  0.51100000000E-03 0.  1.
</event>
<event>
 8    1  0.1202249E+005  0.1043930E+01  0.7957747E-01            NaN
         13   -1    0    0    0    0  0.00000000000E+00  0.00000000000E+00  0.74505805969E-08  0.10566000000E+00  0.10566000000E+00 0.  1.
     999900   -1    0    0    0    0 -0.00000000000E+00 -0.00000000000E+00 -0.74505805969E-08  0.93827000000E+00  0.93827000000E+00 0.  1.
     999902    2    1    2    0    0  0.19814908669E-01 -0.32439779516E-02  0.11452487085E-01  0.10208147786E+01  0.10205530358E+01 0.  0.
     999903    2    3    3    0    0  0.39822105788E-01  0.69037792955E-01  0.10442324122E+00  0.13274467809E+00  0.19102860759E-01 0.  0.
         14    1    1    2    0    0 -0.19814908669E-01  0.32439779516E-02 -0.11452487085E-01  0.23115221369E-01  0.00000000000E+00 0.  1.
     999901    1    3    3    0    0 -0.20007197119E-01 -0.72281770906E-01 -0.92970754139E-01  0.88807010054E+00  0.88000000000E+00 0.  1.
        -11    1    4    4    0    0  0.96001990390E-02  0.28709640968E-01  0.50929608895E-01  0.59249417628E-01  0.51100000000E-03 0. -1.
         11    1    4    4    0    0  0.30221906749E-01  0.40328151987E-01  0.53493632329E-01  0.73495260466E-01  0.51100000000E-03 0.  1.
</event>
<event>
 8    1  0.1202249E+005  0.1043930E+01  0.7957747E-01            NaN
         13   -1    0    0    0    0  0.00000000000E+00  0.00000000000E+00  0.74505805969E-08  0.10566000000E+00  0.10566000000E+00 0. -1.
     999900   -1    0    0    0    0 -0.00000000000E+00 -0.00000000000E+00 -0.74505805969E-08  0.93827000000E+00  0.93827000000E+00 0.  1.
     999902    2    1    2    0    0 -0.22746518174E-01  0.24387394722E-02 -0.60486928688E-02  0.10202669861E+01  0.10199925415E+01 0.  0.
     999903    2    3    3    0    0 -0.81442356281E-01 -0.54631908283E-01 -0.87240699377E-01  0.13274549223E+00  0.19822292490E-01 0.  0.
         14    1    1    2    0    0  0.22746518174E-01 -0.24387394722E-02  0.60486928688E-02  0.23663013854E-01  0.00000000000E+00 0. -1.
     999901    1    3    3    0    0  0.58695838107E-01  0.57070647755E-01  0.81192006508E-01  0.88752149392E+00  0.88000000000E+00 0. -1.
        -11    1    4    4    0    0 -0.74819224297E-02 -0.12970456974E-01 -0.10342812373E-01  0.18205680601E-01  0.51100000000E-03 0. -1.
         11    1    4    4    0    0 -0.73960433852E-01 -0.41661451309E-01 -0.76897887004E-01  0.11453981163E+00  0.51100000000E-03 0.  1.
</event>
<event>
 8    1  0.1202249E+005  0.1043930E+01  0.7957747E-01            NaN
         13   -1    0    0    0    0  0.00000000000E+00  0.00000000000E+00  0.74505805969E-08  0.10566000000E+00  0.10566000000E+00 0. -1.
     999900   -1    0    0    0    0 -0.00000000000E+00 -0.00000000000E+00 -0.74505805969E-08  0.93827000000E+00  0.93827000000E+00 0.  1.
     999902    2    1    2    0    0 -0.62830928433E-02  0.16228808624E-01  0.14161848683E-01  0.10214932123E+01  0.10212467739E+01 0.  0.
     999903    2    3    3    0    0 -0.59616301033E-01 -0.11052573219E+00 -0.26466943643E-01  0.12988688465E+00  0.20001571763E-01 0.  0.
         14    1    1    2    0    0  0.62830928433E-02 -0.16228808624E-01 -0.14161848683E-01  0.22436787719E-01  0.00000000000E+00 0.  1.
     999901    1    3    3    0    0  0.53333208190E-01  0.12675454081E+00  0.40628792326E-01  0.89160632763E+00  0.88000000000E+00 0.  1.
        -11    1    4    4    0    0 -0.11924295456E-01 -0.15216836975E-01 -0.10842130055E-01  0.22171013842E-01  0.51100000000E-03 0.  1.
         11    1    4    4    0    0 -0.47692005577E-01 -0.95308895213E-01 -0.15624813588E-01  0.10771587081E+00  0.51100000000E-03 0. -1.
</event>
<event>
 8    1  0.1202249E+005  0.1043930E+01  0.7957747E-01            NaN
         13   -1    0    0    0    0  0.00000000000E+00  0.00000000000E+00  0.74505805969E-08  0.10566000000E+00  0.10566000000E+00 0.  1.
     999900   -1    0    0    0    0 -0.00000000000E+00 -0.00000000000E+00 -0.74505805969E-08  0.93827000000E+00  0.93827000000E+00 0. -1.
     999902    2    1    2    0    0 -0.14630849908E-03 -0.10444711066E-01  0.20211261679E-01  0.10211789892E+01  0.10209255210E+01 0.  0.
     999903    2    3    3    0    0 -0.10773100661E+00 -0.66352909425E-01 -0.29286406241E-01  0.13148791186E+00  0.20559644911E-01 0.  0.
         14    1    1    2    0    0  0.14630849908E-03  0.10444711066E-01 -0.20211261679E-01  0.22751010837E-01  0.00000000000E+00 0. -1.
     999901    1    3    3    0    0  0.10758469811E+00  0.55908198359E-01  0.49497667920E-01  0.88969107731E+00  0.88000000000E+00 0.  1.
        -11    1    4    4    0    0 -0.60575813146E-01 -0.28026152084E-01 -0.86195195468E-02  0.67301200414E-01  0.51100000000E-03 0. -1.
         11    1    4    4    0    0 -0.47155193466E-01 -0.38326757341E-01 -0.20666886694E-01  0.64186711442E-01  0.51100000000E-03 0.  1.
</event>
<event>
 8    1  0.1202249E+005  0.1043930E+01  0.7957747E-01            NaN
         13   -1    0    0    0    0  0.00000000000E+00  0.00000000000E+00  0.74505805969E-08  0.10566000000E+00  0.10566000000E+00 0. -1.
     999900   -1    0    0    0    0 -0.00000000000E+00 -0.00000000000E+00 -0.74505805969E-08  0.93827000000E+00  0.93827000000E+00 0. -1.
     999902    2    1    2    0    0  0.45317355401E-02 -0.30427940550E-02 -0.23065543748E-01  0.10202273729E+01  0.10199519978E+01 0.  0.
     999903    2    3    3    0    0  0.51564428242E-01 -0.11745882700E+00 -0.22202794324E-01  0.13157454581E+00  0.19063859217E-01 0.  0.
         14    1    1    2    0    0 -0.45317355401E-02  0.30427940550E-02  0.23065543748E-01  0.23702627092E-01  0.00000000000E+00 0. -1.
     999901    1    3    3    0    0 -0.47032692702E-01  0.11441603295E+00 -0.86274942392E-03  0.88865282710E+00  0.88000000000E+00 0. -1.
        -11    1    4    4    0    0  0.18319373543E-01 -0.24255068918E-01 -0.12617219028E-02  0.30426318844E-01  0.51100000000E-03 0.  1.
         11    1    4    4    0    0  0.33245054699E-01 -0.93203758082E-01 -0.20941072422E-01  0.10114822696E+00  0.51100000000E-03 0. -1.
</event>
<event>
 8    1  0.1202249E+005  0.1043930E+01  0.7957747E-01            NaN
         13   -1    0    0    0    0  0.00000000000E+00  0.00000000000E+00  0.74505805969E-08  0.10566000000E+00  0.10566000000E+00 0.  1.
     999900   -1    0    0    0    0 -0.00000000000E+00 -0.00000000000E+00 -0.74505805969E-08  0.93827000000E+00  0.93827000000E+00 0.  1.
     999902    2    1    2    0    0 -0.21728054385E-01  0.10440334998E-01  0.24594235215E-02  0.10196986627E+01  0.10194107146E+01 0.  0.
     999903    2    3    3    0    0  0.50068949124E-01 -0.44350981079E-01  0.10847128837E+00  0.12874669234E+00  0.18324333529E-01 0.  0.
         14    1    1    2    0    0  0.21728054385E-01 -0.10440334998E-01 -0.24594235215E-02  0.24231337278E-01  0.00000000000E+00 0.  1.
     999901    1    3    3    0    0 -0.71797003509E-01  0.54791316077E-01 -0.10601186485E+00  0.89095197038E+00  0.88000000000E+00 0.  1.
        -11    1    4    4    0    0  0.30078717047E-01 -0.37054044519E-01  0.80673979483E-01  0.93735177608E-01  0.51100000000E-03 0.  1.
         11    1    4    4    0    0  0.19990232078E-01 -0.72969365594E-02  0.27797308889E-01  0.35011514737E-01  0.51100000000E-03 0. -1.
</event>
<event>
 8    1  0.1202249E+005  0.1043930E+01  0.7957747E-01            NaN
         13   -1    0    0    0    0  0.00000000000E+00  0.00000000000E+00  0.74505805969E-08  0.10566000000E+00  0.10566000000E+00 0. -1.
     999900   -1    0    0    0    0 -0.00000000000E+00 -0.00000000000E+00 -0.74505805969E-08  0.93827000000E+00  0.93827000000E+00 0.  1.
     999902    2    1    2    0    0 -0.11833574570E-01  0.56217983043E-02 -0.18866198418E-01  0.10209610743E+01  0.10207026716E+01 0.  0.
     999903    2    3    3    0    0 -0.11455995466E+00  0.43985429921E-01  0.44310171627E-01  0.13190779634E+00  0.19431267796E-01 0.  0.
         14    1    1    2    0    0  0.11833574570E-01 -0.56217983043E-02  0.18866198418E-01  0.22968925661E-01  0.00000000000E+00 0.  1.
     999901    1    3    3    0    0  0.10272638009E+00 -0.38363631617E-01 -0.63176370045E-01  0.88905327800E+00  0.88000000000E+00 0. -1.
        -11    1    4    4    0    0 -0.90153205753E-01  0.42567129034E-01  0.33555995437E-01  0.10519423431E+00  0.51100000000E-03 0. -1.
         11    1    4    4    0    0 -0.24406748903E-01  0.14183008875E-02  0.10754176190E-01  0.26713562023E-01  0.51100000000E-03 0.  1.
</event>
<event>
 8    1  0.1202249E+005  0.1043930E+01  0.7957747E-01            NaN
         13   -1    0    0    0    0  0.00000000000E+00  0.00000000000E+00  0.74505805969E-08  0.10566000000E+00  0.10566000000E+00 0. -1.
     999900   -1    0    0    0    0 -0.00000000000E+00 -0.00000000000E+00 -0.74505805969E-08  0.93827000000E+00  0.93827000000E+00 0. -1.
     999902    2    1    2    0    0  0.13195393638E-01  0.10471792419E-01 -0.16310273023E-01  0.10204821460E+01  0.10202127271E+01 0.  0.
     999903    2    3    3    0    0  0.34951431425E-01 -0.12281623725E+00  0.10634909326E-01  0.12977171784E+00  0.20546697159E-01 0.  0.
         14    1    1    2    0    0 -0.13195393638E-01 -0.10471792419E-01  0.16310273023E-01  0.23447853970E-01  0.00000000000E+00 0. -1.
     999901    1    3    3    0    0 -0.21756037787E-01  0.13328802967E+00 -0.26945182350E-01  0.89071042819E+00  0.88000000000E+00 0. -1.
        -11    1    4    4    0    0  0.79553541718E-02 -0.49169506904E-01  0.12322941691E-01  0.51313195984E-01  0.51100000000E-03 0. -1.
         11    1    4    4    0    0  0.26996077253E-01 -0.73646730346E-01 -0.16880323649E-02  0.78458521857E-01  0.51100000000E-03 0.  1.
</event>
<event>
 8    1  0.1202249E+005  0.1043930E+01  0.7957747E-01            NaN
         13   -1    0    0    0    0  0.00000000000E+00  0.00000000000E+00  0.74505805969E-08  0.10566000000E+00  0.10566000000E+00 0.  1.
     999900   -1    0    0    0    0 -0.00000000000E+00 -0.00000000000E+00 -0.74505805969E-08  0.93827000000E+00  0.93827000000E+00 0.  1.
     999902    2    1    2    0    0 -0.28630535270E-03 -0.22624176162E-01 -0.74300161477E-02  0.10201152890E+01  0.10198372726E+01 0.  0.
     999903    2    3    3    0    0 -0.69953804200E-01  0.10190321409E+00 -0.28372010860E-01  0.12837586609E+00  0.19939714879E-01 0.  0.
         14    1    1    2    0    0  0.28630535270E-03  0.22624176162E-01  0.74300161477E-02  0.23814710952E-01  0.00000000000E+00 0.  1.
     999901    1    3    3    0    0  0.69667498848E-01 -0.12452739025E+00  0.20941994712E-01  0.89173942296E+00  0.88000000000E+00 0.  1.
        -11    1    4    4    0    0 -0.61016738468E-01  0.74601220362E-01 -0.23912183688E-01  0.99299738683E-01  0.51100000000E-03 0. -1.
         11    1    4    4    0    0 -0.89370657327E-02  0.27301993729E-01 -0.44598271719E-02  0.29076127406E-01  0.51100000000E-03 0.  1.
</event>
<event>
 8    1  0.1202249E+005  0.1043930E+01  0.7957747E-01            NaN
         13   -1    0    0    0    0  0.00000000000E+00  0.00000000000E+00  0.74505805969E-08  0.10566000000E+00  0.10566000000E+00 0. -1.
     999900   -1    0    0    0    0 -0.00000000000E+00 -0.00000000000E+00 -0.74505805969E-08  0.93827000000E+00  0.93827000000E+00 0. -1.
     999902    2    1    2    0    0  0.16782956504E-01 -0.15354121749E-01 -0.74565821065E-02  0.10199922202E+01  0.10197112886E+01 0.  0.
     999903    2    3    3    0    0 -0.55477077965E-01 -0.49608501163E-01 -0.10575428605E+00  0.13091555667E+00  0.20401088038E-01 0.  0.
         14    1    1    2    0    0 -0.16782956504E-01  0.15354121749E-01  0.74565821065E-02  0.23937779772E-01  0.00000000000E+00 0. -1.
     999901    1    3    3    0    0  0.72260034469E-01  0.34254379414E-01  0.98297703939E-01  0.88907666356E+00  0.88000000000E+00 0.  1.
        -11    1    4    4    0    0 -0.75939082470E-02 -0.75195164390E-02 -0.30300117061E-01  0.32133608338E-01  0.51100000000E-03 0.  1.
         11    1    4    4    0    0 -0.47883169718E-01 -0.42088984724E-01 -0.75454168984E-01  0.98781948328E-01  0.51100000000E-03 0. -1.
</event>
<event>
 8    1  0.1202249E+005  0.1043930E+01  0.7957747E-01            NaN
         13   -1    0    0    0    0  0.00000000000E+00  0.00000000000E+00  0.74505805969E-08  0.10566000000E+00  0.10566000000E+00 0.  1.
     999900   -1    0    0    0    0 -0.00000000000E+00 -0.00000000000E+00 -0.74505805969E-08  0.93827000000E+00  0.93827000000E+00 0. -1.
     999902    2    1    2    0    0 -0.15767352931E-01 -0.49397988590E-02 -0.17471088547E-01  0.10198831714E+01  0.10195996436E+01 0.  0.
     999903    2    3    3    0    0 -0.74404875838E-01 -0.10603862861E+00 -0.16700406809E-01  0.13215577719E+00  0.20148686045E-01 0.  0.
         14    1    1    2    0    0  0.15767352931E-01  0.49397988590E-02  0.17471088547E-01  0.24046828611E-01  0.00000000000E+00 0.  1.
     999901    1    3    3    0    0  0.58637522907E-01  0.10109882975E+00 -0.77068173794E-03  0.88772739420E+00  0.88000000000E+00 0. -1.
        -11    1    4    4    0    0 -0.31904242403E-01 -0.62681921819E-01 -0.10684697500E-01  0.71143010113E-01  0.51100000000E-03 0. -1.
         11    1    4    4    0    0 -0.42500633435E-01 -0.43356706794E-01 -0.60157093089E-02  0.61012767073E-01  0.51100000000E-03 0.  1.
</event>
<event>
 8    1  0.1202249E+005  0.1043930E+01  0.7957747E-01            NaN
         13   -1    0    0    0    0  0.00000000000E+00  0.00000000000E+00  0.74505805969E-08  0.10566000000E+00  0.10566000000E+00 0. -1.
     999900   -1    0    0    0    0 -0.00000000000E+00 -0.00000000000E+00 -0.74505805969E-08  0.93827000000E+00  0.93827000000E+00 0.  1.
     999902    2    1    2    0    0  0.23600430136E-01 -0.23256128603E-02  0.24019637783E-02  0.10200939305E+01  0.10198154092E+01 0.  0.
     999903    2    3    3    0    0  0.22189565235E-01  0.24968633877E-01  0.12486994102E+00  0.13119271448E+00  0.22432491603E-01 0.  0.
         14    1    1    2    0    0 -0.23600430136E-01  0.23256128603E-02 -0.24019637783E-02  0.23836069470E-01  0.00000000000E+00 0.  1.
     999901    1    3    3    0    0  0.14108649010E-02 -0.27294246737E-01 -0.12246797724E+00  0.88890121605E+00  0.88000000000E+00 0.  1.
        -11    1    4    4    0    0  0.13803952743E-01  0.27249032391E-01  0.10759858044E+00  0.11185157357E+00  0.51100000000E-03 0. -1.
         11    1    4    4    0    0  0.83856124921E-02 -0.22803985145E-02  0.17271360585E-01  0.19341140910E-01  0.51100000000E-03 0.  1.
</event>
<event>
 8    1  0.1202249E+005  0.1043930E+01  0.7957747E-01            NaN
         13   -1    0    0    0    0  0.00000000000E+00  0.00000000000E+00  0.74505805969E-08  0.10566000000E+00  0.10566000000E+00 0.  1.
     999900   -1    0    0    0    0 -0.00000000000E+00 -0.00000000000E+00 -0.74505805969E-08  0.93827000000E+00  0.93827000000E+00 0. -1.
     999902    2    1    2    0    0 -0.42609919793E-02  0.22344194498E-01 -0.26226997722E-02  0.10210324535E+01  0.10207756725E+01 0.  0.
     999903    2    3    3    0    0 -0.84606072702E-01 -0.56419320115E-02 -0.98871408337E-01  0.13170553435E+00  0.19513417355E-01 0.  0.
         14    1    1    2    0    0  0.42609919793E-02 -0.22344194498E-01  0.26226997722E-02  0.22897546473E-01  0.00000000000E+00 0.  1.
     999901    1    3    3    0    0  0.80345080723E-01  0.27986126509E-01  0.96248708564E-01  0.88932691918E+00  0.88000000000E+00 0.  1.
        -11    1    4    4    0    0 -0.43981691198E-01  0.40065178366E-02 -0.61155275462E-01  0.75436530830E-01  0.51100000000E-03 0. -1.
         11    1    4    4    0    0 -0.40624381504E-01 -0.96484498480E-02 -0.37716132875E-01  0.56269003519E-01  0.51100000000E-03 0.  1.
</event>
<event>
 8    1  0.1202249E+005  0.1043930E+01  0.7957747E-01            NaN
         13   -1    0    0    0    0  0.00000000000E+00  0.00000000000E+00  0.74505805969E-08  0.10566000000E+00  0.10566000000E+00 0. -1.
     999900   -1    0    0    0    0 -0.00000000000E+00 -0.00000000000E+00 -0.74505805969E-08  0.93827000000E+00  0.93827000000E+00 0. -1.
     999902    2    1    2    0    0 -0.15480506245E-01  0.13931328352E-01 -0.14958270088E-01  0.10182886695E+01  0.10179657837E+01 0.  0.
     999903    2    3    3    0    0  0.85272708512E-01 -0.42549206398E-01  0.79406118532E-01  0.12573844747E+00  0.20565887542E-01 0.  0.
         14    1    1    2    0    0  0.15480506245E-01 -0.13931328352E-01  0.14958270088E-01  0.25641330451E-01  0.00000000000E+00 0.  1.
     999901    1    3    3    0    0 -0.10075321476E+00  0.56480534750E-01 -0.94364388620E-01  0.89255022208E+00  0.88000000000E+00 0. -1.
        -11    1    4    4    0    0  0.26347272118E-01 -0.31677598294E-02  0.23858921776E-01  0.35689252160E-01  0.51100000000E-03 0.  1.
         11    1    4    4    0    0  0.58925436394E-01 -0.39381446569E-01  0.55547196756E-01  0.90049195313E-01  0.51100000000E-03 0. -1.
</event>
<event>
 7    1  0.1202249E+005  0.1043930E+01  0.7957747E-01            NaN
         13   -1    0    0    0    0  0.00000000000E+00  0.00000000000E+00  0.74505805969E-08  0.10566000000E+00  0.10566000000E+00 0.  1.
     999900   -1    0    0    0    0 -0.00000000000E+00 -0.00000000000E+00 -0.74505805969E-08  0.93827000000E+00  0.93827000000E+00 0. -1.
     999903    2    1    2    0    0  0.11186421805E+00  0.29982032793E-01  0.52197649855E-02  0.11730103039E+00  0.17881840351E-01 0.  0.
         14    1    1    2    0    0 -0.28674033969E-01 -0.21742357143E-01 -0.22605236762E-01  0.42496200386E-01  0.00000000000E+00 0. -1.
     999901    1    1    2    0    0 -0.83190184081E-01 -0.82396756504E-02  0.17385471776E-01  0.88413276922E+00  0.88000000000E+00 0.  1.
        -11    1    3    3    0    0  0.32927483681E-01  0.17377855217E-01  0.90431714513E-03  0.37246314502E-01  0.51100000000E-03 0.  1.
         11    1    3    3    0    0  0.78936734370E-01  0.12604177576E-01  0.43154478404E-02  0.80054715891E-01  0.51100000000E-03 0. -1.
</event>
<event>
 8    1  0.1202249E+005  0.1043930E+01  0.7957747E-01            NaN
         13   -1    0    0    0    0  0.00000000000E+00  0.00000000000E+00  0.74505805969E-08  0.10566000000E+00  0.10566000000E+00 0.  1.
     999900   -1    0    0    0    0 -0.00000000000E+00 -0.00000000000E+00 -0.74505805969E-08  0.93827000000E+00  0.93827000000E+00 0. -1.
     999902    2    1    2    0    0  0.13901423911E-01  0.19340178492E-01 -0.14730084137E-02  0.10200666003E+01  0.10197874324E+01 0.  0.
     999903    2    3    3    0    0 -0.66801802191E-01 -0.99301534581E-01  0.39278957593E-01  0.12751431080E+00  0.19844077270E-01 0.  0.
         14    1    1    2    0    0 -0.13901423911E-01 -0.19340178492E-01  0.14730084137E-02  0.23863399687E-01  0.00000000000E+00 0. -1.
     999901    1    3    3    0    0  0.80703226102E-01  0.11864171307E+00 -0.40751966007E-01  0.89255228951E+00  0.88000000000E+00 0.  1.
        -11    1    4    4    0    0 -0.55834984799E-01 -0.71180068059E-01  0.35098430992E-01  0.97037665860E-01  0.51100000000E-03 0.  1.
         11    1    4    4    0    0 -0.10966817391E-01 -0.28121466522E-01  0.41805266009E-02  0.30476644938E-01  0.51100000000E-03 0. -1.
</event>
<event>
 8    1  0.1202249E+005  0.1043930E+01  0.7957747E-01            NaN
         13   -1    0    0    0    0  0.00000000000E+00  0.00000000000E+00  0.74505805969E-08  0.10566000000E+00  0.10566000000E+00 0.  1.
     999900   -1    0    0    0    0 -0.00000000000E+00 -0.00000000000E+00 -0.74505805969E-08  0.93827000000E+00  0.93827000000E+00 0. -1.
     999902    2    1    2    0    0 -0.21121812415E-01  0.97679586245E-02  0.29004629474E-02  0.10204788452E+01  0.10202093495E+01 0.  0.
     999903    2    3    3    0    0 -0.19388900107E-01  0.95891097939E-01  0.87143717901E-01  0.13226877766E+00  0.18165072572E-01 0.  0.
         14    1    1    2    0    0  0.21121812415E-01 -0.97679586245E-02 -0.29004629474E-02  0.23451154784E-01  0.00000000000E+00 0.  1.
     999901    1    3    3    0    0 -0.17329123089E-02 -0.86123139314E-01 -0.84243254954E-01  0.88821006756E+00  0.88000000000E+00 0. -1.
        -11    1    4    4    0    0  0.13503821143E-03  0.44857743949E-01  0.39304147558E-01  0.59643210542E-01  0.51100000000E-03 0.  1.
         11    1    4    4    0    0 -0.19523938318E-01  0.51033353990E-01  0.47839570343E-01  0.72625567113E-01  0.51100000000E-03 0. -1.
</event>
<event>
 8    1  0.1202249E+005  0.1043930E+01  0.7957747E-01            NaN
         13   -1    0    0    0    0  0.00000000000E+00  0.00000000000E+00  0.74505805969E-08  0.10566000000E+00  0.10566000000E+00 0. -1.
     999900   -1    0    0    0    0 -0.00000000000E+00 -0.00000000000E+00 -0.74505805969E-08  0.93827000000E+00  0.93827000000E+00 0. -1.
     999902    2    1    2    0    0  0.50917119951E-02  0.23676335433E-01 -0.45952823343E-02  0.10192802331E+01  0.10189821306E+01 0.  0.
     999903    2    3    3    0    0 -0.10175091804E+00  0.24093876989E-01 -0.75040087437E-01  0.13002324405E+00  0.18473360288E-01 0.  0.
         14    1    1    2    0    0 -0.50917119951E-02 -0.23676335433E-01  0.45952823343E-02  0.24649766943E-01  0.00000000000E+00 0. -1.
     999901    1    3    3    0    0  0.10684263003E+00 -0.41754155549E-03  0.70444805103E-01  0.88925698901E+00  0.88000000000E+00 0.  1.
        -11    1    4    4    0    0 -0.52330451000E-01  0.18001901605E-01 -0.30377890725E-01  0.63131782243E-01  0.51100000000E-03 0. -1.
         11    1    4    4    0    0 -0.49420467039E-01  0.60919753838E-02 -0.44662196711E-01  0.66891461806E-01  0.51100000000E-03 0.  1.
</event>
<event>
 8    1  0.1202249E+005  0.1043930E+01  0.7957747E-01            NaN
         13   -1    0    0    0    0  0.00000000000E+00  0.00000000000E+00  0.74505805969E-08  0.10566000000E+00  0.10566000000E+00 0.  1.
     999900   -1    0    0    0    0 -0.00000000000E+00 -0.00000000000E+00 -0.74505805969E-08  0.93827000000E+00  0.93827000000E+00 0. -1.
     999902    2    1    2    0    0  0.21034345078E-01  0.34061425777E-02 -0.96881935486E-02  0.10205225957E+01  0.10202541163E+01 0.  0.
     999903    2    3    3    0    0  0.10395059004E+00 -0.74686691619E-01 -0.29590079498E-01  0.13295869410E+00  0.20460069783E-01 0.  0.
         14    1    1    2    0    0 -0.21034345078E-01 -0.34061425777E-02  0.96881935486E-02  0.23407404263E-01  0.00000000000E+00 0.  1.
     999901    1    3    3    0    0 -0.82916244966E-01  0.78092834197E-01  0.19901885949E-01  0.88756390164E+00  0.88000000000E+00 0. -1.
        -11    1    4    4    0    0  0.39072278567E-01 -0.21795263099E-01 -0.18751336717E-02  0.44782292184E-01  0.51100000000E-03 0. -1.
         11    1    4    4    0    0  0.64878311477E-01 -0.52891428520E-01 -0.27714945826E-01  0.88176401912E-01  0.51100000000E-03 0.  1.
</event>
<event>
 8    1  0.1202249E+005  0.1043930E+01  0.7957747E-01            NaN
         13   -1    0    0    0    0  0.00000000000E+00  0.00000000000E+00  0.74505805969E-08  0.10566000000E+00  0.10566000000E+00 0. -1.
     999900   -1    0    0    0    0 -0.00000000000E+00 -0.00000000000E+00 -0.74505805969E-08  0.93827000000E+00  0.93827000000E+00 0. -1.
     999902    2    1    2    0    0 -0.11036345924E-02  0.22760891138E-01  0.75016070831E-02  0.10199393709E+01  0.10196571826E+01 0.  0.
     999903    2    3    3    0    0 -0.89914479828E-01  0.72767201491E-01  0.62852557960E-01  0.13232925095E+00  0.13450179194E-01 0.  0.
         14    1    1    2    0    0  0.11036345924E-02 -0.22760891138E-01 -0.75016070831E-02  0.23990629078E-01  0.00000000000E+00 0. -1.
     999901    1    3    3    0    0  0.88810845236E-01 -0.50006310353E-01 -0.55350950877E-01  0.88761011997E+00  0.88000000000E+00 0. -1.
        -11    1    4    4    0    0 -0.62238964032E-01  0.42787709784E-01  0.43609328054E-01  0.87215316124E-01  0.51100000000E-03 0. -1.
         11    1    4    4    0    0 -0.27675515796E-01  0.29979491708E-01  0.19243229906E-01  0.45113934830E-01  0.51100000000E-03 0.  1.
</event>
<event>
 8    1  0.1202249E+005  0.1043930E+01  0.7957747E-01            NaN
         13   -1    0    0    0    0  0.00000000000E+00  0.00000000000E+00  0.74505805969E-08  0.10566000000E+00  0.10566000000E+00 0. -1.
     999900   -1    0    0    0    0 -0.00000000000E+00 -0.00000000000E+00 -0.74505805969E-08  0.93827000000E+00  0.93827000000E+00 0. -1.
     999902    2    1    2    0    0  0.21713719747E-02  0.23001949597E-01  0.58880686609E-02  0.10200873094E+01  0.10198086315E+01 0.  0.
     999903    2    3    3    0    0 -0.42369257066E-01 -0.63705799662E-01 -0.10099443798E+00  0.12827680733E+00  0.20036964326E-01 0.  0.
         14    1    1    2    0    0 -0.21713719747E-02 -0.23001949597E-01 -0.58880686609E-02  0.23842690580E-01  0.00000000000E+00 0.  1.
     999901    1    3    3    0    0  0.44540629041E-01  0.86707749259E-01  0.10688250664E+00  0.89181050209E+00  0.88000000000E+00 0.  1.
        -11    1    4    4    0    0 -0.16576917466E-01 -0.32645148745E-01 -0.62811360088E-01  0.72705075520E-01  0.51100000000E-03 0. -1.
         11    1    4    4    0    0 -0.25792339600E-01 -0.31060650917E-01 -0.38183077896E-01  0.55571731807E-01  0.51100000000E-03 0.  1.
</event>
<event>
 8    1  0.1202249E+005  0.1043930E+01  0.7957747E-01            NaN
         13   -1    0    0    0    0  0.00000000000E+00  0.00000000000E+00  0.74505805969E-08  0.10566000000E+00  0.10566000000E+00 0. -1.
     999900   -1    0    0    0    0 -0.00000000000E+00 -0.00000000000E+00 -0.74505805969E-08  0.93827000000E+00  0.93827000000E+00 0.  1.
     999902    2    1    2    0    0 -0.81499665377E-02 -0.17898272183E-01  0.13663282131E-01  0.10199830716E+01  0.10197019226E+01 0.  0.
     999903    2    3    3    0    0 -0.66961073858E-01  0.78236907806E-01 -0.74189425138E-01  0.12845695456E+00  0.19807049671E-01 0.  0.
         14    1    1    2    0    0  0.81499665377E-02  0.17898272183E-01 -0.13663282131E-01  0.23946928410E-01  0.00000000000E+00 0.  1.
     999901    1    3    3    0    0  0.58811107321E-01 -0.96135179989E-01  0.87852707268E-01  0.89152611703E+00  0.88000000000E+00 0. -1.
        -11    1    4    4    0    0 -0.34825514092E-01  0.25750602505E-01 -0.31403798263E-01  0.53501118002E-01  0.51100000000E-03 0.  1.
         11    1    4    4    0    0 -0.32135559766E-01  0.52486305302E-01 -0.42785626875E-01  0.74955836556E-01  0.51100000000E-03 0. -1.
</event>
<event>
 8    1  0.1202249E+005  0.1043930E+01  0.7957747E-01            NaN
         13   -1    0    0    0    0  0.00000000000E+00  0.00000000000E+00  0.74505805969E-08  0.10566000000E+00  0.10566000000E+00 0. -1.
     999900   -1    0    0    0    0 -0.00000000000E+00 -0.00000000000E+00 -0.74505805969E-08  0.93827000000E+00  0.93827000000E+00 0. -1.
     999902    2    1    2    0    0 -0.96767908493E-02 -0.10598514331E-01  0.16606565706E-01  0.10219812686E+01  0.10217455488E+01 0.  0.
     999903    2    3    3    0    0  0.12456555981E+00 -0.28516879491E-01 -0.19501370149E-01  0.13088875959E+00  0.20537108894E-01 0.  0.
         14    1    1    2    0    0  0.96767908493E-02  0.10598514331E-01 -0.16606565706E-01  0.21948731438E-01  0.00000000000E+00 0. -1.
     999901    1    3    3    0    0 -0.13424235066E+00  0.17918365159E-01  0.36107935855E-01  0.89109250898E+00  0.88000000000E+00 0.  1.
        -11    1    4    4    0    0  0.43939276241E-01 -0.13890532349E-03 -0.58812698523E-02  0.44334295385E-01  0.51100000000E-03 0.  1.
         11    1    4    4    0    0  0.80626283570E-01 -0.28377974167E-01 -0.13620100297E-01  0.86554464202E-01  0.51100000000E-03 0. -1.
</event>
<event>
 8    1  0.1202249E+005  0.1043930E+01  0.7957747E-01            NaN
         13   -1    0    0    0    0  0.00000000000E+00  0.00000000000E+00  0.74505805969E-08  0.10566000000E+00  0.10566000000E+00 0. -1.
     999900   -1    0    0    0    0 -0.00000000000E+00 -0.00000000000E+00 -0.74505805969E-08  0.93827000000E+00  0.93827000000E+00 0. -1.
     999902    2    1    2    0    0  0.60414301824E-02  0.92451776248E-02 -0.21178735665E-01  0.10200446272E+01  0.10197649389E+01 0.  0.
     999903    2    3    3    0    0  0.11385749444E+00 -0.56303010415E-01 -0.82200832818E-02  0.13095025916E+00  0.30770807326E-01 0.  0.
         14    1    1    2    0    0 -0.60414301824E-02 -0.92451776248E-02  0.21178735665E-01  0.23885372770E-01  0.00000000000E+00 0.  1.
     999901    1    3    3    0    0 -0.10781606425E+00  0.65548188040E-01 -0.12958652383E-01  0.88909436807E+00  0.88000000000E+00 0.  1.
        -11    1    4    4    0    0  0.28717181163E-01 -0.27300224940E-01  0.53518285006E-02  0.39986022121E-01  0.51100000000E-03 0. -1.
         11    1    4    4    0    0  0.85140313272E-01 -0.29002785476E-01 -0.13571911782E-01  0.90964237037E-01  0.51100000000E-03 0.  1.
</event>
<event>
 8    1  0.1202249E+005  0.1043930E+01  0.7957747E-01            NaN
         13   -1    0    0    0    0  0.00000000000E+00  0.00000000000E+00  0.74505805969E-08  0.10566000000E+00  0.10566000000E+00 0. -1.
     999900   -1    0    0    0    0 -0.00000000000E+00 -0.00000000000E+00 -0.74505805969E-08  0.93827000000E+00  0.93827000000E+00 0. -1.
     999902    2    1    2    0    0 -0.29197723048E-02 -0.82298283010E-03 -0.23426910648E-01  0.10203074998E+01  0.10200340052E+01 0.  0.
     999903    2    3    3    0    0 -0.79207189261E-01 -0.37741875012E-01  0.92101268172E-01  0.12871929070E+00  0.19692238049E-01 0.  0.
         14    1    1    2    0    0  0.29197723048E-02  0.82298283010E-03  0.23426910648E-01  0.23622500154E-01  0.00000000000E+00 0. -1.
     999901    1    3    3    0    0  0.76287416956E-01  0.36918892182E-01 -0.11552817882E+00  0.89158820915E+00  0.88000000000E+00 0. -1.
        -11    1    4    4    0    0 -0.17663293238E-01 -0.98901821253E-02  0.34203767655E-01  0.39748792098E-01  0.51100000000E-03 0. -1.
         11    1    4    4    0    0 -0.61543896022E-01 -0.27851692887E-01  0.57897500518E-01  0.88970498602E-01  0.51100000000E-03 0.  1.
</event>
<event>
 8    1  0.1202249E+005  0.1043930E+01  0.7957747E-01            NaN
         13   -1    0    0    0    0  0.00000000000E+00  0.00000000000E+00  0.74505805969E-08  0.10566000000E+00  0.10566000000E+00 0. -1.
     999900   -1    0    0    0    0 -0.00000000000E+00 -0.00000000000E+00 -0.74505805969E-08  0.93827000000E+00  0.93827000000E+00 0. -1.
     999902    2    1    2    0    0 -0.11849647689E-01  0.10948528679E-01 -0.17180489784E-01  0.10203619356E+01  0.10200897147E+01 0.  0.
     999903    2    3    3    0    0  0.17442421217E-01 -0.11504471161E+00  0.50341545728E-01  0.12834649448E+00  0.19975677525E-01 0.  0.
         14    1    1    2    0    0  0.11849647689E-01 -0.10948528679E-01  0.17180489784E-01  0.23568064405E-01  0.00000000000E+00 0. -1.
     999901    1    3    3    0    0 -0.29292068906E-01  0.12599324029E+00 -0.67522035512E-01  0.89201544111E+00  0.88000000000E+00 0. -1.
        -11    1    4    4    0    0  0.13702658680E-01 -0.35162655027E-01  0.20796885752E-01  0.43092304898E-01  0.51100000000E-03 0.  1.
         11    1    4    4    0    0  0.37397625372E-02 -0.79882056584E-01  0.29544659977E-01  0.85254189587E-01  0.51100000000E-03 0. -1.
</event>
<event>
 8    1  0.1202249E+005  0.1043930E+01  0.7957747E-01            NaN
         13   -1    0    0    0    0  0.00000000000E+00  0.00000000000E+00  0.74505805969E-08  0.10566000000E+00  0.10566000000E+00 0. -1.
     999900   -1    0    0    0    0 -0.00000000000E+00 -0.00000000000E+00 -0.74505805969E-08  0.93827000000E+00  0.93827000000E+00 0.  1.
     999902    2    1    2    0    0 -0.94401661170E-02 -0.25574084463E-01  0.57926020360E-02  0.10160605764E+01  0.10156782907E+01 0.  0.
     999903    2    3    3    0    0  0.11653228880E+00 -0.41929575012E-01 -0.17440828328E-01  0.12663584450E+00  0.19864315387E-01 0.  0.
         14    1    1    2    0    0  0.94401661170E-02  0.25574084463E-01 -0.57926020360E-02  0.27869423582E-01  0.00000000000E+00 0.  1.
     999901    1    3    3    0    0 -0.12597245491E+00  0.16355490549E-01  0.23233430364E-01  0.88942473192E+00  0.88000000000E+00 0. -1.
        -11    1    4    4    0    0  0.10826392268E+00 -0.42702754715E-01 -0.12734961954E-01  0.11707707970E+00  0.51100000000E-03 0.  1.
         11    1    4    4    0    0  0.82683661143E-02  0.77317970270E-03 -0.47058663744E-02  0.95587647939E-02  0.51100000000E-03 0. -1.
</event>
<event>
 8    1  0.1202249E+005  0.1043930E+01  0.7957747E-01            NaN
         13   -1    0    0    0    0  0.00000000000E+00  0.00000000000E+00  0.74505805969E-08  0.10566000000E+00  0.10566000000E+00 0. -1.
     999900   -1    0    0    0    0 -0.00000000000E+00 -0.00000000000E+00 -0.74505805969E-08  0.93827000000E+00  0.93827000000E+00 0.  1.
     999902    2    1    2    0    0  0.19350628117E-01  0.13578426758E-01 -0.15777122825E-02  0.10202380255E+01  0.10199629008E+01 0.  0.
     999903    2    3    3    0    0 -0.12341570144E+00 -0.17006311404E-01  0.19771331644E-01  0.12795251468E+00  0.21454381113E-01 0.  0.
         14    1    1    2    0    0 -0.19350628117E-01 -0.13578426758E-01  0.15777122825E-02  0.23691974544E-01  0.00000000000E+00 0.  1.
     999901    1    3    3    0    0  0.14276632956E+00  0.30584738162E-01 -0.21349043926E-01  0.89228551078E+00  0.88000000000E+00 0. -1.
        -11    1    4    4    0    0 -0.42576291846E-01 -0.15607067340E-02 -0.25245670177E-02  0.42682677897E-01  0.51100000000E-03 0.  1.
         11    1    4    4    0    0 -0.80839409593E-01 -0.15445604670E-01  0.22295898661E-01  0.85269836783E-01  0.51100000000E-03 0. -1.
</event>
<event>
 8    1  0.1202249E+005  0.1043930E+01  0.7957747E-01            NaN
         13   -1    0    0    0    0  0.00000000000E+00  0.00000000000E+00  0.74505805969E-08  0.10566000000E+00  0.10566000000E+00 0. -1.
     999900   -1    0    0    0    0 -0.00000000000E+00 -0.00000000000E+00 -0.74505805969E-08  0.93827000000E+00  0.93827000000E+00 0. -1.
     999902    2    1    2    0    0  0.21037345296E-01 -0.34462698837E-02 -0.10779030062E-01  0.10200420499E+01  0.10197623004E+01 0.  0.
     999903    2    3    3    0    0  0.62679548615E-01 -0.12327755268E-01 -0.11487589869E+00  0.13288416540E+00  0.19519988520E-01 0.  0.
         14    1    1    2    0    0 -0.21037345296E-01  0.34462698837E-02  0.10779030062E-01  0.23887950148E-01  0.00000000000E+00 0. -1.
     999901    1    3    3    0    0 -0.41642203320E-01  0.88814853846E-02  0.10409686862E+00  0.88715788445E+00  0.88000000000E+00 0.  1.
        -11    1    4    4    0    0  0.14095930091E-01 -0.93536978793E-02 -0.41625957690E-01  0.44935157547E-01  0.51100000000E-03 0. -1.
         11    1    4    4    0    0  0.48583618524E-01 -0.29740573890E-02 -0.73249940996E-01  0.87949007858E-01  0.51100000000E-03 0.  1.
</event>
<event>
 8    1  0.1202249E+005  0.1043930E+01  0.7957747E-01            NaN
         13   -1    0    0    0    0  0.00000000000E+00  0.00000000000E+00  0.74505805969E-08  0.10566000000E+00  0.10566000000E+00 0.  1.
     999900   -1    0    0    0    0 -0.00000000000E+00 -0.00000000000E+00 -0.74505805969E-08  0.93827000000E+00  0.93827000000E+00 0.  1.
     999902    2    1    2    0    0 -0.78448320959E-02 -0.16700173119E-01 -0.14143559324E-01  0.10206818293E+01  0.10204170320E+01 0.  0.
     999903    2    3    3    0    0  0.33248110628E-01 -0.11109831932E+00  0.59101656685E-01  0.13165736299E+00  0.19808634229E-01 0.  0.
         14    1    1    2    0    0  0.78448320959E-02  0.16700173119E-01  0.14143559324E-01  0.23248170749E-01  0.00000000000E+00 0.  1.
     999901    1    3    3    0    0 -0.41092942724E-01  0.94398146199E-01 -0.73245216009E-01  0.88902446626E+00  0.88000000000E+00 0.  1.
        -11    1    4    4    0    0  0.76643521591E-02 -0.29567428200E-01  0.62502413048E-02  0.31181753346E-01  0.51100000000E-03 0. -1.
         11    1    4    4    0    0  0.25583758469E-01 -0.81530891119E-01  0.52851415380E-01  0.10047560964E+00  0.51100000000E-03 0.  1.
</event>
<event>
 8    1  0.1202249E+005  0.1043930E+01  0.7957747E-01            NaN
         13   -1    0    0    0    0  0.00000000000E+00  0.00000000000E+00  0.74505805969E-08  0.10566000000E+00  0.10566000000E+00 0.  1.
     999900   -1    0    0    0    0 -0.00000000000E+00 -0.00000000000E+00 -0.74505805969E-08  0.93827000000E+00  0.93827000000E+00 0. -1.
     999902    2    1    2    0    0  0.13805572229E-02  0.17450715393E-01  0.15874511284E-01  0.10202988021E+01  0.10200251036E+01 0.  0.
     999903    2    3    3    0    0  0.46932311781E-01 -0.11781756745E+00 -0.62857129615E-03  0.12864594228E+00  0.21581526178E-01 0.  0.
         14    1    1    2    0    0 -0.13805572229E-02 -0.17450715393E-01 -0.15874511284E-01  0.23631197906E-01  0.00000000000E+00 0. -1.
     999901    1    3    3    0    0 -0.45551754558E-01  0.13526828285E+00  0.16503082580E-01  0.89165285982E+00  0.88000000000E+00 0. -1.
        -11    1    4    4    0    0  0.99552403604E-02 -0.43817401387E-01  0.73577014265E-02  0.45535352927E-01  0.51100000000E-03 0. -1.
         11    1    4    4    0    0  0.36977071420E-01 -0.74000166067E-01 -0.79862727226E-02  0.83110589348E-01  0.51100000000E-03 0.  1.
</event>
<event>
 8    1  0.1202249E+005  0.1043930E+01  0.7957747E-01            NaN
         13   -1    0    0    0    0  0.00000000000E+00  0.00000000000E+00  0.74505805969E-08  0.10566000000E+00  0.10566000000E+00 0.  1.
     999900   -1    0    0    0    0 -0.00000000000E+00 -0.00000000000E+00 -0.74505805969E-08  0.93827000000E+00  0.93827000000E+00 0. -1.
     999902    2    1    2    0    0  0.85981958147E-02  0.16810071619E-01  0.14163562862E-01  0.10203267377E+01  0.10200536935E+01 0.  0.
     999903    2    3    3    0    0  0.50327793655E-01 -0.10992993215E+00 -0.38466657639E-01  0.12871340893E+00  0.21679047297E-01 0.  0.
         14    1    1    2    0    0 -0.85981958147E-02 -0.16810071619E-01 -0.14163562862E-01  0.23603262318E-01  0.00000000000E+00 0. -1.
     999901    1    3    3    0    0 -0.41729597840E-01  0.12674000377E+00  0.52630220501E-01  0.89161332875E+00  0.88000000000E+00 0.  1.
        -11    1    4    4    0    0  0.35950928292E-01 -0.95503323137E-01 -0.35905084031E-01  0.10817943499E+00  0.51100000000E-03 0.  1.
         11    1    4    4    0    0  0.14376865363E-01 -0.14426609017E-01 -0.25615736082E-02  0.20533973939E-01  0.51100000000E-03 0. -1.
</event>
<event>
 8    1  0.1202249E+005  0.1043930E+01  0.7957747E-01            NaN
         13   -1    0    0    0    0  0.00000000000E+00  0.00000000000E+00  0.74505805969E-08  0.10566000000E+00  0.10566000000E+00 0. -1.
     999900   -1    0    0    0    0 -0.00000000000E+00 -0.00000000000E+00 -0.74505805969E-08  0.93827000000E+00  0.93827000000E+00 0.  1.
     999902    2    1    2    0    0  0.10919448357E-01 -0.20145204235E-01  0.10606646970E-01  0.10186799591E+01  0.10183669744E+01 0.  0.
     999903    2    3    3    0    0 -0.12338347062E+00  0.26088664423E-02 -0.24950616348E-01  0.12749011357E+00  0.20022707000E-01 0.  0.
         14    1    1    2    0    0 -0.10919448357E-01  0.20145204235E-01 -0.10606646970E-01  0.25250040912E-01  0.00000000000E+00 0.  1.
     999901    1    3    3    0    0  0.13430291898E+00 -0.22754070678E-01  0.35557263318E-01  0.89118984552E+00  0.88000000000E+00 0. -1.
        -11    1    4    4    0    0 -0.69474669042E-01  0.95046580567E-02 -0.19970708129E-01  0.72911991246E-01  0.51100000000E-03 0.  1.
         11    1    4    4    0    0 -0.53908801579E-01 -0.68957916144E-02 -0.49799082192E-02  0.54578122325E-01  0.51100000000E-03 0. -1.
</event>
<event>
 8    1  0.1202249E+005  0.1043930E+01  0.7957747E-01            NaN
         13   -1    0    0    0    0  0.00000000000E+00  0.00000000000E+00  0.74505805969E-08  0.10566000000E+00  0.10566000000E+00 0.  1.
     999900   -1    0    0    0    0 -0.00000000000E+00 -0.00000000000E+00 -0.74505805969E-08  0.93827000000E+00  0.93827000000E+00 0. -1.
     999902    2    1    2    0    0  0.11476621121E-01  0.47477659074E-02  0.20731408326E-01  0.10197629686E+01  0.10194765651E+01 0.  0.
     999903    2    3    3    0    0 -0.82324977944E-03  0.10894998879E+00 -0.66496995901E-01  0.12924728401E+00  0.20303501239E-01 0.  0.
         14    1    1    2    0    0 -0.11476621121E-01 -0.47477659074E-02 -0.20731408326E-01  0.24167031357E-01  0.00000000000E+00 0. -1.
     999901    1    3    3    0    0  0.12299870900E-01 -0.10420222288E+00  0.87228404227E-01  0.89051568464E+00  0.88000000000E+00 0.  1.
        -11    1    4    4    0    0  0.89490125650E-02  0.49484483398E-01 -0.34783671428E-01  0.61147067321E-01  0.51100000000E-03 0.  1.
         11    1    4    4    0    0 -0.97722623444E-02  0.59465505389E-01 -0.31713324473E-01  0.68100216686E-01  0.51100000000E-03 0. -1.
</event>
<event>
 8    1  0.1202249E+005  0.1043930E+01  0.7957747E-01            NaN
         13   -1    0    0    0    0  0.00000000000E+00  0.00000000000E+00  0.74505805969E-08  0.10566000000E+00  0.10566000000E+00 0. -1.
     999900   -1    0    0    0    0 -0.00000000000E+00 -0.00000000000E+00 -0.74505805969E-08  0.93827000000E+00  0.93827000000E+00 0.  1.
     999902    2    1    2    0    0  0.15943948218E-01  0.15809298872E-02  0.17448121222E-01  0.10202414847E+01  0.10199664413E+01 0.  0.
     999903    2    3    3    0    0 -0.13682055278E-01  0.11452587127E+00  0.60026207329E-01  0.13150803010E+00  0.19693719517E-01 0.  0.
         14    1    1    2    0    0 -0.15943948218E-01 -0.15809298872E-02 -0.17448121222E-01  0.23688515324E-01  0.00000000000E+00 0.  1.
     999901    1    3    3    0    0  0.29626003497E-01 -0.11294494138E+00 -0.42578086107E-01  0.88873345458E+00  0.88000000000E+00 0. -1.
        -11    1    4    4    0    0 -0.49776704047E-03  0.58052718560E-01  0.21630630120E-01  0.61955719548E-01  0.51100000000E-03 0. -1.
         11    1    4    4    0    0 -0.13184288238E-01  0.56473152706E-01  0.38395577209E-01  0.69552310552E-01  0.51100000000E-03 0.  1.
</event>
<event>
 8    1  0.1202249E+005  0.1043930E+01  0.7957747E-01            NaN
         13   -1    0    0    0    0  0.00000000000E+00  0.00000000000E+00  0.74505805969E-08  0.10566000000E+00  0.10566000000E+00 0. -1.
     999900   -1    0    0    0    0 -0.00000000000E+00 -0.00000000000E+00 -0.74505805969E-08  0.93827000000E+00  0.93827000000E+00 0. -1.
     999902    2    1    2    0    0  0.15808449054E-01 -0.14222954445E-01 -0.10395665149E-01  0.10202599905E+01  0.10199853817E+01 0.  0.
     999903    2    3    3    0    0  0.76822034312E-01  0.11112483957E-01 -0.10539952127E+00  0.13268448686E+00  0.21702573901E-01 0.  0.
         14    1    1    2    0    0 -0.15808449054E-01  0.14222954445E-01  0.10395665149E-01  0.23670009474E-01  0.00000000000E+00 0. -1.
     999901    1    3    3    0    0 -0.61013585258E-01 -0.25335438402E-01  0.95003856124E-01  0.88757550366E+00  0.88000000000E+00 0.  1.
        -11    1    4    4    0    0  0.52098611160E-01  0.28521233967E-04 -0.80460648749E-01  0.95856367636E-01  0.51100000000E-03 0.  1.
         11    1    4    4    0    0  0.24723423152E-01  0.11083962723E-01 -0.24938872524E-01  0.36828119227E-01  0.51100000000E-03 0. -1.
</event>
<event>
 8    1  0.1202249E+005  0.1043930E+01  0.7957747E-01            NaN
         13   -1    0    0    0    0  0.00000000000E+00  0.00000000000E+00  0.74505805969E-08  0.10566000000E+00  0.10566000000E+00 0.  1.
     999900   -1    0    0    0    0 -0.00000000000E+00 -0.00000000000E+00 -0.74505805969E-08  0.93827000000E+00  0.93827000000E+00 0.  1.
     999902    2    1    2    0    0 -0.21719087297E-01  0.92231331139E-02 -0.90576860259E-03  0.10203163312E+01  0.10200430434E+01 0.  0.
     999903    2    3    3    0    0  0.11564294166E+00  0.43149302438E-01 -0.29711196989E-01  0.12854894860E+00  0.20172374728E-01 0.  0.
         14    1    1    2    0    0  0.21719087297E-01 -0.92231331139E-02  0.90576860259E-03  0.23613668801E-01  0.00000000000E+00 0. -1.
     999901    1    3    3    0    0 -0.13736202896E+00 -0.33926169324E-01  0.28805428387E-01  0.89176738260E+00  0.88000000000E+00 0. -1.
        -11    1    4    4    0    0  0.72102085075E-01  0.25208793653E-01 -0.28221849115E-01  0.81430509259E-01  0.51100000000E-03 0. -1.
         11    1    4    4    0    0  0.43540856587E-01  0.17940508784E-01 -0.14893478744E-02  0.47118439341E-01  0.51100000000E-03 0.  1.
</event>
<event>
 8    1  0.1202249E+005  0.1043930E+01  0.7957747E-01            NaN
         13   -1    0    0    0    0  0.00000000000E+00  0.00000000000E+00  0.74505805969E-08  0.10566000000E+00  0.10566000000E+00 0.  1.
     999900   -1    0    0    0    0 -0.00000000000E+00 -0.00000000000E+00 -0.74505805969E-08  0.93827000000E+00  0.93827000000E+00 0. -1.
     999902    2    1    2    0    0 -0.46250831739E-02 -0.26761180947E-01  0.93835067518E-02  0.10151967023E+01  0.10147899989E+01 0.  0.
     999903    2    3    3    0    0 -0.42338616791E-01 -0.10654943692E+00 -0.54433342787E-01  0.12848306940E+00  0.19989230488E-01 0.  0.
         14    1    1    2    0    0  0.46250831739E-02  0.26761180947E-01 -0.93835067518E-02  0.28733297740E-01  0.00000000000E+00 0. -1.
     999901    1    3    3    0    0  0.37713533617E-01  0.79788255978E-01  0.63816849539E-01  0.88671363286E+00  0.88000000000E+00 0.  1.
        -11    1    4    4    0    0 -0.37099417085E-01 -0.91598611468E-01 -0.38656377101E-01  0.10611903214E+00  0.51100000000E-03 0.  1.
         11    1    4    4    0    0 -0.52391997052E-02 -0.14950825457E-01 -0.15776965686E-01  0.22364037262E-01  0.51100000000E-03 0. -1.
</event>
<event>
 8    1  0.1202249E+005  0.1043930E+01  0.7957747E-01            NaN
         13   -1    0    0    0    0  0.00000000000E+00  0.00000000000E+00  0.74505805969E-08  0.10566000000E+00  0.10566000000E+00 0.  1.
     999900   -1    0    0    0    0 -0.00000000000E+00 -0.00000000000E+00 -0.74505805969E-08  0.93827000000E+00  0.93827000000E+00 0. -1.
     999902    2    1    2    0    0 -0.12270869164E-01  0.42997207501E-02 -0.18822207028E-01  0.10210534333E+01  0.10207971279E+01 0.  0.
     999903    2    3    3    0    0 -0.39605189722E-01  0.96632941856E-02 -0.12622836679E+00  0.13408555551E+00  0.19580227468E-01 0.  0.
         14    1    1    2    0    0  0.12270869164E-01 -0.42997207501E-02  0.18822207028E-01  0.22876566743E-01  0.00000000000E+00 0.  1.
     999901    1    3    3    0    0  0.27334320557E-01 -0.53635734354E-02  0.10740615976E+00  0.88696787775E+00  0.88000000000E+00 0.  1.
        -11    1    4    4    0    0 -0.14140392510E-01  0.13390613826E-01 -0.55129824171E-01  0.58470658224E-01  0.51100000000E-03 0.  1.
         11    1    4    4    0    0 -0.25464797211E-01 -0.37273196408E-02 -0.71098542615E-01  0.75614897286E-01  0.51100000000E-03 0. -1.
</event>
<event>
 8    1  0.1202249E+005  0.1043930E+01  0.7957747E-01            NaN
         13   -1    0    0    0    0  0.00000000000E+00  0.00000000000E+00  0.74505805969E-08  0.10566000000E+00  0.10566000000E+00 0.  1.
     999900   -1    0    0    0    0 -0.00000000000E+00 -0.00000000000E+00 -0.74505805969E-08  0.93827000000E+00  0.93827000000E+00 0. -1.
     999902    2    1    2    0    0 -0.19921064156E-01 -0.11968886756E-01 -0.21624191840E-02  0.10205894965E+01  0.10203225673E+01 0.  0.
     999903    2    3    3    0    0  0.65295425603E-01  0.10549794308E+00  0.26944183473E-01  0.12822886280E+00  0.17981758402E-01 0.  0.
         14    1    1    2    0    0  0.19921064156E-01  0.11968886756E-01  0.21624191840E-02  0.23340503508E-01  0.00000000000E+00 0.  1.
     999901    1    3    3    0    0 -0.85216489759E-01 -0.11746682983E+00 -0.29106602657E-01  0.89236063369E+00  0.88000000000E+00 0. -1.
        -11    1    4    4    0    0  0.53972935701E-01  0.75445518966E-01  0.24881594045E-01  0.96044046996E-01  0.51100000000E-03 0. -1.
         11    1    4    4    0    0  0.11322489902E-01  0.30052424110E-01  0.20625894281E-02  0.32184815809E-01  0.51100000000E-03 0.  1.
</event>
<event>
 8    1  0.1202249E+005  0.1043930E+01  0.7957747E-01            NaN
         13   -1    0    0    0    0  0.00000000000E+00  0.00000000000E+00  0.74505805969E-08  0.10566000000E+00  0.10566000000E+00 0.  1.
     999900   -1    0    0    0    0 -0.00000000000E+00 -0.00000000000E+00 -0.74505805969E-08  0.93827000000E+00  0.93827000000E+00 0.  1.
     999902    2    1    2    0    0 -0.59075696349E-02 -0.22935494408E-01  0.76037332972E-02  0.10190552529E+01  0.10187516162E+01 0.  0.
     999903    2    3    3    0    0 -0.65904094009E-01 -0.10902252805E+00  0.30210064990E-01  0.13253305548E+00  0.20569432140E-01 0.  0.
         14    1    1    2    0    0  0.59075696349E-02  0.22935494408E-01 -0.76037332972E-02  0.24874747089E-01  0.00000000000E+00 0. -1.
     999901    1    3    3    0    0  0.59996524374E-01  0.86087033646E-01 -0.22606331693E-01  0.88652219743E+00  0.88000000000E+00 0.  1.
        -11    1    4    4    0    0 -0.32242083076E-01 -0.52420767247E-01  0.40740849409E-02  0.61679397281E-01  0.51100000000E-03 0. -1.
         11    1    4    4    0    0 -0.33662010934E-01 -0.56601760806E-01  0.26135980049E-01  0.70853658202E-01  0.51100000000E-03 0.  1.
</event>
<event>
 8    1  0.1202249E+005  0.1043930E+01  0.7957747E-01            NaN
         13   -1    0    0    0    0  0.00000000000E+00  0.00000000000E+00  0.74505805969E-08  0.10566000000E+00  0.10566000000E+00 0.  1.
     999900   -1    0    0    0    0 -0.00000000000E+00 -0.00000000000E+00 -0.74505805969E-08  0.93827000000E+00  0.93827000000E+00 0. -1.
     999902    2    1    2    0    0  0.21584813950E-01 -0.19333259542E-02 -0.68689706078E-02  0.10211962212E+01  0.10209431411E+01 0.  0.
     999903    2    3    3    0    0 -0.94800969841E-01 -0.38722419389E-01  0.75582868812E-01  0.12895332045E+00  0.20725326337E-01 0.  0.
         14    1    1    2    0    0 -0.21584813950E-01  0.19333259542E-02  0.68689706078E-02  0.22733778826E-01  0.00000000000E+00 0. -1.
     999901    1    3    3    0    0  0.11638578379E+00  0.36789093435E-01 -0.82451839420E-01  0.89224290072E+00  0.88000000000E+00 0. -1.
        -11    1    4    4    0    0 -0.66009120425E-01 -0.35046469785E-01  0.47450257974E-01  0.88528227851E-01  0.51100000000E-03 0. -1.
         11    1    4    4    0    0 -0.28791849416E-01 -0.36759496045E-02  0.28132610838E-01  0.40425092602E-01  0.51100000000E-03 0.  1.
</event>
<event>
 8    1  0.1202249E+005  0.1043930E+01  0.7957747E-01            NaN
         13   -1    0    0    0    0  0.00000000000E+00  0.00000000000E+00  0.74505805969E-08  0.10566000000E+00  0.10566000000E+00 0. -1.
     999900   -1    0    0    0    0 -0.00000000000E+00 -0.00000000000E+00 -0.74505805969E-08  0.93827000000E+00  0.93827000000E+00 0.  1.
     999902    2    1    2    0    0  0.12206127196E-01  0.19346559902E-01  0.25025456736E-02  0.10209182279E+01  0.10206588492E+01 0.  0.
     999903    2    3    3    0    0  0.92770781781E-01  0.90134449498E-01 -0.28395606469E-01  0.13386902706E+00  0.19595126932E-01 0.  0.
         14    1    1    2    0    0 -0.12206127196E-01 -0.19346559902E-01 -0.25025456736E-02  0.23011772118E-01  0.00000000000E+00 0. -1.
     999901    1    3    3    0    0 -0.80564654585E-01 -0.70787889595E-01  0.30898152143E-01  0.88704920083E+00  0.88000000000E+00 0. -1.
        -11    1    4    4    0    0  0.57212525521E-01  0.42139537728E-01 -0.13987651336E-01  0.72421883622E-01  0.51100000000E-03 0.  1.
         11    1    4    4    0    0  0.35558256260E-01  0.47994911769E-01 -0.14407955134E-01  0.61447143433E-01  0.51100000000E-03 0. -1.
</event>
<event>
 8    1  0.1202249E+005  0.1043930E+01  0.7957747E-01            NaN
         13   -1    0    0    0    0  0.00000000000E+00  0.00000000000E+00  0.74505805969E-08  0.10566000000E+00  0.10566000000E+00 0. -1.
     999900   -1    0    0    0    0 -0.00000000000E+00 -0.00000000000E+00 -0.74505805969E-08  0.93827000000E+00  0.93827000000E+00 0.  1.
     999902    2    1    2    0    0  0.98089724513E-02  0.50389204385E-03 -0.15177777312E-01  0.10258514278E+01  0.10256921162E+01 0.  0.
     999903    2    3    3    0    0 -0.66757909472E-01 -0.80155712198E-01 -0.85256546015E-01  0.13608769908E+00  0.19225673669E-01 0.  0.
         14    1    1    2    0    0 -0.98089724513E-02 -0.50389204385E-03  0.15177777312E-01  0.18078572175E-01  0.00000000000E+00 0. -1.
     999901    1    3    3    0    0  0.76566881923E-01  0.80659604242E-01  0.70078768702E-01  0.88976372874E+00  0.88000000000E+00 0. -1.
        -11    1    4    4    0    0 -0.34542291152E-01 -0.26980798166E-01 -0.32946833837E-01  0.54835101245E-01  0.51100000000E-03 0. -1.
         11    1    4    4    0    0 -0.32215618319E-01 -0.53174914033E-01 -0.52309712178E-01  0.81252597837E-01  0.51100000000E-03 0.  1.
</event>
<event>
 8    1  0.1202249E+005  0.1043930E+01  0.7957747E-01            NaN
         13   -1    0    0    0    0  0.00000000000E+00  0.00000000000E+00  0.74505805969E-08  0.10566000000E+00  0.10566000000E+00 0.  1.
     999900   -1    0    0    0    0 -0.00000000000E+00 -0.00000000000E+00 -0.74505805969E-08  0.93827000000E+00  0.93827000000E+00 0.  1.
     999902    2    1    2    0    0  0.17247809464E-01 -0.27133309152E-01  0.13407991554E-01  0.10090949941E+01  0.10084935446E+01 0.  0.
     999903    2    3    3    0    0  0.78287983491E-01 -0.24395104130E-01  0.90350419277E-01  0.12362701740E+00  0.19907579064E-01 0.  0.
         14    1    1    2    0    0 -0.17247809464E-01  0.27133309152E-01 -0.13407991554E-01  0.34835005876E-01  0.00000000000E+00 0. -1.
     999901    1    3    3    0    0 -0.61040174027E-01 -0.27382050221E-02 -0.76942427724E-01  0.88546797672E+00  0.88000000000E+00 0.  1.
        -11    1    4    4    0    0  0.66271500298E-01 -0.13122783752E-01  0.76812598645E-01  0.10229641067E+00  0.51100000000E-03 0.  1.
         11    1    4    4    0    0  0.12016483192E-01 -0.11272320378E-01  0.13537820632E-01  0.21330606730E-01  0.51100000000E-03 0. -1.
</event>
<event>
 8    1  0.1202249E+005  0.1043930E+01  0.7957747E-01            NaN
         13   -1    0    0    0    0  0.00000000000E+00  0.00000000000E+00  0.74505805969E-08  0.10566000000E+00  0.10566000000E+00 0.  1.
     999900   -1    0    0    0    0 -0.00000000000E+00 -0.00000000000E+00 -0.74505805969E-08  0.93827000000E+00  0.93827000000E+00 0. -1.
     999902    2    1    2    0    0  0.20391033058E-01  0.53854911136E-02  0.11801919191E-01  0.10197621900E+01  0.10194757678E+01 0.  0.
     999903    2    3    3    0    0  0.14240553689E-01 -0.72261449319E-01  0.10678500337E+00  0.13123044491E+00  0.19846468193E-01 0.  0.
         14    1    1    2    0    0 -0.20391033058E-01 -0.53854911136E-02 -0.11801919191E-01  0.24167810002E-01  0.00000000000E+00 0. -1.
     999901    1    3    3    0    0  0.61504793691E-02  0.77646940432E-01 -0.94983084174E-01  0.88853174509E+00  0.88000000000E+00 0. -1.
        -11    1    4    4    0    0  0.14367110479E-01 -0.34833785448E-01  0.64981834506E-01  0.75117949979E-01  0.51100000000E-03 0.  1.
         11    1    4    4    0    0 -0.12655679040E-03 -0.37427663871E-01  0.41803168859E-01  0.56112494928E-01  0.51100000000E-03 0. -1.
</event>
<event>
 8    1  0.1202249E+005  0.1043930E+01  0.7957747E-01            NaN
         13   -1    0    0    0    0  0.00000000000E+00  0.00000000000E+00  0.74505805969E-08  0.10566000000E+00  0.10566000000E+00 0.  1.
     999900   -1    0    0    0    0 -0.00000000000E+00 -0.00000000000E+00 -0.74505805969E-08  0.93827000000E+00  0.93827000000E+00 0. -1.
     999902    2    1    2    0    0 -0.20500039662E-01  0.89483792230E-03  0.15541319812E-01  0.10181892739E+01  0.10178638477E+01 0.  0.
     999903    2    3    3    0    0  0.98082033376E-01 -0.77845605728E-01  0.21660251561E-02  0.12665090451E+00  0.18860974114E-01 0.  0.
         14    1    1    2    0    0  0.20500039662E-01 -0.89483792230E-03 -0.15541319812E-01  0.25740726147E-01  0.00000000000E+00 0. -1.
     999901    1    3    3    0    0 -0.11858207304E+00  0.78740443651E-01  0.13375294656E-01  0.89153836935E+00  0.88000000000E+00 0.  1.
        -11    1    4    4    0    0  0.35136672205E-01 -0.31142252133E-01 -0.79412855323E-02  0.47620906527E-01  0.51100000000E-03 0. -1.
         11    1    4    4    0    0  0.62945361172E-01 -0.46703353595E-01  0.10107310688E-01  0.79029997978E-01  0.51100000000E-03 0.  1.
</event>
<event>
 8    1  0.1202249E+005  0.1043930E+01  0.7957747E-01            NaN
         13   -1    0    0    0    0  0.00000000000E+00  0.00000000000E+00  0.74505805969E-08  0.10566000000E+00  0.10566000000E+00 0.  1.
     999900   -1    0    0    0    0 -0.00000000000E+00 -0.00000000000E+00 -0.74505805969E-08  0.93827000000E+00  0.93827000000E+00 0. -1.
     999902    2    1    2    0    0  0.18283871939E-01  0.22888596775E-01 -0.37787638608E-02  0.10143924495E+01  0.10139623142E+01 0.  0.
     999903    2    3    3    0    0  0.58467998463E-01 -0.32319986142E-02  0.10926005979E+00  0.12586849076E+00  0.21821174167E-01 0.  0.
         14    1    1    2    0    0 -0.18283871939E-01 -0.22888596775E-01  0.37787638608E-02  0.29537550537E-01  0.00000000000E+00 0. -1.
     999901    1    3    3    0    0 -0.40184126524E-01  0.26120595389E-01 -0.11303882365E+00  0.88852395870E+00  0.88000000000E+00 0. -1.
        -11    1    4    4    0    0  0.46246787027E-01 -0.22834920450E-02  0.64130082946E-01  0.79100621400E-01  0.51100000000E-03 0.  1.
         11    1    4    4    0    0  0.12221211436E-01 -0.94850656919E-03  0.45129976847E-01  0.46767869364E-01  0.51100000000E-03 0. -1.
</event>
<event>
 8    1  0.1202249E+005  0.1043930E+01  0.7957747E-01            NaN
         13   -1    0    0    0    0  0.00000000000E+00  0.00000000000E+00  0.74505805969E-08  0.10566000000E+00  0.10566000000E+00 0. -1.
     999900   -1    0    0    0    0 -0.00000000000E+00 -0.00000000000E+00 -0.74505805969E-08  0.93827000000E+00  0.93827000000E+00 0. -1.
     999902    2    1    2    0    0  0.19443707654E-01 -0.65579474640E-02 -0.13495108544E-01  0.10193702281E+01  0.10190743248E+01 0.  0.
     999903    2    3    3    0    0  0.38627323720E-01  0.11251846630E+00 -0.49567484215E-01  0.13041105032E+00  0.19940691002E-01 0.  0.
         14    1    1    2    0    0 -0.19443707654E-01  0.65579474640E-02  0.13495108544E-01  0.24559771922E-01  0.00000000000E+00 0. -1.
     999901    1    3    3    0    0 -0.19183616066E-01 -0.11907641376E+00  0.36072375672E-01  0.88895917776E+00  0.88000000000E+00 0.  1.
        -11    1    4    4    0    0  0.16062977603E-01  0.39468713462E-01 -0.27925961336E-01  0.50950162211E-01  0.51100000000E-03 0. -1.
         11    1    4    4    0    0  0.22564346116E-01  0.73049752835E-01 -0.21641522880E-01  0.79460888105E-01  0.51100000000E-03 0.  1.
</event>
<event>
 8    1  0.1202249E+005  0.1043930E+01  0.7957747E-01            NaN
         13   -1    0    0    0    0  0.00000000000E+00  0.00000000000E+00  0.74505805969E-08  0.10566000000E+00  0.10566000000E+00 0.  1.
     999900   -1    0    0    0    0 -0.00000000000E+00 -0.00000000000E+00 -0.74505805969E-08  0.93827000000E+00  0.93827000000E+00 0.  1.
     999902    2    1    2    0    0 -0.11961628816E-01 -0.20144842434E-01  0.14764830277E-02  0.10204550081E+01  0.10201849579E+01 0.  0.
     999903    2    3    3    0    0  0.75905059676E-01  0.35128490377E-01 -0.96120272892E-01  0.12899506903E+00  0.20125408170E-01 0.  0.
         14    1    1    2    0    0  0.11961628816E-01  0.20144842434E-01 -0.14764830277E-02  0.23474991858E-01  0.00000000000E+00 0. -1.
     999901    1    3    3    0    0 -0.87866688492E-01 -0.55273332811E-01  0.97596755919E-01  0.89145993911E+00  0.88000000000E+00 0. -1.
        -11    1    4    4    0    0  0.48875805490E-01  0.27299292198E-01 -0.50526922798E-01  0.75414367101E-01  0.51100000000E-03 0.  1.
         11    1    4    4    0    0  0.27029254185E-01  0.78291981792E-02 -0.45593350094E-01  0.53580701934E-01  0.51100000000E-03 0. -1.
</event>
<event>
 8    1  0.1202249E+005  0.1043930E+01  0.7957747E-01            NaN
         13   -1    0    0    0    0  0.00000000000E+00  0.00000000000E+00  0.74505805969E-08  0.10566000000E+00  0.10566000000E+00 0. -1.
     999900   -1    0    0    0    0 -0.00000000000E+00 -0.00000000000E+00 -0.74505805969E-08  0.93827000000E+00  0.93827000000E+00 0. -1.
     999902    2    1    2    0    0 -0.16863414938E-01 -0.14825408305E-01  0.53511479699E-02  0.10208474898E+01  0.10205864956E+01 0.  0.
     999903    2    3    3    0    0 -0.46809956574E-01 -0.12175815584E+00 -0.19966570493E-01  0.13350742263E+00  0.20232335828E-01 0.  0.
         14    1    1    2    0    0  0.16863414938E-01  0.14825408305E-01 -0.53511479699E-02  0.23082510249E-01  0.00000000000E+00 0.  1.
     999901    1    3    3    0    0  0.29946541636E-01  0.10693274753E+00  0.25317718463E-01  0.88734006712E+00  0.88000000000E+00 0. -1.
        -11    1    4    4    0    0 -0.18759286797E-01 -0.31417116590E-01 -0.12271527917E-01  0.38597895984E-01  0.51100000000E-03 0. -1.
         11    1    4    4    0    0 -0.28050669777E-01 -0.90341039246E-01 -0.76950425763E-02  0.94909526647E-01  0.51100000000E-03 0.  1.
</event>
<event>
 8    1  0.1202249E+005  0.1043930E+01  0.7957747E-01            NaN
         13   -1    0    0    0    0  0.00000000000E+00  0.00000000000E+00  0.74505805969E-08  0.10566000000E+00  0.10566000000E+00 0. -1.
     999900   -1    0    0    0    0 -0.00000000000E+00 -0.00000000000E+00 -0.74505805969E-08  0.93827000000E+00  0.93827000000E+00 0. -1.
     999902    2    1    2    0    0  0.22595068316E-01  0.77219741876E-03  0.57478207337E-02  0.10206025303E+01  0.10203359025E+01 0.  0.
     999903    2    3    3    0    0  0.14357006453E-01 -0.12786683276E+00  0.17219597538E-01  0.13113782191E+00  0.18562414771E-01 0.  0.
         14    1    1    2    0    0 -0.22595068316E-01 -0.77219741876E-03 -0.57478207337E-02  0.23327469735E-01  0.00000000000E+00 0. -1.
     999901    1    3    3    0    0  0.82380618622E-02  0.12863903018E+00 -0.11471776804E-01  0.88946470836E+00  0.88000000000E+00 0.  1.
        -11    1    4    4    0    0  0.16230794872E-01 -0.69947824924E-01  0.13507932215E-01  0.73067518553E-01  0.51100000000E-03 0.  1.
         11    1    4    4    0    0 -0.18737884190E-02 -0.57919007833E-01  0.37116653226E-02  0.58070303356E-01  0.51100000000E-03 0. -1.
</event>
<event>
 8    1  0.1202249E+005  0.1043930E+01  0.7957747E-01            NaN
         13   -1    0    0    0    0  0.00000000000E+00  0.00000000000E+00  0.74505805969E-08  0.10566000000E+00  0.10566000000E+00 0.  1.
     999900   -1    0    0    0    0 -0.00000000000E+00 -0.00000000000E+00 -0.74505805969E-08  0.93827000000E+00  0.93827000000E+00 0.  1.
     999902    2    1    2    0    0 -0.22460901553E-01 -0.24028605194E-02  0.72555647750E-02  0.10202042954E+01  0.10199283776E+01 0.  0.
     999903    2    3    3    0    0  0.12117130242E+00  0.28901289209E-01 -0.19131442347E-01  0.12762016272E+00  0.20077968028E-01 0.  0.
         14    1    1    2    0    0  0.22460901553E-01  0.24028605194E-02 -0.72555647750E-02  0.23725704573E-01  0.00000000000E+00 0. -1.
     999901    1    3    3    0    0 -0.14363220397E+00 -0.31304149728E-01  0.26387007122E-01  0.89258413270E+00  0.88000000000E+00 0.  1.
        -11    1    4    4    0    0  0.87718097726E-02 -0.19604828869E-02  0.18379823239E-02  0.91884405565E-02  0.51100000000E-03 0. -1.
         11    1    4    4    0    0  0.11239949264E+00  0.30861772096E-01 -0.20969424671E-01  0.11843172217E+00  0.51100000000E-03 0.  1.
</event>
<event>
 8    1  0.1202249E+005  0.1043930E+01  0.7957747E-01            NaN
         13   -1    0    0    0    0  0.00000000000E+00  0.00000000000E+00  0.74505805969E-08  0.10566000000E+00  0.10566000000E+00 0. -1.
     999900   -1    0    0    0    0 -0.00000000000E+00 -0.00000000000E+00 -0.74505805969E-08  0.93827000000E+00  0.93827000000E+00 0.  1.
     999902    2    1    2    0    0  0.23333818623E-01 -0.12435955790E-02  0.14271182439E-02  0.10205195261E+01  0.10202509754E+01 0.  0.
     999903    2    3    3    0    0  0.26504865061E-02  0.11886121653E+00 -0.50317278582E-01  0.13061478473E+00  0.19833799279E-01 0.  0.
         14    1    1    2    0    0 -0.23333818623E-01  0.12435955790E-02 -0.14271182439E-02  0.23410473895E-01  0.00000000000E+00 0.  1.
     999901    1    3    3    0    0  0.20683332117E-01 -0.12010481210E+00  0.51744396826E-01  0.88990474137E+00  0.88000000000E+00 0. -1.
        -11    1    4    4    0    0  0.10382208362E-01  0.57817159870E-01 -0.28828607918E-01  0.65436717379E-01  0.51100000000E-03 0. -1.
         11    1    4    4    0    0 -0.77317218556E-02  0.61044056655E-01 -0.21488670664E-01  0.65178067352E-01  0.51100000000E-03 0.  1.
</event>
<event>
 8    1  0.1202249E+005  0.1043930E+01  0.7957747E-01            NaN
         13   -1    0    0    0    0  0.00000000000E+00  0.00000000000E+00  0.74505805969E-08  0.10566000000E+00  0.10566000000E+00 0.  1.
     999900   -1    0    0    0    0 -0.00000000000E+00 -0.00000000000E+00 -0.74505805969E-08  0.93827000000E+00  0.93827000000E+00 0.  1.
     999902    2    1    2    0    0  0.16128303834E-01  0.14455261653E-01  0.14992079895E-01  0.10175891717E+01  0.10172481915E+01 0.  0.
     999903    2    3    3    0    0  0.10439596078E-01  0.31303460360E-01 -0.12105198787E+00  0.12695781614E+00  0.19385858654E-01 0.  0.
         14    1    1    2    0    0 -0.16128303834E-01 -0.14455261653E-01 -0.14992079895E-01  0.26340828263E-01  0.00000000000E+00 0. -1.
     999901    1    3    3    0    0  0.56887077561E-02 -0.16848198707E-01  0.13604406776E+00  0.89063135560E+00  0.88000000000E+00 0. -1.
        -11    1    4    4    0    0  0.43066510185E-02  0.30890354609E-01 -0.88750619397E-01  0.94072816558E-01  0.51100000000E-03 0. -1.
         11    1    4    4    0    0  0.61329450590E-02  0.41310575098E-03 -0.32301368472E-01  0.32884999584E-01  0.51100000000E-03 0.  1.
</event>
<event>
 8    1  0.1202249E+005  0.1043930E+01  0.7957747E-01            NaN
         13   -1    0    0    0    0  0.00000000000E+00  0.00000000000E+00  0.74505805969E-08  0.10566000000E+00  0.10566000000E+00 0.  1.
     999900   -1    0    0    0    0 -0.00000000000E+00 -0.00000000000E+00 -0.74505805969E-08  0.93827000000E+00  0.93827000000E+00 0. -1.
     999902    2    1    2    0    0 -0.14178437222E-01  0.16317513999E-01  0.87208393151E-02  0.10206202942E+01  0.10203540771E+01 0.  0.
     999903    2    3    3    0    0 -0.13035692510E-01 -0.12672585154E+00 -0.26388066799E-02  0.12899719456E+00  0.20098312759E-01 0.  0.
         14    1    1    2    0    0  0.14178437222E-01 -0.16317513999E-01 -0.87208393151E-02  0.23309705779E-01  0.00000000000E+00 0.  1.
     999901    1    3    3    0    0 -0.11427447121E-02  0.14304336554E+00  0.11359645995E-01  0.89162309966E+00  0.88000000000E+00 0.  1.
        -11    1    4    4    0    0  0.19126846566E-02 -0.71273695124E-01 -0.53309768740E-02  0.71500198703E-01  0.51100000000E-03 0. -1.
         11    1    4    4    0    0 -0.14948377167E-01 -0.55452156417E-01  0.26921701941E-02  0.57496995857E-01  0.51100000000E-03 0.  1.
</event>
<event>
 8    1  0.1202249E+005  0.1043930E+01  0.7957747E-01            NaN
         13   -1    0    0    0    0  0.00000000000E+00  0.00000000000E+00  0.74505805969E-08  0.10566000000E+00  0.10566000000E+00 0.  1.
     999900   -1    0    0    0    0 -0.00000000000E+00 -0.00000000000E+00 -0.74505805969E-08  0.93827000000E+00  0.93827000000E+00 0. -1.
     999902    2    1    2    0    0  0.13325931150E-01  0.19549093974E-01 -0.62641150092E-02  0.10194557962E+01  0.10191619762E+01 0.  0.
     999903    2    3    3    0    0 -0.37314515392E-01 -0.98884407937E-01 -0.68810295012E-01  0.12788248240E+00  0.21179551751E-01 0.  0.
         14    1    1    2    0    0 -0.13325931150E-01 -0.19549093974E-01  0.62641150092E-02  0.24474203829E-01  0.00000000000E+00 0.  1.
     999901    1    3    3    0    0  0.50640446541E-01  0.11843350191E+00  0.62546180003E-01  0.89157331377E+00  0.88000000000E+00 0.  1.
        -11    1    4    4    0    0 -0.22341559464E-01 -0.30660528770E-01 -0.24585803154E-01  0.45209911982E-01  0.51100000000E-03 0. -1.
         11    1    4    4    0    0 -0.14972955928E-01 -0.68223879167E-01 -0.44224491859E-01  0.82672570415E-01  0.51100000000E-03 0.  1.
</event>
<event>
 8    1  0.1202249E+005  0.1043930E+01  0.7957747E-01            NaN
         13   -1    0    0    0    0  0.00000000000E+00  0.00000000000E+00  0.74505805969E-08  0.10566000000E+00  0.10566000000E+00 0.  1.
     999900   -1    0    0    0    0 -0.00000000000E+00 -0.00000000000E+00 -0.74505805969E-08  0.93827000000E+00  0.93827000000E+00 0.  1.
     999902    2    1    2    0    0  0.34204811592E-02  0.97872740457E-02 -0.23052339955E-01  0.10186535129E+01  0.10183398639E+01 0.  0.
     999903    2    3    3    0    0 -0.59040214446E-01  0.28906919255E-01  0.10661818300E+00  0.12675590447E+00  0.19449048031E-01 0.  0.
         14    1    1    2    0    0 -0.34204811592E-02 -0.97872740457E-02  0.23052339955E-01  0.25276487137E-01  0.00000000000E+00 0.  1.
     999901    1    3    3    0    0  0.62460695605E-01 -0.19119645209E-01 -0.12967052296E+00  0.89189760839E+00  0.88000000000E+00 0.  1.
        -11    1    4    4    0    0 -0.23418931139E-01  0.21452368605E-01  0.56495691564E-01  0.64812612513E-01  0.51100000000E-03 0.  1.
         11    1    4    4    0    0 -0.35621283307E-01  0.74545506500E-02  0.50122491439E-01  0.61943291960E-01  0.51100000000E-03 0. -1.
</event>
<event>
 8    1  0.1202249E+005  0.1043930E+01  0.7957747E-01            NaN
         13   -1    0    0    0    0  0.00000000000E+00  0.00000000000E+00  0.74505805969E-08  0.10566000000E+00  0.10566000000E+00 0. -1.
     999900   -1    0    0    0    0 -0.00000000000E+00 -0.00000000000E+00 -0.74505805969E-08  0.93827000000E+00  0.93827000000E+00 0. -1.
     999902    2    1    2    0    0 -0.22274644218E-01  0.51704213560E-02 -0.65676437776E-02  0.10201386785E+01  0.10198612143E+01 0.  0.
     999903    2    3    3    0    0  0.69546119428E-02  0.11971250783E+00  0.47576736418E-01  0.13058494048E+00  0.20234368608E-01 0.  0.
         14    1    1    2    0    0  0.22274644218E-01 -0.51704213560E-02  0.65676437776E-02  0.23791321460E-01  0.00000000000E+00 0.  1.
     999901    1    3    3    0    0 -0.29229256160E-01 -0.11454208648E+00 -0.54144380195E-01  0.88955373806E+00  0.88000000000E+00 0. -1.
        -11    1    4    4    0    0  0.92707483384E-02  0.22175810445E-01  0.90465255038E-02  0.25686846602E-01  0.51100000000E-03 0. -1.
         11    1    4    4    0    0 -0.23161363956E-02  0.97536697388E-01  0.38530210914E-01  0.10489809388E+00  0.51100000000E-03 0.  1.
</event>
<event>
 8    1  0.1202249E+005  0.1043930E+01  0.7957747E-01            NaN
         13   -1    0    0    0    0  0.00000000000E+00  0.00000000000E+00  0.74505805969E-08  0.10566000000E+00  0.10566000000E+00 0.  1.
     999900   -1    0    0    0    0 -0.00000000000E+00 -0.00000000000E+00 -0.74505805969E-08  0.93827000000E+00  0.93827000000E+00 0.  1.
     999902    2    1    2    0    0  0.68212271117E-02 -0.19711636330E-01 -0.11549097178E-01  0.10200876135E+01  0.10198089429E+01 0.  0.
     999903    2    3    3    0    0 -0.79309554941E-01  0.82138247249E-01 -0.56348689031E-01  0.12890922858E+00  0.20142425167E-01 0.  0.
         14    1    1    2    0    0 -0.68212271117E-02  0.19711636330E-01  0.11549097178E-01  0.23842386452E-01  0.00000000000E+00 0.  1.
     999901    1    3    3    0    0  0.86130782053E-01 -0.10184988358E+00  0.44799591854E-01  0.89117838497E+00  0.88000000000E+00 0. -1.
        -11    1    4    4    0    0 -0.33256907446E-01  0.21414826386E-01 -0.15972320912E-01  0.42661374079E-01  0.51100000000E-03 0.  1.
         11    1    4    4    0    0 -0.46052647495E-01  0.60723420863E-01 -0.40376368119E-01  0.86247854501E-01  0.51100000000E-03 0. -1.
</event>
<event>
 8    1  0.1202249E+005  0.1043930E+01  0.7957747E-01            NaN
         13   -1    0    0    0    0  0.00000000000E+00  0.00000000000E+00  0.74505805969E-08  0.10566000000E+00  0.10566000000E+00 0.  1.
     999900   -1    0    0    0    0 -0.00000000000E+00 -0.00000000000E+00 -0.74505805969E-08  0.93827000000E+00  0.93827000000E+00 0. -1.
     999902    2    1    2    0    0  0.20330341918E-01  0.55660324783E-02 -0.12820745620E-01  0.10192586596E+01  0.10189600287E+01 0.  0.
     999903    2    3    3    0    0  0.46416236520E-01 -0.11955750908E+00  0.19710635755E-02  0.12990205384E+00  0.20547348029E-01 0.  0.
         14    1    1    2    0    0 -0.20330341918E-01 -0.55660324783E-02  0.12820745620E-01  0.24671340424E-01  0.00000000000E+00 0. -1.
     999901    1    3    3    0    0 -0.26085894603E-01  0.12512354155E+00 -0.14791809195E-01  0.88935660574E+00  0.88000000000E+00 0.  1.
        -11    1    4    4    0    0  0.39522836893E-02 -0.79909875139E-02 -0.51606907947E-02  0.10313596768E-01  0.51100000000E-03 0. -1.
         11    1    4    4    0    0  0.42463952831E-01 -0.11156652156E+00  0.71317543702E-02  0.11958845707E+00  0.51100000000E-03 0.  1.
</event>
<event>
 8    1  0.1202249E+005  0.1043930E+01  0.7957747E-01            NaN
         13   -1    0    0    0    0  0.00000000000E+00  0.00000000000E+00  0.74505805969E-08  0.10566000000E+00  0.10566000000E+00 0.  1.
     999900   -1    0    0    0    0 -0.00000000000E+00 -0.00000000000E+00 -0.74505805969E-08  0.93827000000E+00  0.93827000000E+00 0.  1.
     999902    2    1    2    0    0 -0.63847404162E-02 -0.21504243974E-01  0.92357510154E-02  0.10196710529E+01  0.10193824403E+01 0.  0.
     999903    2    3    3    0    0 -0.27691793063E-01  0.38924202088E-01 -0.11737832152E+00  0.12830316532E+00  0.20052505056E-01 0.  0.
         14    1    1    2    0    0  0.63847404162E-02  0.21504243974E-01 -0.92357510154E-02  0.24258947130E-01  0.00000000000E+00 0. -1.
     999901    1    3    3    0    0  0.21307052647E-01 -0.60428446062E-01  0.12661407253E+00  0.89136788755E+00  0.88000000000E+00 0. -1.
        -11    1    4    4    0    0 -0.25956367380E-01  0.24612616683E-01 -0.67671753573E-01  0.76545680872E-01  0.51100000000E-03 0. -1.
         11    1    4    4    0    0 -0.17354256829E-02  0.14311585405E-01 -0.49706567942E-01  0.51757484451E-01  0.51100000000E-03 0.  1.
</event>
<event>
 8    1  0.1202249E+005  0.1043930E+01  0.7957747E-01            NaN
         13   -1    0    0    0    0  0.00000000000E+00  0.00000000000E+00  0.74505805969E-08  0.10566000000E+00  0.10566000000E+00 0. -1.
     999900   -1    0    0    0    0 -0.00000000000E+00 -0.00000000000E+00 -0.74505805969E-08  0.93827000000E+00  0.93827000000E+00 0.  1.
     999902    2    1    2    0    0 -0.33917656460E-02 -0.23088415947E-01 -0.18994383468E-02  0.10205166087E+01  0.10202479903E+01 0.  0.
     999903    2    3    3    0    0  0.42894911041E-02  0.17179807036E-01  0.12740333172E+00  0.13012358436E+00  0.19672131815E-01 0.  0.
         14    1    1    2    0    0  0.33917656460E-02  0.23088415947E-01  0.18994383468E-02  0.23413391279E-01  0.00000000000E+00 0. -1.
     999901    1    3    3    0    0 -0.76812567501E-02 -0.40268222983E-01 -0.12930277006E+00  0.89039302436E+00  0.88000000000E+00 0.  1.
        -11    1    4    4    0    0 -0.80641219412E-03  0.16921029320E-01  0.55315309917E-01  0.57853402372E-01  0.51100000000E-03 0. -1.
         11    1    4    4    0    0  0.50959032982E-02  0.25877771611E-03  0.72088021800E-01  0.72270181986E-01  0.51100000000E-03 0.  1.
</event>
<event>
 8    1  0.1202249E+005  0.1043930E+01  0.7957747E-01            NaN
         13   -1    0    0    0    0  0.00000000000E+00  0.00000000000E+00  0.74505805969E-08  0.10566000000E+00  0.10566000000E+00 0. -1.
     999900   -1    0    0    0    0 -0.00000000000E+00 -0.00000000000E+00 -0.74505805969E-08  0.93827000000E+00  0.93827000000E+00 0.  1.
     999902    2    1    2    0    0  0.18657784309E-01 -0.14607882641E-01 -0.35051732872E-02  0.10199760986E+01  0.10196947839E+01 0.  0.
     999903    2    3    3    0    0  0.23380855419E-01 -0.12840706866E+00  0.11594129889E-01  0.13250747886E+00  0.19717211329E-01 0.  0.
         14    1    1    2    0    0 -0.18657784309E-01  0.14607882641E-01  0.35051732872E-02  0.23953901360E-01  0.00000000000E+00 0. -1.
     999901    1    3    3    0    0 -0.47230711092E-02  0.11379918602E+00 -0.15099303176E-01  0.88746861978E+00  0.88000000000E+00 0. -1.
        -11    1    4    4    0    0  0.14295306776E-02 -0.50912258918E-01 -0.12178073860E-02  0.50949443981E-01  0.51100000000E-03 0.  1.
         11    1    4    4    0    0  0.21951324741E-01 -0.77494809746E-01  0.12811937275E-01  0.81558034878E-01  0.51100000000E-03 0. -1.
</event>
<event>
 8    1  0.1202249E+005  0.1043930E+01  0.7957747E-01            NaN
         13   -1    0    0    0    0  0.00000000000E+00  0.00000000000E+00  0.74505805969E-08  0.10566000000E+00  0.10566000000E+00 0. -1.
     999900   -1    0    0    0    0 -0.00000000000E+00 -0.00000000000E+00 -0.74505805969E-08  0.93827000000E+00  0.93827000000E+00 0.  1.
     999902    2    1    2    0    0  0.10533041756E-01 -0.58205558598E-05  0.22534855824E-01  0.10190550180E+01  0.10187513754E+01 0.  0.
     999903    2    3    3    0    0  0.52405007924E-01 -0.10638304872E+00  0.52839743645E-01  0.13114299395E+00  0.18515086910E-01 0.  0.
         14    1    1    2    0    0 -0.10533041756E-01  0.58205558598E-05 -0.22534855824E-01  0.24874982001E-01  0.00000000000E+00 0.  1.
     999901    1    3    3    0    0 -0.41871966168E-01  0.10637722817E+00 -0.30304887821E-01  0.88791202405E+00  0.88000000000E+00 0.  1.
        -11    1    4    4    0    0  0.20535342224E-01 -0.61741875630E-01  0.31402144972E-01  0.72250365511E-01  0.51100000000E-03 0. -1.
         11    1    4    4    0    0  0.31869665700E-01 -0.44641173091E-01  0.21437598673E-01  0.58892628441E-01  0.51100000000E-03 0.  1.
</event>
<event>
 8    1  0.1202249E+005  0.1043930E+01  0.7957747E-01            NaN
         13   -1    0    0    0    0  0.00000000000E+00  0.00000000000E+00  0.74505805969E-08  0.10566000000E+00  0.10566000000E+00 0.  1.
     999900   -1    0    0    0    0 -0.00000000000E+00 -0.00000000000E+00 -0.74505805969E-08  0.93827000000E+00  0.93827000000E+00 0.  1.
     999902    2    1    2    0    0  0.20646558751E-01  0.15622927646E-01 -0.89002163881E-02  0.10165517220E+01  0.10161829724E+01 0.  0.
     999903    2    3    3    0    0  0.99098709605E-01 -0.73587484595E-01  0.26499673393E-01  0.12786370594E+00  0.20278621073E-01 0.  0.
         14    1    1    2    0    0 -0.20646558751E-01 -0.15622927646E-01  0.89002163881E-02  0.27378278037E-01  0.00000000000E+00 0.  1.
     999901    1    3    3    0    0 -0.78452150853E-01  0.89210412241E-01 -0.35399889781E-01  0.88868801602E+00  0.88000000000E+00 0.  1.
        -11    1    4    4    0    0  0.56618182539E-01 -0.35467313327E-01  0.23066993804E-01  0.70681654146E-01  0.51100000000E-03 0. -1.
         11    1    4    4    0    0  0.42480527066E-01 -0.38120171269E-01  0.34326795887E-02  0.57182051795E-01  0.51100000000E-03 0.  1.
</event>
<event>
 8    1  0.1202249E+005  0.1043930E+01  0.7957747E-01            NaN
         13   -1    0    0    0    0  0.00000000000E+00  0.00000000000E+00  0.74505805969E-08  0.10566000000E+00  0.10566000000E+00 0.  1.
     999900   -1    0    0    0    0 -0.00000000000E+00 -0.00000000000E+00 -0.74505805969E-08  0.93827000000E+00  0.93827000000E+00 0. -1.
     999902    2    1    2    0    0 -0.12845491872E-01 -0.61765715380E-02 -0.18790955493E-01  0.10203449050E+01  0.10200722859E+01 0.  0.
     999903    2    3    3    0    0 -0.24122525601E-01 -0.11947629498E+00  0.43345661345E-01  0.13083663750E+00  0.19567780947E-01 0.  0.
         14    1    1    2    0    0  0.12845491872E-01  0.61765715380E-02  0.18790955493E-01  0.23585094991E-01  0.00000000000E+00 0.  1.
     999901    1    3    3    0    0  0.11277033729E-01  0.11329972344E+00 -0.62136616837E-01  0.88950826751E+00  0.88000000000E+00 0. -1.
        -11    1    4    4    0    0 -0.13972846562E-01 -0.37191672118E-01  0.71547323230E-02  0.40372171500E-01  0.51100000000E-03 0. -1.
         11    1    4    4    0    0 -0.10149679039E-01 -0.82284622859E-01  0.36190929022E-01  0.90464465997E-01  0.51100000000E-03 0.  1.
</event>
<event>
 8    1  0.1202249E+005  0.1043930E+01  0.7957747E-01            NaN
         13   -1    0    0    0    0  0.00000000000E+00  0.00000000000E+00  0.74505805969E-08  0.10566000000E+00  0.10566000000E+00 0.  1.
     999900   -1    0    0    0    0 -0.00000000000E+00 -0.00000000000E+00 -0.74505805969E-08  0.93827000000E+00  0.93827000000E+00 0.  1.
     999902    2    1    2    0    0 -0.81232906502E-02  0.80372992572E-02  0.21364209992E-01  0.10197015973E+01  0.10194137197E+01 0.  0.
     999903    2    3    3    0    0  0.18671982765E-01 -0.10076083643E+00 -0.73278530625E-01  0.12756244368E+00  0.20026105184E-01 0.  0.
         14    1    1    2    0    0  0.81232906502E-02 -0.80372992572E-02 -0.21364209992E-01  0.24228402731E-01  0.00000000000E+00 0. -1.
     999901    1    3    3    0    0 -0.26795273415E-01  0.10879813569E+00  0.94642740617E-01  0.89213915358E+00  0.88000000000E+00 0. -1.
        -11    1    4    4    0    0  0.19188574232E-01 -0.87694551847E-01 -0.55697800729E-01  0.10564583253E+00  0.51100000000E-03 0. -1.
         11    1    4    4    0    0 -0.51659146648E-03 -0.13066284587E-01 -0.17580729895E-01  0.21916611150E-01  0.51100000000E-03 0.  1.
</event>
<event>
 8    1  0.1202249E+005  0.1043930E+01  0.7957747E-01            NaN
         13   -1    0    0    0    0  0.00000000000E+00  0.00000000000E+00  0.74505805969E-08  0.10566000000E+00  0.10566000000E+00 0.  1.
     999900   -1    0    0    0    0 -0.00000000000E+00 -0.00000000000E+00 -0.74505805969E-08  0.93827000000E+00  0.93827000000E+00 0.  1.
     999902    2    1    2    0    0 -0.16264724628E-01  0.15872650157E-01 -0.48952194328E-02  0.10206825170E+01  0.10204177356E+01 0.  0.
     999903    2    3    3    0    0  0.10336038135E-01  0.12327021136E+00 -0.44095931702E-01  0.13288832211E+00  0.20309511704E-01 0.  0.
         14    1    1    2    0    0  0.16264724628E-01 -0.15872650157E-01  0.48952194328E-02  0.23247482951E-01  0.00000000000E+00 0.  1.
     999901    1    3    3    0    0 -0.26600762763E-01 -0.10739756121E+00  0.39200712270E-01  0.88779419494E+00  0.88000000000E+00 0. -1.
        -11    1    4    4    0    0 -0.18250145419E-02  0.74526063298E-02 -0.76894825410E-02  0.10874800317E-01  0.51100000000E-03 0. -1.
         11    1    4    4    0    0  0.12161052677E-01  0.11581760503E+00 -0.36406449161E-01  0.12201352179E+00  0.51100000000E-03 0.  1.
</event>
<event>
 8    1  0.1202249E+005  0.1043930E+01  0.7957747E-01            NaN
         13   -1    0    0    0    0  0.00000000000E+00  0.00000000000E+00  0.74505805969E-08  0.10566000000E+00  0.10566000000E+00 0. -1.
     999900   -1    0    0    0    0 -0.00000000000E+00 -0.00000000000E+00 -0.74505805969E-08  0.93827000000E+00  0.93827000000E+00 0. -1.
     999902    2    1    2    0    0  0.16010894348E-01 -0.16931461497E-01  0.60574663596E-02  0.10198527073E+01  0.10195684521E+01 0.  0.
     999903    2    3    3    0    0  0.10793418623E+00  0.29966598598E-01  0.66485435911E-01  0.13176439008E+00  0.19843278872E-01 0.  0.
         14    1    1    2    0    0 -0.16010894348E-01  0.16931461497E-01 -0.60574663596E-02  0.24077292725E-01  0.00000000000E+00 0. -1.
     999901    1    3    3    0    0 -0.91923291883E-01 -0.46898060095E-01 -0.60427969552E-01  0.88808831719E+00  0.88000000000E+00 0. -1.
        -11    1    4    4    0    0  0.28071055147E-01 -0.10022085398E-02  0.17113150667E-01  0.32895434422E-01  0.51100000000E-03 0. -1.
         11    1    4    4    0    0  0.79863131084E-01  0.30968807138E-01  0.49372285244E-01  0.98868955660E-01  0.51100000000E-03 0.  1.
</event>
<event>
 8    1  0.1202249E+005  0.1043930E+01  0.7957747E-01            NaN
         13   -1    0    0    0    0  0.00000000000E+00  0.00000000000E+00  0.74505805969E-08  0.10566000000E+00  0.10566000000E+00 0.  1.
     999900   -1    0    0    0    0 -0.00000000000E+00 -0.00000000000E+00 -0.74505805969E-08  0.93827000000E+00  0.93827000000E+00 0.  1.
     999902    2    1    2    0    0 -0.17215986141E-01  0.96225008292E-03 -0.17486406549E-01  0.10193720987E+01  0.10190762410E+01 0.  0.
     999903    2    3    3    0    0  0.11081278235E+00 -0.32547354738E-01  0.49316739577E-01  0.12697256958E+00  0.18737384814E-01 0.  0.
         14    1    1    2    0    0  0.17215986141E-01 -0.96225008292E-03  0.17486406549E-01  0.24557901336E-01  0.00000000000E+00 0.  1.
     999901    1    3    3    0    0 -0.12802876849E+00  0.33509604821E-01 -0.66803146127E-01  0.89239952908E+00  0.88000000000E+00 0.  1.
        -11    1    4    4    0    0  0.53983250991E-01 -0.13184545783E-01  0.13972435817E-01  0.57301952137E-01  0.51100000000E-03 0.  1.
         11    1    4    4    0    0  0.56829531363E-01 -0.19362808955E-01  0.35344303760E-01  0.69670617443E-01  0.51100000000E-03 0. -1.
</event>
<event>
 8    1  0.1202249E+005  0.1043930E+01  0.7957747E-01            NaN
         13   -1    0    0    0    0  0.00000000000E+00  0.00000000000E+00  0.74505805969E-08  0.10566000000E+00  0.10566000000E+00 0.  1.
     999900   -1    0    0    0    0 -0.00000000000E+00 -0.00000000000E+00 -0.74505805969E-08  0.93827000000E+00  0.93827000000E+00 0. -1.
     999902    2    1    2    0    0 -0.55452620612E-02 -0.14343038706E-01  0.18517155705E-01  0.10198601486E+01  0.10195760712E+01 0.  0.
     999903    2    3    3    0    0 -0.78498778012E-01 -0.81964966801E-01 -0.61502113099E-01  0.13064812438E+00  0.20152135286E-01 0.  0.
         14    1    1    2    0    0  0.55452620612E-02  0.14343038706E-01 -0.18517155705E-01  0.24069851392E-01  0.00000000000E+00 0.  1.
     999901    1    3    3    0    0  0.72953515951E-01  0.67621928095E-01  0.80019268804E-01  0.88921202423E+00  0.88000000000E+00 0.  1.
        -11    1    4    4    0    0 -0.70470466878E-01 -0.67229325600E-01 -0.45672746865E-01  0.10757383441E+00  0.51100000000E-03 0.  1.
         11    1    4    4    0    0 -0.80283111340E-02 -0.14735641201E-01 -0.15829366234E-01  0.23074289970E-01  0.51100000000E-03 0. -1.
</event>
<event>
 8    1  0.1202249E+005  0.1043930E+01  0.7957747E-01            NaN
         13   -1    0    0    0    0  0.00000000000E+00  0.00000000000E+00  0.74505805969E-08  0.10566000000E+00  0.10566000000E+00 0.  1.
     999900   -1    0    0    0    0 -0.00000000000E+00 -0.00000000000E+00 -0.74505805969E-08  0.93827000000E+00  0.93827000000E+00 0.  1.
     999902    2    1    2    0    0 -0.53081002208E-03 -0.13213298810E-01 -0.19687048223E-01  0.10202139107E+01  0.10199382190E+01 0.  0.
     999903    2    3    3    0    0  0.65291100384E-01 -0.48260489755E-03 -0.11386958715E+00  0.13265267612E+00  0.19164783042E-01 0.  0.
         14    1    1    2    0    0  0.53081002208E-03  0.13213298810E-01  0.19687048223E-01  0.23716089316E-01  0.00000000000E+00 0.  1.
     999901    1    3    3    0    0 -0.65821910406E-01 -0.12730693912E-01  0.94182538923E-01  0.88756123456E+00  0.88000000000E+00 0. -1.
        -11    1    4    4    0    0  0.27268396791E-01 -0.94426458487E-02 -0.44544684674E-01  0.53077481835E-01  0.51100000000E-03 0. -1.
         11    1    4    4    0    0  0.38022703593E-01  0.89600409511E-02 -0.69324902472E-01  0.79575194288E-01  0.51100000000E-03 0.  1.
</event>
<event>
 8    1  0.1202249E+005  0.1043930E+01  0.7957747E-01            NaN
         13   -1    0    0    0    0  0.00000000000E+00  0.00000000000E+00  0.74505805969E-08  0.10566000000E+00  0.10566000000E+00 0.  1.
     999900   -1    0    0    0    0 -0.00000000000E+00 -0.00000000000E+00 -0.74505805969E-08  0.93827000000E+00  0.93827000000E+00 0.  1.
     999902    2    1    2    0    0  0.28902927647E-02  0.23217091018E-01 -0.24230948420E-02  0.10204085524E+01  0.10201374198E+01 0.  0.
     999903    2    3    3    0    0  0.52269227726E-01  0.12017147578E+00 -0.16149766017E-01  0.13360144067E+00  0.20378278884E-01 0.  0.
         14    1    1    2    0    0 -0.28902927647E-02 -0.23217091018E-01  0.24230948420E-02  0.23521447579E-01  0.00000000000E+00 0.  1.
     999901    1    3    3    0    0 -0.49378934961E-01 -0.96954384760E-01  0.13726671175E-01  0.88680711175E+00  0.88000000000E+00 0.  1.
        -11    1    4    4    0    0  0.45898923203E-01  0.84953817576E-01 -0.15536287260E-01  0.97803372206E-01  0.51100000000E-03 0. -1.
         11    1    4    4    0    0  0.63703045226E-02  0.35217658202E-01 -0.61347875713E-03  0.35798068469E-01  0.51100000000E-03 0.  1.
</event>
<event>
 8    1  0.1202249E+005  0.1043930E+01  0.7957747E-01            NaN
         13   -1    0    0    0    0  0.00000000000E+00  0.00000000000E+00  0.74505805969E-08  0.10566000000E+00  0.10566000000E+00 0.  1.
     999900   -1    0    0    0    0 -0.00000000000E+00 -0.00000000000E+00 -0.74505805969E-08  0.93827000000E+00  0.93827000000E+00 0.  1.
     999902    2    1    2    0    0  0.12988704548E-01 -0.18979910016E-01 -0.65084143704E-02  0.10200280568E+01  0.10197479756E+01 0.  0.
     999903    2    3    3    0    0 -0.16528214468E-01  0.11416092761E-01  0.12612646246E+00  0.12908070931E+00  0.18719934130E-01 0.  0.
         14    1    1    2    0    0 -0.12988704548E-01  0.18979910016E-01  0.65084143704E-02  0.23901943178E-01  0.00000000000E+00 0. -1.
     999901    1    3    3    0    0  0.29516919016E-01 -0.30396002777E-01 -0.13263487683E+00  0.89094734752E+00  0.88000000000E+00 0.  1.
        -11    1    4    4    0    0 -0.14962109806E-01  0.13094610469E-01  0.66568418961E-01  0.69476248295E-01  0.51100000000E-03 0.  1.
         11    1    4    4    0    0 -0.15661046615E-02 -0.16785177077E-02  0.59558043503E-01  0.59604461011E-01  0.51100000000E-03 0. -1.
</event>
<event>
 8    1  0.1202249E+005  0.1043930E+01  0.7957747E-01            NaN
         13   -1    0    0    0    0  0.00000000000E+00  0.00000000000E+00  0.74505805969E-08  0.10566000000E+00  0.10566000000E+00 0. -1.
     999900   -1    0    0    0    0 -0.00000000000E+00 -0.00000000000E+00 -0.74505805969E-08  0.93827000000E+00  0.93827000000E+00 0. -1.
     999902    2    1    2    0    0 -0.94439574807E-02 -0.13441591068E-01  0.12586324371E-01  0.10232350667E+01  0.10230257677E+01 0.  0.
     999903    2    3    3    0    0  0.23073004840E-01  0.12457813997E+00 -0.26670404342E-01  0.13101990781E+00  0.20070606951E-01 0.  0.
         14    1    1    2    0    0  0.94439574807E-02  0.13441591068E-01 -0.12586324371E-01  0.20694933305E-01  0.00000000000E+00 0.  1.
     999901    1    3    3    0    0 -0.32516962321E-01 -0.13801973104E+00  0.39256728713E-01  0.89221515889E+00  0.88000000000E+00 0. -1.
        -11    1    4    4    0    0  0.20357007622E-01  0.93008114294E-01 -0.28177743865E-01  0.99293320290E-01  0.51100000000E-03 0.  1.
         11    1    4    4    0    0  0.27159972178E-02  0.31570025678E-01  0.15073395233E-02  0.31726587519E-01  0.51100000000E-03 0. -1.
</event>
<event>
 8    1  0.1202249E+005  0.1043930E+01  0.7957747E-01            NaN
         13   -1    0    0    0    0  0.00000000000E+00  0.00000000000E+00  0.74505805969E-08  0.10566000000E+00  0.10566000000E+00 0.  1.
     999900   -1    0    0    0    0 -0.00000000000E+00 -0.00000000000E+00 -0.74505805969E-08  0.93827000000E+00  0.93827000000E+00 0. -1.
     999902    2    1    2    0    0 -0.33448569322E-03 -0.23401782807E-01 -0.23611564192E-02  0.10204070244E+01  0.10201358562E+01 0.  0.
     999903    2    3    3    0    0  0.20534327339E-01 -0.10595413075E+00  0.74955927484E-01  0.13292275474E+00  0.20053210270E-01 0.  0.
         14    1    1    2    0    0  0.33448569322E-03  0.23401782807E-01  0.23611564192E-02  0.23522975553E-01  0.00000000000E+00 0. -1.
     999901    1    3    3    0    0 -0.20868813033E-01  0.82552347939E-01 -0.77317083903E-01  0.88748426970E+00  0.88000000000E+00 0. -1.
        -11    1    4    4    0    0  0.44605437304E-02 -0.62973245113E-01  0.35671596494E-01  0.72513791570E-01  0.51100000000E-03 0. -1.
         11    1    4    4    0    0  0.16073783609E-01 -0.42980885633E-01  0.39284330991E-01  0.60408963173E-01  0.51100000000E-03 0.  1.
</event>
<event>
 8    1  0.1202249E+005  0.1043930E+01  0.7957747E-01            NaN
         13   -1    0    0    0    0  0.00000000000E+00  0.00000000000E+00  0.74505805969E-08  0.10566000000E+00  0.10566000000E+00 0.  1.
     999900   -1    0    0    0    0 -0.00000000000E+00 -0.00000000000E+00 -0.74505805969E-08  0.93827000000E+00  0.93827000000E+00 0. -1.
     999902    2    1    2    0    0  0.21086380482E-01  0.96948501850E-02  0.51331529832E-02  0.10201608010E+01  0.10198838586E+01 0.  0.
     999903    2    3    3    0    0  0.48340221261E-01 -0.11252287915E+00 -0.39027940985E-01  0.13020004488E+00  0.20753221060E-01 0.  0.
         14    1    1    2    0    0 -0.21086380482E-01 -0.96948501850E-02 -0.51331529832E-02  0.23769199008E-01  0.00000000000E+00 0. -1.
     999901    1    3    3    0    0 -0.27253840780E-01  0.12221772934E+00  0.44161093968E-01  0.88996075611E+00  0.88000000000E+00 0.  1.
        -11    1    4    4    0    0  0.10234190566E-01 -0.15318543082E-01 -0.13128555060E-01  0.22627781545E-01  0.51100000000E-03 0. -1.
         11    1    4    4    0    0  0.38106030696E-01 -0.97204336071E-01 -0.25899385925E-01  0.10757226333E+00  0.51100000000E-03 0.  1.
</event>
<event>
 8    1  0.1202249E+005  0.1043930E+01  0.7957747E-01            NaN
         13   -1    0    0    0    0  0.00000000000E+00  0.00000000000E+00  0.74505805969E-08  0.10566000000E+00  0.10566000000E+00 0. -1.
     999900   -1    0    0    0    0 -0.00000000000E+00 -0.00000000000E+00 -0.74505805969E-08  0.93827000000E+00  0.93827000000E+00 0. -1.
     999902    2    1    2    0    0  0.15410086262E-02  0.17466464057E-01 -0.11169723317E-01  0.10231402238E+01  0.10229289823E+01 0.  0.
     999903    2    3    3    0    0 -0.12205085700E-02 -0.23040044026E-01 -0.13053058750E+00  0.13415461142E+00  0.20661370272E-01 0.  0.
         14    1    1    2    0    0 -0.15410086262E-02 -0.17466464057E-01  0.11169723317E-01  0.20789776170E-01  0.00000000000E+00 0. -1.
     999901    1    3    3    0    0  0.27615171962E-02  0.40506508083E-01  0.11936086419E+00  0.88898561241E+00  0.88000000000E+00 0.  1.
        -11    1    4    4    0    0 -0.87741262828E-02 -0.28321530002E-02 -0.33180871424E-01  0.34441802103E-01  0.51100000000E-03 0. -1.
         11    1    4    4    0    0  0.75536177128E-02 -0.20207891026E-01 -0.97349716078E-01  0.99712809316E-01  0.51100000000E-03 0.  1.
</event>
<event>
 8    1  0.1202249E+005  0.1043930E+01  0.7957747E-01            NaN
         13   -1    0    0    0    0  0.00000000000E+00  0.00000000000E+00  0.74505805969E-08  0.10566000000E+00  0.10566000000E+00 0.  1.
     999900   -1    0    0    0    0 -0.00000000000E+00 -0.00000000000E+00 -0.74505805969E-08  0.93827000000E+00  0.93827000000E+00 0.  1.
     999902    2    1    2    0    0  0.89385573332E-02  0.17771811122E-01  0.14605606718E-01  0.10192508828E+01  0.10189520613E+01 0.  0.
     999903    2    3    3    0    0  0.58347436265E-01  0.11199648383E+00 -0.30755479240E-01  0.13168277028E+00  0.21138040976E-01 0.  0.
         14    1    1    2    0    0 -0.89385573332E-02 -0.17771811122E-01 -0.14605606718E-01  0.24679117192E-01  0.00000000000E+00 0. -1.
     999901    1    3    3    0    0 -0.49408878932E-01 -0.94224672704E-01  0.45361085958E-01  0.88756811253E+00  0.88000000000E+00 0. -1.
        -11    1    4    4    0    0  0.24466260886E-01  0.45706144858E-01 -0.23369382599E-01  0.56868609651E-01  0.51100000000E-03 0. -1.
         11    1    4    4    0    0  0.33881175379E-01  0.66290338968E-01 -0.73860966405E-02  0.74814160626E-01  0.51100000000E-03 0.  1.
</event>
<event>
 8    1  0.1202249E+005  0.1043930E+01  0.7957747E-01            NaN
         13   -1    0    0    0    0  0.00000000000E+00  0.00000000000E+00  0.74505805969E-08  0.10566000000E+00  0.10566000000E+00 0.  1.
     999900   -1    0    0    0    0 -0.00000000000E+00 -0.00000000000E+00 -0.74505805969E-08  0.93827000000E+00  0.93827000000E+00 0. -1.
     999902    2    1    2    0    0 -0.32542372061E-02 -0.29597181133E-01  0.55572225575E-02  0.10136403002E+01  0.10131876392E+01 0.  0.
     999903    2    3    3    0    0  0.78017566384E-01  0.83037284796E-01 -0.37436974398E-01  0.12170973680E+00  0.20731658129E-01 0.  0.
         14    1    1    2    0    0  0.32542372061E-02  0.29597181133E-01 -0.55572225575E-02  0.30289699790E-01  0.00000000000E+00 0. -1.
     999901    1    3    3    0    0 -0.81271803590E-01 -0.11263446593E+00  0.42994196956E-01  0.89193056341E+00  0.88000000000E+00 0.  1.
        -11    1    4    4    0    0  0.69164142106E-01  0.77587411127E-01 -0.39324103940E-01  0.11113114411E+00  0.51100000000E-03 0. -1.
         11    1    4    4    0    0  0.88534242779E-02  0.54498736695E-02  0.18871295418E-02  0.10578592693E-01  0.51100000000E-03 0.  1.
</event>
<event>
 8    1  0.1202249E+005  0.1043930E+01  0.7957747E-01            NaN
         13   -1    0    0    0    0  0.00000000000E+00  0.00000000000E+00  0.74505805969E-08  0.10566000000E+00  0.10566000000E+00 0. -1.
     999900   -1    0    0    0    0 -0.00000000000E+00 -0.00000000000E+00 -0.74505805969E-08  0.93827000000E+00  0.93827000000E+00 0. -1.
     999902    2    1    2    0    0  0.20949505405E-01  0.74472163884E-02 -0.42609652597E-02  0.10212915673E+01  0.10210406294E+01 0.  0.
     999903    2    3    3    0    0  0.73585887083E-01  0.10921705456E+00  0.69621284018E-02  0.13379303411E+00  0.22557858060E-01 0.  0.
         14    1    1    2    0    0 -0.20949505405E-01 -0.74472163884E-02  0.42609652597E-02  0.22638432666E-01  0.00000000000E+00 0. -1.
     999901    1    3    3    0    0 -0.52636381678E-01 -0.10176983817E+00 -0.11223093662E-01  0.88749853322E+00  0.88000000000E+00 0. -1.
        -11    1    4    4    0    0  0.15451236153E-01  0.22972028879E-01 -0.77348828570E-02  0.28749684230E-01  0.51100000000E-03 0. -1.
         11    1    4    4    0    0  0.58134650930E-01  0.86245025682E-01  0.14697011259E-01  0.10504334988E+00  0.51100000000E-03 0.  1.
</event>
<event>
 8    1  0.1202249E+005  0.1043930E+01  0.7957747E-01            NaN
         13   -1    0    0    0    0  0.00000000000E+00  0.00000000000E+00  0.74505805969E-08  0.10566000000E+00  0.10566000000E+00 0. -1.
     999900   -1    0    0    0    0 -0.00000000000E+00 -0.00000000000E+00 -0.74505805969E-08  0.93827000000E+00  0.93827000000E+00 0.  1.
     999902    2    1    2    0    0  0.45149341053E-02 -0.33440680871E-02 -0.22696563530E-01  0.10205483530E+01  0.10202804709E+01 0.  0.
     999903    2    3    3    0    0  0.11283443059E-01  0.41683640946E-01  0.11883139215E+00  0.12807792236E+00  0.20450242648E-01 0.  0.
         14    1    1    2    0    0 -0.45149341053E-02  0.33440680871E-02  0.22696563530E-01  0.23381647021E-01  0.00000000000E+00 0. -1.
     999901    1    3    3    0    0 -0.67685089534E-02 -0.45027709033E-01 -0.14152795568E+00  0.89247043062E+00  0.88000000000E+00 0.  1.
        -11    1    4    4    0    0  0.39426398042E-02  0.70341111863E-02  0.50183622491E-01  0.50829914579E-01  0.51100000000E-03 0.  1.
         11    1    4    4    0    0  0.73408032545E-02  0.34649529760E-01  0.68647769663E-01  0.77248007778E-01  0.51100000000E-03 0. -1.
</event>
<event>
 8    1  0.1202249E+005  0.1043930E+01  0.7957747E-01            NaN
         13   -1    0    0    0    0  0.00000000000E+00  0.00000000000E+00  0.74505805969E-08  0.10566000000E+00  0.10566000000E+00 0. -1.
     999900   -1    0    0    0    0 -0.00000000000E+00 -0.00000000000E+00 -0.74505805969E-08  0.93827000000E+00  0.93827000000E+00 0. -1.
     999902    2    1    2    0    0 -0.48194995475E-02 -0.21795714652E-01  0.82824160236E-02  0.10201207756E+01  0.10198428887E+01 0.  0.
     999903    2    3    3    0    0 -0.27710966015E-01  0.72581349234E-01  0.10199102381E+00  0.12983298356E+00  0.20456900716E-01 0.  0.
         14    1    1    2    0    0  0.48194995475E-02  0.21795714652E-01 -0.82824160236E-02  0.23809224437E-01  0.00000000000E+00 0.  1.
     999901    1    3    3    0    0  0.22891466467E-01 -0.94377063887E-01 -0.93708607787E-01  0.89028779201E+00  0.88000000000E+00 0. -1.
        -11    1    4    4    0    0 -0.60182549850E-02  0.42234617428E-01  0.48180891219E-01  0.64355587962E-01  0.51100000000E-03 0. -1.
         11    1    4    4    0    0 -0.21692711030E-01  0.30346731807E-01  0.53810132591E-01  0.65477395593E-01  0.51100000000E-03 0.  1.
</event>
<event>
 8    1  0.1202249E+005  0.1043930E+01  0.7957747E-01            NaN
         13   -1    0    0    0    0  0.00000000000E+00  0.00000000000E+00  0.74505805969E-08  0.10566000000E+00  0.10566000000E+00 0. -1.
     999900   -1    0    0    0    0 -0.00000000000E+00 -0.00000000000E+00 -0.74505805969E-08  0.93827000000E+00  0.93827000000E+00 0.  1.
     999902    2    1    2    0    0  0.12272535538E-01  0.15453179450E-01  0.15520121319E-01  0.10188244219E+01  0.10185150528E+01 0.  0.
     999903    2    3    3    0    0  0.52177802689E-01  0.38536508649E-01 -0.10940626410E+00  0.12880651639E+00  0.20342134772E-01 0.  0.
         14    1    1    2    0    0 -0.12272535538E-01 -0.15453179450E-01 -0.15520121319E-01  0.25105578054E-01  0.00000000000E+00 0.  1.
     999901    1    3    3    0    0 -0.39905267150E-01 -0.23083329198E-01  0.12492638542E+00  0.89001790555E+00  0.88000000000E+00 0. -1.
        -11    1    4    4    0    0  0.11576412900E-01  0.19107217080E-01 -0.44816149559E-01  0.50078413139E-01  0.51100000000E-03 0. -1.
         11    1    4    4    0    0  0.40601389789E-01  0.19429291568E-01 -0.64590114545E-01  0.78728103252E-01  0.51100000000E-03 0.  1.
</event>
<event>
 8    1  0.1202249E+005  0.1043930E+01  0.7957747E-01            NaN
         13   -1    0    0    0    0  0.00000000000E+00  0.00000000000E+00  0.74505805969E-08  0.10566000000E+00  0.10566000000E+00 0.  1.
     999900   -1    0    0    0    0 -0.00000000000E+00 -0.00000000000E+00 -0.74505805969E-08  0.93827000000E+00  0.93827000000E+00 0. -1.
     999902    2    1    2    0    0  0.17729637398E-01 -0.15390241345E-01 -0.12830255342E-03  0.10204520096E+01  0.10201818896E+01 0.  0.
     999903    2    3    3    0    0 -0.96051164192E-01 -0.25715748278E-01 -0.80276155830E-01  0.12945461047E+00  0.20666618604E-01 0.  0.
         14    1    1    2    0    0 -0.17729637398E-01  0.15390241345E-01  0.12830255342E-03  0.23477990383E-01  0.00000000000E+00 0. -1.
     999901    1    3    3    0    0  0.11378080159E+00  0.10325506934E-01  0.80147853276E-01  0.89099739915E+00  0.88000000000E+00 0.  1.
        -11    1    4    4    0    0 -0.13669404320E-01  0.18688561063E-02 -0.17392247335E-01  0.22205779112E-01  0.51100000000E-03 0.  1.
         11    1    4    4    0    0 -0.82381759873E-01 -0.27584604385E-01 -0.62883908495E-01  0.10724883136E+00  0.51100000000E-03 0. -1.
</event>
<event>
 8    1  0.1202249E+005  0.1043930E+01  0.7957747E-01            NaN
         13   -1    0    0    0    0  0.00000000000E+00  0.00000000000E+00  0.74505805969E-08  0.10566000000E+00  0.10566000000E+00 0.  1.
     999900   -1    0    0    0    0 -0.00000000000E+00 -0.00000000000E+00 -0.74505805969E-08  0.93827000000E+00  0.93827000000E+00 0.  1.
     999902    2    1    2    0    0  0.23803543469E-01  0.68275788262E-02  0.48550893944E-03  0.10191618706E+01  0.10188608631E+01 0.  0.
     999903    2    3    3    0    0 -0.75142930576E-01 -0.41376546592E-01 -0.91993554257E-01  0.12749690015E+00  0.20836671963E-01 0.  0.
         14    1    1    2    0    0 -0.23803543469E-01 -0.68275788262E-02 -0.48550893944E-03  0.24768129385E-01  0.00000000000E+00 0.  1.
     999901    1    3    3    0    0  0.98946474044E-01  0.48204125418E-01  0.92479063196E-01  0.89166497047E+00  0.88000000000E+00 0. -1.
        -11    1    4    4    0    0 -0.64700117273E-01 -0.28271089745E-01 -0.80968934191E-01  0.10743178820E+00  0.51100000000E-03 0.  1.
         11    1    4    4    0    0 -0.10442813302E-01 -0.13105456847E-01 -0.11024620065E-01  0.20065111946E-01  0.51100000000E-03 0. -1.
</event>
<event>
 8    1  0.1202249E+005  0.1043930E+01  0.7957747E-01            NaN
         13   -1    0    0    0    0  0.00000000000E+00  0.00000000000E+00  0.74505805969E-08  0.10566000000E+00  0.10566000000E+00 0. -1.
     999900   -1    0    0    0    0 -0.00000000000E+00 -0.00000000000E+00 -0.74505805969E-08  0.93827000000E+00  0.93827000000E+00 0.  1.
     999902    2    1    2    0    0 -0.51447746753E-02  0.10826506822E-01 -0.20314013739E-01  0.10203431157E+01  0.10200704548E+01 0.  0.
     999903    2    3    3    0    0  0.17000259084E-01 -0.12077808982E+00  0.34917889487E-01  0.12856918947E+00  0.20842784972E-01 0.  0.
         14    1    1    2    0    0  0.51447746753E-02 -0.10826506822E-01  0.20314013739E-01  0.23586884293E-01  0.00000000000E+00 0. -1.
     999901    1    3    3    0    0 -0.22145033759E-01  0.13160459664E+00 -0.55231903226E-01  0.89177392623E+00  0.88000000000E+00 0.  1.
        -11    1    4    4    0    0  0.11112353825E-02 -0.39152265708E-01  0.22910784680E-02  0.39238309287E-01  0.51100000000E-03 0. -1.
         11    1    4    4    0    0  0.15889023701E-01 -0.81625824115E-01  0.32626811019E-01  0.89330880186E-01  0.51100000000E-03 0.  1.
</event>
<event>
 8    1  0.1202249E+005  0.1043930E+01  0.7957747E-01            NaN
         13   -1    0    0    0    0  0.00000000000E+00  0.00000000000E+00  0.74505805969E-08  0.10566000000E+00  0.10566000000E+00 0. -1.
     999900   -1    0    0    0    0 -0.00000000000E+00 -0.00000000000E+00 -0.74505805969E-08  0.93827000000E+00  0.93827000000E+00 0.  1.
     999902    2    1    2    0    0  0.15707171739E-01  0.69431678147E-03 -0.18222235163E-01  0.10198624456E+01  0.10195784231E+01 0.  0.
     999903    2    3    3    0    0  0.64936022433E-03  0.27992362723E-01 -0.12795820711E+00  0.13249898877E+00  0.19967103432E-01 0.  0.
         14    1    1    2    0    0 -0.15707171739E-01 -0.69431678147E-03  0.18222235163E-01  0.24067554387E-01  0.00000000000E+00 0. -1.
     999901    1    3    3    0    0  0.15057811515E-01 -0.27298045942E-01  0.10973597194E+00  0.88736345684E+00  0.88000000000E+00 0.  1.
        -11    1    4    4    0    0 -0.78310302998E-03  0.21252864531E-01 -0.12037521053E+00  0.12224054127E+00  0.51100000000E-03 0. -1.
         11    1    4    4    0    0  0.14324632543E-02  0.67394981922E-02 -0.75829965828E-02  0.10258447496E-01  0.51100000000E-03 0.  1.
</event>
<event>
 8    1  0.1202249E+005  0.1043930E+01  0.7957747E-01            NaN
         13   -1    0    0    0    0  0.00000000000E+00  0.00000000000E+00  0.74505805969E-08  0.10566000000E+00  0.10566000000E+00 0. -1.
     999900   -1    0    0    0    0 -0.00000000000E+00 -0.00000000000E+00 -0.74505805969E-08  0.93827000000E+00  0.93827000000E+00 0. -1.
     999902    2    1    2    0    0 -0.83467848546E-02  0.43762085028E-03  0.22039895405E-01  0.10203584638E+01  0.10200861617E+01 0.  0.
     999903    2    3    3    0    0  0.49767134691E-01  0.88532434809E-01 -0.76241030174E-01  0.12862023751E+00  0.20388994742E-01 0.  0.
         14    1    1    2    0    0  0.83467848546E-02 -0.43762085028E-03 -0.22039895405E-01  0.23571536201E-01  0.00000000000E+00 0.  1.
     999901    1    3    3    0    0 -0.58113919546E-01 -0.88094813958E-01  0.98280925580E-01  0.89173822629E+00  0.88000000000E+00 0.  1.
        -11    1    4    4    0    0  0.22415244608E-01  0.38678542147E-01 -0.46266229709E-01  0.64337375964E-01  0.51100000000E-03 0.  1.
         11    1    4    4    0    0  0.27351890083E-01  0.49853892661E-01 -0.29974800466E-01  0.64282861546E-01  0.51100000000E-03 0. -1.
</event>
<event>
 8    1  0.1202249E+005  0.1043930E+01  0.7957747E-01            NaN
         13   -1    0    0    0    0  0.00000000000E+00  0.00000000000E+00  0.74505805969E-08  0.10566000000E+00  0.10566000000E+00 0.  1.
     999900   -1    0    0    0    0 -0.00000000000E+00 -0.00000000000E+00 -0.74505805969E-08  0.93827000000E+00  0.93827000000E+00 0. -1.
     999902    2    1    2    0    0 -0.48196721346E-02 -0.21124045864E-01  0.55314199998E-02  0.10215681763E+01  0.10213234001E+01 0.  0.
     999903    2    3    3    0    0 -0.81707213183E-01 -0.10334609191E+00  0.17349834006E-01  0.13431858696E+00  0.19595475599E-01 0.  0.
         14    1    1    2    0    0  0.48196721346E-02  0.21124045864E-01 -0.55314199998E-02  0.22361823726E-01  0.00000000000E+00 0.  1.
     999901    1    3    3    0    0  0.76887541049E-01  0.82222046047E-01 -0.11818414006E-01  0.88724958931E+00  0.88000000000E+00 0. -1.
        -11    1    4    4    0    0 -0.69578143362E-01 -0.88282630016E-01  0.21717807651E-01  0.11448521776E+00  0.51100000000E-03 0. -1.
         11    1    4    4    0    0 -0.12129069821E-01 -0.15063461895E-01 -0.43679736446E-02  0.19833369198E-01  0.51100000000E-03 0.  1.
</event>
<event>
 8    1  0.1202249E+005  0.1043930E+01  0.7957747E-01            NaN
         13   -1    0    0    0    0  0.00000000000E+00  0.00000000000E+00  0.74505805969E-08  0.10566000000E+00  0.10566000000E+00 0.  1.
     999900   -1    0    0    0    0 -0.00000000000E+00 -0.00000000000E+00 -0.74505805969E-08  0.93827000000E+00  0.93827000000E+00 0.  1.
     999902    2    1    2    0    0 -0.20418117710E-01 -0.11769363830E-01 -0.96049662489E-02  0.10184805829E+01  0.10181625729E+01 0.  0.
     999903    2    3    3    0    0 -0.11669549728E+00 -0.58537689522E-02  0.55076985283E-01  0.13084998237E+00  0.20883914473E-01 0.  0.
         14    1    1    2    0    0  0.20418117710E-01  0.11769363830E-01  0.96049662489E-02  0.25449417133E-01  0.00000000000E+00 0. -1.
     999901    1    3    3    0    0  0.96277379566E-01 -0.59155948781E-02 -0.64681951532E-01  0.88763060049E+00  0.88000000000E+00 0. -1.
        -11    1    4    4    0    0 -0.52826026191E-01 -0.12668582536E-01  0.28334825219E-01  0.61271571449E-01  0.51100000000E-03 0.  1.
         11    1    4    4    0    0 -0.63869471085E-01  0.68148135837E-02  0.26742160064E-01  0.69578410924E-01  0.51100000000E-03 0. -1.
</event>
<event>
 8    1  0.1202249E+005  0.1043930E+01  0.7957747E-01            NaN
         13   -1    0    0    0    0  0.00000000000E+00  0.00000000000E+00  0.74505805969E-08  0.10566000000E+00  0.10566000000E+00 0. -1.
     999900   -1    0    0    0    0 -0.00000000000E+00 -0.00000000000E+00 -0.74505805969E-08  0.93827000000E+00  0.93827000000E+00 0.  1.
     999902    2    1    2    0    0 -0.24488396247E-02  0.12827566611E-01  0.19351463232E-01  0.10205842850E+01  0.10203172351E+01 0.  0.
     999903    2    3    3    0    0 -0.10954612220E+00  0.18139235802E-01  0.69820035282E-01  0.13263996323E+00  0.19726574836E-01 0.  0.
         14    1    1    2    0    0  0.24488396247E-02 -0.12827566611E-01 -0.19351463232E-01  0.23345715022E-01  0.00000000000E+00 0.  1.
     999901    1    3    3    0    0  0.10709728257E+00 -0.53116691904E-02 -0.50468572051E-01  0.88794432175E+00  0.88000000000E+00 0. -1.
        -11    1    4    4    0    0 -0.49981022013E-01  0.18209347614E-01  0.33899241777E-01  0.63080128536E-01  0.51100000000E-03 0. -1.
         11    1    4    4    0    0 -0.59565100182E-01 -0.70111812072E-04  0.35920793506E-01  0.69559834692E-01  0.51100000000E-03 0.  1.
</event>
<event>
 8    1  0.1202249E+005  0.1043930E+01  0.7957747E-01            NaN
         13   -1    0    0    0    0  0.00000000000E+00  0.00000000000E+00  0.74505805969E-08  0.10566000000E+00  0.10566000000E+00 0. -1.
     999900   -1    0    0    0    0 -0.00000000000E+00 -0.00000000000E+00 -0.74505805969E-08  0.93827000000E+00  0.93827000000E+00 0. -1.
     999902    2    1    2    0    0 -0.94773741771E-02  0.12127018363E-01  0.17962746298E-01  0.10202752869E+01  0.10200010371E+01 0.  0.
     999903    2    3    3    0    0  0.65234552953E-01 -0.75740209572E-01 -0.76936854123E-01  0.12769002156E+00  0.19832696212E-01 0.  0.
         14    1    1    2    0    0  0.94773741771E-02 -0.12127018363E-01 -0.17962746298E-01  0.23654713066E-01  0.00000000000E+00 0.  1.
     999901    1    3    3    0    0 -0.74711927130E-01  0.87867227935E-01  0.94899600421E-01  0.89258526537E+00  0.88000000000E+00 0.  1.
        -11    1    4    4    0    0  0.37920738248E-01 -0.42371640154E-01 -0.31337177184E-01  0.64927791226E-01  0.51100000000E-03 0. -1.
         11    1    4    4    0    0  0.27313814704E-01 -0.33368569417E-01 -0.45599676939E-01  0.62762230335E-01  0.51100000000E-03 0.  1.
</event>
<event>
 8    1  0.1202249E+005  0.1043930E+01  0.7957747E-01            NaN
         13   -1    0    0    0    0  0.00000000000E+00  0.00000000000E+00  0.74505805969E-08  0.10566000000E+00  0.10566000000E+00 0.  1.
     999900   -1    0    0    0    0 -0.00000000000E+00 -0.00000000000E+00 -0.74505805969E-08  0.93827000000E+00  0.93827000000E+00 0.  1.
     999902    2    1    2    0    0  0.16546230376E-01  0.13308651658E-01 -0.10088505313E-01  0.10204209403E+01  0.10201500966E+01 0.  0.
     999903    2    3    3    0    0  0.32423289698E-01 -0.12378757776E+00  0.24870785350E-03  0.12960428402E+00  0.20556615927E-01 0.  0.
         14    1    1    2    0    0 -0.16546230376E-01 -0.13308651658E-01  0.10088505313E-01  0.23509059702E-01  0.00000000000E+00 0.  1.
     999901    1    3    3    0    0 -0.15877059322E-01  0.13709622941E+00 -0.10337213166E-01  0.89081665628E+00  0.88000000000E+00 0.  1.
        -11    1    4    4    0    0  0.28595674864E-01 -0.82508426063E-01 -0.66385728655E-02  0.87576736426E-01  0.51100000000E-03 0. -1.
         11    1    4    4    0    0  0.38276148345E-02 -0.41279151692E-01  0.68872807190E-02  0.42027547590E-01  0.51100000000E-03 0.  1.
</event>
<event>
 8    1  0.1202249E+005  0.1043930E+01  0.7957747E-01            NaN
         13   -1    0    0    0    0  0.00000000000E+00  0.00000000000E+00  0.74505805969E-08  0.10566000000E+00  0.10566000000E+00 0.  1.
     999900   -1    0    0    0    0 -0.00000000000E+00 -0.00000000000E+00 -0.74505805969E-08  0.93827000000E+00  0.93827000000E+00 0.  1.
     999902    2    1    2    0    0 -0.25610462326E-01  0.15906366034E-01  0.41546938041E-03  0.10137790319E+01  0.10133305703E+01 0.  0.
     999903    2    3    3    0    0  0.78625133823E-01  0.94090477972E-01  0.13045442944E-01  0.12409519421E+00  0.13946466589E-01 0.  0.
         14    1    1    2    0    0  0.25610462326E-01 -0.15906366034E-01 -0.41546938041E-03  0.30150968074E-01  0.00000000000E+00 0. -1.
     999901    1    3    3    0    0 -0.10423559615E+00 -0.78184111938E-01 -0.12629973564E-01  0.88968383772E+00  0.88000000000E+00 0. -1.
        -11    1    4    4    0    0  0.51518462442E-01  0.66030792149E-01  0.30050192679E-02  0.83806376524E-01  0.51100000000E-03 0. -1.
         11    1    4    4    0    0  0.27106671381E-01  0.28059685823E-01  0.10040423676E-01  0.40288817684E-01  0.51100000000E-03 0.  1.
</event>
<event>
 8    1  0.1202249E+005  0.1043930E+01  0.7957747E-01            NaN
         13   -1    0    0    0    0  0.00000000000E+00  0.00000000000E+00  0.74505805969E-08  0.10566000000E+00  0.10566000000E+00 0. -1.
     999900   -1    0    0    0    0 -0.00000000000E+00 -0.00000000000E+00 -0.74505805969E-08  0.93827000000E+00  0.93827000000E+00 0.  1.
     999902    2    1    2    0    0  0.67760248059E-02 -0.23136054115E-02  0.23552120451E-01  0.10193135490E+01  0.10190162617E+01 0.  0.
     999903    2    3    3    0    0  0.92961708505E-01 -0.69156622311E-01  0.59793306122E-01  0.13183995248E+00  0.19545228433E-01 0.  0.
         14    1    1    2    0    0 -0.67760248059E-02  0.23136054115E-02 -0.23552120451E-01  0.24616451002E-01  0.00000000000E+00 0.  1.
     999901    1    3    3    0    0 -0.86185683700E-01  0.66843016899E-01 -0.36241185671E-01  0.88747359652E+00  0.88000000000E+00 0.  1.
        -11    1    4    4    0    0  0.60442743740E-01 -0.54794894108E-01  0.36804555468E-01  0.89502190562E-01  0.51100000000E-03 0.  1.
         11    1    4    4    0    0  0.32518964766E-01 -0.14361728203E-01  0.22988750654E-01  0.42337761916E-01  0.51100000000E-03 0. -1.
</event>
<event>
 8    1  0.1202249E+005  0.1043930E+01  0.7957747E-01            NaN
         13   -1    0    0    0    0  0.00000000000E+00  0.00000000000E+00  0.74505805969E-08  0.10566000000E+00  0.10566000000E+00 0.  1.
     999900   -1    0    0    0    0 -0.00000000000E+00 -0.00000000000E+00 -0.74505805969E-08  0.93827000000E+00  0.93827000000E+00 0. -1.
     999902    2    1    2    0    0  0.47191764483E-02  0.23405444778E-01  0.44552039775E-03  0.10200493811E+01  0.10197698053E+01 0.  0.
     999903    2    3    3    0    0  0.23611522986E-01 -0.11367899624E+00  0.49776725331E-01  0.12787079329E+00  0.19819162187E-01 0.  0.
         14    1    1    2    0    0 -0.47191764483E-02 -0.23405444778E-01 -0.44552039775E-03  0.23880618920E-01  0.00000000000E+00 0. -1.
     999901    1    3    3    0    0 -0.18892346538E-01  0.13708444101E+00 -0.49331204934E-01  0.89217858779E+00  0.88000000000E+00 0. -1.
        -11    1    4    4    0    0 -0.22343222884E-02 -0.11975879827E-01  0.12516239434E-02  0.12257307095E-01  0.51100000000E-03 0.  1.
         11    1    4    4    0    0  0.25845845275E-01 -0.10170311641E+00  0.48525101388E-01  0.11561348620E+00  0.51100000000E-03 0. -1.
</event>
<event>
 8    1  0.1202249E+005  0.1043930E+01  0.7957747E-01            NaN
         13   -1    0    0    0    0  0.00000000000E+00  0.00000000000E+00  0.74505805969E-08  0.10566000000E+00  0.10566000000E+00 0. -1.
     999900   -1    0    0    0    0 -0.00000000000E+00 -0.00000000000E+00 -0.74505805969E-08  0.93827000000E+00  0.93827000000E+00 0. -1.
     999902    2    1    2    0    0  0.17299423472E-01 -0.15719600163E-01  0.30498215557E-02  0.10203571917E+01  0.10200848598E+01 0.  0.
     999903    2    3    3    0    0 -0.11667290955E+00  0.75021035641E-02  0.50055768153E-01  0.12867485329E+00  0.19564983085E-01 0.  0.
         14    1    1    2    0    0 -0.17299423472E-01  0.15719600163E-01 -0.30498215557E-02  0.23572808345E-01  0.00000000000E+00 0.  1.
     999901    1    3    3    0    0  0.13397233302E+00 -0.23221703727E-01 -0.47005946597E-01  0.89168233837E+00  0.88000000000E+00 0.  1.
        -11    1    4    4    0    0 -0.73406239808E-01  0.13380947952E-01  0.27478885662E-01  0.79516514568E-01  0.51100000000E-03 0. -1.
         11    1    4    4    0    0 -0.43266669740E-01 -0.58788443875E-02  0.22576882492E-01  0.49158338720E-01  0.51100000000E-03 0.  1.
</event>
<event>
 8    1  0.1202249E+005  0.1043930E+01  0.7957747E-01            NaN
         13   -1    0    0    0    0  0.00000000000E+00  0.00000000000E+00  0.74505805969E-08  0.10566000000E+00  0.10566000000E+00 0. -1.
     999900   -1    0    0    0    0 -0.00000000000E+00 -0.00000000000E+00 -0.74505805969E-08  0.93827000000E+00  0.93827000000E+00 0. -1.
     999902    2    1    2    0    0  0.82188095485E-04  0.24135668005E-01  0.54313732310E-03  0.10197880816E+01  0.10195022801E+01 0.  0.
     999903    2    3    3    0    0 -0.79256304782E-01  0.43175888847E-01 -0.92839660391E-01  0.13109382971E+00  0.20510251634E-01 0.  0.
         14    1    1    2    0    0 -0.82188095485E-04 -0.24135668005E-01 -0.54313732310E-03  0.24141918380E-01  0.00000000000E+00 0. -1.
     999901    1    3    3    0    0  0.79338492878E-01 -0.19040220842E-01  0.93382797714E-01  0.88869425191E+00  0.88000000000E+00 0.  1.
        -11    1    4    4    0    0 -0.65741354444E-01  0.33030578297E-01 -0.63295930917E-01  0.97054524770E-01  0.51100000000E-03 0. -1.
         11    1    4    4    0    0 -0.13514950338E-01  0.10145310549E-01 -0.29543729474E-01  0.34039304943E-01  0.51100000000E-03 0.  1.
</event>
<event>
 8    1  0.1202249E+005  0.1043930E+01  0.7957747E-01            NaN
         13   -1    0    0    0    0  0.00000000000E+00  0.00000000000E+00  0.74505805969E-08  0.10566000000E+00  0.10566000000E+00 0. -1.
     999900   -1    0    0    0    0 -0.00000000000E+00 -0.00000000000E+00 -0.74505805969E-08  0.93827000000E+00  0.93827000000E+00 0. -1.
     999902    2    1    2    0    0  0.17212431742E-01  0.16802082079E-01 -0.41187850040E-02  0.10195262675E+01  0.10192341576E+01 0.  0.
     999903    2    3    3    0    0 -0.25023498582E-01  0.12724107980E+00  0.81821268790E-02  0.13153304770E+00  0.20433491320E-01 0.  0.
         14    1    1    2    0    0 -0.17212431742E-01 -0.16802082079E-01  0.41187850040E-02  0.24403732472E-01  0.00000000000E+00 0. -1.
     999901    1    3    3    0    0  0.42235930324E-01 -0.11043899772E+00 -0.12300911883E-01  0.88799321983E+00  0.88000000000E+00 0. -1.
        -11    1    4    4    0    0 -0.19513919238E-01  0.48432105997E-01  0.51587383962E-02  0.52472236832E-01  0.51100000000E-03 0.  1.
         11    1    4    4    0    0 -0.55095793437E-02  0.78808973801E-01  0.30233884828E-02  0.79060810868E-01  0.51100000000E-03 0. -1.
</event>
<event>
 8    1  0.1202249E+005  0.1043930E+01  0.7957747E-01            NaN
         13   -1    0    0    0    0  0.00000000000E+00  0.00000000000E+00  0.74505805969E-08  0.10566000000E+00  0.10566000000E+00 0. -1.
     999900   -1    0    0    0    0 -0.00000000000E+00 -0.00000000000E+00 -0.74505805969E-08  0.93827000000E+00  0.93827000000E+00 0.  1.
     999902    2    1    2    0    0  0.22010869774E-01 -0.94952733945E-02  0.37335939054E-02  0.10196693667E+01  0.10193807135E+01 0.  0.
     999903    2    3    3    0    0 -0.43778478746E-01 -0.57275283553E-01 -0.10538331106E+00  0.12921012187E+00  0.19814137275E-01 0.  0.
         14    1    1    2    0    0 -0.22010869774E-01  0.94952733945E-02 -0.37335939054E-02  0.24260633308E-01  0.00000000000E+00 0.  1.
     999901    1    3    3    0    0  0.65789348520E-01  0.47780010159E-01  0.10911690496E+00  0.89045924483E+00  0.88000000000E+00 0. -1.
        -11    1    4    4    0    0 -0.48709186462E-02 -0.11038689787E-01 -0.31655588219E-01  0.33880907709E-01  0.51100000000E-03 0.  1.
         11    1    4    4    0    0 -0.38907560099E-01 -0.46236593766E-01 -0.73727722836E-01  0.95329214156E-01  0.51100000000E-03 0. -1.
</event>
<event>
 8    1  0.1202249E+005  0.1043930E+01  0.7957747E-01            NaN
         13   -1    0    0    0    0  0.00000000000E+00  0.00000000000E+00  0.74505805969E-08  0.10566000000E+00  0.10566000000E+00 0. -1.
     999900   -1    0    0    0    0 -0.00000000000E+00 -0.00000000000E+00 -0.74505805969E-08  0.93827000000E+00  0.93827000000E+00 0.  1.
     999902    2    1    2    0    0  0.44532047068E-03  0.15010941209E-01 -0.19335287042E-01  0.10194477617E+01  0.10191537464E+01 0.  0.
     999903    2    3    3    0    0 -0.65220450339E-01  0.94692262919E-01  0.57488303384E-01  0.13008677172E+00  0.19933172132E-01 0.  0.
         14    1    1    2    0    0 -0.44532047068E-03 -0.15010941209E-01  0.19335287042E-01  0.24482238282E-01  0.00000000000E+00 0. -1.
     999901    1    3    3    0    0  0.65665770810E-01 -0.79681321710E-01 -0.76823590426E-01  0.88936099000E+00  0.88000000000E+00 0. -1.
        -11    1    4    4    0    0 -0.40941180338E-01  0.43908655002E-01  0.24514674083E-01  0.64848905912E-01  0.51100000000E-03 0. -1.
         11    1    4    4    0    0 -0.24279270001E-01  0.50783607916E-01  0.32973629301E-01  0.65237865807E-01  0.51100000000E-03 0.  1.
</event>
<event>
 8    1  0.1202249E+005  0.1043930E+01  0.7957747E-01            NaN
         13   -1    0    0    0    0  0.00000000000E+00  0.00000000000E+00  0.74505805969E-08  0.10566000000E+00  0.10566000000E+00 0. -1.
     999900   -1    0    0    0    0 -0.00000000000E+00 -0.00000000000E+00 -0.74505805969E-08  0.93827000000E+00  0.93827000000E+00 0.  1.
     999902    2    1    2    0    0  0.15461089805E-01 -0.18897521074E-01  0.72740773736E-02  0.10184530731E+01  0.10181343666E+01 0.  0.
     999903    2    3    3    0    0  0.37818176328E-01  0.32922366894E-01  0.11798080086E+00  0.12972301360E+00  0.19861877613E-01 0.  0.
         14    1    1    2    0    0 -0.15461089805E-01  0.18897521074E-01 -0.72740773736E-02  0.25476926862E-01  0.00000000000E+00 0.  1.
     999901    1    3    3    0    0 -0.22357086523E-01 -0.51819887968E-01 -0.11070672349E+00  0.88873005954E+00  0.88000000000E+00 0.  1.
        -11    1    4    4    0    0  0.25700206578E-01  0.32010133723E-01  0.99058936684E-01  0.10722911609E+00  0.51100000000E-03 0. -1.
         11    1    4    4    0    0  0.12117969750E-01  0.91223317146E-03  0.18921864176E-01  0.22493897509E-01  0.51100000000E-03 0.  1.
</event>
<event>
 8    1  0.1202249E+005  0.1043930E+01  0.7957747E-01            NaN
         13   -1    0    0    0    0  0.00000000000E+00  0.00000000000E+00  0.74505805969E-08  0.10566000000E+00  0.10566000000E+00 0.  1.
     999900   -1    0    0    0    0 -0.00000000000E+00 -0.00000000000E+00 -0.74505805969E-08  0.93827000000E+00  0.93827000000E+00 0.  1.
     999902    2    1    2    0    0 -0.84568072624E-02  0.39644684699E-02 -0.22030291100E-01  0.10200016000E+01  0.10197208911E+01 0.  0.
     999903    2    3    3    0    0  0.35284319359E-01  0.88686560620E-01  0.83770508460E-01  0.12855057600E+00  0.19936480989E-01 0.  0.
         14    1    1    2    0    0  0.84568072624E-02 -0.39644684699E-02  0.22030291100E-01  0.23928399973E-01  0.00000000000E+00 0.  1.
     999901    1    3    3    0    0 -0.43741126621E-01 -0.84722092150E-01 -0.10580079956E+00  0.89145102403E+00  0.88000000000E+00 0.  1.
        -11    1    4    4    0    0  0.34007042896E-01  0.61721089220E-01  0.62107601732E-01  0.93933950917E-01  0.51100000000E-03 0.  1.
         11    1    4    4    0    0  0.12772764631E-02  0.26965471400E-01  0.21662906728E-01  0.34616625079E-01  0.51100000000E-03 0. -1.
</event>
<event>
 8    1  0.1202249E+005  0.1043930E+01  0.7957747E-01            NaN
         13   -1    0    0    0    0  0.00000000000E+00  0.00000000000E+00  0.74505805969E-08  0.10566000000E+00  0.10566000000E+00 0. -1.
     999900   -1    0    0    0    0 -0.00000000000E+00 -0.00000000000E+00 -0.74505805969E-08  0.93827000000E+00  0.93827000000E+00 0.  1.
     999902    2    1    2    0    0  0.16193822867E-01  0.32854552443E-01 -0.34454679023E-02  0.10071396104E+01  0.10064674173E+01 0.  0.
     999903    2    3    3    0    0 -0.79948252265E-01 -0.65909061720E-02 -0.83608553903E-01  0.11740630030E+00  0.18939006812E-01 0.  0.
         14    1    1    2    0    0 -0.16193822867E-01 -0.32854552443E-01  0.34454679023E-02  0.36790389564E-01  0.00000000000E+00 0. -1.
     999901    1    3    3    0    0  0.96142075131E-01  0.39445458615E-01  0.80163086001E-01  0.88973331014E+00  0.88000000000E+00 0. -1.
        -11    1    4    4    0    0 -0.25592029961E-01  0.21879670868E-02 -0.16219576826E-01  0.30382149215E-01  0.51100000000E-03 0.  1.
         11    1    4    4    0    0 -0.54356222303E-01 -0.87788732588E-02 -0.67388977077E-01  0.87024151080E-01  0.51100000000E-03 0. -1.
</event>
<event>
 8    1  0.1202249E+005  0.1043930E+01  0.7957747E-01            NaN
         13   -1    0    0    0    0  0.00000000000E+00  0.00000000000E+00  0.74505805969E-08  0.10566000000E+00  0.10566000000E+00 0. -1.
     999900   -1    0    0    0    0 -0.00000000000E+00 -0.00000000000E+00 -0.74505805969E-08  0.93827000000E+00  0.93827000000E+00 0. -1.
     999902    2    1    2    0    0  0.36148009276E-02  0.18453487729E-01  0.14532724214E-01  0.10201645194E+01  0.10198876647E+01 0.  0.
     999903    2    3    3    0    0  0.79369566190E-01 -0.99053433768E-01 -0.10925395984E-01  0.12876406116E+00  0.18700491741E-01 0.  0.
         14    1    1    2    0    0 -0.36148009276E-02 -0.18453487729E-01 -0.14532724214E-01  0.23765480600E-01  0.00000000000E+00 0.  1.
     999901    1    3    3    0    0 -0.75754765263E-01  0.11750692150E+00  0.25458120197E-01  0.89140045824E+00  0.88000000000E+00 0. -1.
        -11    1    4    4    0    0  0.24249957344E-01 -0.33737769802E-01  0.49156762115E-02  0.41841636393E-01  0.51100000000E-03 0. -1.
         11    1    4    4    0    0  0.55119608846E-01 -0.65315663966E-01 -0.15841072195E-01  0.86922424771E-01  0.51100000000E-03 0.  1.
</event>
<event>
 8    1  0.1202249E+005  0.1043930E+01  0.7957747E-01            NaN
         13   -1    0    0    0    0  0.00000000000E+00  0.00000000000E+00  0.74505805969E-08  0.10566000000E+00  0.10566000000E+00 0. -1.
     999900   -1    0    0    0    0 -0.00000000000E+00 -0.00000000000E+00 -0.74505805969E-08  0.93827000000E+00  0.93827000000E+00 0. -1.
     999902    2    1    2    0    0  0.19262321072E-01  0.13124355229E-01 -0.40926716600E-02  0.10202649271E+01  0.10199904342E+01 0.  0.
     999903    2    3    3    0    0  0.94029901672E-01  0.92565418666E-01  0.25745015355E-02  0.13350367127E+00  0.20164896324E-01 0.  0.
         14    1    1    2    0    0 -0.19262321072E-01 -0.13124355229E-01  0.40926716600E-02  0.23665072883E-01  0.00000000000E+00 0.  1.
     999901    1    3    3    0    0 -0.74767580600E-01 -0.79441063437E-01 -0.66671731955E-02  0.88676125584E+00  0.88000000000E+00 0.  1.
        -11    1    4    4    0    0  0.53551427566E-01  0.42330783816E-01  0.81454784866E-02  0.68747804283E-01  0.51100000000E-03 0. -1.
         11    1    4    4    0    0  0.40478474105E-01  0.50234634849E-01 -0.55709769511E-02  0.64755866989E-01  0.51100000000E-03 0.  1.
</event>
<event>
 8    1  0.1202249E+005  0.1043930E+01  0.7957747E-01            NaN
         13   -1    0    0    0    0  0.00000000000E+00  0.00000000000E+00  0.74505805969E-08  0.10566000000E+00  0.10566000000E+00 0. -1.
     999900   -1    0    0    0    0 -0.00000000000E+00 -0.00000000000E+00 -0.74505805969E-08  0.93827000000E+00  0.93827000000E+00 0. -1.
     999902    2    1    2    0    0 -0.22332072545E-01  0.54063684734E-02  0.59146251490E-02  0.10202037893E+01  0.10199278595E+01 0.  0.
     999903    2    3    3    0    0  0.10106008812E+00  0.72148405340E-01 -0.26054582569E-01  0.12851878042E+00  0.20486625946E-01 0.  0.
         14    1    1    2    0    0  0.22332072545E-01 -0.54063684734E-02 -0.59146251490E-02  0.23726210715E-01  0.00000000000E+00 0. -1.
     999901    1    3    3    0    0 -0.12339216067E+00 -0.66742036866E-01  0.31969207718E-01  0.89168500887E+00  0.88000000000E+00 0. -1.
        -11    1    4    4    0    0  0.73081003816E-01  0.46052249308E-01 -0.26154886396E-01  0.90255093975E-01  0.51100000000E-03 0.  1.
         11    1    4    4    0    0  0.27979084306E-01  0.26096156031E-01  0.10030382700E-03  0.38263686441E-01  0.51100000000E-03 0. -1.
</event>
<event>
 8    1  0.1202249E+005  0.1043930E+01  0.7957747E-01            NaN
         13   -1    0    0    0    0  0.00000000000E+00  0.00000000000E+00  0.74505805969E-08  0.10566000000E+00  0.10566000000E+00 0. -1.
     999900   -1    0    0    0    0 -0.00000000000E+00 -0.00000000000E+00 -0.74505805969E-08  0.93827000000E+00  0.93827000000E+00 0.  1.
     999902    2    1    2    0    0  0.80854527093E-02  0.45190602376E-02  0.21830026486E-01  0.10202161537E+01  0.10199405148E+01 0.  0.
     999903    2    3    3    0    0  0.10758705005E+00 -0.63123518666E-01 -0.32371981678E-01  0.13037687378E+00  0.19764414305E-01 0.  0.
         14    1    1    2    0    0 -0.80854527093E-02 -0.45190602376E-02 -0.21830026486E-01  0.23713846321E-01  0.00000000000E+00 0.  1.
     999901    1    3    3    0    0 -0.99501597341E-01  0.67642578903E-01  0.54202008164E-01  0.88983927989E+00  0.88000000000E+00 0. -1.
        -11    1    4    4    0    0  0.58651654039E-01 -0.43440853484E-01 -0.12731023578E-01  0.74090919520E-01  0.51100000000E-03 0.  1.
         11    1    4    4    0    0  0.48935396011E-01 -0.19682665182E-01 -0.19640958099E-01  0.56285954265E-01  0.51100000000E-03 0. -1.
</event>
<event>
 8    1  0.1202249E+005  0.1043930E+01  0.7957747E-01            NaN
         13   -1    0    0    0    0  0.00000000000E+00  0.00000000000E+00  0.74505805969E-08  0.10566000000E+00  0.10566000000E+00 0. -1.
     999900   -1    0    0    0    0 -0.00000000000E+00 -0.00000000000E+00 -0.74505805969E-08  0.93827000000E+00  0.93827000000E+00 0. -1.
     999902    2    1    2    0    0 -0.62163710146E-02 -0.19827012590E-01 -0.10534501604E-01  0.10206334462E+01  0.10203675328E+01 0.  0.
     999903    2    3    3    0    0  0.68100565752E-02  0.22490825052E-01  0.12535210738E+00  0.12910349282E+00  0.20058587964E-01 0.  0.
         14    1    1    2    0    0  0.62163710146E-02  0.19827012590E-01  0.10534501604E-01  0.23296553842E-01  0.00000000000E+00 0. -1.
     999901    1    3    3    0    0 -0.13026427590E-01 -0.42317837643E-01 -0.13588660899E+00  0.89152995334E+00  0.88000000000E+00 0. -1.
        -11    1    4    4    0    0 -0.61181300158E-02  0.14330646239E-01  0.61719656009E-01  0.63658275153E-01  0.51100000000E-03 0. -1.
         11    1    4    4    0    0  0.12928186591E-01  0.81601788134E-02  0.63632451373E-01  0.65445217667E-01  0.51100000000E-03 0.  1.
</event>
<event>
 8    1  0.1202249E+005  0.1043930E+01  0.7957747E-01            NaN
         13   -1    0    0    0    0  0.00000000000E+00  0.00000000000E+00  0.74505805969E-08  0.10566000000E+00  0.10566000000E+00 0. -1.
     999900   -1    0    0    0    0 -0.00000000000E+00 -0.00000000000E+00 -0.74505805969E-08  0.93827000000E+00  0.93827000000E+00 0. -1.
     999902    2    1    2    0    0  0.23233696522E-01  0.67230770488E-02  0.53989370055E-02  0.10191478907E+01  0.10188465391E+01 0.  0.
     999903    2    3    3    0    0 -0.84672286495E-01  0.58230940065E-01 -0.72815892311E-01  0.12762429561E+00  0.20629303839E-01 0.  0.
         14    1    1    2    0    0 -0.23233696522E-01 -0.67230770488E-02 -0.53989370055E-02  0.24782109270E-01  0.00000000000E+00 0.  1.
     999901    1    3    3    0    0  0.10790598302E+00 -0.51507863016E-01  0.78214829316E-01  0.89152359512E+00  0.88000000000E+00 0. -1.
        -11    1    4    4    0    0 -0.42801948973E-01  0.40164589318E-01 -0.47175328654E-01  0.75305868467E-01  0.51100000000E-03 0. -1.
         11    1    4    4    0    0 -0.41870337522E-01  0.18066350747E-01 -0.25640563657E-01  0.52318427147E-01  0.51100000000E-03 0.  1.
</event>
<event>
 8    1  0.1202249E+005  0.1043930E+01  0.7957747E-01            NaN
         13   -1    0    0    0    0  0.00000000000E+00  0.00000000000E+00  0.74505805969E-08  0.10566000000E+00  0.10566000000E+00 0. -1.
     999900   -1    0    0    0    0 -0.00000000000E+00 -0.00000000000E+00 -0.74505805969E-08  0.93827000000E+00  0.93827000000E+00 0. -1.
     999902    2    1    2    0    0  0.91082231176E-02  0.83916808777E-02 -0.20854597985E-01  0.10196752212E+01  0.10193867090E+01 0.  0.
     999903    2    3    3    0    0 -0.12535129408E-01  0.61446248339E-01  0.10980251886E+00  0.12818517416E+00  0.21025575448E-01 0.  0.
         14    1    1    2    0    0 -0.91082231176E-02 -0.83916808777E-02  0.20854597985E-01  0.24254778775E-01  0.00000000000E+00 0. -1.
     999901    1    3    3    0    0  0.21643352525E-01 -0.53054567461E-01 -0.13065711684E+00  0.89149004707E+00  0.88000000000E+00 0. -1.
        -11    1    4    4    0    0 -0.17845438554E-01  0.47483310539E-01  0.77999492525E-01  0.93044647412E-01  0.51100000000E-03 0. -1.
         11    1    4    4    0    0  0.53103091464E-02  0.13962937800E-01  0.31803026331E-01  0.35140526746E-01  0.51100000000E-03 0.  1.
</event>
<event>
 8    1  0.1202249E+005  0.1043930E+01  0.7957747E-01            NaN
         13   -1    0    0    0    0  0.00000000000E+00  0.00000000000E+00  0.74505805969E-08  0.10566000000E+00  0.10566000000E+00 0.  1.
     999900   -1    0    0    0    0 -0.00000000000E+00 -0.00000000000E+00 -0.74505805969E-08  0.93827000000E+00  0.93827000000E+00 0.  1.
     999902    2    1    2    0    0  0.22953349244E-02  0.13031562463E-01  0.21481911701E-01  0.10186998055E+01  0.10183873188E+01 0.  0.
     999903    2    3    3    0    0 -0.12701565759E+00  0.14452680646E-02 -0.60464673423E-02  0.12874846604E+00  0.20113221229E-01 0.  0.
         14    1    1    2    0    0 -0.22953349244E-02 -0.13031562463E-01 -0.21481911701E-01  0.25230194469E-01  0.00000000000E+00 0. -1.
     999901    1    3    3    0    0  0.12931099252E+00  0.11586294398E-01  0.27528379043E-01  0.88995133949E+00  0.88000000000E+00 0.  1.
        -11    1    4    4    0    0 -0.11456435587E+00  0.64210594324E-03  0.66985412529E-03  0.11456925313E+00  0.51100000000E-03 0. -1.
         11    1    4    4    0    0 -0.12451301718E-01  0.80316212133E-03 -0.67163214676E-02  0.14179212917E-01  0.51100000000E-03 0.  1.
</event>
<event>
 8    1  0.1202249E+005  0.1043930E+01  0.7957747E-01            NaN
         13   -1    0    0    0    0  0.00000000000E+00  0.00000000000E+00  0.74505805969E-08  0.10566000000E+00  0.10566000000E+00 0. -1.
     999900   -1    0    0    0    0 -0.00000000000E+00 -0.00000000000E+00 -0.74505805969E-08  0.93827000000E+00  0.93827000000E+00 0.  1.
     999902    2    1    2    0    0  0.14418931417E-01  0.18092594280E-01  0.61471885560E-02  0.10199918405E+01  0.10197108999E+01 0.  0.
     999903    2    3    3    0    0  0.64004682454E-01  0.10944082495E+00 -0.34871649255E-01  0.13292600815E+00  0.19478146162E-01 0.  0.
         14    1    1    2    0    0 -0.14418931417E-01 -0.18092594280E-01 -0.61471885560E-02  0.23938159456E-01  0.00000000000E+00 0.  1.
     999901    1    3    3    0    0 -0.49585751037E-01 -0.91348230671E-01  0.41018837811E-01  0.88706583240E+00  0.88000000000E+00 0.  1.
        -11    1    4    4    0    0  0.21715788220E-01  0.56102270058E-01 -0.17998906101E-01  0.62795397168E-01  0.51100000000E-03 0. -1.
         11    1    4    4    0    0  0.42288894234E-01  0.53338554893E-01 -0.16872743154E-01  0.70130610978E-01  0.51100000000E-03 0.  1.
</event>
<event>
 8    1  0.1202249E+005  0.1043930E+01  0.7957747E-01            NaN
         13   -1    0    0    0    0  0.00000000000E+00  0.00000000000E+00  0.74505805969E-08  0.10566000000E+00  0.10566000000E+00 0. -1.
     999900   -1    0    0    0    0 -0.00000000000E+00 -0.00000000000E+00 -0.74505805969E-08  0.93827000000E+00  0.93827000000E+00 0.  1.
     999902    2    1    2    0    0  0.21235966354E-01 -0.93861657309E-02 -0.33325516483E-02  0.10204742486E+01  0.10202046460E+01 0.  0.
     999903    2    3    3    0    0  0.54786606698E-01 -0.11319316092E+00 -0.38615553012E-01  0.13303612234E+00  0.19828892087E-01 0.  0.
         14    1    1    2    0    0 -0.21235966354E-01  0.93861657309E-02  0.33325516483E-02  0.23455751419E-01  0.00000000000E+00 0. -1.
     999901    1    3    3    0    0 -0.33550640344E-01  0.10380699519E+00  0.35283001363E-01  0.88743812624E+00  0.88000000000E+00 0.  1.
        -11    1    4    4    0    0  0.30260916492E-01 -0.55664640679E-01 -0.29295146381E-01  0.69805028553E-01  0.51100000000E-03 0. -1.
         11    1    4    4    0    0  0.24525690207E-01 -0.57528520239E-01 -0.93204066302E-02  0.63231093789E-01  0.51100000000E-03 0.  1.
</event>
<event>
 8    1  0.1202249E+005  0.1043930E+01  0.7957747E-01            NaN
         13   -1    0    0    0    0  0.00000000000E+00  0.00000000000E+00  0.74505805969E-08  0.10566000000E+00  0.10566000000E+00 0.  1.
     999900   -1    0    0    0    0 -0.00000000000E+00 -0.00000000000E+00 -0.74505805969E-08  0.93827000000E+00  0.93827000000E+00 0.  1.
     999902    2    1    2    0    0 -0.44035673918E-02 -0.23094239403E-01 -0.69402422210E-02  0.10194166922E+01  0.10191219211E+01 0.  0.
     999903    2    3    3    0    0 -0.48794056404E-01 -0.11656788794E+00  0.34109775686E-01  0.13240319595E+00  0.19954875606E-01 0.  0.
         14    1    1    2    0    0  0.44035673918E-02  0.23094239403E-01  0.69402422210E-02  0.24513307844E-01  0.00000000000E+00 0. -1.
     999901    1    3    3    0    0  0.44390489012E-01  0.93473648538E-01 -0.41050017907E-01  0.88701349621E+00  0.88000000000E+00 0.  1.
        -11    1    4    4    0    0 -0.29749976638E-02 -0.27186856112E-01  0.98455913413E-02  0.29071851441E-01  0.51100000000E-03 0. -1.
         11    1    4    4    0    0 -0.45819058740E-01 -0.89381031829E-01  0.24264184345E-01  0.10333134451E+00  0.51100000000E-03 0.  1.
</event>
<event>
 8    1  0.1202249E+005  0.1043930E+01  0.7957747E-01            NaN
         13   -1    0    0    0    0  0.00000000000E+00  0.00000000000E+00  0.74505805969E-08  0.10566000000E+00  0.10566000000E+00 0.  1.
     999900   -1    0    0    0    0 -0.00000000000E+00 -0.00000000000E+00 -0.74505805969E-08  0.93827000000E+00  0.93827000000E+00 0. -1.
     999902    2    1    2    0    0 -0.20593908158E-01  0.14236253586E-02 -0.12882922424E-01  0.10195967829E+01  0.10193063790E+01 0.  0.
     999903    2    3    3    0    0 -0.75202685470E-01 -0.85441488036E-01  0.60940335808E-01  0.13056498377E+00  0.19437043946E-01 0.  0.
         14    1    1    2    0    0  0.20593908158E-01 -0.14236253586E-02  0.12882922424E-01  0.24333217062E-01  0.00000000000E+00 0.  1.
     999901    1    3    3    0    0  0.54608777312E-01  0.86865113395E-01 -0.73823258233E-01  0.88903179917E+00  0.88000000000E+00 0. -1.
        -11    1    4    4    0    0 -0.44727640398E-01 -0.60244715992E-01  0.32064686900E-01  0.81598976020E-01  0.51100000000E-03 0. -1.
         11    1    4    4    0    0 -0.30475045072E-01 -0.25196772044E-01  0.28875648909E-01  0.48966007745E-01  0.51100000000E-03 0.  1.
</event>
<event>
 8    1  0.1202249E+005  0.1043930E+01  0.7957747E-01            NaN
         13   -1    0    0    0    0  0.00000000000E+00  0.00000000000E+00  0.74505805969E-08  0.10566000000E+00  0.10566000000E+00 0. -1.
     999900   -1    0    0    0    0 -0.00000000000E+00 -0.00000000000E+00 -0.74505805969E-08  0.93827000000E+00  0.93827000000E+00 0.  1.
     999902    2    1    2    0    0  0.13351831650E-01  0.16216254605E-01 -0.12195069291E-01  0.10196409482E+01  0.10193516102E+01 0.  0.
     999903    2    3    3    0    0 -0.10969521271E+00  0.59336519624E-02 -0.65334524900E-01  0.12943304621E+00  0.20397680970E-01 0.  0.
         14    1    1    2    0    0 -0.13351831650E-01 -0.16216254605E-01  0.12195069291E-01  0.24289051789E-01  0.00000000000E+00 0. -1.
     999901    1    3    3    0    0  0.12304704436E+00  0.10282602642E-01  0.53139455609E-01  0.89020790200E+00  0.88000000000E+00 0. -1.
        -11    1    4    4    0    0 -0.55587365763E-01  0.13197553835E-01 -0.32957983911E-01  0.65959233502E-01  0.51100000000E-03 0. -1.
         11    1    4    4    0    0 -0.54107846951E-01 -0.72639018729E-02 -0.32376540990E-01  0.63473812707E-01  0.51100000000E-03 0.  1.
</event>
<event>
 8    1  0.1202249E+005  0.1043930E+01  0.7957747E-01            NaN
         13   -1    0    0    0    0  0.00000000000E+00  0.00000000000E+00  0.74505805969E-08  0.10566000000E+00  0.10566000000E+00 0. -1.
     999900   -1    0    0    0    0 -0.00000000000E+00 -0.00000000000E+00 -0.74505805969E-08  0.93827000000E+00  0.93827000000E+00 0. -1.
     999902    2    1    2    0    0 -0.22721630997E-01  0.10152618501E-04  0.55874246564E-02  0.10205314545E+01  0.10202631806E+01 0.  0.
     999903    2    3    3    0    0 -0.11868976143E+00  0.42537619463E-01 -0.38074720639E-01  0.13321817811E+00  0.20017244775E-01 0.  0.
         14    1    1    2    0    0  0.22721630997E-01 -0.10152618501E-04 -0.55874246564E-02  0.23398545522E-01  0.00000000000E+00 0.  1.
     999901    1    3    3    0    0  0.95968130432E-01 -0.42527466844E-01  0.43662145295E-01  0.88731327637E+00  0.88000000000E+00 0. -1.
        -11    1    4    4    0    0 -0.38405674086E-01  0.55279859919E-02 -0.16821723043E-01  0.42294041168E-01  0.51100000000E-03 0. -1.
         11    1    4    4    0    0 -0.80284087343E-01  0.37009633471E-01 -0.21252997596E-01  0.90924136938E-01  0.51100000000E-03 0.  1.
</event>
<event>
 8    1  0.1202249E+005  0.1043930E+01  0.7957747E-01            NaN
         13   -1    0    0    0    0  0.00000000000E+00  0.00000000000E+00  0.74505805969E-08  0.10566000000E+00  0.10566000000E+00 0.  1.
     999900   -1    0    0    0    0 -0.00000000000E+00 -0.00000000000E+00 -0.74505805969E-08  0.93827000000E+00  0.93827000000E+00 0.  1.
     999902    2    1    2    0    0 -0.21750176642E-01 -0.36099494438E-02 -0.48773173027E-02  0.10213492528E+01  0.10210996064E+01 0.  0.
     999903    2    3    3    0    0 -0.97042286608E-01  0.62993247527E-01  0.62589344588E-01  0.13306065212E+00  0.20058825066E-01 0.  0.
         14    1    1    2    0    0  0.21750176642E-01  0.36099494438E-02  0.48773173027E-02  0.22580747176E-01  0.00000000000E+00 0.  1.
     999901    1    3    3    0    0  0.75292109966E-01 -0.66603196971E-01 -0.67466661891E-01  0.88828860070E+00  0.88000000000E+00 0.  1.
        -11    1    4    4    0    0 -0.76358715384E-01  0.40959109434E-01  0.51871955313E-01  0.10099140028E+00  0.51100000000E-03 0. -1.
         11    1    4    4    0    0 -0.20683571224E-01  0.22034138093E-01  0.10717389276E-01  0.32069251846E-01  0.51100000000E-03 0.  1.
</event>
<event>
 8    1  0.1202249E+005  0.1043930E+01  0.7957747E-01            NaN
         13   -1    0    0    0    0  0.00000000000E+00  0.00000000000E+00  0.74505805969E-08  0.10566000000E+00  0.10566000000E+00 0.  1.
     999900   -1    0    0    0    0 -0.00000000000E+00 -0.00000000000E+00 -0.74505805969E-08  0.93827000000E+00  0.93827000000E+00 0.  1.
     999902    2    1    2    0    0 -0.57686822638E-02 -0.22508605387E-01 -0.53944620321E-02  0.10200759598E+01  0.10197970134E+01 0.  0.
     999903    2    3    3    0    0  0.64020182416E-01 -0.57424769275E-01  0.96422026973E-01  0.13077498628E+00  0.20216376234E-01 0.  0.
         14    1    1    2    0    0  0.57686822638E-02  0.22508605387E-01  0.53944620321E-02  0.23854040164E-01  0.00000000000E+00 0.  1.
     999901    1    3    3    0    0 -0.69788864680E-01  0.34916163887E-01 -0.10181648901E+00  0.88930097356E+00  0.88000000000E+00 0.  1.
        -11    1    4    4    0    0  0.42629099938E-01 -0.34791166023E-01  0.74795511865E-01  0.92856314329E-01  0.51100000000E-03 0. -1.
         11    1    4    4    0    0  0.21391082479E-01 -0.22633603251E-01  0.21626515109E-01  0.37918671950E-01  0.51100000000E-03 0.  1.
</event>
<event>
 8    1  0.1202249E+005  0.1043930E+01  0.7957747E-01            NaN
         13   -1    0    0    0    0  0.00000000000E+00  0.00000000000E+00  0.74505805969E-08  0.10566000000E+00  0.10566000000E+00 0. -1.
     999900   -1    0    0    0    0 -0.00000000000E+00 -0.00000000000E+00 -0.74505805969E-08  0.93827000000E+00  0.93827000000E+00 0.  1.
     999902    2    1    2    0    0  0.80853621283E-02  0.82822200222E-02 -0.21129324244E-01  0.10198381634E+01  0.10195535606E+01 0.  0.
     999903    2    3    3    0    0 -0.12716199108E+00  0.14195657247E-02  0.83497265302E-02  0.12899139933E+00  0.19921747536E-01 0.  0.
         14    1    1    2    0    0 -0.80853621283E-02 -0.82822200222E-02  0.21129324244E-01  0.24091836631E-01  0.00000000000E+00 0. -1.
     999901    1    3    3    0    0  0.13524735321E+00  0.68626542975E-02 -0.29479050774E-01  0.89084676404E+00  0.88000000000E+00 0.  1.
        -11    1    4    4    0    0 -0.87538490893E-01  0.63079922175E-02  0.13261612409E-01  0.88763222330E-01  0.51100000000E-03 0. -1.
         11    1    4    4    0    0 -0.39623500185E-01 -0.48884264928E-02 -0.49118858784E-02  0.40228176995E-01  0.51100000000E-03 0.  1.
</event>
<event>
 8    1  0.1202249E+005  0.1043930E+01  0.7957747E-01            NaN
         13   -1    0    0    0    0  0.00000000000E+00  0.00000000000E+00  0.74505805969E-08  0.10566000000E+00  0.10566000000E+00 0.  1.
     999900   -1    0    0    0    0 -0.00000000000E+00 -0.00000000000E+00 -0.74505805969E-08  0.93827000000E+00  0.93827000000E+00 0.  1.
     999902    2    1    2    0    0  0.12425692715E-01  0.11268147919E-01  0.15544602053E-01  0.10210607269E+01  0.10208045868E+01 0.  0.
     999903    2    3    3    0    0 -0.97646390397E-01 -0.75119095181E-02  0.85212476561E-01  0.13127301812E+00  0.19498532846E-01 0.  0.
         14    1    1    2    0    0 -0.12425692715E-01 -0.11268147919E-01 -0.15544602053E-01  0.22869273053E-01  0.00000000000E+00 0. -1.
     999901    1    3    3    0    0  0.11007208311E+00  0.18780057437E-01 -0.69667874507E-01  0.88978770883E+00  0.88000000000E+00 0.  1.
        -11    1    4    4    0    0 -0.47897155147E-01 -0.64717877925E-03  0.29473749990E-01  0.56245171980E-01  0.51100000000E-03 0. -1.
         11    1    4    4    0    0 -0.49749235250E-01 -0.68647307388E-02  0.55738726570E-01  0.75027846142E-01  0.51100000000E-03 0.  1.
</event>
<event>
 8    1  0.1202249E+005  0.1043930E+01  0.7957747E-01            NaN
         13   -1    0    0    0    0  0.00000000000E+00  0.00000000000E+00  0.74505805969E-08  0.10566000000E+00  0.10566000000E+00 0. -1.
     999900   -1    0    0    0    0 -0.00000000000E+00 -0.00000000000E+00 -0.74505805969E-08  0.93827000000E+00  0.93827000000E+00 0.  1.
     999902    2    1    2    0    0 -0.16802705134E-01 -0.43515673838E-02 -0.17057907282E-01  0.10195940340E+01  0.10193035637E+01 0.  0.
     999903    2    3    3    0    0 -0.29957723308E-01  0.11440049375E+00  0.47790172938E-01  0.12915572622E+00  0.20306718803E-01 0.  0.
         14    1    1    2    0    0  0.16802705134E-01  0.43515673838E-02  0.17057907282E-01  0.24335965963E-01  0.00000000000E+00 0. -1.
     999901    1    3    3    0    0  0.13155018173E-01 -0.11875206114E+00 -0.64848080220E-01  0.89043830782E+00  0.88000000000E+00 0.  1.
        -11    1    4    4    0    0 -0.70510096369E-02  0.64455096790E-01  0.29547608362E-01  0.71256568259E-01  0.51100000000E-03 0. -1.
         11    1    4    4    0    0 -0.22906713671E-01  0.49945396962E-01  0.18242564576E-01  0.57899157957E-01  0.51100000000E-03 0.  1.
</event>
<event>
 8    1  0.1202249E+005  0.1043930E+01  0.7957747E-01            NaN
         13   -1    0    0    0    0  0.00000000000E+00  0.00000000000E+00  0.74505805969E-08  0.10566000000E+00  0.10566000000E+00 0. -1.
     999900   -1    0    0    0    0 -0.00000000000E+00 -0.00000000000E+00 -0.74505805969E-08  0.93827000000E+00  0.93827000000E+00 0. -1.
     999902    2    1    2    0    0 -0.15795807921E-01  0.16709804214E-01  0.81426394089E-02  0.10195368108E+01  0.10192449562E+01 0.  0.
     999903    2    3    3    0    0 -0.36918069710E-01 -0.83741594398E-01  0.88997541629E-01  0.12988848213E+00  0.23976172959E-01 0.  0.
         14    1    1    2    0    0  0.15795807921E-01 -0.16709804214E-01 -0.81426394089E-02  0.24393189240E-01  0.00000000000E+00 0. -1.
     999901    1    3    3    0    0  0.21122261789E-01  0.10045139861E+00 -0.80854902221E-01  0.88964832863E+00  0.88000000000E+00 0.  1.
        -11    1    4    4    0    0 -0.17062405316E-03 -0.47396447095E-02 -0.71951322390E-03  0.48241232177E-02  0.51100000000E-03 0.  1.
         11    1    4    4    0    0 -0.36747445656E-01 -0.79001949689E-01  0.89717054853E-01  0.12506435891E+00  0.51100000000E-03 0. -1.
</event>
<event>
 8    1  0.1202249E+005  0.1043930E+01  0.7957747E-01            NaN
         13   -1    0    0    0    0  0.00000000000E+00  0.00000000000E+00  0.74505805969E-08  0.10566000000E+00  0.10566000000E+00 0. -1.
     999900   -1    0    0    0    0 -0.00000000000E+00 -0.00000000000E+00 -0.74505805969E-08  0.93827000000E+00  0.93827000000E+00 0. -1.
     999902    2    1    2    0    0  0.19261303955E-01 -0.12285430878E-01  0.89182717745E-02  0.10194052123E+01  0.10191101617E+01 0.  0.
     999903    2    3    3    0    0  0.66442989863E-02  0.11379925757E+00 -0.54236156770E-01  0.12808875930E+00  0.21696816042E-01 0.  0.
         14    1    1    2    0    0 -0.19261303955E-01  0.12285430878E-01 -0.89182717745E-02  0.24524787733E-01  0.00000000000E+00 0.  1.
     999901    1    3    3    0    0  0.12617004969E-01 -0.12608468845E+00  0.63154428544E-01  0.89131645296E+00  0.88000000000E+00 0.  1.
        -11    1    4    4    0    0  0.11942638654E-01  0.71299593200E-01 -0.41705247493E-01  0.83461652260E-01  0.51100000000E-03 0.  1.
         11    1    4    4    0    0 -0.52983396679E-02  0.42499664371E-01 -0.12530909276E-01  0.44627107044E-01  0.51100000000E-03 0. -1.
</event>
<event>
 8    1  0.1202249E+005  0.1043930E+01  0.7957747E-01            NaN
         13   -1    0    0    0    0  0.00000000000E+00  0.00000000000E+00  0.74505805969E-08  0.10566000000E+00  0.10566000000E+00 0. -1.
     999900   -1    0    0    0    0 -0.00000000000E+00 -0.00000000000E+00 -0.74505805969E-08  0.93827000000E+00  0.93827000000E+00 0.  1.
     999902    2    1    2    0    0 -0.16646236270E-01  0.95362914684E-02 -0.64563268179E-02  0.10236884044E+01  0.10234882643E+01 0.  0.
     999903    2    3    3    0    0  0.11027084947E+00 -0.42604733217E-01  0.54363159763E-01  0.13098148549E+00  0.15032393874E-01 0.  0.
         14    1    1    2    0    0  0.16646236270E-01 -0.95362914684E-02  0.64563268179E-02  0.20241595612E-01  0.00000000000E+00 0. -1.
     999901    1    3    3    0    0 -0.12691708574E+00  0.52141024685E-01 -0.60819486581E-01  0.89270691890E+00  0.88000000000E+00 0.  1.
        -11    1    4    4    0    0  0.54773424158E-01 -0.18530373399E-01  0.34362385051E-01  0.67264681369E-01  0.51100000000E-03 0. -1.
         11    1    4    4    0    0  0.55497425311E-01 -0.24074359818E-01  0.20000774713E-01  0.63716804117E-01  0.51100000000E-03 0.  1.
</event>
<event>
 8    1  0.1202249E+005  0.1043930E+01  0.7957747E-01            NaN
         13   -1    0    0    0    0  0.00000000000E+00  0.00000000000E+00  0.74505805969E-08  0.10566000000E+00  0.10566000000E+00 0. -1.
     999900   -1    0    0    0    0 -0.00000000000E+00 -0.00000000000E+00 -0.74505805969E-08  0.93827000000E+00  0.93827000000E+00 0. -1.
     999902    2    1    2    0    0 -0.16921511826E-01 -0.13757637158E-01  0.11139689121E-01  0.10194411696E+01  0.10191469940E+01 0.  0.
     999903    2    3    3    0    0 -0.10984501099E+00  0.18453312723E-01 -0.65354441227E-01  0.13066466561E+00  0.19889712435E-01 0.  0.
         14    1    1    2    0    0  0.16921511826E-01  0.13757637158E-01 -0.11139689121E-01  0.24488830441E-01  0.00000000000E+00 0. -1.
     999901    1    3    3    0    0  0.92923499168E-01 -0.32210949880E-01  0.76494130349E-01  0.88877650395E+00  0.88000000000E+00 0. -1.
        -11    1    4    4    0    0 -0.43985122453E-02 -0.32188902384E-02 -0.36997641448E-02  0.66073852670E-02  0.51100000000E-03 0.  1.
         11    1    4    4    0    0 -0.10544649875E+00  0.21672202961E-01 -0.61654677082E-01  0.12405728035E+00  0.51100000000E-03 0. -1.
</event>
<event>
 8    1  0.1202249E+005  0.1043930E+01  0.7957747E-01            NaN
         13   -1    0    0    0    0  0.00000000000E+00  0.00000000000E+00  0.74505805969E-08  0.10566000000E+00  0.10566000000E+00 0. -1.
     999900   -1    0    0    0    0 -0.00000000000E+00 -0.00000000000E+00 -0.74505805969E-08  0.93827000000E+00  0.93827000000E+00 0. -1.
     999902    2    1    2    0    0 -0.11829232755E-01 -0.15422968648E-01 -0.13755852180E-01  0.10201177725E+01  0.10198398147E+01 0.  0.
     999903    2    3    3    0    0  0.10160450088E+00 -0.44146966549E-01 -0.66915532396E-01  0.13078193515E+00  0.18809487841E-01 0.  0.
         14    1    1    2    0    0  0.11829232755E-01  0.15422968648E-01  0.13755852180E-01  0.23812227504E-01  0.00000000000E+00 0. -1.
     999901    1    3    3    0    0 -0.11343373363E+00  0.28723997900E-01  0.53159680216E-01  0.88933583734E+00  0.88000000000E+00 0.  1.
        -11    1    4    4    0    0  0.43148201882E-01 -0.28606824809E-01 -0.28043141517E-01  0.58879509666E-01  0.51100000000E-03 0. -1.
         11    1    4    4    0    0  0.58456298994E-01 -0.15540141740E-01 -0.38872390878E-01  0.71902425488E-01  0.51100000000E-03 0.  1.
</event>
<event>
 8    1  0.1202249E+005  0.1043930E+01  0.7957747E-01            NaN
         13   -1    0    0    0    0  0.00000000000E+00  0.00000000000E+00  0.74505805969E-08  0.10566000000E+00  0.10566000000E+00 0.  1.
     999900   -1    0    0    0    0 -0.00000000000E+00 -0.00000000000E+00 -0.74505805969E-08  0.93827000000E+00  0.93827000000E+00 0. -1.
     999902    2    1    2    0    0  0.41843693614E-02  0.58565535770E-04 -0.23115431363E-01  0.10204388199E+01  0.10201683927E+01 0.  0.
     999903    2    3    3    0    0  0.88740768238E-01 -0.55014757454E-02 -0.97205904376E-01  0.13326910846E+00  0.20161280741E-01 0.  0.
         14    1    1    2    0    0 -0.41843693614E-02 -0.58565535770E-04  0.23115431363E-01  0.23491180132E-01  0.00000000000E+00 0.  1.
     999901    1    3    3    0    0 -0.84556398877E-01  0.55600412812E-02  0.74090473013E-01  0.88716971141E+00  0.88000000000E+00 0. -1.
        -11    1    4    4    0    0  0.44499035853E-01  0.37772892209E-02 -0.59525517673E-01  0.74417608675E-01  0.51100000000E-03 0.  1.
         11    1    4    4    0    0  0.44241732386E-01 -0.92787649663E-02 -0.37680386703E-01  0.58851499784E-01  0.51100000000E-03 0. -1.
</event>
<event>
 8    1  0.1202249E+005  0.1043930E+01  0.7957747E-01            NaN
         13   -1    0    0    0    0  0.00000000000E+00  0.00000000000E+00  0.74505805969E-08  0.10566000000E+00  0.10566000000E+00 0.  1.
     999900   -1    0    0    0    0 -0.00000000000E+00 -0.00000000000E+00 -0.74505805969E-08  0.93827000000E+00  0.93827000000E+00 0.  1.
     999902    2    1    2    0    0  0.80269776470E-02  0.22485122288E-01 -0.18335924814E-02  0.10199847467E+01  0.10197036375E+01 0.  0.
     999903    2    3    3    0    0  0.57505751747E-01 -0.97175040611E-01 -0.60188750945E-01  0.12859704867E+00  0.12830244916E-01 0.  0.
         14    1    1    2    0    0 -0.80269776470E-02 -0.22485122288E-01  0.18335924814E-02  0.23945253305E-01  0.00000000000E+00 0. -1.
     999901    1    3    3    0    0 -0.49478774100E-01  0.11966016290E+00  0.58355158464E-01  0.89138769803E+00  0.88000000000E+00 0.  1.
        -11    1    4    4    0    0  0.75580479979E-03 -0.72385719531E-02 -0.37610502611E-02  0.82082144759E-02  0.51100000000E-03 0.  1.
         11    1    4    4    0    0  0.56749946947E-01 -0.89936468658E-01 -0.56427700684E-01  0.12038883419E+00  0.51100000000E-03 0. -1.
</event>
<event>
 8    1  0.1202249E+005  0.1043930E+01  0.7957747E-01            NaN
         13   -1    0    0    0    0  0.00000000000E+00  0.00000000000E+00  0.74505805969E-08  0.10566000000E+00  0.10566000000E+00 0. -1.
     999900   -1    0    0    0    0 -0.00000000000E+00 -0.00000000000E+00 -0.74505805969E-08  0.93827000000E+00  0.93827000000E+00 0.  1.
     999902    2    1    2    0    0 -0.17565992609E-02 -0.18638681797E-01 -0.15599336547E-01  0.10195614670E+01  0.10192702093E+01 0.  0.
     999903    2    3    3    0    0  0.11146436186E+00  0.41748478324E-02 -0.64812389325E-01  0.13065125346E+00  0.20672950943E-01 0.  0.
         14    1    1    2    0    0  0.17565992609E-02  0.18638681797E-01  0.15599336547E-01  0.24368533005E-01  0.00000000000E+00 0.  1.
     999901    1    3    3    0    0 -0.11322096112E+00 -0.22813529630E-01  0.49213052778E-01  0.88891021354E+00  0.88000000000E+00 0.  1.
        -11    1    4    4    0    0  0.65674066389E-01  0.30380881883E-02 -0.49692647721E-01  0.82413186654E-01  0.51100000000E-03 0. -1.
         11    1    4    4    0    0  0.45790295469E-01  0.11367596441E-02 -0.15119741604E-01  0.48238066802E-01  0.51100000000E-03 0.  1.
</event>
<event>
 8    1  0.1202249E+005  0.1043930E+01  0.7957747E-01            NaN
         13   -1    0    0    0    0  0.00000000000E+00  0.00000000000E+00  0.74505805969E-08  0.10566000000E+00  0.10566000000E+00 0.  1.
     999900   -1    0    0    0    0 -0.00000000000E+00 -0.00000000000E+00 -0.74505805969E-08  0.93827000000E+00  0.93827000000E+00 0. -1.
     999902    2    1    2    0    0  0.58821888939E-02 -0.23449622330E-01  0.22198041124E-02  0.10196521816E+01  0.10193631144E+01 0.  0.
     999903    2    3    3    0    0 -0.50000335119E-01 -0.11812963644E+00 -0.25599719800E-01  0.13237483635E+00  0.20325037008E-01 0.  0.
         14    1    1    2    0    0 -0.58821888939E-02  0.23449622330E-01 -0.22198041124E-02  0.24277818351E-01  0.00000000000E+00 0.  1.
     999901    1    3    3    0    0  0.55882524013E-01  0.94680014107E-01  0.27819523913E-01  0.88727734529E+00  0.88000000000E+00 0. -1.
        -11    1    4    4    0    0 -0.13824735869E-01 -0.57931520116E-01 -0.14091525820E-01  0.61204710324E-01  0.51100000000E-03 0.  1.
         11    1    4    4    0    0 -0.36175599249E-01 -0.60198116321E-01 -0.11508193980E-01  0.71170126031E-01  0.51100000000E-03 0. -1.
</event>
<event>
 8    1  0.1202249E+005  0.1043930E+01  0.7957747E-01            NaN
         13   -1    0    0    0    0  0.00000000000E+00  0.00000000000E+00  0.74505805969E-08  0.10566000000E+00  0.10566000000E+00 0.  1.
     999900   -1    0    0    0    0 -0.00000000000E+00 -0.00000000000E+00 -0.74505805969E-08  0.93827000000E+00  0.93827000000E+00 0. -1.
     999902    2    1    2    0    0  0.50713955981E-03 -0.96508497355E-02  0.22052195238E-01  0.10198531355E+01  0.10195688905E+01 0.  0.
     999903    2    3    3    0    0 -0.72406297580E-01 -0.89427512323E-01  0.62268158938E-01  0.13232960961E+00  0.19845656244E-01 0.  0.
         14    1    1    2    0    0 -0.50713955981E-03  0.96508497355E-02 -0.22052195238E-01  0.24076864538E-01  0.00000000000E+00 0. -1.
     999901    1    3    3    0    0  0.72913437140E-01  0.79776662588E-01 -0.40215963700E-01  0.88752352585E+00  0.88000000000E+00 0. -1.
        -11    1    4    4    0    0 -0.17562149425E-01 -0.34245102587E-01  0.15096995769E-01  0.41344123475E-01  0.51100000000E-03 0. -1.
         11    1    4    4    0    0 -0.54844148155E-01 -0.55182409736E-01  0.47171163169E-01  0.90985486133E-01  0.51100000000E-03 0.  1.
</event>
<event>
 8    1  0.1202249E+005  0.1043930E+01  0.7957747E-01            NaN
         13   -1    0    0    0    0  0.00000000000E+00  0.00000000000E+00  0.74505805969E-08  0.10566000000E+00  0.10566000000E+00 0.  1.
     999900   -1    0    0    0    0 -0.00000000000E+00 -0.00000000000E+00 -0.74505805969E-08  0.93827000000E+00  0.93827000000E+00 0.  1.
     999902    2    1    2    0    0  0.17507841618E-01 -0.18257050099E-01  0.61699115899E-02  0.10178932528E+01  0.10175602006E+01 0.  0.
     999903    2    3    3    0    0 -0.92803626047E-01  0.38112760419E-01 -0.73048994309E-01  0.12569270891E+00  0.19935044272E-01 0.  0.
         14    1    1    2    0    0 -0.17507841618E-01  0.18257050099E-01 -0.61699115899E-02  0.26036747213E-01  0.00000000000E+00 0.  1.
     999901    1    3    3    0    0  0.11031146767E+00 -0.56369810517E-01  0.79218905899E-01  0.89220054387E+00  0.88000000000E+00 0.  1.
        -11    1    4    4    0    0 -0.80339882805E-01  0.28772155699E-01 -0.53617190823E-01  0.10078391730E+00  0.51100000000E-03 0.  1.
         11    1    4    4    0    0 -0.12463743243E-01  0.93406047195E-02 -0.19431803486E-01  0.24908791618E-01  0.51100000000E-03 0. -1.
</event>
<event>
 8    1  0.1202249E+005  0.1043930E+01  0.7957747E-01            NaN
         13   -1    0    0    0    0  0.00000000000E+00  0.00000000000E+00  0.74505805969E-08  0.10566000000E+00  0.10566000000E+00 0. -1.
     999900   -1    0    0    0    0 -0.00000000000E+00 -0.00000000000E+00 -0.74505805969E-08  0.93827000000E+00  0.93827000000E+00 0. -1.
     999902    2    1    2    0    0  0.11003278118E-01  0.22867415118E-01  0.23107867179E-01  0.10096085151E+01  0.10090249696E+01 0.  0.
     999903    2    3    3    0    0  0.11430903745E+00  0.24402798402E-01 -0.28804157037E-01  0.12204482969E+00  0.20080049288E-01 0.  0.
         14    1    1    2    0    0 -0.11003278118E-01 -0.22867415118E-01 -0.23107867179E-01  0.34321484949E-01  0.00000000000E+00 0. -1.
     999901    1    3    3    0    0 -0.10330575933E+00 -0.15353832845E-02  0.51912024216E-01  0.88756368536E+00  0.88000000000E+00 0.  1.
        -11    1    4    4    0    0  0.41886677306E-01 -0.55216125518E-03 -0.77867365303E-02  0.42610949351E-01  0.51100000000E-03 0.  1.
         11    1    4    4    0    0  0.72422360142E-01  0.24954959658E-01 -0.21017420507E-01  0.79433880340E-01  0.51100000000E-03 0. -1.
</event>
<event>
 8    1  0.1202249E+005  0.1043930E+01  0.7957747E-01            NaN
         13   -1    0    0    0    0  0.00000000000E+00  0.00000000000E+00  0.74505805969E-08  0.10566000000E+00  0.10566000000E+00 0. -1.
     999900   -1    0    0    0    0 -0.00000000000E+00 -0.00000000000E+00 -0.74505805969E-08  0.93827000000E+00  0.93827000000E+00 0. -1.
     999902    2    1    2    0    0 -0.11597463479E-01  0.41267957537E-02 -0.18546605301E-01  0.10216699872E+01  0.10214274593E+01 0.  0.
     999903    2    3    3    0    0 -0.20705537648E-01 -0.11673228362E+00  0.51176477074E-01  0.13063060405E+00  0.19752913235E-01 0.  0.
         14    1    1    2    0    0  0.11597463479E-01 -0.41267957537E-02  0.18546605301E-01  0.22260012816E-01  0.00000000000E+00 0. -1.
     999901    1    3    3    0    0  0.91080741681E-02  0.12085907937E+00 -0.69723082375E-01  0.89103938313E+00  0.88000000000E+00 0. -1.
        -11    1    4    4    0    0 -0.16819972041E-01 -0.43883625859E-01  0.24061821897E-01  0.52800724162E-01  0.51100000000E-03 0.  1.
         11    1    4    4    0    0 -0.38855656070E-02 -0.72848657756E-01  0.27114655177E-01  0.77829879888E-01  0.51100000000E-03 0. -1.
</event>
<event>
 8    1  0.1202249E+005  0.1043930E+01  0.7957747E-01            NaN
         13   -1    0    0    0    0  0.00000000000E+00  0.00000000000E+00  0.74505805969E-08  0.10566000000E+00  0.10566000000E+00 0.  1.
     999900   -1    0    0    0    0 -0.00000000000E+00 -0.00000000000E+00 -0.74505805969E-08  0.93827000000E+00  0.93827000000E+00 0. -1.
     999902    2    1    2    0    0  0.55369681843E-02  0.62653725040E-02  0.22681419274E-01  0.10197564672E+01  0.10194699077E+01 0.  0.
     999903    2    3    3    0    0  0.18678857012E-02  0.12835868161E+00  0.19028159934E-01  0.13131199248E+00  0.20033181417E-01 0.  0.
         14    1    1    2    0    0 -0.55369681843E-02 -0.62653725040E-02 -0.22681419274E-01  0.24173532832E-01  0.00000000000E+00 0. -1.
     999901    1    3    3    0    0  0.36690824832E-02 -0.12209330911E+00  0.36532593404E-02  0.88844447469E+00  0.88000000000E+00 0.  1.
        -11    1    4    4    0    0  0.10476329328E-01  0.70626663474E-01  0.13628231085E-01  0.72690225431E-01  0.51100000000E-03 0.  1.
         11    1    4    4    0    0 -0.86084436270E-02  0.57732018136E-01  0.53999288491E-02  0.58621767052E-01  0.51100000000E-03 0. -1.
</event>
<event>
 8    1  0.1202249E+005  0.1043930E+01  0.7957747E-01            NaN
         13   -1    0    0    0    0  0.00000000000E+00  0.00000000000E+00  0.74505805969E-08  0.10566000000E+00  0.10566000000E+00 0.  1.
     999900   -1    0    0    0    0 -0.00000000000E+00 -0.00000000000E+00 -0.74505805969E-08  0.93827000000E+00  0.93827000000E+00 0. -1.
     999902    2    1    2    0    0 -0.16257325360E-01  0.16325257808E-01 -0.10814284413E-02  0.10208652182E+01  0.10206046294E+01 0.  0.
     999903    2    3    3    0    0  0.85045163615E-01 -0.71132762205E-01 -0.62118700774E-01  0.12865635919E+00  0.20029379973E-01 0.  0.
         14    1    1    2    0    0  0.16257325360E-01 -0.16325257808E-01  0.10814284413E-02  0.23064781764E-01  0.00000000000E+00 0.  1.
     999901    1    3    3    0    0 -0.10130248898E+00  0.87458020013E-01  0.61037272333E-01  0.89220885904E+00  0.88000000000E+00 0. -1.
        -11    1    4    4    0    0  0.28013416258E-01 -0.19126323794E-01 -0.29139946295E-01  0.44720972075E-01  0.51100000000E-03 0.  1.
         11    1    4    4    0    0  0.57031747358E-01 -0.52006438412E-01 -0.32978754479E-01  0.83935387120E-01  0.51100000000E-03 0. -1.
</event>
<event>
 8    1  0.1202249E+005  0.1043930E+01  0.7957747E-01            NaN
         13   -1    0    0    0    0  0.00000000000E+00  0.00000000000E+00  0.74505805969E-08  0.10566000000E+00  0.10566000000E+00 0.  1.
     999900   -1    0    0    0    0 -0.00000000000E+00 -0.00000000000E+00 -0.74505805969E-08  0.93827000000E+00  0.93827000000E+00 0.  1.
     999902    2    1    2    0    0  0.51646261386E-02 -0.22501885934E-01  0.47791127625E-02  0.10203535679E+01  0.10200811513E+01 0.  0.
     999903    2    3    3    0    0  0.36003345894E-01  0.99378597754E-03  0.12477634910E+00  0.13136402351E+00  0.19751983465E-01 0.  0.
         14    1    1    2    0    0 -0.51646261386E-02  0.22501885934E-01 -0.47791127625E-02  0.23576432142E-01  0.00000000000E+00 0. -1.
     999901    1    3    3    0    0 -0.30838719756E-01 -0.23495671911E-01 -0.11999723634E+00  0.88898954435E+00  0.88000000000E+00 0.  1.
        -11    1    4    4    0    0  0.23245942791E-01 -0.35563491171E-03  0.45952049431E-01  0.51500993197E-01  0.51100000000E-03 0.  1.
         11    1    4    4    0    0  0.12757403103E-01  0.13494208893E-02  0.78824299672E-01  0.79863030311E-01  0.51100000000E-03 0. -1.
</event>
<event>
 8    1  0.1202249E+005  0.1043930E+01  0.7957747E-01            NaN
         13   -1    0    0    0    0  0.00000000000E+00  0.00000000000E+00  0.74505805969E-08  0.10566000000E+00  0.10566000000E+00 0.  1.
     999900   -1    0    0    0    0 -0.00000000000E+00 -0.00000000000E+00 -0.74505805969E-08  0.93827000000E+00  0.93827000000E+00 0. -1.
     999902    2    1    2    0    0 -0.93128753447E-03 -0.21282705113E-01 -0.11601605145E-01  0.10196726697E+01  0.10193840960E+01 0.  0.
     999903    2    3    3    0    0 -0.99175127492E-01 -0.38943224280E-01 -0.74579512783E-01  0.13179319423E+00  0.21332174977E-01 0.  0.
         14    1    1    2    0    0  0.93128753447E-03  0.21282705113E-01  0.11601605145E-01  0.24257330342E-01  0.00000000000E+00 0.  1.
     999901    1    3    3    0    0  0.98243839957E-01  0.17660519167E-01  0.62977907639E-01  0.88787947542E+00  0.88000000000E+00 0.  1.
        -11    1    4    4    0    0 -0.59400853599E-01 -0.29047666581E-01 -0.35013764917E-01  0.74822812008E-01  0.51100000000E-03 0.  1.
         11    1    4    4    0    0 -0.39774273893E-01 -0.98955576993E-02 -0.39565747866E-01  0.56970382227E-01  0.51100000000E-03 0. -1.
</event>
<event>
 8    1  0.1202249E+005  0.1043930E+01  0.7957747E-01            NaN
         13   -1    0    0    0    0  0.00000000000E+00  0.00000000000E+00  0.74505805969E-08  0.10566000000E+00  0.10566000000E+00 0.  1.
     999900   -1    0    0    0    0 -0.00000000000E+00 -0.00000000000E+00 -0.74505805969E-08  0.93827000000E+00  0.93827000000E+00 0.  1.
     999902    2    1    2    0    0  0.16197024452E-01 -0.16941235046E-01 -0.35082712264E-02  0.10202306959E+01  0.10199553990E+01 0.  0.
     999903    2    3    3    0    0 -0.99243027384E-01 -0.72177723619E-01  0.39188851411E-01  0.12994954960E+00  0.17097283302E-01 0.  0.
         14    1    1    2    0    0 -0.16197024452E-01  0.16941235046E-01  0.35082712264E-02  0.23699304061E-01  0.00000000000E+00 0.  1.
     999901    1    3    3    0    0  0.11544005184E+00  0.55236488573E-01 -0.42697122638E-01  0.89028114633E+00  0.88000000000E+00 0.  1.
        -11    1    4    4    0    0 -0.94290975040E-01 -0.72168153768E-01  0.36169122918E-01  0.12412693892E+00  0.51100000000E-03 0.  1.
         11    1    4    4    0    0 -0.49520523432E-02 -0.95698511214E-05  0.30197284929E-02  0.58226106828E-02  0.51100000000E-03 0. -1.
</event>
<event>
 8    1  0.1202249E+005  0.1043930E+01  0.7957747E-01            NaN
         13   -1    0    0    0    0  0.00000000000E+00  0.00000000000E+00  0.74505805969E-08  0.10566000000E+00  0.10566000000E+00 0.  1.
     999900   -1    0    0    0    0 -0.00000000000E+00 -0.00000000000E+00 -0.74505805969E-08  0.93827000000E+00  0.93827000000E+00 0.  1.
     999902    2    1    2    0    0  0.22749319328E-02 -0.18847851712E-01 -0.11975093098E-01  0.10214840720E+01  0.10212374306E+01 0.  0.
     999903    2    3    3    0    0  0.23139737014E-01 -0.83714753346E-01 -0.10117693366E+00  0.13435385417E+00  0.16449281661E-01 0.  0.
         14    1    1    2    0    0 -0.22749319328E-02  0.18847851712E-01  0.11975093098E-01  0.22445928008E-01  0.00000000000E+00 0.  1.
     999901    1    3    3    0    0 -0.20864805081E-01  0.64866901635E-01  0.89201840565E-01  0.88713021783E+00  0.88000000000E+00 0. -1.
        -11    1    4    4    0    0  0.13697054740E-01 -0.48739785209E-01 -0.46381255174E-01  0.68663366676E-01  0.51100000000E-03 0.  1.
         11    1    4    4    0    0  0.94426822743E-02 -0.34974968138E-01 -0.54795678489E-01  0.65690487491E-01  0.51100000000E-03 0. -1.
</event>
<event>
 8    1  0.1202249E+005  0.1043930E+01  0.7957747E-01            NaN
         13   -1    0    0    0    0  0.00000000000E+00  0.00000000000E+00  0.74505805969E-08  0.10566000000E+00  0.10566000000E+00 0. -1.
     999900   -1    0    0    0    0 -0.00000000000E+00 -0.00000000000E+00 -0.74505805969E-08  0.93827000000E+00  0.93827000000E+00 0. -1.
     999902    2    1    2    0    0  0.13030113156E-01  0.97987049253E-02  0.16950479712E-01  0.10204115555E+01  0.10201404930E+01 0.  0.
     999903    2    3    3    0    0  0.11181160590E+00  0.60822172662E-01  0.34160136592E-01  0.13324902824E+00  0.19677822383E-01 0.  0.
         14    1    1    2    0    0 -0.13030113156E-01 -0.97987049253E-02 -0.16950479712E-01  0.23518444454E-01  0.00000000000E+00 0. -1.
     999901    1    3    3    0    0 -0.98781492742E-01 -0.51023467737E-01 -0.17209656881E-01  0.88716252731E+00  0.88000000000E+00 0. -1.
        -11    1    4    4    0    0  0.56732385462E-01  0.20989183373E-01  0.20832873466E-01  0.63979521073E-01  0.51100000000E-03 0.  1.
         11    1    4    4    0    0  0.55079220436E-01  0.39832989289E-01  0.13327263126E-01  0.69269507166E-01  0.51100000000E-03 0. -1.
</event>
<event>
 8    1  0.1202249E+005  0.1043930E+01  0.7957747E-01            NaN
         13   -1    0    0    0    0  0.00000000000E+00  0.00000000000E+00  0.74505805969E-08  0.10566000000E+00  0.10566000000E+00 0.  1.
     999900   -1    0    0    0    0 -0.00000000000E+00 -0.00000000000E+00 -0.74505805969E-08  0.93827000000E+00  0.93827000000E+00 0. -1.
     999902    2    1    2    0    0 -0.14068578813E-02  0.19091079855E-01 -0.84822500680E-02  0.10229920644E+01  0.10227777700E+01 0.  0.
     999903    2    3    3    0    0 -0.92927791605E-01 -0.78340386407E-01 -0.47460780464E-01  0.13204408742E+00  0.20256474174E-01 0.  0.
         14    1    1    2    0    0  0.14068578813E-02 -0.19091079855E-01  0.84822500680E-02  0.20937935556E-01  0.00000000000E+00 0. -1.
     999901    1    3    3    0    0  0.91520933724E-01  0.97431466262E-01  0.38978530396E-01  0.89094797702E+00  0.88000000000E+00 0. -1.
        -11    1    4    4    0    0 -0.78256794047E-01 -0.73690209835E-01 -0.44619799942E-01  0.11638539645E+00  0.51100000000E-03 0. -1.
         11    1    4    4    0    0 -0.14670997558E-01 -0.46501765726E-02 -0.28409805215E-02  0.15658690968E-01  0.51100000000E-03 0.  1.
</event>
<event>
 8    1  0.1202249E+005  0.1043930E+01  0.7957747E-01            NaN
         13   -1    0    0    0    0  0.00000000000E+00  0.00000000000E+00  0.74505805969E-08  0.10566000000E+00  0.10566000000E+00 0. -1.
     999900   -1    0    0    0    0 -0.00000000000E+00 -0.00000000000E+00 -0.74505805969E-08  0.93827000000E+00  0.93827000000E+00 0. -1.
     999902    2    1    2    0    0  0.47071753645E-02  0.70796547879E-02 -0.27387896433E-01  0.10152529032E+01  0.10148478120E+01 0.  0.
     999903    2    3    3    0    0  0.47236128247E-01 -0.81009486091E-03  0.11217940849E+00  0.12320470235E+00  0.19059667538E-01 0.  0.
         14    1    1    2    0    0 -0.47071753645E-02 -0.70796547879E-02  0.27387896433E-01  0.28677096834E-01  0.00000000000E+00 0. -1.
     999901    1    3    3    0    0 -0.42528952882E-01  0.78897496488E-02 -0.13956730492E+00  0.89204820082E+00  0.88000000000E+00 0. -1.
        -11    1    4    4    0    0  0.19220247020E-01 -0.12299075534E-02  0.69704536705E-01  0.72318145208E-01  0.51100000000E-03 0. -1.
         11    1    4    4    0    0  0.28015881227E-01  0.41981269246E-03  0.42474871781E-01  0.50886557138E-01  0.51100000000E-03 0.  1.
</event>
<event>
 8    1  0.1202249E+005  0.1043930E+01  0.7957747E-01            NaN
         13   -1    0    0    0    0  0.00000000000E+00  0.00000000000E+00  0.74505805969E-08  0.10566000000E+00  0.10566000000E+00 0. -1.
     999900   -1    0    0    0    0 -0.00000000000E+00 -0.00000000000E+00 -0.74505805969E-08  0.93827000000E+00  0.93827000000E+00 0.  1.
     999902    2    1    2    0    0 -0.25480371262E-02  0.12922255157E-01  0.18409757969E-01  0.10212938263E+01  0.10210429390E+01 0.  0.
     999903    2    3    3    0    0 -0.97274505086E-01 -0.37588684281E-01 -0.74605615885E-01  0.12990372173E+00  0.20826436885E-01 0.  0.
         14    1    1    2    0    0  0.25480371262E-02 -0.12922255157E-01 -0.18409757969E-01  0.22636173705E-01  0.00000000000E+00 0.  1.
     999901    1    3    3    0    0  0.94726467959E-01  0.50510939437E-01  0.93015373854E-01  0.89139010456E+00  0.88000000000E+00 0. -1.
        -11    1    4    4    0    0 -0.49068479802E-01 -0.78496671285E-02 -0.34229057826E-01  0.60342543075E-01  0.51100000000E-03 0.  1.
         11    1    4    4    0    0 -0.48206025283E-01 -0.29739017152E-01 -0.40376558059E-01  0.69561178659E-01  0.51100000000E-03 0. -1.
</event>
<event>
 8    1  0.1202249E+005  0.1043930E+01  0.7957747E-01            NaN
         13   -1    0    0    0    0  0.00000000000E+00  0.00000000000E+00  0.74505805969E-08  0.10566000000E+00  0.10566000000E+00 0. -1.
     999900   -1    0    0    0    0 -0.00000000000E+00 -0.00000000000E+00 -0.74505805969E-08  0.93827000000E+00  0.93827000000E+00 0.  1.
     999902    2    1    2    0    0  0.65626988153E-02 -0.47939259409E-02 -0.22018774641E-01  0.10204592271E+01  0.10201892751E+01 0.  0.
     999903    2    3    3    0    0 -0.94350958974E-01  0.55931890611E-01 -0.69225297085E-01  0.13135875651E+00  0.20796665805E-01 0.  0.
         14    1    1    2    0    0 -0.65626988153E-02  0.47939259409E-02  0.22018774641E-01  0.23470772854E-01  0.00000000000E+00 0. -1.
     999901    1    3    3    0    0  0.10091365779E+00 -0.60725816552E-01  0.47206522443E-01  0.88910047064E+00  0.88000000000E+00 0. -1.
        -11    1    4    4    0    0 -0.71425473725E-01  0.50328935498E-01 -0.48441069232E-01  0.99906948479E-01  0.51100000000E-03 0. -1.
         11    1    4    4    0    0 -0.22925485250E-01  0.56029551131E-02 -0.20784227853E-01  0.31451808030E-01  0.51100000000E-03 0.  1.
</event>
<event>
 8    1  0.1202249E+005  0.1043930E+01  0.7957747E-01            NaN
         13   -1    0    0    0    0  0.00000000000E+00  0.00000000000E+00  0.74505805969E-08  0.10566000000E+00  0.10566000000E+00 0. -1.
     999900   -1    0    0    0    0 -0.00000000000E+00 -0.00000000000E+00 -0.74505805969E-08  0.93827000000E+00  0.93827000000E+00 0.  1.
     999902    2    1    2    0    0 -0.22548939253E-01 -0.40453711776E-02 -0.25469464145E-02  0.10208799105E+01  0.10206196574E+01 0.  0.
     999903    2    3    3    0    0  0.39283604338E-01 -0.12191128129E+00  0.16006473712E-01  0.13067776178E+00  0.20369294218E-01 0.  0.
         14    1    1    2    0    0  0.22548939253E-01  0.40453711776E-02  0.25469464145E-02  0.23050089488E-01  0.00000000000E+00 0.  1.
     999901    1    3    3    0    0 -0.61832543591E-01  0.11786591011E+00 -0.18553420127E-01  0.89020214873E+00  0.88000000000E+00 0. -1.
        -11    1    4    4    0    0  0.17531120881E-01 -0.34493215543E-01 -0.22493595202E-02  0.38761357782E-01  0.51100000000E-03 0.  1.
         11    1    4    4    0    0  0.21752483457E-01 -0.87418065746E-01  0.18255833232E-01  0.91916403995E-01  0.51100000000E-03 0. -1.
</event>
<event>
 7    1  0.1202249E+005  0.1043930E+01  0.7957747E-01            NaN
         13   -1    0    0    0    0  0.00000000000E+00  0.00000000000E+00  0.74505805969E-08  0.10566000000E+00  0.10566000000E+00 0.  1.
     999900   -1    0    0    0    0 -0.00000000000E+00 -0.00000000000E+00 -0.74505805969E-08  0.93827000000E+00  0.93827000000E+00 0. -1.
     999902    2    1    2    0    0 -0.10618874173E-01  0.25560947142E-02 -0.21431772434E-01  0.10198755830E+01  0.10195918741E+01 0.  0.
         14    1    1    2    0    0  0.10618874173E-01 -0.25560947142E-02  0.21431772434E-01  0.24054417028E-01  0.00000000000E+00 0.  1.
     999901    1    3    3    0    0  0.46785844525E-01 -0.99410588167E-01 -0.54291709723E-01  0.88849252672E+00  0.88000000000E+00 0. -1.
        -11    1    3    3    0    0 -0.10913915288E-01  0.69431521099E-01  0.21599082145E-01  0.73529797630E-01  0.51100000000E-03 0.  1.
         11    1    3    3    0    0 -0.46490803410E-01  0.32535161783E-01  0.11260855144E-01  0.57853258625E-01  0.51100000000E-03 0. -1.
</event>
<event>
 8    1  0.1202249E+005  0.1043930E+01  0.7957747E-01            NaN
         13   -1    0    0    0    0  0.00000000000E+00  0.00000000000E+00  0.74505805969E-08  0.10566000000E+00  0.10566000000E+00 0.  1.
     999900   -1    0    0    0    0 -0.00000000000E+00 -0.00000000000E+00 -0.74505805969E-08  0.93827000000E+00  0.93827000000E+00 0. -1.
     999902    2    1    2    0    0  0.13129864319E-01 -0.10471303313E-02  0.19410849236E-01  0.10204721466E+01  0.10202024951E+01 0.  0.
     999903    2    3    3    0    0 -0.34824986595E-01  0.10586746846E-01  0.12596537108E+00  0.13267212352E+00  0.20242498570E-01 0.  0.
         14    1    1    2    0    0 -0.13129864319E-01  0.10471303313E-02 -0.19410849236E-01  0.23457853419E-01  0.00000000000E+00 0. -1.
     999901    1    3    3    0    0  0.47954850914E-01 -0.11633877177E-01 -0.10655452184E+00  0.88780002306E+00  0.88000000000E+00 0. -1.
        -11    1    4    4    0    0 -0.12358960856E-01  0.12969822104E-02  0.77036888565E-01  0.78034411621E-01  0.51100000000E-03 0. -1.
         11    1    4    4    0    0 -0.22466025739E-01  0.92897646357E-02  0.48928482512E-01  0.54637711898E-01  0.51100000000E-03 0.  1.
</event>
<event>
 8    1  0.1202249E+005  0.1043930E+01  0.7957747E-01            NaN
         13   -1    0    0    0    0  0.00000000000E+00  0.00000000000E+00  0.74505805969E-08  0.10566000000E+00  0.10566000000E+00 0. -1.
     999900   -1    0    0    0    0 -0.00000000000E+00 -0.00000000000E+00 -0.74505805969E-08  0.93827000000E+00  0.93827000000E+00 0.  1.
     999902    2    1    2    0    0 -0.17465839652E-01  0.15326465840E-01  0.79829138996E-02  0.10193600382E+01  0.10190638863E+01 0.  0.
     999903    2    3    3    0    0  0.37817017792E-01  0.10556809905E+00 -0.62939752095E-01  0.13018639301E+00  0.20306012904E-01 0.  0.
         14    1    1    2    0    0  0.17465839652E-01 -0.15326465840E-01 -0.79829138996E-02  0.24569961828E-01  0.00000000000E+00 0.  1.
     999901    1    3    3    0    0 -0.55282857444E-01 -0.90241633211E-01  0.70922665995E-01  0.88917364516E+00  0.88000000000E+00 0. -1.
        -11    1    4    4    0    0  0.31998742046E-02  0.40786402206E-02 -0.83930466219E-02  0.98782009279E-02  0.51100000000E-03 0.  1.
         11    1    4    4    0    0  0.34617143588E-01  0.10148945883E+00 -0.54546705473E-01  0.12030819209E+00  0.51100000000E-03 0. -1.
</event>
<event>
 8    1  0.1202249E+005  0.1043930E+01  0.7957747E-01            NaN
         13   -1    0    0    0    0  0.00000000000E+00  0.00000000000E+00  0.74505805969E-08  0.10566000000E+00  0.10566000000E+00 0. -1.
     999900   -1    0    0    0    0 -0.00000000000E+00 -0.00000000000E+00 -0.74505805969E-08  0.93827000000E+00  0.93827000000E+00 0. -1.
     999902    2    1    2    0    0 -0.17089518435E-01  0.15178931091E-01  0.78667907488E-02  0.10197569161E+01  0.10194703674E+01 0.  0.
     999903    2    3    3    0    0  0.75572789256E-01 -0.94214221991E-01 -0.34651229862E-01  0.12714224710E+00  0.19413324423E-01 0.  0.
         14    1    1    2    0    0  0.17089518435E-01 -0.15178931091E-01 -0.78667907488E-02  0.24173083917E-01  0.00000000000E+00 0.  1.
     999901    1    3    3    0    0 -0.92662307691E-01  0.10939315308E+00  0.42518020611E-01  0.89261466898E+00  0.88000000000E+00 0.  1.
        -11    1    4    4    0    0  0.45365785462E-01 -0.49243563094E-01 -0.10299646201E-01  0.67744570481E-01  0.51100000000E-03 0. -1.
         11    1    4    4    0    0  0.30207003794E-01 -0.44970658896E-01 -0.24351583661E-01  0.59397676618E-01  0.51100000000E-03 0.  1.
</event>
<event>
 8    1  0.1202249E+005  0.1043930E+01  0.7957747E-01            NaN
         13   -1    0    0    0    0  0.00000000000E+00  0.00000000000E+00  0.74505805969E-08  0.10566000000E+00  0.10566000000E+00 0.  1.
     999900   -1    0    0    0    0 -0.00000000000E+00 -0.00000000000E+00 -0.74505805969E-08  0.93827000000E+00  0.93827000000E+00 0. -1.
     999902    2    1    2    0    0 -0.12215344608E-01  0.17423986991E-01  0.89177663641E-02  0.10208575809E+01  0.10205968175E+01 0.  0.
     999903    2    3    3    0    0 -0.10070306718E+00  0.85600892952E-01  0.78543863712E-02  0.13379540814E+00  0.19258744533E-01 0.  0.
         14    1    1    2    0    0  0.12215344608E-01 -0.17423986991E-01 -0.89177663641E-02  0.23072419108E-01  0.00000000000E+00 0.  1.
     999901    1    3    3    0    0  0.88487722569E-01 -0.68176905961E-01  0.10633799929E-02  0.88706217275E+00  0.88000000000E+00 0. -1.
        -11    1    4    4    0    0 -0.32496805133E-01  0.32584413138E-01 -0.56110265615E-02  0.46363035529E-01  0.51100000000E-03 0. -1.
         11    1    4    4    0    0 -0.68206262044E-01  0.53016479814E-01  0.13465412933E-01  0.87432372611E-01  0.51100000000E-03 0.  1.
</event>
<event>
 8    1  0.1202249E+005  0.1043930E+01  0.7957747E-01            NaN
         13   -1    0    0    0    0  0.00000000000E+00  0.00000000000E+00  0.74505805969E-08  0.10566000000E+00  0.10566000000E+00 0.  1.
     999900   -1    0    0    0    0 -0.00000000000E+00 -0.00000000000E+00 -0.74505805969E-08  0.93827000000E+00  0.93827000000E+00 0.  1.
     999902    2    1    2    0    0  0.11768404129E-01 -0.17091333011E-01 -0.11341946701E-01  0.10202815591E+01  0.10200074564E+01 0.  0.
     999903    2    3    3    0    0 -0.10813178576E+00 -0.23055555343E-01  0.63805972695E-01  0.12895735479E+00  0.18296324184E-01 0.  0.
         14    1    1    2    0    0 -0.11768404129E-01  0.17091333011E-01  0.11341946701E-01  0.23648440854E-01  0.00000000000E+00 0.  1.
     999901    1    3    3    0    0  0.11990018989E+00  0.59642223317E-02 -0.75147919396E-01  0.89132420436E+00  0.88000000000E+00 0.  1.
        -11    1    4    4    0    0 -0.72171462464E-01 -0.22930189806E-01  0.38267194158E-01  0.84847821825E-01  0.51100000000E-03 0.  1.
         11    1    4    4    0    0 -0.35960323297E-01 -0.12536553651E-03  0.25538778537E-01  0.44109532964E-01  0.51100000000E-03 0. -1.
</event>
<event>
 8    1  0.1202249E+005  0.1043930E+01  0.7957747E-01            NaN
         13   -1    0    0    0    0  0.00000000000E+00  0.00000000000E+00  0.74505805969E-08  0.10566000000E+00  0.10566000000E+00 0.  1.
     999900   -1    0    0    0    0 -0.00000000000E+00 -0.00000000000E+00 -0.74505805969E-08  0.93827000000E+00  0.93827000000E+00 0.  1.
     999902    2    1    2    0    0  0.85565809725E-03  0.18448371976E-01 -0.16334773260E-01  0.10192743841E+01  0.10189761384E+01 0.  0.
     999903    2    3    3    0    0 -0.88853765953E-01  0.68120891492E-02 -0.94214983995E-01  0.13121553970E+00  0.19991457350E-01 0.  0.
         14    1    1    2    0    0 -0.85565809725E-03 -0.18448371976E-01  0.16334773260E-01  0.24655615929E-01  0.00000000000E+00 0.  1.
     999901    1    3    3    0    0  0.89709424051E-01  0.11636282827E-01  0.77880210734E-01  0.88805884437E+00  0.88000000000E+00 0. -1.
        -11    1    4    4    0    0 -0.75565732695E-02  0.59178901275E-02 -0.64309243227E-02  0.11564650093E-01  0.51100000000E-03 0.  1.
         11    1    4    4    0    0 -0.81297192684E-01  0.89419902174E-03 -0.87784059672E-01  0.11965088961E+00  0.51100000000E-03 0. -1.
</event>
<event>
 8    1  0.1202249E+005  0.1043930E+01  0.7957747E-01            NaN
         13   -1    0    0    0    0  0.00000000000E+00  0.00000000000E+00  0.74505805969E-08  0.10566000000E+00  0.10566000000E+00 0. -1.
     999900   -1    0    0    0    0 -0.00000000000E+00 -0.00000000000E+00 -0.74505805969E-08  0.93827000000E+00  0.93827000000E+00 0. -1.
     999902    2    1    2    0    0  0.47921593556E-02  0.12165405677E-01  0.20069486957E-01  0.10199770003E+01  0.10196957071E+01 0.  0.
     999903    2    3    3    0    0 -0.10579125025E+00  0.61551198194E-01 -0.38424374044E-01  0.12975838743E+00  0.19505587861E-01 0.  0.
         14    1    1    2    0    0 -0.47921593556E-02 -0.12165405677E-01 -0.20069486957E-01  0.23952999672E-01  0.00000000000E+00 0. -1.
     999901    1    3    3    0    0  0.11058340961E+00 -0.49385792517E-01  0.58493861001E-01  0.89021861290E+00  0.88000000000E+00 0.  1.
        -11    1    4    4    0    0 -0.68341046301E-01  0.49524995269E-01 -0.22746756515E-01  0.87412240670E-01  0.51100000000E-03 0. -1.
         11    1    4    4    0    0 -0.37450203950E-01  0.12026202925E-01 -0.15677617529E-01  0.42346146756E-01  0.51100000000E-03 0.  1.
</event>
<event>
 8    1  0.1202249E+005  0.1043930E+01  0.7957747E-01            NaN
         13   -1    0    0    0    0  0.00000000000E+00  0.00000000000E+00  0.74505805969E-08  0.10566000000E+00  0.10566000000E+00 0.  1.
     999900   -1    0    0    0    0 -0.00000000000E+00 -0.00000000000E+00 -0.74505805969E-08  0.93827000000E+00  0.93827000000E+00 0.  1.
     999902    2    1    2    0    0  0.19826627387E-01  0.51464600058E-02 -0.11853497765E-01  0.10202638509E+01  0.10199893327E+01 0.  0.
     999903    2    3    3    0    0  0.15575253017E-01  0.46483455706E-01  0.11854608364E+00  0.12968489750E+00  0.19018373529E-01 0.  0.
         14    1    1    2    0    0 -0.19826627387E-01 -0.51464600058E-02  0.11853497765E-01  0.23666149104E-01  0.00000000000E+00 0.  1.
     999901    1    3    3    0    0  0.42513743703E-02 -0.41336995700E-01 -0.13039958141E+00  0.89057895339E+00  0.88000000000E+00 0.  1.
        -11    1    4    4    0    0  0.12039186557E-01  0.19846932393E-01  0.35678611135E-01  0.42568382069E-01  0.51100000000E-03 0.  1.
         11    1    4    4    0    0  0.35360664597E-02  0.26636523313E-01  0.82867472509E-01  0.87116515433E-01  0.51100000000E-03 0. -1.
</event>
<event>
 8    1  0.1202249E+005  0.1043930E+01  0.7957747E-01            NaN
         13   -1    0    0    0    0  0.00000000000E+00  0.00000000000E+00  0.74505805969E-08  0.10566000000E+00  0.10566000000E+00 0.  1.
     999900   -1    0    0    0    0 -0.00000000000E+00 -0.00000000000E+00 -0.74505805969E-08  0.93827000000E+00  0.93827000000E+00 0. -1.
     999902    2    1    2    0    0  0.19795221965E-01  0.70266214581E-02 -0.10694384964E-01  0.10203589565E+01  0.10200866659E+01 0.  0.
     999903    2    3    3    0    0  0.72566997239E-01  0.47147432815E-01 -0.99582734645E-01  0.13340028865E+00  0.19750100336E-01 0.  0.
         14    1    1    2    0    0 -0.19795221965E-01 -0.70266214581E-02  0.10694384964E-01  0.23571043497E-01  0.00000000000E+00 0.  1.
     999901    1    3    3    0    0 -0.52771775274E-01 -0.40120811357E-01  0.88888349681E-01  0.88695866785E+00  0.88000000000E+00 0.  1.
        -11    1    4    4    0    0  0.26083226143E-01  0.13309271979E-01 -0.47596212598E-01  0.55884988873E-01  0.51100000000E-03 0. -1.
         11    1    4    4    0    0  0.46483771097E-01  0.33838160836E-01 -0.51986522047E-01  0.77515299778E-01  0.51100000000E-03 0.  1.
</event>
<event>
 8    1  0.1202249E+005  0.1043930E+01  0.7957747E-01            NaN
         13   -1    0    0    0    0  0.00000000000E+00  0.00000000000E+00  0.74505805969E-08  0.10566000000E+00  0.10566000000E+00 0.  1.
     999900   -1    0    0    0    0 -0.00000000000E+00 -0.00000000000E+00 -0.74505805969E-08  0.93827000000E+00  0.93827000000E+00 0.  1.
     999902    2    1    2    0    0  0.13751636802E-01  0.18886423477E-01  0.71085833278E-03  0.10205567284E+01  0.10202890404E+01 0.  0.
     999903    2    3    3    0    0 -0.43063540318E-01  0.11565058460E+00 -0.43178016151E-01  0.13234644893E+00  0.20535706479E-01 0.  0.
         14    1    1    2    0    0 -0.13751636802E-01 -0.18886423477E-01 -0.71085833278E-03  0.23373271617E-01  0.00000000000E+00 0. -1.
     999901    1    3    3    0    0  0.56815177120E-01 -0.96764161128E-01  0.43888874484E-01  0.88821027946E+00  0.88000000000E+00 0. -1.
        -11    1    4    4    0    0 -0.26928080425E-01  0.43666755789E-01 -0.19100069962E-01  0.54744688053E-01  0.51100000000E-03 0. -1.
         11    1    4    4    0    0 -0.16135459893E-01  0.71983828816E-01 -0.24077946188E-01  0.77601760873E-01  0.51100000000E-03 0.  1.
</event>
<event>
 8    1  0.1202249E+005  0.1043930E+01  0.7957747E-01            NaN
         13   -1    0    0    0    0  0.00000000000E+00  0.00000000000E+00  0.74505805969E-08  0.10566000000E+00  0.10566000000E+00 0.  1.
     999900   -1    0    0    0    0 -0.00000000000E+00 -0.00000000000E+00 -0.74505805969E-08  0.93827000000E+00  0.93827000000E+00 0.  1.
     999902    2    1    2    0    0  0.35323493056E-02  0.16418251524E-01 -0.17013234849E-01  0.10200242134E+01  0.10197440410E+01 0.  0.
     999903    2    3    3    0    0  0.64847153339E-01  0.91571722466E-01 -0.68291783186E-01  0.13321135886E+00  0.22157726140E-01 0.  0.
         14    1    1    2    0    0 -0.35323493056E-02 -0.16418251524E-01  0.17013234849E-01  0.23905786637E-01  0.00000000000E+00 0.  1.
     999901    1    3    3    0    0 -0.61314804033E-01 -0.75153470942E-01  0.51278548336E-01  0.88681285450E+00  0.88000000000E+00 0. -1.
        -11    1    4    4    0    0  0.39220146217E-01  0.60046645026E-01 -0.55262361432E-01  0.90542858140E-01  0.51100000000E-03 0. -1.
         11    1    4    4    0    0  0.25627007122E-01  0.31525077440E-01 -0.13029421753E-01  0.42668500722E-01  0.51100000000E-03 0.  1.
</event>
<event>
 8    1  0.1202249E+005  0.1043930E+01  0.7957747E-01            NaN
         13   -1    0    0    0    0  0.00000000000E+00  0.00000000000E+00  0.74505805969E-08  0.10566000000E+00  0.10566000000E+00 0.  1.
     999900   -1    0    0    0    0 -0.00000000000E+00 -0.00000000000E+00 -0.74505805969E-08  0.93827000000E+00  0.93827000000E+00 0. -1.
     999902    2    1    2    0    0 -0.23744242275E-01  0.12560240279E-02  0.30433944117E-02  0.10199585819E+01  0.10196768507E+01 0.  0.
     999903    2    3    3    0    0  0.48794223619E-01 -0.11566830390E+00 -0.20928705477E-01  0.12894354885E+00  0.20697712218E-01 0.  0.
         14    1    1    2    0    0  0.23744242275E-01 -0.12560240279E-02 -0.30433944117E-02  0.23971418129E-01  0.00000000000E+00 0. -1.
     999901    1    3    3    0    0 -0.72538465895E-01  0.11692432793E+00  0.23972099889E-01  0.89101503302E+00  0.88000000000E+00 0. -1.
        -11    1    4    4    0    0  0.22600195692E-01 -0.58663957847E-01 -0.19358409603E-03  0.62869129081E-01  0.51100000000E-03 0. -1.
         11    1    4    4    0    0  0.26194027927E-01 -0.57004346054E-01 -0.20735121381E-01  0.66074419769E-01  0.51100000000E-03 0.  1.
</event>
<event>
 8    1  0.1202249E+005  0.1043930E+01  0.7957747E-01            NaN
         13   -1    0    0    0    0  0.00000000000E+00  0.00000000000E+00  0.74505805969E-08  0.10566000000E+00  0.10566000000E+00 0. -1.
     999900   -1    0    0    0    0 -0.00000000000E+00 -0.00000000000E+00 -0.74505805969E-08  0.93827000000E+00  0.93827000000E+00 0.  1.
     999902    2    1    2    0    0  0.12115610282E-01 -0.19194189328E-01  0.40760557525E-02  0.10208687956E+01  0.10206082886E+01 0.  0.
     999903    2    3    3    0    0  0.77055815531E-01 -0.10813118501E+00 -0.66353983380E-02  0.13394052643E+00  0.16312088476E-01 0.  0.
         14    1    1    2    0    0 -0.12115610282E-01  0.19194189328E-01 -0.40760557525E-02  0.23061204369E-01  0.00000000000E+00 0. -1.
     999901    1    3    3    0    0 -0.64940205249E-01  0.88936995682E-01  0.10711454091E-01  0.88692826920E+00  0.88000000000E+00 0. -1.
        -11    1    4    4    0    0  0.68721048091E-01 -0.10299377766E+00 -0.44548498774E-02  0.12389676144E+00  0.51100000000E-03 0. -1.
         11    1    4    4    0    0  0.83347674401E-02 -0.51374073522E-02 -0.21805484606E-02  0.10043764990E-01  0.51100000000E-03 0.  1.
</event>
<event>
 8    1  0.1202249E+005  0.1043930E+01  0.7957747E-01            NaN
         13   -1    0    0    0    0  0.00000000000E+00  0.00000000000E+00  0.74505805969E-08  0.10566000000E+00  0.10566000000E+00 0.  1.
     999900   -1    0    0    0    0 -0.00000000000E+00 -0.00000000000E+00 -0.74505805969E-08  0.93827000000E+00  0.93827000000E+00 0. -1.
     999902    2    1    2    0    0  0.15927611175E-01  0.16958920838E-02 -0.15982880187E-01  0.10213022006E+01  0.10210515010E+01 0.  0.
     999903    2    3    3    0    0  0.29899750610E-02 -0.31091520813E-01 -0.12829055921E+00  0.13346470889E+00  0.19461200335E-01 0.  0.
         14    1    1    2    0    0 -0.15927611175E-01 -0.16958920838E-02  0.15982880187E-01  0.22627799424E-01  0.00000000000E+00 0.  1.
     999901    1    3    3    0    0  0.12937636114E-01  0.32787412897E-01  0.11230767903E+00  0.88783749168E+00  0.88000000000E+00 0.  1.
        -11    1    4    4    0    0 -0.39992218193E-02 -0.17773850231E-01 -0.40748920690E-01  0.44638987282E-01  0.51100000000E-03 0. -1.
         11    1    4    4    0    0  0.69891968803E-02 -0.13317670583E-01 -0.87541638525E-01  0.88825721609E-01  0.51100000000E-03 0.  1.
</event>
<event>
 8    1  0.1202249E+005  0.1043930E+01  0.7957747E-01            NaN
         13   -1    0    0    0    0  0.00000000000E+00  0.00000000000E+00  0.74505805969E-08  0.10566000000E+00  0.10566000000E+00 0. -1.
     999900   -1    0    0    0    0 -0.00000000000E+00 -0.00000000000E+00 -0.74505805969E-08  0.93827000000E+00  0.93827000000E+00 0.  1.
     999902    2    1    2    0    0 -0.49346955439E-02 -0.16301724594E-01  0.16170147831E-01  0.10204444486E+01  0.10201741525E+01 0.  0.
     999903    2    3    3    0    0 -0.97319630827E-01  0.46681449668E-01 -0.68592330126E-01  0.12932911700E+00  0.19257322332E-01 0.  0.
         14    1    1    2    0    0  0.49346955439E-02  0.16301724594E-01 -0.16170147831E-01  0.23485551425E-01  0.00000000000E+00 0.  1.
     999901    1    3    3    0    0  0.92384935283E-01 -0.62983174262E-01  0.84762477957E-01  0.89111533158E+00  0.88000000000E+00 0. -1.
        -11    1    4    4    0    0 -0.93870366192E-01  0.39880452587E-01 -0.64155037694E-01  0.12049160191E+00  0.51100000000E-03 0. -1.
         11    1    4    4    0    0 -0.34492646349E-02  0.68009970812E-02 -0.44372924318E-02  0.88375150888E-02  0.51100000000E-03 0.  1.
</event>
<event>
 8    1  0.1202249E+005  0.1043930E+01  0.7957747E-01            NaN
         13   -1    0    0    0    0  0.00000000000E+00  0.00000000000E+00  0.74505805969E-08  0.10566000000E+00  0.10566000000E+00 0. -1.
     999900   -1    0    0    0    0 -0.00000000000E+00 -0.00000000000E+00 -0.74505805969E-08  0.93827000000E+00  0.93827000000E+00 0.  1.
     999902    2    1    2    0    0 -0.11655869794E-01 -0.20709106258E-01 -0.23420291525E-03  0.10201648736E+01  0.10198880272E+01 0.  0.
     999903    2    3    3    0    0  0.34942247579E-01 -0.12621154647E+00  0.75145259755E-02  0.13260518982E+00  0.19425579484E-01 0.  0.
         14    1    1    2    0    0  0.11655869794E-01  0.20709106258E-01  0.23420291525E-03  0.23765126418E-01  0.00000000000E+00 0. -1.
     999901    1    3    3    0    0 -0.46598117373E-01  0.10550244022E+00 -0.77487288907E-02  0.88755968376E+00  0.88000000000E+00 0. -1.
        -11    1    4    4    0    0  0.35535463326E-01 -0.11553988891E+00  0.28060523882E-02  0.12091472257E+00  0.51100000000E-03 0.  1.
         11    1    4    4    0    0 -0.59321574707E-03 -0.10671657561E-01  0.47084735873E-02  0.11690467251E-01  0.51100000000E-03 0. -1.
</event>
<event>
 8    1  0.1202249E+005  0.1043930E+01  0.7957747E-01            NaN
         13   -1    0    0    0    0  0.00000000000E+00  0.00000000000E+00  0.74505805969E-08  0.10566000000E+00  0.10566000000E+00 0.  1.
     999900   -1    0    0    0    0 -0.00000000000E+00 -0.00000000000E+00 -0.74505805969E-08  0.93827000000E+00  0.93827000000E+00 0. -1.
     999902    2    1    2    0    0 -0.18186669746E-01  0.15763393463E-01  0.14736925208E-03  0.10198621532E+01  0.10195781237E+01 0.  0.
     999903    2    3    3    0    0  0.94733619360E-01  0.32919812190E-01  0.78624896742E-01  0.12901757829E+00  0.20136743750E-01 0.  0.
         14    1    1    2    0    0  0.18186669746E-01 -0.15763393463E-01 -0.14736925208E-03  0.24067846759E-01  0.00000000000E+00 0.  1.
     999901    1    3    3    0    0 -0.11292028911E+00 -0.17156418727E-01 -0.78477527490E-01  0.89084457495E+00  0.88000000000E+00 0. -1.
        -11    1    4    4    0    0  0.62042186757E-01  0.21240573858E-01  0.63025456515E-01  0.90955286846E-01  0.51100000000E-03 0. -1.
         11    1    4    4    0    0  0.32691432603E-01  0.11679238332E-01  0.15599440227E-01  0.38062291445E-01  0.51100000000E-03 0.  1.
</event>
<event>
 8    1  0.1202249E+005  0.1043930E+01  0.7957747E-01            NaN
         13   -1    0    0    0    0  0.00000000000E+00  0.00000000000E+00  0.74505805969E-08  0.10566000000E+00  0.10566000000E+00 0.  1.
     999900   -1    0    0    0    0 -0.00000000000E+00 -0.00000000000E+00 -0.74505805969E-08  0.93827000000E+00  0.93827000000E+00 0.  1.
     999902    2    1    2    0    0 -0.32228835212E-02 -0.20586834359E-01 -0.11611598572E-01  0.10200755675E+01  0.10197966118E+01 0.  0.
     999903    2    3    3    0    0 -0.61230248830E-01  0.10242781127E+00 -0.45314070287E-01  0.12899009796E+00  0.18560186241E-01 0.  0.
         14    1    1    2    0    0  0.32228835212E-02  0.20586834359E-01  0.11611598572E-01  0.23854432471E-01  0.00000000000E+00 0.  1.
     999901    1    3    3    0    0  0.58007365309E-01 -0.12301464563E+00  0.33702471715E-01  0.89108546956E+00  0.88000000000E+00 0. -1.
        -11    1    4    4    0    0 -0.31614157161E-01  0.57648056705E-01 -0.34389470976E-01  0.74200068799E-01  0.51100000000E-03 0. -1.
         11    1    4    4    0    0 -0.29616091669E-01  0.44779754567E-01 -0.10924599311E-01  0.54790029165E-01  0.51100000000E-03 0.  1.
</event>
<event>
 8    1  0.1202249E+005  0.1043930E+01  0.7957747E-01            NaN
         13   -1    0    0    0    0  0.00000000000E+00  0.00000000000E+00  0.74505805969E-08  0.10566000000E+00  0.10566000000E+00 0. -1.
     999900   -1    0    0    0    0 -0.00000000000E+00 -0.00000000000E+00 -0.74505805969E-08  0.93827000000E+00  0.93827000000E+00 0.  1.
     999902    2    1    2    0    0 -0.89090600250E-02 -0.60014797781E-02 -0.21450427830E-01  0.10199402113E+01  0.10196580430E+01 0.  0.
     999903    2    3    3    0    0 -0.89971163500E-01 -0.27448728304E-01 -0.92070655044E-01  0.13313794153E+00  0.20011571859E-01 0.  0.
         14    1    1    2    0    0  0.89090600250E-02  0.60014797781E-02  0.21450427830E-01  0.23989788747E-01  0.00000000000E+00 0. -1.
     999901    1    3    3    0    0  0.81062103475E-01  0.21447248526E-01  0.70620227215E-01  0.88680226972E+00  0.88000000000E+00 0. -1.
        -11    1    4    4    0    0 -0.46937291525E-01 -0.10003504386E-01 -0.59362738477E-01  0.76337246978E-01  0.51100000000E-03 0. -1.
         11    1    4    4    0    0 -0.43033871975E-01 -0.17445223918E-01 -0.32707916567E-01  0.56800694555E-01  0.51100000000E-03 0.  1.
</event>
<event>
 8    1  0.1202249E+005  0.1043930E+01  0.7957747E-01            NaN
         13   -1    0    0    0    0  0.00000000000E+00  0.00000000000E+00  0.74505805969E-08  0.10566000000E+00  0.10566000000E+00 0. -1.
     999900   -1    0    0    0    0 -0.00000000000E+00 -0.00000000000E+00 -0.74505805969E-08  0.93827000000E+00  0.93827000000E+00 0.  1.
     999902    2    1    2    0    0 -0.24787589931E-01  0.84623602177E-02  0.42990947667E-03  0.10177341802E+01  0.10173969926E+01 0.  0.
     999903    2    3    3    0    0  0.39281294647E-01  0.11982509689E+00  0.13513779390E-01  0.12830870900E+00  0.19478927578E-01 0.  0.
         14    1    1    2    0    0  0.24787589931E-01 -0.84623602177E-02 -0.42990947667E-03  0.26195819842E-01  0.00000000000E+00 0. -1.
     999901    1    3    3    0    0 -0.64068884578E-01 -0.11136273667E+00 -0.13083869913E-01  0.88942547116E+00  0.88000000000E+00 0.  1.
        -11    1    4    4    0    0  0.46346970542E-02  0.24630173697E-01  0.98620120288E-02  0.26937822395E-01  0.51100000000E-03 0. -1.
         11    1    4    4    0    0  0.34646597593E-01  0.95194923188E-01  0.36517673609E-02  0.10137088661E+00  0.51100000000E-03 0.  1.
</event>
<event>
 8    1  0.1202249E+005  0.1043930E+01  0.7957747E-01            NaN
         13   -1    0    0    0    0  0.00000000000E+00  0.00000000000E+00  0.74505805969E-08  0.10566000000E+00  0.10566000000E+00 0. -1.
     999900   -1    0    0    0    0 -0.00000000000E+00 -0.00000000000E+00 -0.74505805969E-08  0.93827000000E+00  0.93827000000E+00 0.  1.
     999902    2    1    2    0    0  0.15788020752E-01 -0.42220896674E-02  0.17653231506E-01  0.10198733123E+01  0.10195895492E+01 0.  0.
     999903    2    3    3    0    0 -0.69418125143E-01 -0.65274833732E-01  0.85314559605E-01  0.13107323344E+00  0.28669468569E-01 0.  0.
         14    1    1    2    0    0 -0.15788020752E-01  0.42220896674E-02 -0.17653231506E-01  0.24056687698E-01  0.00000000000E+00 0.  1.
     999901    1    3    3    0    0  0.85206145895E-01  0.61052744064E-01 -0.67661328099E-01  0.88880007886E+00  0.88000000000E+00 0.  1.
        -11    1    4    4    0    0 -0.12131381917E-01 -0.27968780300E-01  0.33449089080E-01  0.45260642727E-01  0.51100000000E-03 0. -1.
         11    1    4    4    0    0 -0.57286743226E-01 -0.37306053431E-01  0.51865470524E-01  0.85812590718E-01  0.51100000000E-03 0.  1.
</event>
<event>
 8    1  0.1202249E+005  0.1043930E+01  0.7957747E-01            NaN
         13   -1    0    0    0    0  0.00000000000E+00  0.00000000000E+00  0.74505805969E-08  0.10566000000E+00  0.10566000000E+00 0.  1.
     999900   -1    0    0    0    0 -0.00000000000E+00 -0.00000000000E+00 -0.74505805969E-08  0.93827000000E+00  0.93827000000E+00 0. -1.
     999902    2    1    2    0    0 -0.25023718760E-02 -0.12923842446E-01 -0.21020364758E-01  0.10191279174E+01  0.10188260738E+01 0.  0.
     999903    2    3    3    0    0 -0.18014594321E-01 -0.16042676221E-01  0.12336934806E+00  0.12722055371E+00  0.19574988531E-01 0.  0.
         14    1    1    2    0    0  0.25023718760E-02  0.12923842446E-01  0.21020364758E-01  0.24802082637E-01  0.00000000000E+00 0.  1.
     999901    1    3    3    0    0  0.15512222445E-01  0.31188337753E-02 -0.14438971282E+00  0.89190736365E+00  0.88000000000E+00 0. -1.
        -11    1    4    4    0    0 -0.15276719150E-01 -0.12715972256E-01  0.51264767165E-01  0.54985557848E-01  0.51100000000E-03 0. -1.
         11    1    4    4    0    0 -0.27378751714E-02 -0.33267039653E-02  0.72104580898E-01  0.72234995862E-01  0.51100000000E-03 0.  1.
</event>
<event>
 8    1  0.1202249E+005  0.1043930E+01  0.7957747E-01            NaN
         13   -1    0    0    0    0  0.00000000000E+00  0.00000000000E+00  0.74505805969E-08  0.10566000000E+00  0.10566000000E+00 0. -1.
     999900   -1    0    0    0    0 -0.00000000000E+00 -0.00000000000E+00 -0.74505805969E-08  0.93827000000E+00  0.93827000000E+00 0.  1.
     999902    2    1    2    0    0  0.70628802936E-02  0.11591526634E-03 -0.22315625711E-01  0.10205230595E+01  0.10202545908E+01 0.  0.
     999903    2    3    3    0    0  0.11977156957E+00  0.42744062108E-01 -0.30998588514E-01  0.13226870322E+00  0.19021399475E-01 0.  0.
         14    1    1    2    0    0 -0.70628802936E-02 -0.11591526634E-03  0.22315625711E-01  0.23406940536E-01  0.00000000000E+00 0. -1.
     999901    1    3    3    0    0 -0.11270868928E+00 -0.42628146842E-01  0.86829628034E-02  0.88825435624E+00  0.88000000000E+00 0. -1.
        -11    1    4    4    0    0  0.64529765797E-01  0.32818410927E-01 -0.15477045007E-01  0.74033362835E-01  0.51100000000E-03 0. -1.
         11    1    4    4    0    0  0.55241803778E-01  0.99256511817E-02 -0.15521543507E-01  0.58235340386E-01  0.51100000000E-03 0.  1.
</event>
<event>
 8    1  0.1202249E+005  0.1043930E+01  0.7957747E-01            NaN
         13   -1    0    0    0    0  0.00000000000E+00  0.00000000000E+00  0.74505805969E-08  0.10566000000E+00  0.10566000000E+00 0.  1.
     999900   -1    0    0    0    0 -0.00000000000E+00 -0.00000000000E+00 -0.74505805969E-08  0.93827000000E+00  0.93827000000E+00 0.  1.
     999902    2    1    2    0    0 -0.12149056291E-01  0.11199150954E-01 -0.19414331245E-01  0.10184361417E+01  0.10181170061E+01 0.  0.
     999903    2    3    3    0    0 -0.20052294502E-01 -0.12228257585E+00  0.21822729666E-01  0.12738040401E+00  0.19859831946E-01 0.  0.
         14    1    1    2    0    0  0.12149056291E-01 -0.11199150954E-01  0.19414331245E-01  0.25493858251E-01  0.00000000000E+00 0.  1.
     999901    1    3    3    0    0  0.79032382106E-02  0.13348172680E+00 -0.41237060911E-01  0.89105573774E+00  0.88000000000E+00 0.  1.
        -11    1    4    4    0    0  0.22480097080E-02 -0.33136090874E-01  0.10238252826E-01  0.34758265319E-01  0.51100000000E-03 0.  1.
         11    1    4    4    0    0 -0.22300304210E-01 -0.89146484974E-01  0.11584476840E-01  0.92622138691E-01  0.51100000000E-03 0. -1.
</event>
<event>
 8    1  0.1202249E+005  0.1043930E+01  0.7957747E-01            NaN
         13   -1    0    0    0    0  0.00000000000E+00  0.00000000000E+00  0.74505805969E-08  0.10566000000E+00  0.10566000000E+00 0. -1.
     999900   -1    0    0    0    0 -0.00000000000E+00 -0.00000000000E+00 -0.74505805969E-08  0.93827000000E+00  0.93827000000E+00 0.  1.
     999902    2    1    2    0    0 -0.15607462833E-01  0.13845951167E-01 -0.10357962765E-01  0.10206364247E+01  0.10203705801E+01 0.  0.
     999903    2    3    3    0    0 -0.37583277411E-01 -0.17437344246E-01 -0.12387527077E+00  0.13252170221E+00  0.22368619401E-01 0.  0.
         14    1    1    2    0    0  0.15607462833E-01 -0.13845951167E-01  0.10357962765E-01  0.23293575347E-01  0.00000000000E+00 0. -1.
     999901    1    3    3    0    0  0.21975814578E-01  0.31283295413E-01  0.11351730800E+00  0.88811472244E+00  0.88000000000E+00 0. -1.
        -11    1    4    4    0    0 -0.26768396149E-01 -0.13596716332E-01 -0.11217467332E+00  0.11612422737E+00  0.51100000000E-03 0.  1.
         11    1    4    4    0    0 -0.10814881262E-01 -0.38406279136E-02 -0.11700597451E-01  0.16397474842E-01  0.51100000000E-03 0. -1.
</event>
<event>
 8    1  0.1202249E+005  0.1043930E+01  0.7957747E-01            NaN
         13   -1    0    0    0    0  0.00000000000E+00  0.00000000000E+00  0.74505805969E-08  0.10566000000E+00  0.10566000000E+00 0.  1.
     999900   -1    0    0    0    0 -0.00000000000E+00 -0.00000000000E+00 -0.74505805969E-08  0.93827000000E+00  0.93827000000E+00 0.  1.
     999902    2    1    2    0    0 -0.20540913821E-01 -0.13765105853E-02 -0.10821176818E-01  0.10206722746E+01  0.10204072571E+01 0.  0.
     999903    2    3    3    0    0 -0.22088748965E-01 -0.69305831807E-02  0.12740708650E+00  0.12986348689E+00  0.97986592557E-02 0.  0.
         14    1    1    2    0    0  0.20540913821E-01  0.13765105853E-02  0.10821176818E-01  0.23257725377E-01  0.00000000000E+00 0.  1.
     999901    1    3    3    0    0  0.15478351443E-02  0.55540725954E-02 -0.13822826332E+00  0.89080878773E+00  0.88000000000E+00 0.  1.
        -11    1    4    4    0    0 -0.13417490141E-01 -0.14518267936E-02  0.50539560136E-01  0.52312953487E-01  0.51100000000E-03 0. -1.
         11    1    4    4    0    0 -0.86712588240E-02 -0.54787563871E-02  0.76867526365E-01  0.77550533407E-01  0.51100000000E-03 0.  1.
</event>
<event>
 8    1  0.1202249E+005  0.1043930E+01  0.7957747E-01            NaN
         13   -1    0    0    0    0  0.00000000000E+00  0.00000000000E+00  0.74505805969E-08  0.10566000000E+00  0.10566000000E+00 0. -1.
     999900   -1    0    0    0    0 -0.00000000000E+00 -0.00000000000E+00 -0.74505805969E-08  0.93827000000E+00  0.93827000000E+00 0. -1.
     999902    2    1    2    0    0 -0.25266609750E-02  0.11668652659E-01 -0.22301421477E-01  0.10186338566E+01  0.10183197135E+01 0.  0.
     999903    2    3    3    0    0 -0.70938204456E-01  0.46333873989E-01 -0.99198228046E-01  0.13195751447E+00  0.19835333294E-01 0.  0.
         14    1    1    2    0    0  0.25266609750E-02 -0.11668652659E-01  0.22301421477E-01  0.25296143391E-01  0.00000000000E+00 0. -1.
     999901    1    3    3    0    0  0.68411543481E-01 -0.34665221329E-01  0.76896806569E-01  0.88667634214E+00  0.88000000000E+00 0.  1.
        -11    1    4    4    0    0 -0.24117837847E-01  0.20123879903E-01 -0.50615522509E-01  0.59572081420E-01  0.51100000000E-03 0.  1.
         11    1    4    4    0    0 -0.46820366609E-01  0.26209994085E-01 -0.48582705537E-01  0.72385433048E-01  0.51100000000E-03 0. -1.
</event>
<event>
 7    1  0.1202249E+005  0.1043930E+01  0.7957747E-01            NaN
         13   -1    0    0    0    0  0.00000000000E+00  0.00000000000E+00  0.74505805969E-08  0.10566000000E+00  0.10566000000E+00 0. -1.
     999900   -1    0    0    0    0 -0.00000000000E+00 -0.00000000000E+00 -0.74505805969E-08  0.93827000000E+00  0.93827000000E+00 0. -1.
     999903    2    1    2    0    0 -0.10440230735E+00 -0.93220866298E-01 -0.43374711647E-01  0.14787138878E+00  0.19864800931E-01 0.  0.
         14    1    1    2    0    0  0.35557286752E-02  0.86373628271E-03  0.27385434976E-02  0.45704340348E-02  0.00000000000E+00 0. -1.
     999901    1    1    2    0    0  0.10084657868E+00  0.92357130016E-01  0.40636168150E-01  0.89148817718E+00  0.88000000000E+00 0.  1.
        -11    1    3    3    0    0 -0.46576831724E-01 -0.54883468862E-01 -0.21982427693E-01  0.75266756647E-01  0.51100000000E-03 0. -1.
         11    1    3    3    0    0 -0.57825475628E-01 -0.38337397436E-01 -0.21392283954E-01  0.72604632135E-01  0.51100000000E-03 0.  1.
</event>
<event>
 8    1  0.1202249E+005  0.1043930E+01  0.7957747E-01            NaN
         13   -1    0    0    0    0  0.00000000000E+00  0.00000000000E+00  0.74505805969E-08  0.10566000000E+00  0.10566000000E+00 0. -1.
     999900   -1    0    0    0    0 -0.00000000000E+00 -0.00000000000E+00 -0.74505805969E-08  0.93827000000E+00  0.93827000000E+00 0.  1.
     999902    2    1    2    0    0 -0.18122346770E-01  0.15787099302E-01 -0.65293983037E-02  0.10190244785E+01  0.10187200807E+01 0.  0.
     999903    2    3    3    0    0  0.94091129364E-01 -0.75961671276E-01 -0.30169035018E-01  0.12685379221E+00  0.23630442152E-01 0.  0.
         14    1    1    2    0    0  0.18122346770E-01 -0.15787099302E-01  0.65293983037E-02  0.24905521456E-01  0.00000000000E+00 0. -1.
     999901    1    3    3    0    0 -0.11221347613E+00  0.91748770578E-01  0.23639636714E-01  0.89217068633E+00  0.88000000000E+00 0.  1.
        -11    1    4    4    0    0  0.33500728685E-01 -0.17943332391E-01 -0.94395272301E-03  0.38018602913E-01  0.51100000000E-03 0. -1.
         11    1    4    4    0    0  0.60590400679E-01 -0.58018338885E-01 -0.29225082295E-01  0.88835189298E-01  0.51100000000E-03 0.  1.
</event>
<event>
 8    1  0.1202249E+005  0.1043930E+01  0.7957747E-01            NaN
         13   -1    0    0    0    0  0.00000000000E+00  0.00000000000E+00  0.74505805969E-08  0.10566000000E+00  0.10566000000E+00 0. -1.
     999900   -1    0    0    0    0 -0.00000000000E+00 -0.00000000000E+00 -0.74505805969E-08  0.93827000000E+00  0.93827000000E+00 0.  1.
     999902    2    1    2    0    0  0.10686044705E-01  0.17651213537E-01  0.97188654164E-02  0.10211218165E+01  0.10208670584E+01 0.  0.
     999903    2    3    3    0    0 -0.30060772890E-01  0.10622256344E+00 -0.69768780775E-01  0.13217667021E+00  0.20398684452E-01 0.  0.
         14    1    1    2    0    0 -0.10686044705E-01 -0.17651213537E-01 -0.97188654164E-02  0.22808183526E-01  0.00000000000E+00 0.  1.
     999901    1    3    3    0    0  0.40746817595E-01 -0.88571349900E-01  0.79487646192E-01  0.88894514626E+00  0.88000000000E+00 0. -1.
        -11    1    4    4    0    0 -0.11602300298E-01  0.73174326831E-01 -0.41423838570E-01  0.84883985547E-01  0.51100000000E-03 0. -1.
         11    1    4    4    0    0 -0.18458472591E-01  0.33048236606E-01 -0.28344942205E-01  0.47292684665E-01  0.51100000000E-03 0.  1.
</event>
<event>
 8    1  0.1202249E+005  0.1043930E+01  0.7957747E-01            NaN
         13   -1    0    0    0    0  0.00000000000E+00  0.00000000000E+00  0.74505805969E-08  0.10566000000E+00  0.10566000000E+00 0.  1.
     999900   -1    0    0    0    0 -0.00000000000E+00 -0.00000000000E+00 -0.74505805969E-08  0.93827000000E+00  0.93827000000E+00 0. -1.
     999902    2    1    2    0    0  0.14705499166E-02  0.21954437301E-01  0.11345122843E-01  0.10191737554E+01  0.10188730402E+01 0.  0.
     999903    2    3    3    0    0  0.46500422775E-01 -0.31825396377E-01 -0.11273912445E+00  0.12770482135E+00  0.20573430474E-01 0.  0.
         14    1    1    2    0    0 -0.14705499166E-02 -0.21954437301E-01 -0.11345122843E-01  0.24756244598E-01  0.00000000000E+00 0.  1.
     999901    1    3    3    0    0 -0.45029872859E-01  0.53779833678E-01  0.12408424729E+00  0.89146893406E+00  0.88000000000E+00 0.  1.
        -11    1    4    4    0    0  0.22551655724E-01 -0.65109550799E-02 -0.60611073139E-01  0.64999484767E-01  0.51100000000E-03 0.  1.
         11    1    4    4    0    0  0.23948767052E-01 -0.25314441298E-01 -0.52128051307E-01  0.62705336580E-01  0.51100000000E-03 0. -1.
</event>
<event>
 8    1  0.1202249E+005  0.1043930E+01  0.7957747E-01            NaN
         13   -1    0    0    0    0  0.00000000000E+00  0.00000000000E+00  0.74505805969E-08  0.10566000000E+00  0.10566000000E+00 0. -1.
     999900   -1    0    0    0    0 -0.00000000000E+00 -0.00000000000E+00 -0.74505805969E-08  0.93827000000E+00  0.93827000000E+00 0.  1.
     999902    2    1    2    0    0 -0.84440258080E-02 -0.20085263523E-01  0.11183665628E-01  0.10194393128E+01  0.10191450921E+01 0.  0.
     999903    2    3    3    0    0 -0.90224580080E-01  0.89476079365E-01 -0.36571935316E-02  0.12875867530E+00  0.20468946529E-01 0.  0.
         14    1    1    2    0    0  0.84440258080E-02  0.20085263523E-01 -0.11183665628E-01  0.24490687200E-01  0.00000000000E+00 0. -1.
     999901    1    3    3    0    0  0.81780554272E-01 -0.10956134289E+00  0.14840859159E-01  0.89068063750E+00  0.88000000000E+00 0.  1.
        -11    1    4    4    0    0 -0.26253067572E-01  0.39619298444E-01  0.68527584930E-03  0.47535703320E-01  0.51100000000E-03 0.  1.
         11    1    4    4    0    0 -0.63971512508E-01  0.49856780921E-01 -0.43424693809E-02  0.81222971982E-01  0.51100000000E-03 0. -1.
</event>
<event>
 7    1  0.1385019E+005  0.1043930E+01  0.7957747E-01            NaN
         13   -1    0    0    0    0  0.00000000000E+00  0.00000000000E+00  0.74505805969E-08  0.10566000000E+00  0.10566000000E+00 0.  1.
     999900   -1    0    0    0    0 -0.00000000000E+00 -0.00000000000E+00 -0.74505805969E-08  0.93827000000E+00  0.93827000000E+00 0. -1.
     999903    2    1    2    0    0 -0.56733407657E-01  0.81128752083E-01  0.10005741563E-02  0.10099920612E+00  0.19982105241E-01 0.  0.
         14    1    1    2    0    0 -0.24885659854E-01 -0.20082187225E-02  0.48172384049E-01  0.54257788324E-01  0.00000000000E+00 0.  1.
     999901    1    1    2    0    0  0.81619067511E-01 -0.79120533360E-01 -0.49172958206E-01  0.88867300555E+00  0.88000000000E+00 0. -1.
        -11    1    3    3    0    0 -0.39227509738E-01  0.39264100229E-01 -0.17908246699E-02  0.55533190625E-01  0.51100000000E-03 0. -1.
         11    1    3    3    0    0 -0.17505897920E-01  0.41864651854E-01  0.27913988263E-02  0.45466015498E-01  0.51100000000E-03 0.  1.
</event>
<event>
 8    1  0.1202249E+005  0.1043930E+01  0.7957747E-01            NaN
         13   -1    0    0    0    0  0.00000000000E+00  0.00000000000E+00  0.74505805969E-08  0.10566000000E+00  0.10566000000E+00 0. -1.
     999900   -1    0    0    0    0 -0.00000000000E+00 -0.00000000000E+00 -0.74505805969E-08  0.93827000000E+00  0.93827000000E+00 0.  1.
     999902    2    1    2    0    0 -0.30490579395E-01  0.22148349057E-02  0.85074639682E-02  0.10121974005E+01  0.10116998665E+01 0.  0.
     999903    2    3    3    0    0  0.62236293892E-01 -0.80707842593E-01  0.63946205634E-01  0.12172118101E+00  0.18434113952E-01 0.  0.
         14    1    1    2    0    0  0.30490579395E-01 -0.22148349057E-02 -0.85074639682E-02  0.31732599463E-01  0.00000000000E+00 0. -1.
     999901    1    3    3    0    0 -0.92726873286E-01  0.82922677498E-01 -0.55438741666E-01  0.89047621953E+00  0.88000000000E+00 0.  1.
        -11    1    4    4    0    0  0.13762717730E-01 -0.16549859010E-01  0.22922598285E-01  0.31448638535E-01  0.51100000000E-03 0.  1.
         11    1    4    4    0    0  0.48473576162E-01 -0.64157983582E-01  0.41023607350E-01  0.90272542471E-01  0.51100000000E-03 0. -1.
</event>
<event>
 8    1  0.1202249E+005  0.1043930E+01  0.7957747E-01            NaN
         13   -1    0    0    0    0  0.00000000000E+00  0.00000000000E+00  0.74505805969E-08  0.10566000000E+00  0.10566000000E+00 0. -1.
     999900   -1    0    0    0    0 -0.00000000000E+00 -0.00000000000E+00 -0.74505805969E-08  0.93827000000E+00  0.93827000000E+00 0. -1.
     999902    2    1    2    0    0 -0.42701734770E-02 -0.17958783824E-01 -0.73693454636E-02  0.10240538950E+01  0.10238609868E+01 0.  0.
     999903    2    3    3    0    0  0.10091671954E+00  0.15222564695E-01  0.82336252832E-01  0.13264356370E+00  0.19978631177E-01 0.  0.
         14    1    1    2    0    0  0.42701734770E-02  0.17958783824E-01  0.73693454636E-02  0.19876105013E-01  0.00000000000E+00 0. -1.
     999901    1    3    3    0    0 -0.10518689301E+00 -0.33181348518E-01 -0.89705598296E-01  0.89141033128E+00  0.88000000000E+00 0. -1.
        -11    1    4    4    0    0  0.30347538463E-01  0.67587252264E-03  0.14357977905E-01  0.33583367088E-01  0.51100000000E-03 0. -1.
         11    1    4    4    0    0  0.70569181074E-01  0.14546692172E-01  0.67978274927E-01  0.99060196617E-01  0.51100000000E-03 0.  1.
</event>
<event>
 8    1  0.1202249E+005  0.1043930E+01  0.7957747E-01            NaN
         13   -1    0    0    0    0  0.00000000000E+00  0.00000000000E+00  0.74505805969E-08  0.10566000000E+00  0.10566000000E+00 0.  1.
     999900   -1    0    0    0    0 -0.00000000000E+00 -0.00000000000E+00 -0.74505805969E-08  0.93827000000E+00  0.93827000000E+00 0.  1.
     999902    2    1    2    0    0 -0.17181026126E-01 -0.56872116073E-02 -0.15680573552E-01  0.10199839686E+01  0.10197028409E+01 0.  0.
     999903    2    3    3    0    0 -0.95543703622E-01 -0.32912534705E-01  0.80403042602E-01  0.13087543259E+00  0.21257830428E-01 0.  0.
         14    1    1    2    0    0  0.17181026126E-01  0.56872116073E-02  0.15680573552E-01  0.23946031436E-01  0.00000000000E+00 0.  1.
     999901    1    3    3    0    0  0.78362677496E-01  0.27225323098E-01 -0.96083616154E-01  0.88910853597E+00  0.88000000000E+00 0.  1.
        -11    1    4    4    0    0 -0.72000450942E-01 -0.31840984069E-01  0.69013556389E-01  0.10469501081E+00  0.51100000000E-03 0. -1.
         11    1    4    4    0    0 -0.23543252679E-01 -0.10715506357E-02  0.11389486213E-01  0.26180421782E-01  0.51100000000E-03 0.  1.
</event>
<event>
 8    1  0.1202249E+005  0.1043930E+01  0.7957747E-01            NaN
         13   -1    0    0    0    0  0.00000000000E+00  0.00000000000E+00  0.74505805969E-08  0.10566000000E+00  0.10566000000E+00 0.  1.
     999900   -1    0    0    0    0 -0.00000000000E+00 -0.00000000000E+00 -0.74505805969E-08  0.93827000000E+00  0.93827000000E+00 0.  1.
     999902    2    1    2    0    0 -0.12025908474E-01 -0.88638137392E-02  0.18393728073E-01  0.10202336100E+01  0.10199583815E+01 0.  0.
     999903    2    3    3    0    0 -0.11075880666E+00 -0.50468955073E-01 -0.44934170086E-01  0.13147627769E+00  0.21267422900E-01 0.  0.
         14    1    1    2    0    0  0.12025908474E-01  0.88638137392E-02 -0.18393728073E-01  0.23696390042E-01  0.00000000000E+00 0. -1.
     999901    1    3    3    0    0  0.98732898182E-01  0.41605141334E-01  0.63327898159E-01  0.88875733226E+00  0.88000000000E+00 0. -1.
        -11    1    4    4    0    0 -0.33030238368E-01 -0.69784176664E-02 -0.18834839114E-01  0.38661443911E-01  0.51100000000E-03 0.  1.
         11    1    4    4    0    0 -0.77728568287E-01 -0.43490537407E-01 -0.26099330972E-01  0.92814833782E-01  0.51100000000E-03 0. -1.
</event>
<event>
 7    1  0.1202249E+005  0.1043930E+01  0.7957747E-01            NaN
         13   -1    0    0    0    0  0.00000000000E+00  0.00000000000E+00  0.74505805969E-08  0.10566000000E+00  0.10566000000E+00 0.  1.
     999900   -1    0    0    0    0 -0.00000000000E+00 -0.00000000000E+00 -0.74505805969E-08  0.93827000000E+00  0.93827000000E+00 0.  1.
     999903    2    1    2    0    0  0.60468177340E-03  0.12195394221E-01  0.17757083371E-02  0.23663701560E-01  0.20192185399E-01 0.  0.
         14    1    1    2    0    0  0.79144800937E-01  0.75737839907E-01  0.69023803779E-01  0.12947743200E+00  0.00000000000E+00 0. -1.
     999901    1    1    2    0    0 -0.79749482710E-01 -0.87933234128E-01 -0.70799512116E-01  0.89078886644E+00  0.88000000000E+00 0. -1.
        -11    1    3    3    0    0  0.85007665593E-02  0.70744265385E-02 -0.49068921204E-02  0.12109882503E-01  0.51100000000E-03 0. -1.
         11    1    3    3    0    0 -0.78960847859E-02  0.51209676820E-02  0.66826004575E-02  0.11553819058E-01  0.51100000000E-03 0.  1.
</event>
<event>
 8    1  0.1202249E+005  0.1043930E+01  0.7957747E-01            NaN
         13   -1    0    0    0    0  0.00000000000E+00  0.00000000000E+00  0.74505805969E-08  0.10566000000E+00  0.10566000000E+00 0. -1.
     999900   -1    0    0    0    0 -0.00000000000E+00 -0.00000000000E+00 -0.74505805969E-08  0.93827000000E+00  0.93827000000E+00 0.  1.
     999902    2    1    2    0    0 -0.11454334684E-01  0.16697199584E-01 -0.29714471288E-02  0.10234647183E+01  0.10232600851E+01 0.  0.
     999903    2    3    3    0    0  0.10023960252E+00 -0.64023066546E-01  0.51258741536E-01  0.13109023954E+00  0.20254909428E-01 0.  0.
         14    1    1    2    0    0  0.11454334684E-01 -0.16697199584E-01  0.29714471288E-02  0.20465281699E-01  0.00000000000E+00 0. -1.
     999901    1    3    3    0    0 -0.11169393721E+00  0.80720266129E-01 -0.54230188665E-01  0.89237447876E+00  0.88000000000E+00 0.  1.
        -11    1    4    4    0    0  0.81884560614E-01 -0.43647666507E-01  0.34806074902E-01  0.99105620575E-01  0.51100000000E-03 0.  1.
         11    1    4    4    0    0  0.18355041909E-01 -0.20375400039E-01  0.16452666635E-01  0.31984618970E-01  0.51100000000E-03 0. -1.
</event>
<event>
 8    1  0.1202249E+005  0.1043930E+01  0.7957747E-01            NaN
         13   -1    0    0    0    0  0.00000000000E+00  0.00000000000E+00  0.74505805969E-08  0.10566000000E+00  0.10566000000E+00 0. -1.
     999900   -1    0    0    0    0 -0.00000000000E+00 -0.00000000000E+00 -0.74505805969E-08  0.93827000000E+00  0.93827000000E+00 0.  1.
     999902    2    1    2    0    0 -0.11196451167E-01 -0.18251058966E-01  0.58978938138E-02  0.10217208392E+01  0.10214794303E+01 0.  0.
     999903    2    3    3    0    0 -0.96601287443E-01  0.13689632640E-01 -0.86802013585E-01  0.13216619407E+00  0.20349410666E-01 0.  0.
         14    1    1    2    0    0  0.11196451167E-01  0.18251058966E-01 -0.58978938138E-02  0.22209160803E-01  0.00000000000E+00 0.  1.
     999901    1    3    3    0    0  0.85404836276E-01 -0.31940691606E-01  0.92699907398E-01  0.88955464513E+00  0.88000000000E+00 0. -1.
        -11    1    4    4    0    0 -0.41364142631E-01  0.11182121217E-01 -0.49462791965E-01  0.65443571421E-01  0.51100000000E-03 0. -1.
         11    1    4    4    0    0 -0.55237144813E-01  0.25075114237E-02 -0.37339221620E-01  0.66722622646E-01  0.51100000000E-03 0.  1.
</event>
<event>
 8    1  0.1202249E+005  0.1043930E+01  0.7957747E-01            NaN
         13   -1    0    0    0    0  0.00000000000E+00  0.00000000000E+00  0.74505805969E-08  0.10566000000E+00  0.10566000000E+00 0. -1.
     999900   -1    0    0    0    0 -0.00000000000E+00 -0.00000000000E+00 -0.74505805969E-08  0.93827000000E+00  0.93827000000E+00 0. -1.
     999902    2    1    2    0    0 -0.14193695949E-01  0.89155394344E-02  0.11810223570E-01  0.10234256290E+01  0.10232202055E+01 0.  0.
     999903    2    3    3    0    0  0.73838503103E-02  0.10426082413E+00 -0.80119901889E-01  0.13325291445E+00  0.20305167756E-01 0.  0.
         14    1    1    2    0    0  0.14193695949E-01 -0.89155394344E-02 -0.11810223570E-01  0.20504370970E-01  0.00000000000E+00 0.  1.
     999901    1    3    3    0    0 -0.21577546259E-01 -0.95345284693E-01  0.91930125459E-01  0.89017271458E+00  0.88000000000E+00 0.  1.
        -11    1    4    4    0    0  0.45673307548E-02  0.93103715484E-01 -0.77989193994E-01  0.12153903837E+00  0.51100000000E-03 0.  1.
         11    1    4    4    0    0  0.28165195554E-02  0.11157108643E-01 -0.21307078958E-02  0.11713876080E-01  0.51100000000E-03 0. -1.
</event>
<event>
 8    1  0.1202249E+005  0.1043930E+01  0.7957747E-01            NaN
         13   -1    0    0    0    0  0.00000000000E+00  0.00000000000E+00  0.74505805969E-08  0.10566000000E+00  0.10566000000E+00 0. -1.
     999900   -1    0    0    0    0 -0.00000000000E+00 -0.00000000000E+00 -0.74505805969E-08  0.93827000000E+00  0.93827000000E+00 0.  1.
     999902    2    1    2    0    0  0.21767243346E-01 -0.26461928971E-02 -0.86987297255E-02  0.10203401056E+01  0.10200673742E+01 0.  0.
     999903    2    3    3    0    0 -0.89220977942E-01 -0.37600935870E-01  0.81602594576E-01  0.12809879938E+00  0.19393444211E-01 0.  0.
         14    1    1    2    0    0 -0.21767243346E-01  0.26461928971E-02  0.86987297255E-02  0.23589894417E-01  0.00000000000E+00 0.  1.
     999901    1    3    3    0    0  0.11098822129E+00  0.34954742973E-01 -0.90301324302E-01  0.89224130620E+00  0.88000000000E+00 0.  1.
        -11    1    4    4    0    0 -0.57042457555E-01 -0.30217918131E-01  0.62997280405E-01  0.90199129705E-01  0.51100000000E-03 0. -1.
         11    1    4    4    0    0 -0.32178520387E-01 -0.73830177396E-02  0.18605314171E-01  0.37899669677E-01  0.51100000000E-03 0.  1.
</event>
<event>
 8    1  0.1202249E+005  0.1043930E+01  0.7957747E-01            NaN
         13   -1    0    0    0    0  0.00000000000E+00  0.00000000000E+00  0.74505805969E-08  0.10566000000E+00  0.10566000000E+00 0.  1.
     999900   -1    0    0    0    0 -0.00000000000E+00 -0.00000000000E+00 -0.74505805969E-08  0.93827000000E+00  0.93827000000E+00 0. -1.
     999902    2    1    2    0    0  0.16892081849E-02  0.23385364098E-01  0.35867266617E-02  0.10202109510E+01  0.10199351897E+01 0.  0.
     999903    2    3    3    0    0  0.56128306633E-01  0.32644931194E-01  0.11294073563E+00  0.13172479222E+00  0.19486733548E-01 0.  0.
         14    1    1    2    0    0 -0.16892081849E-02 -0.23385364098E-01 -0.35867266617E-02  0.23719049020E-01  0.00000000000E+00 0. -1.
     999901    1    3    3    0    0 -0.54439098449E-01 -0.92595670956E-02 -0.10935400897E+00  0.88848615876E+00  0.88000000000E+00 0. -1.
        -11    1    4    4    0    0  0.30000870338E-01  0.78329752375E-02  0.42611415118E-01  0.52701058258E-01  0.51100000000E-03 0.  1.
         11    1    4    4    0    0  0.26127436295E-01  0.24811955956E-01  0.70329320510E-01  0.79023733967E-01  0.51100000000E-03 0. -1.
</event>
<event>
 8    1  0.1202249E+005  0.1043930E+01  0.7957747E-01            NaN
         13   -1    0    0    0    0  0.00000000000E+00  0.00000000000E+00  0.74505805969E-08  0.10566000000E+00  0.10566000000E+00 0.  1.
     999900   -1    0    0    0    0 -0.00000000000E+00 -0.00000000000E+00 -0.74505805969E-08  0.93827000000E+00  0.93827000000E+00 0. -1.
     999902    2    1    2    0    0  0.33454554680E-02 -0.19393978382E-01 -0.12607209889E-01  0.10205577898E+01  0.10202901264E+01 0.  0.
     999903    2    3    3    0    0 -0.88918550230E-01 -0.90899725427E-01 -0.32178100295E-01  0.13263395387E+00  0.19674016456E-01 0.  0.
         14    1    1    2    0    0 -0.33454554680E-02  0.19393978382E-01  0.12607209889E-01  0.23372210228E-01  0.00000000000E+00 0.  1.
     999901    1    3    3    0    0  0.92264005698E-01  0.71505747045E-01  0.19570890406E-01  0.88792383590E+00  0.88000000000E+00 0.  1.
        -11    1    4    4    0    0 -0.65252583040E-01 -0.76155544454E-01 -0.20303585262E-01  0.10232332696E+00  0.51100000000E-03 0.  1.
         11    1    4    4    0    0 -0.23665967189E-01 -0.14744180972E-01 -0.11874515033E-01  0.30310626912E-01  0.51100000000E-03 0. -1.
</event>
<event>
 8    1  0.1202249E+005  0.1043930E+01  0.7957747E-01            NaN
         13   -1    0    0    0    0  0.00000000000E+00  0.00000000000E+00  0.74505805969E-08  0.10566000000E+00  0.10566000000E+00 0. -1.
     999900   -1    0    0    0    0 -0.00000000000E+00 -0.00000000000E+00 -0.74505805969E-08  0.93827000000E+00  0.93827000000E+00 0.  1.
     999902    2    1    2    0    0 -0.44025988673E-02 -0.18845907457E-01 -0.14735552544E-01  0.10196053702E+01  0.10193151737E+01 0.  0.
     999903    2    3    3    0    0  0.52173348320E-01 -0.38751743511E-01  0.10945031176E+00  0.12886454990E+00  0.20073504318E-01 0.  0.
         14    1    1    2    0    0  0.44025988673E-02  0.18845907457E-01  0.14735552544E-01  0.24324629770E-01  0.00000000000E+00 0.  1.
     999901    1    3    3    0    0 -0.56575947187E-01  0.19905836055E-01 -0.12418586431E+00  0.89074082033E+00  0.88000000000E+00 0.  1.
        -11    1    4    4    0    0  0.89345342726E-02 -0.17231544591E-01  0.37082102619E-01  0.41858039697E-01  0.51100000000E-03 0. -1.
         11    1    4    4    0    0  0.43238814047E-01 -0.21520198920E-01  0.72368209145E-01  0.87006510203E-01  0.51100000000E-03 0.  1.
</event>
<event>
 8    1  0.1202249E+005  0.1043930E+01  0.7957747E-01            NaN
         13   -1    0    0    0    0  0.00000000000E+00  0.00000000000E+00  0.74505805969E-08  0.10566000000E+00  0.10566000000E+00 0. -1.
     999900   -1    0    0    0    0 -0.00000000000E+00 -0.00000000000E+00 -0.74505805969E-08  0.93827000000E+00  0.93827000000E+00 0. -1.
     999902    2    1    2    0    0  0.24770056971E-02  0.13273820910E-01  0.18405919982E-01  0.10211022150E+01  0.10208470138E+01 0.  0.
     999903    2    3    3    0    0  0.59802728131E-01  0.49609591423E-01 -0.10302478905E+00  0.13017464005E+00  0.17142108926E-01 0.  0.
         14    1    1    2    0    0 -0.24770056971E-02 -0.13273820910E-01 -0.18405919982E-01  0.22827785026E-01  0.00000000000E+00 0.  1.
     999901    1    3    3    0    0 -0.57325722434E-01 -0.36335770513E-01  0.12143070904E+00  0.89092757493E+00  0.88000000000E+00 0.  1.
        -11    1    4    4    0    0  0.95485918745E-02  0.65554305070E-02 -0.69609742266E-02  0.13522779267E-01  0.51100000000E-03 0.  1.
         11    1    4    4    0    0  0.50254136257E-01  0.43054160916E-01 -0.96063814827E-01  0.11665186078E+00  0.51100000000E-03 0. -1.
</event>
<event>
 8    1  0.1202249E+005  0.1043930E+01  0.7957747E-01            NaN
         13   -1    0    0    0    0  0.00000000000E+00  0.00000000000E+00  0.74505805969E-08  0.10566000000E+00  0.10566000000E+00 0.  1.
     999900   -1    0    0    0    0 -0.00000000000E+00 -0.00000000000E+00 -0.74505805969E-08  0.93827000000E+00  0.93827000000E+00 0.  1.
     999902    2    1    2    0    0 -0.21922882725E-01 -0.10217252701E-01 -0.89860295942E-02  0.10181277953E+01  0.10178007928E+01 0.  0.
     999903    2    3    3    0    0  0.12101063987E+00 -0.17015587011E-01 -0.22671553805E-01  0.12646446040E+00  0.23369964255E-01 0.  0.
         14    1    1    2    0    0  0.21922882725E-01  0.10217252701E-01  0.89860295942E-02  0.25802204704E-01  0.00000000000E+00 0.  1.
     999901    1    3    3    0    0 -0.14293352259E+00  0.67983343098E-02  0.13685524211E-01  0.89166333490E+00  0.88000000000E+00 0. -1.
        -11    1    4    4    0    0  0.83918959232E-01 -0.11119782701E-01 -0.26510450310E-01  0.88707983759E-01  0.51100000000E-03 0.  1.
         11    1    4    4    0    0  0.37091680635E-01 -0.58958043099E-02  0.38388965048E-02  0.37756476639E-01  0.51100000000E-03 0. -1.
</event>
<event>
 8    1  0.1202249E+005  0.1043930E+01  0.7957747E-01            NaN
         13   -1    0    0    0    0  0.00000000000E+00  0.00000000000E+00  0.74505805969E-08  0.10566000000E+00  0.10566000000E+00 0.  1.
     999900   -1    0    0    0    0 -0.00000000000E+00 -0.00000000000E+00 -0.74505805969E-08  0.93827000000E+00  0.93827000000E+00 0. -1.
     999902    2    1    2    0    0 -0.20354693065E-01 -0.98387036596E-02  0.15750063144E-01  0.10163768131E+01  0.10160032717E+01 0.  0.
     999903    2    3    3    0    0  0.58055636280E-01  0.49210626580E-01 -0.95630328942E-01  0.12394160823E+00  0.20596595936E-01 0.  0.
         14    1    1    2    0    0  0.20354693065E-01  0.98387036596E-02 -0.15750063144E-01  0.27553186903E-01  0.00000000000E+00 0. -1.
     999901    1    3    3    0    0 -0.78410329345E-01 -0.59049330239E-01  0.11138039209E+00  0.89243520487E+00  0.88000000000E+00 0.  1.
        -11    1    4    4    0    0  0.19587829694E-01  0.18510492727E-01 -0.19431797448E-01  0.33229163188E-01  0.51100000000E-03 0.  1.
         11    1    4    4    0    0  0.38467806585E-01  0.30700133852E-01 -0.76198531494E-01  0.90712445039E-01  0.51100000000E-03 0. -1.
</event>
<event>
 8    1  0.1202249E+005  0.1043930E+01  0.7957747E-01            NaN
         13   -1    0    0    0    0  0.00000000000E+00  0.00000000000E+00  0.74505805969E-08  0.10566000000E+00  0.10566000000E+00 0.  1.
     999900   -1    0    0    0    0 -0.00000000000E+00 -0.00000000000E+00 -0.74505805969E-08  0.93827000000E+00  0.93827000000E+00 0. -1.
     999902    2    1    2    0    0 -0.16658342251E-01 -0.11485841484E-01 -0.16652761615E-01  0.10177242871E+01  0.10173868414E+01 0.  0.
     999903    2    3    3    0    0 -0.65807086381E-02  0.12503977283E+00 -0.89829931742E-02  0.12710673311E+00  0.19929297996E-01 0.  0.
         14    1    1    2    0    0  0.16658342251E-01  0.11485841484E-01  0.16652761615E-01  0.26205712937E-01  0.00000000000E+00 0. -1.
     999901    1    3    3    0    0 -0.10077633613E-01 -0.13652561432E+00 -0.76697684409E-02  0.89061755395E+00  0.88000000000E+00 0.  1.
        -11    1    4    4    0    0  0.53593460090E-02  0.26185348418E-01 -0.64507327012E-02  0.27500329721E-01  0.51100000000E-03 0.  1.
         11    1    4    4    0    0 -0.11940054647E-01  0.98854424416E-01 -0.25322604730E-02  0.99606403387E-01  0.51100000000E-03 0. -1.
</event>
<event>
 7    1  0.1202249E+005  0.1043930E+01  0.7957747E-01            NaN
         13   -1    0    0    0    0  0.00000000000E+00  0.00000000000E+00  0.74505805969E-08  0.10566000000E+00  0.10566000000E+00 0. -1.
     999900   -1    0    0    0    0 -0.00000000000E+00 -0.00000000000E+00 -0.74505805969E-08  0.93827000000E+00  0.93827000000E+00 0.  1.
     999902    2    1    2    0    0 -0.11664445548E-01  0.17017368703E-01  0.87680719381E-02  0.10215128366E+01  0.10212668340E+01 0.  0.
         14    1    1    2    0    0  0.11664445548E-01 -0.17017368703E-01 -0.87680719381E-02  0.22417163358E-01  0.00000000000E+00 0.  1.
     999901    1    3    3    0    0  0.37814510967E-01  0.34514719999E-01 -0.60827249516E-01  0.88358426730E+00  0.88000000000E+00 0.  1.
        -11    1    3    3    0    0 -0.59614810591E-01  0.32404710875E-01  0.34851045749E-01  0.76281370199E-01  0.51100000000E-03 0.  1.
         11    1    3    3    0    0  0.10135854077E-01 -0.49902062172E-01  0.34744275706E-01  0.61647199143E-01  0.51100000000E-03 0. -1.
</event>
<event>
 8    1  0.1202249E+005  0.1043930E+01  0.7957747E-01            NaN
         13   -1    0    0    0    0  0.00000000000E+00  0.00000000000E+00  0.74505805969E-08  0.10566000000E+00  0.10566000000E+00 0. -1.
     999900   -1    0    0    0    0 -0.00000000000E+00 -0.00000000000E+00 -0.74505805969E-08  0.93827000000E+00  0.93827000000E+00 0. -1.
     999902    2    1    2    0    0 -0.16560245917E-01  0.16399422842E-01  0.49542346957E-02  0.10201029722E+01  0.10198246646E+01 0.  0.
     999903    2    3    3    0    0 -0.31060580967E-01  0.12319645831E+00  0.34132320275E-01  0.13304760344E+00  0.19862589527E-01 0.  0.
         14    1    1    2    0    0  0.16560245917E-01 -0.16399422842E-01 -0.49542346957E-02  0.23827027842E-01  0.00000000000E+00 0. -1.
     999901    1    3    3    0    0  0.14500335050E-01 -0.10679703547E+00 -0.29178085579E-01  0.88705536872E+00  0.88000000000E+00 0. -1.
        -11    1    4    4    0    0 -0.26207775368E-01  0.66399519301E-01  0.22679367717E-01  0.74902326361E-01  0.51100000000E-03 0.  1.
         11    1    4    4    0    0 -0.48528055991E-02  0.56796939008E-01  0.11452952557E-01  0.58145277075E-01  0.51100000000E-03 0. -1.
</event>
<event>
 8    1  0.1202249E+005  0.1043930E+01  0.7957747E-01            NaN
         13   -1    0    0    0    0  0.00000000000E+00  0.00000000000E+00  0.74505805969E-08  0.10566000000E+00  0.10566000000E+00 0. -1.
     999900   -1    0    0    0    0 -0.00000000000E+00 -0.00000000000E+00 -0.74505805969E-08  0.93827000000E+00  0.93827000000E+00 0.  1.
     999902    2    1    2    0    0  0.63993859537E-02  0.22638089615E-01 -0.38422914789E-02  0.10200930865E+01  0.10198145452E+01 0.  0.
     999903    2    3    3    0    0  0.62108098972E-01  0.66236130561E-01 -0.94308227101E-01  0.13263134906E+00  0.21269511188E-01 0.  0.
         14    1    1    2    0    0 -0.63993859537E-02 -0.22638089615E-01  0.38422914789E-02  0.23836913513E-01  0.00000000000E+00 0. -1.
     999901    1    3    3    0    0 -0.55708713018E-01 -0.43598040946E-01  0.90465935623E-01  0.88746173742E+00  0.88000000000E+00 0. -1.
        -11    1    4    4    0    0  0.12500163581E-01  0.31497166680E-02 -0.15261350101E-01  0.19983611599E-01  0.51100000000E-03 0. -1.
         11    1    4    4    0    0  0.49607935390E-01  0.63086413893E-01 -0.79046877000E-01  0.11264773747E+00  0.51100000000E-03 0.  1.
</event>
<event>
 8    1  0.1202249E+005  0.1043930E+01  0.7957747E-01            NaN
         13   -1    0    0    0    0  0.00000000000E+00  0.00000000000E+00  0.74505805969E-08  0.10566000000E+00  0.10566000000E+00 0.  1.
     999900   -1    0    0    0    0 -0.00000000000E+00 -0.00000000000E+00 -0.74505805969E-08  0.93827000000E+00  0.93827000000E+00 0.  1.
     999902    2    1    2    0    0 -0.11426931405E-01 -0.26580181612E-01 -0.66739731543E-02  0.10142378675E+01  0.10138031511E+01 0.  0.
     999903    2    3    3    0    0 -0.10102414262E+00 -0.47552325361E-01 -0.59277315681E-01  0.12787755547E+00  0.19281286230E-01 0.  0.
         14    1    1    2    0    0  0.11426931405E-01  0.26580181612E-01  0.66739731543E-02  0.29692132519E-01  0.00000000000E+00 0. -1.
     999901    1    3    3    0    0  0.89597211212E-01  0.20972143749E-01  0.52603342527E-01  0.88636031202E+00  0.88000000000E+00 0.  1.
        -11    1    4    4    0    0 -0.18590774261E-01 -0.17390635604E-01 -0.11508654504E-01  0.27942107004E-01  0.51100000000E-03 0. -1.
         11    1    4    4    0    0 -0.82433368356E-01 -0.30161689758E-01 -0.47768661177E-01  0.99935448462E-01  0.51100000000E-03 0.  1.
</event>
<event>
 8    1  0.1202249E+005  0.1043930E+01  0.7957747E-01            NaN
         13   -1    0    0    0    0  0.00000000000E+00  0.00000000000E+00  0.74505805969E-08  0.10566000000E+00  0.10566000000E+00 0.  1.
     999900   -1    0    0    0    0 -0.00000000000E+00 -0.00000000000E+00 -0.74505805969E-08  0.93827000000E+00  0.93827000000E+00 0. -1.
     999902    2    1    2    0    0  0.70792497372E-02 -0.14581087677E-01  0.16981436789E-01  0.10204546280E+01  0.10201845690E+01 0.  0.
     999903    2    3    3    0    0 -0.10592604954E+00 -0.32879493450E-01 -0.63217378527E-01  0.12942327093E+00  0.21273388311E-01 0.  0.
         14    1    1    2    0    0 -0.70792497372E-02  0.14581087677E-01 -0.16981436789E-01  0.23475371991E-01  0.00000000000E+00 0. -1.
     999901    1    3    3    0    0  0.11300529928E+00  0.18298405773E-01  0.80198815316E-01  0.89103135708E+00  0.88000000000E+00 0.  1.
        -11    1    4    4    0    0 -0.87931236446E-01 -0.19800160788E-01 -0.45431495624E-01  0.10093676548E+00  0.51100000000E-03 0. -1.
         11    1    4    4    0    0 -0.17994813093E-01 -0.13079332662E-01 -0.17785882902E-01  0.28486505450E-01  0.51100000000E-03 0.  1.
</event>
<event>
 8    1  0.1202249E+005  0.1043930E+01  0.7957747E-01            NaN
         13   -1    0    0    0    0  0.00000000000E+00  0.00000000000E+00  0.74505805969E-08  0.10566000000E+00  0.10566000000E+00 0. -1.
     999900   -1    0    0    0    0 -0.00000000000E+00 -0.00000000000E+00 -0.74505805969E-08  0.93827000000E+00  0.93827000000E+00 0.  1.
     999902    2    1    2    0    0 -0.98679744040E-02  0.21093682388E-01 -0.57316108114E-02  0.10199472621E+01  0.10196652616E+01 0.  0.
     999903    2    3    3    0    0  0.16196889742E-01 -0.81000747902E-01  0.95571485104E-01  0.12789066798E+00  0.19966316474E-01 0.  0.
         14    1    1    2    0    0  0.98679744040E-02 -0.21093682388E-01  0.57316108114E-02  0.23982737917E-01  0.00000000000E+00 0.  1.
     999901    1    3    3    0    0 -0.26064864146E-01  0.10209443029E+00 -0.10130309592E+00  0.89205659410E+00  0.88000000000E+00 0.  1.
        -11    1    4    4    0    0  0.57941160844E-02 -0.12145706544E-01  0.26930724966E-01  0.30110048768E-01  0.51100000000E-03 0. -1.
         11    1    4    4    0    0  0.10402773657E-01 -0.68855041358E-01  0.68640760139E-01  0.97780619212E-01  0.51100000000E-03 0.  1.
</event>
<event>
 8    1  0.1202249E+005  0.1043930E+01  0.7957747E-01            NaN
         13   -1    0    0    0    0  0.00000000000E+00  0.00000000000E+00  0.74505805969E-08  0.10566000000E+00  0.10566000000E+00 0.  1.
     999900   -1    0    0    0    0 -0.00000000000E+00 -0.00000000000E+00 -0.74505805969E-08  0.93827000000E+00  0.93827000000E+00 0.  1.
     999902    2    1    2    0    0  0.16652031593E-01 -0.69955101676E-02 -0.15652274638E-01  0.10200297695E+01  0.10197497289E+01 0.  0.
     999903    2    3    3    0    0  0.12833497160E+00  0.20592925517E-01  0.11145362386E-01  0.13213770720E+00  0.21029052369E-01 0.  0.
         14    1    1    2    0    0 -0.16652031593E-01  0.69955101676E-02  0.15652274638E-01  0.23900230544E-01  0.00000000000E+00 0.  1.
     999901    1    3    3    0    0 -0.11168294001E+00 -0.27588435684E-01 -0.26797637024E-01  0.88789206226E+00  0.88000000000E+00 0. -1.
        -11    1    4    4    0    0  0.28031680526E-01  0.12376084391E-01 -0.16286468467E-02  0.30689675617E-01  0.51100000000E-03 0.  1.
         11    1    4    4    0    0  0.10030329108E+00  0.82168411260E-02  0.12774009233E-01  0.10144803158E+00  0.51100000000E-03 0. -1.
</event>
<event>
 8    1  0.1202249E+005  0.1043930E+01  0.7957747E-01            NaN
         13   -1    0    0    0    0  0.00000000000E+00  0.00000000000E+00  0.74505805969E-08  0.10566000000E+00  0.10566000000E+00 0.  1.
     999900   -1    0    0    0    0 -0.00000000000E+00 -0.00000000000E+00 -0.74505805969E-08  0.93827000000E+00  0.93827000000E+00 0.  1.
     999902    2    1    2    0    0 -0.70193772987E-02  0.79348607369E-02  0.20851370195E-01  0.10205416843E+01  0.10202736476E+01 0.  0.
     999903    2    3    3    0    0  0.10691697406E+00  0.64185591435E-01  0.32644607223E-01  0.13133714241E+00  0.25154425187E-01 0.  0.
         14    1    1    2    0    0  0.70193772987E-02 -0.79348607369E-02 -0.20851370195E-01  0.23388315706E-01  0.00000000000E+00 0.  1.
     999901    1    3    3    0    0 -0.11393635136E+00 -0.56250730698E-01 -0.11793237028E-01  0.88920454188E+00  0.88000000000E+00 0.  1.
        -11    1    4    4    0    0  0.14424051184E-01  0.13926339780E-01 -0.28260163410E-02  0.20254473126E-01  0.51100000000E-03 0.  1.
         11    1    4    4    0    0  0.92492922873E-01  0.50259251655E-01  0.35470623564E-01  0.11108266929E+00  0.51100000000E-03 0. -1.
</event>
<event>
 8    1  0.1202249E+005  0.1043930E+01  0.7957747E-01            NaN
         13   -1    0    0    0    0  0.00000000000E+00  0.00000000000E+00  0.74505805969E-08  0.10566000000E+00  0.10566000000E+00 0. -1.
     999900   -1    0    0    0    0 -0.00000000000E+00 -0.00000000000E+00 -0.74505805969E-08  0.93827000000E+00  0.93827000000E+00 0.  1.
     999902    2    1    2    0    0 -0.15550192281E-01  0.38819260859E-02  0.17285801936E-01  0.10203572026E+01  0.10200848710E+01 0.  0.
     999903    2    3    3    0    0 -0.70853915984E-01 -0.24431712803E-01 -0.10399358738E+00  0.12986921597E+00  0.20836531369E-01 0.  0.
         14    1    1    2    0    0  0.15550192281E-01 -0.38819260859E-02 -0.17285801936E-01  0.23572797430E-01  0.00000000000E+00 0.  1.
     999901    1    3    3    0    0  0.55303723703E-01  0.28313638889E-01  0.12127938932E+00  0.89048798660E+00  0.88000000000E+00 0. -1.
        -11    1    4    4    0    0 -0.10552777028E-01  0.23210376349E-02 -0.22932032494E-01  0.25355227350E-01  0.51100000000E-03 0.  1.
         11    1    4    4    0    0 -0.60301138956E-01 -0.26752750438E-01 -0.81061554889E-01  0.10451398862E+00  0.51100000000E-03 0. -1.
</event>
<event>
 8    1  0.1202249E+005  0.1043930E+01  0.7957747E-01            NaN
         13   -1    0    0    0    0  0.00000000000E+00  0.00000000000E+00  0.74505805969E-08  0.10566000000E+00  0.10566000000E+00 0.  1.
     999900   -1    0    0    0    0 -0.00000000000E+00 -0.00000000000E+00 -0.74505805969E-08  0.93827000000E+00  0.93827000000E+00 0. -1.
     999902    2    1    2    0    0  0.14872459580E-01 -0.13214538664E-01 -0.13280869079E-01  0.10200093903E+01  0.10197288663E+01 0.  0.
     999903    2    3    3    0    0  0.68184687551E-01 -0.75046669549E-01  0.80890751729E-01  0.13122724586E+00  0.19902816754E-01 0.  0.
         14    1    1    2    0    0 -0.14872459580E-01  0.13214538664E-01  0.13280869079E-01  0.23920609724E-01  0.00000000000E+00 0.  1.
     999901    1    3    3    0    0 -0.53312227971E-01  0.61832130885E-01 -0.94171620808E-01  0.88878214441E+00  0.88000000000E+00 0. -1.
        -11    1    4    4    0    0  0.33037349050E-01 -0.34468614298E-01  0.25667439168E-01  0.54209135377E-01  0.51100000000E-03 0. -1.
         11    1    4    4    0    0  0.35147338501E-01 -0.40578055251E-01  0.55223312561E-01  0.77018110486E-01  0.51100000000E-03 0.  1.
</event>
<event>
 8    1  0.1202249E+005  0.1043930E+01  0.7957747E-01            NaN
         13   -1    0    0    0    0  0.00000000000E+00  0.00000000000E+00  0.74505805969E-08  0.10566000000E+00  0.10566000000E+00 0.  1.
     999900   -1    0    0    0    0 -0.00000000000E+00 -0.00000000000E+00 -0.74505805969E-08  0.93827000000E+00  0.93827000000E+00 0.  1.
     999902    2    1    2    0    0  0.11638452476E-01  0.19928658152E-01 -0.36958054245E-02  0.10205577094E+01  0.10202900441E+01 0.  0.
     999903    2    3    3    0    0 -0.14959691024E-01 -0.86302782257E-01 -0.92984270467E-01  0.12928614011E+00  0.19921568457E-01 0.  0.
         14    1    1    2    0    0 -0.11638452476E-01 -0.19928658152E-01  0.36958054245E-02  0.23372290635E-01  0.00000000000E+00 0. -1.
     999901    1    3    3    0    0  0.26598143500E-01  0.10623144041E+00  0.89288465043E-01  0.89127156925E+00  0.88000000000E+00 0. -1.
        -11    1    4    4    0    0 -0.17024454103E-01 -0.57959205495E-01 -0.53905614093E-01  0.80964053079E-01  0.51100000000E-03 0.  1.
         11    1    4    4    0    0  0.20647630791E-02 -0.28343576762E-01 -0.39078656374E-01  0.48322087033E-01  0.51100000000E-03 0. -1.
</event>
<event>
 8    1  0.1202249E+005  0.1043930E+01  0.7957747E-01            NaN
         13   -1    0    0    0    0  0.00000000000E+00  0.00000000000E+00  0.74505805969E-08  0.10566000000E+00  0.10566000000E+00 0. -1.
     999900   -1    0    0    0    0 -0.00000000000E+00 -0.00000000000E+00 -0.74505805969E-08  0.93827000000E+00  0.93827000000E+00 0. -1.
     999902    2    1    2    0    0 -0.19440287497E-01 -0.84573911773E-02  0.97606916492E-02  0.10205906910E+01  0.10203237894E+01 0.  0.
     999903    2    3    3    0    0 -0.27756737999E-01  0.12145842717E+00 -0.31484472317E-01  0.13005801514E+00  0.20030708174E-01 0.  0.
         14    1    1    2    0    0  0.19440287497E-01  0.84573911773E-02 -0.97606916492E-02  0.23339309008E-01  0.00000000000E+00 0.  1.
     999901    1    3    3    0    0  0.83164505014E-02 -0.12991581835E+00  0.41245163967E-01  0.89053267585E+00  0.88000000000E+00 0.  1.
        -11    1    4    4    0    0 -0.49306043878E-02  0.60617676705E-01 -0.20302818381E-01  0.64119257201E-01  0.51100000000E-03 0.  1.
         11    1    4    4    0    0 -0.22826133611E-01  0.60840750467E-01 -0.11181653936E-01  0.65938757941E-01  0.51100000000E-03 0. -1.
</event>
<event>
 8    1  0.1202249E+005  0.1043930E+01  0.7957747E-01            NaN
         13   -1    0    0    0    0  0.00000000000E+00  0.00000000000E+00  0.74505805969E-08  0.10566000000E+00  0.10566000000E+00 0. -1.
     999900   -1    0    0    0    0 -0.00000000000E+00 -0.00000000000E+00 -0.74505805969E-08  0.93827000000E+00  0.93827000000E+00 0. -1.
     999902    2    1    2    0    0  0.47899999719E-02  0.22422942469E-01 -0.80395613650E-02  0.10196325311E+01  0.10193429901E+01 0.  0.
     999903    2    3    3    0    0  0.47939418177E-01 -0.26521393642E-01  0.11459922476E+00  0.12873540336E+00  0.20934412505E-01 0.  0.
         14    1    1    2    0    0 -0.47899999719E-02 -0.22422942469E-01  0.80395613650E-02  0.24297468914E-01  0.00000000000E+00 0. -1.
     999901    1    3    3    0    0 -0.43149418206E-01  0.48944336111E-01 -0.12263878612E+00  0.89089712773E+00  0.88000000000E+00 0. -1.
        -11    1    4    4    0    0  0.20707694257E-01 -0.21885303043E-01  0.48561398849E-01  0.57151077592E-01  0.51100000000E-03 0.  1.
         11    1    4    4    0    0  0.27231723921E-01 -0.46360905984E-02  0.66037825910E-01  0.71584325768E-01  0.51100000000E-03 0. -1.
</event>
<event>
 8    1  0.1202249E+005  0.1043930E+01  0.7957747E-01            NaN
         13   -1    0    0    0    0  0.00000000000E+00  0.00000000000E+00  0.74505805969E-08  0.10566000000E+00  0.10566000000E+00 0.  1.
     999900   -1    0    0    0    0 -0.00000000000E+00 -0.00000000000E+00 -0.74505805969E-08  0.93827000000E+00  0.93827000000E+00 0.  1.
     999902    2    1    2    0    0 -0.15435321267E-02 -0.22518448514E-01 -0.67112996128E-02  0.10203820796E+01  0.10201103292E+01 0.  0.
     999903    2    3    3    0    0 -0.17671545405E-01 -0.12141353157E+00  0.47187420060E-01  0.13305721106E+00  0.20592222726E-01 0.  0.
         14    1    1    2    0    0  0.15435321267E-02  0.22518448514E-01  0.67112996128E-02  0.23547920448E-01  0.00000000000E+00 0.  1.
     999901    1    3    3    0    0  0.16128013278E-01  0.98895083058E-01 -0.53898719673E-01  0.88732486849E+00  0.88000000000E+00 0.  1.
        -11    1    4    4    0    0 -0.94500005130E-02 -0.10357527942E+00  0.34120487507E-01  0.10946053994E+00  0.51100000000E-03 0.  1.
         11    1    4    4    0    0 -0.82215448919E-02 -0.17838252157E-01  0.13066932553E-01  0.23596671116E-01  0.51100000000E-03 0. -1.
</event>
<event>
 8    1  0.1202249E+005  0.1043930E+01  0.7957747E-01            NaN
         13   -1    0    0    0    0  0.00000000000E+00  0.00000000000E+00  0.74505805969E-08  0.10566000000E+00  0.10566000000E+00 0.  1.
     999900   -1    0    0    0    0 -0.00000000000E+00 -0.00000000000E+00 -0.74505805969E-08  0.93827000000E+00  0.93827000000E+00 0. -1.
     999902    2    1    2    0    0  0.17057413351E-01 -0.61447313379E-02  0.14273316564E-01  0.10208553247E+01  0.10205945098E+01 0.  0.
     999903    2    3    3    0    0  0.10810124729E+00  0.73201477004E-01  0.16160897006E-01  0.13260515532E+00  0.16691816137E-01 0.  0.
         14    1    1    2    0    0 -0.17057413351E-01  0.61447313379E-02 -0.14273316564E-01  0.23074675278E-01  0.00000000000E+00 0. -1.
     999901    1    3    3    0    0 -0.91043833936E-01 -0.79346208342E-01 -0.18875804423E-02  0.88825016940E+00  0.88000000000E+00 0.  1.
        -11    1    4    4    0    0  0.43460287528E-01  0.33865570208E-01  0.14242530088E-01  0.56910317358E-01  0.51100000000E-03 0.  1.
         11    1    4    4    0    0  0.64640959759E-01  0.39335906796E-01  0.19183669182E-02  0.75694837966E-01  0.51100000000E-03 0. -1.
</event>
<event>
 8    1  0.1231673E+005  0.1043930E+01  0.7957747E-01            NaN
         13   -1    0    0    0    0  0.00000000000E+00  0.00000000000E+00  0.74505805969E-08  0.10566000000E+00  0.10566000000E+00 0. -1.
     999900   -1    0    0    0    0 -0.00000000000E+00 -0.00000000000E+00 -0.74505805969E-08  0.93827000000E+00  0.93827000000E+00 0.  1.
     999902    2    1    2    0    0 -0.23312756685E-01  0.93976490702E-03  0.90890400107E-02  0.10188904627E+01  0.10185827391E+01 0.  0.
     999903    2    3    3    0    0  0.53383042092E-02  0.43093139231E-01 -0.11888713698E+00  0.12817407000E+00  0.20221887664E-01 0.  0.
         14    1    1    2    0    0  0.23312756685E-01 -0.93976490702E-03 -0.90890400107E-02  0.25039537349E-01  0.00000000000E+00 0.  1.
     999901    1    3    3    0    0 -0.28651060894E-01 -0.42153374324E-01  0.12797617699E+00  0.89071639265E+00  0.88000000000E+00 0. -1.
        -11    1    4    4    0    0 -0.53829835129E-02  0.48590743209E-02 -0.29144394445E-01  0.30037376106E-01  0.51100000000E-03 0. -1.
         11    1    4    4    0    0  0.10721287722E-01  0.38234064910E-01 -0.89742742536E-01  0.98136693896E-01  0.51100000000E-03 0.  1.
</event>
<event>
 8    1  0.1202249E+005  0.1043930E+01  0.7957747E-01            NaN
         13   -1    0    0    0    0  0.00000000000E+00  0.00000000000E+00  0.74505805969E-08  0.10566000000E+00  0.10566000000E+00 0. -1.
     999900   -1    0    0    0    0 -0.00000000000E+00 -0.00000000000E+00 -0.74505805969E-08  0.93827000000E+00  0.93827000000E+00 0.  1.
     999902    2    1    2    0    0  0.39113383078E-02  0.13119440806E-01 -0.23696027648E-01  0.10165635969E+01  0.10161951714E+01 0.  0.
     999903    2    3    3    0    0 -0.40604059417E-01 -0.10775360626E+00 -0.49094083816E-01  0.12682376107E+00  0.20359469590E-01 0.  0.
         14    1    1    2    0    0 -0.39113383078E-02 -0.13119440806E-01  0.23696027648E-01  0.27366403138E-01  0.00000000000E+00 0. -1.
     999901    1    3    3    0    0  0.44515397725E-01  0.12087304707E+00  0.25398056168E-01  0.88973983579E+00  0.88000000000E+00 0. -1.
        -11    1    4    4    0    0 -0.14992139202E-01 -0.46482562815E-01 -0.31508107079E-01  0.58124132823E-01  0.51100000000E-03 0. -1.
         11    1    4    4    0    0 -0.25611920215E-01 -0.61271043446E-01 -0.17585976737E-01  0.68699628244E-01  0.51100000000E-03 0.  1.
</event>
<event>
 8    1  0.1202249E+005  0.1043930E+01  0.7957747E-01            NaN
         13   -1    0    0    0    0  0.00000000000E+00  0.00000000000E+00  0.74505805969E-08  0.10566000000E+00  0.10566000000E+00 0.  1.
     999900   -1    0    0    0    0 -0.00000000000E+00 -0.00000000000E+00 -0.74505805969E-08  0.93827000000E+00  0.93827000000E+00 0. -1.
     999902    2    1    2    0    0 -0.12811096011E-02 -0.22958034284E-01  0.13486036140E-02  0.10208967347E+01  0.10206368657E+01 0.  0.
     999903    2    3    3    0    0  0.11362488430E+00 -0.21590246246E-01 -0.58085185513E-01  0.13143755429E+00  0.22916998821E-01 0.  0.
         14    1    1    2    0    0  0.12811096011E-02  0.22958034284E-01 -0.13486036140E-02  0.23033265329E-01  0.00000000000E+00 0.  1.
     999901    1    3    3    0    0 -0.11490599390E+00 -0.13677880384E-02  0.59433789127E-01  0.88945918038E+00  0.88000000000E+00 0. -1.
        -11    1    4    4    0    0  0.62358769647E-01 -0.15237570590E-01 -0.44209676835E-01  0.77945855286E-01  0.51100000000E-03 0.  1.
         11    1    4    4    0    0  0.51266114656E-01 -0.63526756559E-02 -0.13875508677E-01  0.53491699001E-01  0.51100000000E-03 0. -1.
</event>
<event>
 8    1  0.1202249E+005  0.1043930E+01  0.7957747E-01            NaN
         13   -1    0    0    0    0  0.00000000000E+00  0.00000000000E+00  0.74505805969E-08  0.10566000000E+00  0.10566000000E+00 0.  1.
     999900   -1    0    0    0    0 -0.00000000000E+00 -0.00000000000E+00 -0.74505805969E-08  0.93827000000E+00  0.93827000000E+00 0. -1.
     999902    2    1    2    0    0  0.18634201665E-01 -0.16575863091E-02 -0.13496676629E-01  0.10208618110E+01  0.10206011443E+01 0.  0.
     999903    2    3    3    0    0 -0.16281895144E-01  0.12805460616E+00 -0.41203209470E-02  0.13061897741E+00  0.19525827728E-01 0.  0.
         14    1    1    2    0    0 -0.18634201665E-01  0.16575863091E-02  0.13496676629E-01  0.23068189007E-01  0.00000000000E+00 0.  1.
     999901    1    3    3    0    0  0.34916096809E-01 -0.12971219247E+00 -0.93763556815E-02  0.89024283358E+00  0.88000000000E+00 0. -1.
        -11    1    4    4    0    0 -0.30497296253E-02  0.88155595603E-01 -0.69610451834E-02  0.88484050302E-01  0.51100000000E-03 0. -1.
         11    1    4    4    0    0 -0.13232165518E-01  0.39899010555E-01  0.28407242364E-02  0.42134927112E-01  0.51100000000E-03 0.  1.
</event>
<event>
 8    1  0.1202249E+005  0.1043930E+01  0.7957747E-01            NaN
         13   -1    0    0    0    0  0.00000000000E+00  0.00000000000E+00  0.74505805969E-08  0.10566000000E+00  0.10566000000E+00 0. -1.
     999900   -1    0    0    0    0 -0.00000000000E+00 -0.00000000000E+00 -0.74505805969E-08  0.93827000000E+00  0.93827000000E+00 0.  1.
     999902    2    1    2    0    0  0.92357179221E-02  0.20458361339E-01 -0.63029558796E-02  0.10206154061E+01  0.10203490760E+01 0.  0.
     999903    2    3    3    0    0  0.12937479372E+00 -0.13700974208E-01 -0.83228539145E-02  0.13179352425E+00  0.19357406668E-01 0.  0.
         14    1    1    2    0    0 -0.92357179221E-02 -0.20458361339E-01  0.63029558796E-02  0.23314593864E-01  0.00000000000E+00 0. -1.
     999901    1    3    3    0    0 -0.12013907579E+00  0.34159335547E-01  0.20198980350E-02  0.88882188189E+00  0.88000000000E+00 0. -1.
        -11    1    4    4    0    0  0.89573033249E-01 -0.14498387538E-01  0.16315576445E-02  0.90754915173E-01  0.51100000000E-03 0.  1.
         11    1    4    4    0    0  0.39801760466E-01  0.79741333030E-03 -0.99544115591E-02  0.41038609074E-01  0.51100000000E-03 0. -1.
</event>
<event>
 8    1  0.1202249E+005  0.1043930E+01  0.7957747E-01            NaN
         13   -1    0    0    0    0  0.00000000000E+00  0.00000000000E+00  0.74505805969E-08  0.10566000000E+00  0.10566000000E+00 0. -1.
     999900   -1    0    0    0    0 -0.00000000000E+00 -0.00000000000E+00 -0.74505805969E-08  0.93827000000E+00  0.93827000000E+00 0. -1.
     999902    2    1    2    0    0  0.13565888616E-01  0.62446074473E-03 -0.19479618123E-01  0.10201838675E+01  0.10199074687E+01 0.  0.
     999903    2    3    3    0    0  0.31021226701E-01 -0.46311185398E-01  0.11425789884E+00  0.12867202400E+00  0.19864035677E-01 0.  0.
         14    1    1    2    0    0 -0.13565888616E-01 -0.62446074473E-03  0.19479618123E-01  0.23746132472E-01  0.00000000000E+00 0. -1.
     999901    1    3    3    0    0 -0.17455338084E-01  0.46935646143E-01 -0.13373751697E+00  0.89151184353E+00  0.88000000000E+00 0. -1.
        -11    1    4    4    0    0  0.31850530871E-01 -0.36160335300E-01  0.85303276581E-01  0.97974161299E-01  0.51100000000E-03 0.  1.
         11    1    4    4    0    0 -0.82930417009E-03 -0.10150850098E-01  0.28954622261E-01  0.30697862701E-01  0.51100000000E-03 0. -1.
</event>
<event>
 8    1  0.1202249E+005  0.1043930E+01  0.7957747E-01            NaN
         13   -1    0    0    0    0  0.00000000000E+00  0.00000000000E+00  0.74505805969E-08  0.10566000000E+00  0.10566000000E+00 0. -1.
     999900   -1    0    0    0    0 -0.00000000000E+00 -0.00000000000E+00 -0.74505805969E-08  0.93827000000E+00  0.93827000000E+00 0.  1.
     999902    2    1    2    0    0 -0.12483891705E-01  0.26000105256E-03  0.20287375331E-01  0.10201078937E+01  0.10198297024E+01 0.  0.
     999903    2    3    3    0    0 -0.68691327165E-01  0.67811976037E-01  0.89411789020E-01  0.13303364102E+00  0.19660089173E-01 0.  0.
         14    1    1    2    0    0  0.12483891705E-01 -0.26000105256E-03 -0.20287375331E-01  0.23822106340E-01  0.00000000000E+00 0.  1.
     999901    1    3    3    0    0  0.56207435460E-01 -0.67551974984E-01 -0.69124413689E-01  0.88707425264E+00  0.88000000000E+00 0.  1.
        -11    1    4    4    0    0 -0.12192000942E-01  0.96806236292E-02  0.25167018745E-01  0.29597285591E-01  0.51100000000E-03 0. -1.
         11    1    4    4    0    0 -0.56499326223E-01  0.58131352408E-01  0.64244770275E-01  0.10343635543E+00  0.51100000000E-03 0.  1.
</event>
<event>
 8    1  0.1202249E+005  0.1043930E+01  0.7957747E-01            NaN
         13   -1    0    0    0    0  0.00000000000E+00  0.00000000000E+00  0.74505805969E-08  0.10566000000E+00  0.10566000000E+00 0.  1.
     999900   -1    0    0    0    0 -0.00000000000E+00 -0.00000000000E+00 -0.74505805969E-08  0.93827000000E+00  0.93827000000E+00 0. -1.
     999902    2    1    2    0    0 -0.23116613382E-01 -0.48812720651E-02 -0.18607937744E-02  0.10202304813E+01  0.10199551793E+01 0.  0.
     999903    2    3    3    0    0 -0.12634736704E+00  0.57298176603E-02  0.37140178344E-01  0.13327486827E+00  0.19654762722E-01 0.  0.
         14    1    1    2    0    0  0.23116613382E-01  0.48812720651E-02  0.18607937744E-02  0.23699518659E-01  0.00000000000E+00 0. -1.
     999901    1    3    3    0    0  0.10323075366E+00 -0.10611089725E-01 -0.39000972119E-01  0.88695561307E+00  0.88000000000E+00 0. -1.
        -11    1    4    4    0    0 -0.10615609058E+00  0.16984959556E-02  0.37715114509E-01  0.11267072130E+00  0.51100000000E-03 0. -1.
         11    1    4    4    0    0 -0.20191276461E-01  0.40313217048E-02 -0.57493616438E-03  0.20604146971E-01  0.51100000000E-03 0.  1.
</event>
<event>
 8    1  0.1202249E+005  0.1043930E+01  0.7957747E-01            NaN
         13   -1    0    0    0    0  0.00000000000E+00  0.00000000000E+00  0.74505805969E-08  0.10566000000E+00  0.10566000000E+00 0.  1.
     999900   -1    0    0    0    0 -0.00000000000E+00 -0.00000000000E+00 -0.74505805969E-08  0.93827000000E+00  0.93827000000E+00 0.  1.
     999902    2    1    2    0    0 -0.91938239030E-02 -0.31897233170E-02 -0.19456906712E-01  0.10221751856E+01  0.10219436570E+01 0.  0.
     999903    2    3    3    0    0 -0.89988737132E-01 -0.38840560903E-01 -0.90643362832E-01  0.13489489627E+00  0.19335248412E-01 0.  0.
         14    1    1    2    0    0  0.91938239030E-02  0.31897233170E-02  0.19456906712E-01  0.21754814446E-01  0.00000000000E+00 0.  1.
     999901    1    3    3    0    0  0.80794913229E-01  0.35650837586E-01  0.71186456120E-01  0.88728028929E+00  0.88000000000E+00 0. -1.
        -11    1    4    4    0    0 -0.40942744080E-02 -0.64420888621E-02 -0.38742677003E-02  0.85752354515E-02  0.51100000000E-03 0. -1.
         11    1    4    4    0    0 -0.85894462724E-01 -0.32398472041E-01 -0.86769095131E-01  0.12631966081E+00  0.51100000000E-03 0.  1.
</event>
<event>
 8    1  0.1202249E+005  0.1043930E+01  0.7957747E-01            NaN
         13   -1    0    0    0    0  0.00000000000E+00  0.00000000000E+00  0.74505805969E-08  0.10566000000E+00  0.10566000000E+00 0.  1.
     999900   -1    0    0    0    0 -0.00000000000E+00 -0.00000000000E+00 -0.74505805969E-08  0.93827000000E+00  0.93827000000E+00 0. -1.
     999902    2    1    2    0    0  0.43194338371E-02 -0.23650257460E-02 -0.21808883825E-01  0.10215720424E+01  0.10213273518E+01 0.  0.
     999903    2    3    3    0    0 -0.12104707233E+00  0.46721467062E-01  0.56738465524E-02  0.13090850034E+00  0.16418091298E-01 0.  0.
         14    1    1    2    0    0 -0.43194338371E-02  0.23650257460E-02  0.21808883825E-01  0.22357957624E-01  0.00000000000E+00 0.  1.
     999901    1    3    3    0    0  0.12536650617E+00 -0.49086492808E-01 -0.27482730377E-01  0.89066354204E+00  0.88000000000E+00 0. -1.
        -11    1    4    4    0    0 -0.62104703173E-01  0.17417410651E-01  0.82668151034E-02  0.65030467498E-01  0.51100000000E-03 0. -1.
         11    1    4    4    0    0 -0.58942369158E-01  0.29304056411E-01 -0.25929685510E-02  0.65878032841E-01  0.51100000000E-03 0.  1.
</event>
<event>
 8    1  0.1202249E+005  0.1043930E+01  0.7957747E-01            NaN
         13   -1    0    0    0    0  0.00000000000E+00  0.00000000000E+00  0.74505805969E-08  0.10566000000E+00  0.10566000000E+00 0. -1.
     999900   -1    0    0    0    0 -0.00000000000E+00 -0.00000000000E+00 -0.74505805969E-08  0.93827000000E+00  0.93827000000E+00 0.  1.
     999902    2    1    2    0    0  0.57919707153E-02  0.14774200231E-01 -0.19108274519E-01  0.10190915203E+01  0.10187887793E+01 0.  0.
     999903    2    3    3    0    0  0.12163175447E+00 -0.13649211356E-01  0.36612761596E-01  0.12929852210E+00  0.19925582524E-01 0.  0.
         14    1    1    2    0    0 -0.57919707153E-02 -0.14774200231E-01  0.19108274519E-01  0.24838479671E-01  0.00000000000E+00 0. -1.
     999901    1    3    3    0    0 -0.11583978376E+00  0.28423411587E-01 -0.55721036116E-01  0.88979299823E+00  0.88000000000E+00 0.  1.
        -11    1    4    4    0    0  0.74655924042E-01 -0.17811076313E-01  0.25076663555E-01  0.80745536162E-01  0.51100000000E-03 0.  1.
         11    1    4    4    0    0  0.46975830432E-01  0.41618649563E-02  0.11536098042E-01  0.48552985941E-01  0.51100000000E-03 0. -1.
</event>
<event>
 7    1  0.1202249E+005  0.1043930E+01  0.7957747E-01            NaN
         13   -1    0    0    0    0  0.00000000000E+00  0.00000000000E+00  0.74505805969E-08  0.10566000000E+00  0.10566000000E+00 0. -1.
     999900   -1    0    0    0    0 -0.00000000000E+00 -0.00000000000E+00 -0.74505805969E-08  0.93827000000E+00  0.93827000000E+00 0.  1.
     999903    2    1    2    0    0 -0.54483475418E-01 -0.47783017103E-01 -0.70884692976E-01  0.10323410896E+00  0.19518599802E-01 0.  0.
         14    1    1    2    0    0 -0.28133956882E-01 -0.40975309316E-01  0.42153582466E-02  0.49882509445E-01  0.00000000000E+00 0. -1.
     999901    1    1    2    0    0  0.82617432300E-01  0.88758326418E-01  0.66669334729E-01  0.89081338159E+00  0.88000000000E+00 0. -1.
        -11    1    3    3    0    0 -0.55558471896E-01 -0.43918947349E-01 -0.68553120565E-01  0.98566775314E-01  0.51100000000E-03 0. -1.
         11    1    3    3    0    0  0.10749964779E-02 -0.38640697541E-02 -0.23315724113E-02  0.46673336501E-02  0.51100000000E-03 0.  1.
</event>
<event>
 8    1  0.1202249E+005  0.1043930E+01  0.7957747E-01            NaN
         13   -1    0    0    0    0  0.00000000000E+00  0.00000000000E+00  0.74505805969E-08  0.10566000000E+00  0.10566000000E+00 0.  1.
     999900   -1    0    0    0    0 -0.00000000000E+00 -0.00000000000E+00 -0.74505805969E-08  0.93827000000E+00  0.93827000000E+00 0. -1.
     999902    2    1    2    0    0 -0.15849131433E-01  0.91713853467E-02 -0.15055714136E-01  0.10202238024E+01  0.10199483434E+01 0.  0.
     999903    2    3    3    0    0  0.12527602766E+00 -0.16427173986E-01 -0.35223734207E-02  0.12853741431E+00  0.23356468289E-01 0.  0.
         14    1    1    2    0    0  0.15849131433E-01 -0.91713853467E-02  0.15055714136E-01  0.23706197597E-01  0.00000000000E+00 0.  1.
     999901    1    3    3    0    0 -0.14112515909E+00  0.25598559333E-01 -0.11533340715E-01  0.89168638810E+00  0.88000000000E+00 0.  1.
        -11    1    4    4    0    0  0.42958950923E-01 -0.10189081161E-01 -0.11417617201E-01  0.45606051603E-01  0.51100000000E-03 0. -1.
         11    1    4    4    0    0  0.82317076736E-01 -0.62380928248E-02  0.78952437800E-02  0.82931362703E-01  0.51100000000E-03 0.  1.
</event>
<event>
 8    1  0.1202249E+005  0.1043930E+01  0.7957747E-01            NaN
         13   -1    0    0    0    0  0.00000000000E+00  0.00000000000E+00  0.74505805969E-08  0.10566000000E+00  0.10566000000E+00 0. -1.
     999900   -1    0    0    0    0 -0.00000000000E+00 -0.00000000000E+00 -0.74505805969E-08  0.93827000000E+00  0.93827000000E+00 0. -1.
     999902    2    1    2    0    0  0.99392391304E-02  0.54509422966E-02 -0.19023560742E-01  0.10217850884E+01  0.10215450894E+01 0.  0.
     999903    2    3    3    0    0 -0.11391694052E+00 -0.44000266623E-01 -0.44264466514E-01  0.13137906943E+00  0.19698327051E-01 0.  0.
         14    1    1    2    0    0 -0.99392391304E-02 -0.54509422966E-02  0.19023560742E-01  0.22144911599E-01  0.00000000000E+00 0. -1.
     999901    1    3    3    0    0  0.12385617965E+00  0.49451208920E-01  0.25240905771E-01  0.89040601897E+00  0.88000000000E+00 0. -1.
        -11    1    4    4    0    0 -0.60137299953E-01 -0.32844592689E-01 -0.28683681132E-01  0.74285104825E-01  0.51100000000E-03 0. -1.
         11    1    4    4    0    0 -0.53779640562E-01 -0.11155673934E-01 -0.15580785382E-01  0.57093964602E-01  0.51100000000E-03 0.  1.
</event>
<event>
 8    1  0.1202249E+005  0.1043930E+01  0.7957747E-01            NaN
         13   -1    0    0    0    0  0.00000000000E+00  0.00000000000E+00  0.74505805969E-08  0.10566000000E+00  0.10566000000E+00 0. -1.
     999900   -1    0    0    0    0 -0.00000000000E+00 -0.00000000000E+00 -0.74505805969E-08  0.93827000000E+00  0.93827000000E+00 0.  1.
     999902    2    1    2    0    0  0.18223702732E-01  0.15794352996E-01 -0.37123940836E-02  0.10195302705E+01  0.10192382576E+01 0.  0.
     999903    2    3    3    0    0  0.17715942476E-01 -0.10977865219E+00 -0.61625789011E-01  0.12873130402E+00  0.20218893851E-01 0.  0.
         14    1    1    2    0    0 -0.18223702732E-01 -0.15794352996E-01  0.37123940836E-02  0.24399729458E-01  0.00000000000E+00 0.  1.
     999901    1    3    3    0    0  0.50776025603E-03  0.12557300518E+00  0.57913394928E-01  0.89079896653E+00  0.88000000000E+00 0. -1.
        -11    1    4    4    0    0  0.18549608289E-01 -0.63959490435E-01 -0.42931331613E-01  0.79235501762E-01  0.51100000000E-03 0.  1.
         11    1    4    4    0    0 -0.83366581386E-03 -0.45819161752E-01 -0.18694457398E-01  0.49495802254E-01  0.51100000000E-03 0. -1.
</event>
<event>
 8    1  0.1202249E+005  0.1043930E+01  0.7957747E-01            NaN
         13   -1    0    0    0    0  0.00000000000E+00  0.00000000000E+00  0.74505805969E-08  0.10566000000E+00  0.10566000000E+00 0. -1.
     999900   -1    0    0    0    0 -0.00000000000E+00 -0.00000000000E+00 -0.74505805969E-08  0.93827000000E+00  0.93827000000E+00 0. -1.
     999902    2    1    2    0    0 -0.16683519218E-02 -0.77196838892E-02  0.22534992633E-01  0.10200510802E+01  0.10197715447E+01 0.  0.
     999903    2    3    3    0    0  0.10331006965E+00 -0.68362303968E-01 -0.32805862289E-01  0.13001703221E+00  0.21950602928E-01 0.  0.
         14    1    1    2    0    0  0.16683519218E-02  0.77196838892E-02 -0.22534992633E-01  0.23878919792E-01  0.00000000000E+00 0.  1.
     999901    1    3    3    0    0 -0.10497842158E+00  0.60642620079E-01  0.55340854923E-01  0.89003404799E+00  0.88000000000E+00 0.  1.
        -11    1    4    4    0    0  0.69425352237E-01 -0.35240151872E-01 -0.14390055908E-01  0.79177538906E-01  0.51100000000E-03 0. -1.
         11    1    4    4    0    0  0.33884717418E-01 -0.33122152096E-01 -0.18415806382E-01  0.50839493306E-01  0.51100000000E-03 0.  1.
</event>
<event>
 8    1  0.1202249E+005  0.1043930E+01  0.7957747E-01            NaN
         13   -1    0    0    0    0  0.00000000000E+00  0.00000000000E+00  0.74505805969E-08  0.10566000000E+00  0.10566000000E+00 0.  1.
     999900   -1    0    0    0    0 -0.00000000000E+00 -0.00000000000E+00 -0.74505805969E-08  0.93827000000E+00  0.93827000000E+00 0. -1.
     999902    2    1    2    0    0 -0.15544080236E-02  0.18320535104E-01 -0.15333116556E-01  0.10199891843E+01  0.10197081806E+01 0.  0.
     999903    2    3    3    0    0  0.75463864545E-01 -0.85528685656E-01 -0.57847167640E-01  0.12952642853E+00  0.20514627979E-01 0.  0.
         14    1    1    2    0    0  0.15544080236E-02 -0.18320535104E-01  0.15333116556E-01  0.23940815653E-01  0.00000000000E+00 0.  1.
     999901    1    3    3    0    0 -0.77018272569E-01  0.10384922076E+00  0.42514051084E-01  0.89046275582E+00  0.88000000000E+00 0. -1.
        -11    1    4    4    0    0  0.64397071891E-01 -0.61760196546E-01 -0.39855190837E-01  0.97724112189E-01  0.51100000000E-03 0. -1.
         11    1    4    4    0    0  0.11066792654E-01 -0.23768489111E-01 -0.17991976803E-01  0.31802316339E-01  0.51100000000E-03 0.  1.
</event>
<event>
 8    1  0.1202249E+005  0.1043930E+01  0.7957747E-01            NaN
         13   -1    0    0    0    0  0.00000000000E+00  0.00000000000E+00  0.74505805969E-08  0.10566000000E+00  0.10566000000E+00 0.  1.
     999900   -1    0    0    0    0 -0.00000000000E+00 -0.00000000000E+00 -0.74505805969E-08  0.93827000000E+00  0.93827000000E+00 0. -1.
     999902    2    1    2    0    0  0.18800091422E-02 -0.24513812502E-01 -0.81213706510E-03  0.10193307926E+01  0.10190339267E+01 0.  0.
     999903    2    3    3    0    0 -0.11562940478E-01 -0.77316916540E-01 -0.10337825368E+00  0.13169985074E+00  0.23370497939E-01 0.  0.
         14    1    1    2    0    0 -0.18800091422E-02  0.24513812502E-01  0.81213706510E-03  0.24599207393E-01  0.00000000000E+00 0. -1.
     999901    1    3    3    0    0  0.13442949620E-01  0.52803104038E-01  0.10256611662E+00  0.88763094187E+00  0.88000000000E+00 0.  1.
        -11    1    4    4    0    0 -0.11381340228E-01 -0.22347455699E-01 -0.44957771682E-01  0.51482094336E-01  0.51100000000E-03 0. -1.
         11    1    4    4    0    0 -0.18160025015E-03 -0.54969460841E-01 -0.58420481998E-01  0.80217756399E-01  0.51100000000E-03 0.  1.
</event>
<event>
 8    1  0.1202249E+005  0.1043930E+01  0.7957747E-01            NaN
         13   -1    0    0    0    0  0.00000000000E+00  0.00000000000E+00  0.74505805969E-08  0.10566000000E+00  0.10566000000E+00 0.  1.
     999900   -1    0    0    0    0 -0.00000000000E+00 -0.00000000000E+00 -0.74505805969E-08  0.93827000000E+00  0.93827000000E+00 0.  1.
     999902    2    1    2    0    0  0.15181115493E-02 -0.23917669858E-01  0.34137517747E-02  0.10197222885E+01  0.10194349084E+01 0.  0.
     999903    2    3    3    0    0  0.20238812733E-01 -0.88776435143E-01  0.94151518440E-01  0.13248474063E+00  0.19920670085E-01 0.  0.
         14    1    1    2    0    0 -0.15181115493E-02  0.23917669858E-01 -0.34137517747E-02  0.24207711484E-01  0.00000000000E+00 0. -1.
     999901    1    3    3    0    0 -0.18720701184E-01  0.64858765285E-01 -0.90737766666E-01  0.88723754789E+00  0.88000000000E+00 0.  1.
        -11    1    4    4    0    0  0.17769995828E-01 -0.41926711161E-01  0.37997757273E-01  0.59310307193E-01  0.51100000000E-03 0. -1.
         11    1    4    4    0    0  0.24688169050E-02 -0.46849723982E-01  0.56153761167E-01  0.73174433433E-01  0.51100000000E-03 0.  1.
</event>
<event>
 8    1  0.1202249E+005  0.1043930E+01  0.7957747E-01            NaN
         13   -1    0    0    0    0  0.00000000000E+00  0.00000000000E+00  0.74505805969E-08  0.10566000000E+00  0.10566000000E+00 0.  1.
     999900   -1    0    0    0    0 -0.00000000000E+00 -0.00000000000E+00 -0.74505805969E-08  0.93827000000E+00  0.93827000000E+00 0. -1.
     999902    2    1    2    0    0  0.36584589650E-02 -0.14233301608E-01  0.20897780214E-01  0.10183822327E+01  0.10180617287E+01 0.  0.
     999903    2    3    3    0    0 -0.99923927673E-01 -0.51698856357E-01  0.63093016474E-01  0.13051207519E+00  0.19877373386E-01 0.  0.
         14    1    1    2    0    0 -0.36584589650E-02  0.14233301608E-01 -0.20897780214E-01  0.25547767310E-01  0.00000000000E+00 0. -1.
     999901    1    3    3    0    0  0.10358238664E+00  0.37465554749E-01 -0.42195236260E-01  0.88787015750E+00  0.88000000000E+00 0. -1.
        -11    1    4    4    0    0 -0.72918292864E-01 -0.29853013249E-01  0.36910036921E-01  0.87010871623E-01  0.51100000000E-03 0. -1.
         11    1    4    4    0    0 -0.27005634809E-01 -0.21845843108E-01  0.26182979553E-01  0.43501203568E-01  0.51100000000E-03 0.  1.
</event>
<event>
 8    1  0.1202249E+005  0.1043930E+01  0.7957747E-01            NaN
         13   -1    0    0    0    0  0.00000000000E+00  0.00000000000E+00  0.74505805969E-08  0.10566000000E+00  0.10566000000E+00 0.  1.
     999900   -1    0    0    0    0 -0.00000000000E+00 -0.00000000000E+00 -0.74505805969E-08  0.93827000000E+00  0.93827000000E+00 0. -1.
     999902    2    1    2    0    0 -0.37757561178E-02  0.70028188604E-02  0.22538250630E-01  0.10200287752E+01  0.10197487110E+01 0.  0.
     999903    2    3    3    0    0  0.48327886943E-01 -0.10915428813E+00  0.48841490278E-01  0.13047881957E+00  0.19722776438E-01 0.  0.
         14    1    1    2    0    0  0.37757561178E-02 -0.70028188604E-02 -0.22538250630E-01  0.23901224816E-01  0.00000000000E+00 0. -1.
     999901    1    3    3    0    0 -0.52103643060E-01  0.11615710699E+00 -0.26303239648E-01  0.88954995562E+00  0.88000000000E+00 0. -1.
        -11    1    4    4    0    0  0.37619110985E-01 -0.72464934247E-01  0.41369305929E-01  0.91531660101E-01  0.51100000000E-03 0.  1.
         11    1    4    4    0    0  0.10708775958E-01 -0.36689353878E-01  0.74721843484E-02  0.38947159465E-01  0.51100000000E-03 0. -1.
</event>
<event>
 8    1  0.1202249E+005  0.1043930E+01  0.7957747E-01            NaN
         13   -1    0    0    0    0  0.00000000000E+00  0.00000000000E+00  0.74505805969E-08  0.10566000000E+00  0.10566000000E+00 0. -1.
     999900   -1    0    0    0    0 -0.00000000000E+00 -0.00000000000E+00 -0.74505805969E-08  0.93827000000E+00  0.93827000000E+00 0. -1.
     999902    2    1    2    0    0 -0.14538964645E-01 -0.25507353802E-03 -0.19237277866E-01  0.10198152863E+01  0.10195301363E+01 0.  0.
     999903    2    3    3    0    0 -0.46328219604E-01 -0.11413036314E+00 -0.41918303270E-01  0.13161904269E+00  0.19859117009E-01 0.  0.
         14    1    1    2    0    0  0.14538964645E-01  0.25507353802E-03  0.19237277866E-01  0.24114713665E-01  0.00000000000E+00 0. -1.
     999901    1    3    3    0    0  0.31789254959E-01  0.11387528960E+00  0.22681025404E-01  0.88819624365E+00  0.88000000000E+00 0. -1.
        -11    1    4    4    0    0 -0.41409481181E-01 -0.79798914428E-01 -0.33346032149E-01  0.95889680657E-01  0.51100000000E-03 0.  1.
         11    1    4    4    0    0 -0.49187384234E-02 -0.34331448708E-01 -0.85722711210E-02  0.35729362033E-01  0.51100000000E-03 0. -1.
</event>
<event>
 8    1  0.1202249E+005  0.1043930E+01  0.7957747E-01            NaN
         13   -1    0    0    0    0  0.00000000000E+00  0.00000000000E+00  0.74505805969E-08  0.10566000000E+00  0.10566000000E+00 0. -1.
     999900   -1    0    0    0    0 -0.00000000000E+00 -0.00000000000E+00 -0.74505805969E-08  0.93827000000E+00  0.93827000000E+00 0. -1.
     999902    2    1    2    0    0 -0.91791092191E-02 -0.33771054922E-02  0.20512681958E-01  0.10212048815E+01  0.10209519965E+01 0.  0.
     999903    2    3    3    0    0 -0.11136118537E-02 -0.68295549945E-01  0.11345632124E+00  0.13389547849E+00  0.19751963375E-01 0.  0.
         14    1    1    2    0    0  0.91791092191E-02  0.33771054922E-02 -0.20512681958E-01  0.22725118452E-01  0.00000000000E+00 0.  1.
     999901    1    3    3    0    0 -0.80654973653E-02  0.64918444453E-01 -0.92943639279E-01  0.88730940306E+00  0.88000000000E+00 0. -1.
        -11    1    4    4    0    0 -0.80398585727E-02 -0.23171828660E-01  0.50319812037E-01  0.55981403821E-01  0.51100000000E-03 0.  1.
         11    1    4    4    0    0  0.69262467190E-02 -0.45123721285E-01  0.63136509199E-01  0.77914074666E-01  0.51100000000E-03 0. -1.
</event>
<event>
 8    1  0.1202249E+005  0.1043930E+01  0.7957747E-01            NaN
         13   -1    0    0    0    0  0.00000000000E+00  0.00000000000E+00  0.74505805969E-08  0.10566000000E+00  0.10566000000E+00 0.  1.
     999900   -1    0    0    0    0 -0.00000000000E+00 -0.00000000000E+00 -0.74505805969E-08  0.93827000000E+00  0.93827000000E+00 0. -1.
     999902    2    1    2    0    0  0.14633112504E-01 -0.15032190870E-01  0.19018860412E-01  0.10156137185E+01  0.10152188993E+01 0.  0.
     999903    2    3    3    0    0  0.10287580449E+00  0.55242289769E-01 -0.43920050220E-01  0.12618323684E+00  0.18923443631E-01 0.  0.
         14    1    1    2    0    0 -0.14633112504E-01  0.15032190870E-01 -0.19018860412E-01  0.28316281452E-01  0.00000000000E+00 0. -1.
     999901    1    3    3    0    0 -0.88242691991E-01 -0.70274480638E-01  0.62938910632E-01  0.88943048171E+00  0.88000000000E+00 0.  1.
        -11    1    4    4    0    0  0.26728813419E-01  0.81919675882E-02 -0.16947973879E-01  0.32696066115E-01  0.51100000000E-03 0.  1.
         11    1    4    4    0    0  0.76146991076E-01  0.47050322181E-01 -0.26972076340E-01  0.93487170726E-01  0.51100000000E-03 0. -1.
</event>
<event>
 8    1  0.1202249E+005  0.1043930E+01  0.7957747E-01            NaN
         13   -1    0    0    0    0  0.00000000000E+00  0.00000000000E+00  0.74505805969E-08  0.10566000000E+00  0.10566000000E+00 0. -1.
     999900   -1    0    0    0    0 -0.00000000000E+00 -0.00000000000E+00 -0.74505805969E-08  0.93827000000E+00  0.93827000000E+00 0. -1.
     999902    2    1    2    0    0 -0.18752764238E-03 -0.22597844161E-01  0.46258180657E-02  0.10208627956E+01  0.10206021514E+01 0.  0.
     999903    2    3    3    0    0  0.83132943941E-01  0.96911696639E-01  0.61226460024E-02  0.12888349546E+00  0.16447045179E-01 0.  0.
         14    1    1    2    0    0  0.18752764238E-03  0.22597844161E-01 -0.46258180657E-02  0.23067204428E-01  0.00000000000E+00 0.  1.
     999901    1    3    3    0    0 -0.83320471584E-01 -0.11950954080E+00 -0.14968279367E-02  0.89197930011E+00  0.88000000000E+00 0. -1.
        -11    1    4    4    0    0  0.60629781144E-01  0.79276588190E-01  0.85940541241E-03  0.99808554219E-01  0.51100000000E-03 0.  1.
         11    1    4    4    0    0  0.22503162797E-01  0.17635108449E-01  0.52632405900E-02  0.29074941245E-01  0.51100000000E-03 0. -1.
</event>
<event>
 8    1  0.1202249E+005  0.1043930E+01  0.7957747E-01            NaN
         13   -1    0    0    0    0  0.00000000000E+00  0.00000000000E+00  0.74505805969E-08  0.10566000000E+00  0.10566000000E+00 0. -1.
     999900   -1    0    0    0    0 -0.00000000000E+00 -0.00000000000E+00 -0.74505805969E-08  0.93827000000E+00  0.93827000000E+00 0. -1.
     999902    2    1    2    0    0 -0.83714111352E-02  0.12568048144E-01  0.15963406649E-01  0.10219557717E+01  0.10217194980E+01 0.  0.
     999903    2    3    3    0    0  0.65754324449E-01 -0.75871786727E-01 -0.79347002186E-01  0.12931905772E+00  0.18636328218E-01 0.  0.
         14    1    1    2    0    0  0.83714111352E-02 -0.12568048144E-01 -0.15963406649E-01  0.21974228323E-01  0.00000000000E+00 0.  1.
     999901    1    3    3    0    0 -0.74125735584E-01  0.88439834871E-01  0.95310408835E-01  0.89263671395E+00  0.88000000000E+00 0.  1.
        -11    1    4    4    0    0  0.15667071647E-01 -0.28965738582E-01 -0.32198713009E-01  0.46059628592E-01  0.51100000000E-03 0. -1.
         11    1    4    4    0    0  0.50087252802E-01 -0.46906048145E-01 -0.47148289177E-01  0.83259429130E-01  0.51100000000E-03 0.  1.
</event>
<event>
 8    1  0.1202249E+005  0.1043930E+01  0.7957747E-01            NaN
         13   -1    0    0    0    0  0.00000000000E+00  0.00000000000E+00  0.74505805969E-08  0.10566000000E+00  0.10566000000E+00 0. -1.
     999900   -1    0    0    0    0 -0.00000000000E+00 -0.00000000000E+00 -0.74505805969E-08  0.93827000000E+00  0.93827000000E+00 0. -1.
     999902    2    1    2    0    0  0.73617236700E-02 -0.23935840641E-01 -0.24871328438E-02  0.10187644427E+01  0.10184535750E+01 0.  0.
     999903    2    3    3    0    0  0.45028981536E-01  0.11680132851E+00 -0.31592110927E-02  0.12678561744E+00  0.19860832163E-01 0.  0.
         14    1    1    2    0    0 -0.73617236700E-02  0.23935840641E-01  0.24871328438E-02  0.25165557263E-01  0.00000000000E+00 0.  1.
     999901    1    3    3    0    0 -0.37667257866E-01 -0.14073716915E+00  0.67207824889E-03  0.89197882530E+00  0.88000000000E+00 0. -1.
        -11    1    4    4    0    0  0.24601699268E-01  0.38480889495E-01  0.15982747146E-02  0.45703808006E-01  0.51100000000E-03 0. -1.
         11    1    4    4    0    0  0.20427282269E-01  0.78320439014E-01 -0.47574858073E-02  0.81081809430E-01  0.51100000000E-03 0.  1.
</event>
<event>
 8    1  0.1202249E+005  0.1043930E+01  0.7957747E-01            NaN
         13   -1    0    0    0    0  0.00000000000E+00  0.00000000000E+00  0.74505805969E-08  0.10566000000E+00  0.10566000000E+00 0.  1.
     999900   -1    0    0    0    0 -0.00000000000E+00 -0.00000000000E+00 -0.74505805969E-08  0.93827000000E+00  0.93827000000E+00 0.  1.
     999902    2    1    2    0    0  0.12025845529E-01 -0.19475008945E-01 -0.65165242839E-03  0.10210319305E+01  0.10207751376E+01 0.  0.
     999903    2    3    3    0    0  0.10206107959E+00 -0.21809916355E-01  0.79598042483E-01  0.13280233821E+00  0.20210795298E-01 0.  0.
         14    1    1    2    0    0 -0.12025845529E-01  0.19475008945E-01  0.65165242839E-03  0.22898069460E-01  0.00000000000E+00 0.  1.
     999901    1    3    3    0    0 -0.90035234065E-01  0.23349074102E-02 -0.80249694912E-01  0.88822959233E+00  0.88000000000E+00 0.  1.
        -11    1    4    4    0    0  0.41892201313E-01 -0.46293334160E-02  0.43452624923E-01  0.60537418118E-01  0.51100000000E-03 0. -1.
         11    1    4    4    0    0  0.60168878280E-01 -0.17180582939E-01  0.36145417560E-01  0.72264920087E-01  0.51100000000E-03 0.  1.
</event>
<event>
 8    1  0.1202249E+005  0.1043930E+01  0.7957747E-01            NaN
         13   -1    0    0    0    0  0.00000000000E+00  0.00000000000E+00  0.74505805969E-08  0.10566000000E+00  0.10566000000E+00 0.  1.
     999900   -1    0    0    0    0 -0.00000000000E+00 -0.00000000000E+00 -0.74505805969E-08  0.93827000000E+00  0.93827000000E+00 0.  1.
     999902    2    1    2    0    0  0.60590689028E-02  0.11991191840E-01 -0.22927501972E-01  0.10173561154E+01  0.10170089941E+01 0.  0.
     999903    2    3    3    0    0  0.10737073516E+00  0.38075830559E-01  0.54496491502E-01  0.12778378168E+00  0.19508552844E-01 0.  0.
         14    1    1    2    0    0 -0.60590689028E-02 -0.11991191840E-01  0.22927501972E-01  0.26573884632E-01  0.00000000000E+00 0.  1.
     999901    1    3    3    0    0 -0.10131166625E+00 -0.26084638719E-01 -0.77423993475E-01  0.88957233369E+00  0.88000000000E+00 0. -1.
        -11    1    4    4    0    0  0.36302633337E-01  0.87662064478E-02  0.88744904156E-02  0.38389389990E-01  0.51100000000E-03 0. -1.
         11    1    4    4    0    0  0.71068101819E-01  0.29309624111E-01  0.45622001087E-01  0.89394391691E-01  0.51100000000E-03 0.  1.
</event>
<event>
 8    1  0.1202249E+005  0.1043930E+01  0.7957747E-01            NaN
         13   -1    0    0    0    0  0.00000000000E+00  0.00000000000E+00  0.74505805969E-08  0.10566000000E+00  0.10566000000E+00 0.  1.
     999900   -1    0    0    0    0 -0.00000000000E+00 -0.00000000000E+00 -0.74505805969E-08  0.93827000000E+00  0.93827000000E+00 0. -1.
     999902    2    1    2    0    0  0.19941493215E-01  0.10037001467E-01  0.70283038691E-02  0.10205248381E+01  0.10202564107E+01 0.  0.
     999903    2    3    3    0    0 -0.95719840948E-01 -0.42223547404E-03 -0.83087018040E-01  0.12833219569E+00  0.20080678525E-01 0.  0.
         14    1    1    2    0    0 -0.19941493215E-01 -0.10037001467E-01 -0.70283038691E-02  0.23405161939E-01  0.00000000000E+00 0. -1.
     999901    1    3    3    0    0  0.11566133416E+00  0.10459236941E-01  0.90115321909E-01  0.89219264237E+00  0.88000000000E+00 0.  1.
        -11    1    4    4    0    0 -0.14675815382E-01  0.14345055665E-03 -0.43030274820E-02  0.15302852731E-01  0.51100000000E-03 0. -1.
         11    1    4    4    0    0 -0.81044025566E-01 -0.56568603069E-03 -0.78783990558E-01  0.11302934296E+00  0.51100000000E-03 0.  1.
</event>
<event>
 8    1  0.1202249E+005  0.1043930E+01  0.7957747E-01            NaN
         13   -1    0    0    0    0  0.00000000000E+00  0.00000000000E+00  0.74505805969E-08  0.10566000000E+00  0.10566000000E+00 0.  1.
     999900   -1    0    0    0    0 -0.00000000000E+00 -0.00000000000E+00 -0.74505805969E-08  0.93827000000E+00  0.93827000000E+00 0. -1.
     999902    2    1    2    0    0 -0.18693591259E-01  0.11222110703E-01  0.12101560846E-02  0.10220930909E+01  0.10218597926E+01 0.  0.
     999903    2    3    3    0    0 -0.13197969291E+00  0.13347746852E-01  0.12647124068E-01  0.13475490089E+00  0.20053226146E-01 0.  0.
         14    1    1    2    0    0  0.18693591259E-01 -0.11222110703E-01 -0.12101560846E-02  0.21836909135E-01  0.00000000000E+00 0.  1.
     999901    1    3    3    0    0  0.11328610165E+00 -0.21256361489E-02 -0.11436967983E-01  0.88733818998E+00  0.88000000000E+00 0.  1.
        -11    1    4    4    0    0 -0.76268090298E-01  0.40115343320E-02  0.16484442163E-01  0.78133936032E-01  0.51100000000E-03 0.  1.
         11    1    4    4    0    0 -0.55711602614E-01  0.93362125202E-02 -0.38373180951E-02  0.56620964855E-01  0.51100000000E-03 0. -1.
</event>
<event>
 8    1  0.1202249E+005  0.1043930E+01  0.7957747E-01            NaN
         13   -1    0    0    0    0  0.00000000000E+00  0.00000000000E+00  0.74505805969E-08  0.10566000000E+00  0.10566000000E+00 0.  1.
     999900   -1    0    0    0    0 -0.00000000000E+00 -0.00000000000E+00 -0.74505805969E-08  0.93827000000E+00  0.93827000000E+00 0. -1.
     999902    2    1    2    0    0  0.18660184728E-01 -0.11666883865E-02  0.15782943830E-01  0.10194623689E+01  0.10191687086E+01 0.  0.
     999903    2    3    3    0    0  0.77403169397E-01  0.63115276045E-01 -0.80647203873E-01  0.12992221658E+00  0.20025537833E-01 0.  0.
         14    1    1    2    0    0 -0.18660184728E-01  0.11666883865E-02 -0.15782943830E-01  0.24467631103E-01  0.00000000000E+00 0. -1.
     999901    1    3    3    0    0 -0.58742984669E-01 -0.64281964431E-01  0.96430147703E-01  0.88954015232E+00  0.88000000000E+00 0.  1.
        -11    1    4    4    0    0  0.10416699894E-01  0.53692676684E-02 -0.18210385517E-01  0.21661392699E-01  0.51100000000E-03 0. -1.
         11    1    4    4    0    0  0.66986469503E-01  0.57746008376E-01 -0.62436818356E-01  0.10826082388E+00  0.51100000000E-03 0.  1.
</event>
<event>
 8    1  0.1202249E+005  0.1043930E+01  0.7957747E-01            NaN
         13   -1    0    0    0    0  0.00000000000E+00  0.00000000000E+00  0.74505805969E-08  0.10566000000E+00  0.10566000000E+00 0. -1.
     999900   -1    0    0    0    0 -0.00000000000E+00 -0.00000000000E+00 -0.74505805969E-08  0.93827000000E+00  0.93827000000E+00 0.  1.
     999902    2    1    2    0    0  0.12431803485E-01 -0.19859158632E-01 -0.43233592496E-03  0.10204966299E+01  0.10202275476E+01 0.  0.
     999903    2    3    3    0    0  0.53018675250E-01  0.89439468360E-01  0.74581255665E-01  0.12964281309E+00  0.20844588341E-01 0.  0.
         14    1    1    2    0    0 -0.12431803485E-01  0.19859158632E-01  0.43233592496E-03  0.23433370091E-01  0.00000000000E+00 0.  1.
     999901    1    3    3    0    0 -0.40586871765E-01 -0.10929862699E+00 -0.75013591590E-01  0.89085381682E+00  0.88000000000E+00 0.  1.
        -11    1    4    4    0    0  0.28120419802E-01  0.56691691810E-01  0.55983502586E-01  0.84493311054E-01  0.51100000000E-03 0. -1.
         11    1    4    4    0    0  0.24898255448E-01  0.32747776550E-01  0.18597753079E-01  0.45149502034E-01  0.51100000000E-03 0.  1.
</event>
<event>
 8    1  0.1202249E+005  0.1043930E+01  0.7957747E-01            NaN
         13   -1    0    0    0    0  0.00000000000E+00  0.00000000000E+00  0.74505805969E-08  0.10566000000E+00  0.10566000000E+00 0. -1.
     999900   -1    0    0    0    0 -0.00000000000E+00 -0.00000000000E+00 -0.74505805969E-08  0.93827000000E+00  0.93827000000E+00 0.  1.
     999902    2    1    2    0    0  0.19607079124E-01  0.23152149610E-02  0.56644756253E-02  0.10233901836E+01  0.10231840421E+01 0.  0.
     999903    2    3    3    0    0 -0.47180818272E-01  0.11392038587E+00  0.45463455124E-01  0.13294069255E+00  0.20060360238E-01 0.  0.
         14    1    1    2    0    0 -0.19607079124E-01 -0.23152149610E-02 -0.56644756253E-02  0.20539816362E-01  0.00000000000E+00 0.  1.
     999901    1    3    3    0    0  0.66787897396E-01 -0.11160517091E+00 -0.39798979498E-01  0.89044949109E+00  0.88000000000E+00 0.  1.
        -11    1    4    4    0    0 -0.14138968982E-01  0.51371349919E-01  0.11694557731E-01  0.54552267028E-01  0.51100000000E-03 0. -1.
         11    1    4    4    0    0 -0.33041849289E-01  0.62549035955E-01  0.33768897393E-01  0.78388425520E-01  0.51100000000E-03 0.  1.
</event>
<event>
 8    1  0.1202249E+005  0.1043930E+01  0.7957747E-01            NaN
         13   -1    0    0    0    0  0.00000000000E+00  0.00000000000E+00  0.74505805969E-08  0.10566000000E+00  0.10566000000E+00 0.  1.
     999900   -1    0    0    0    0 -0.00000000000E+00 -0.00000000000E+00 -0.74505805969E-08  0.93827000000E+00  0.93827000000E+00 0.  1.
     999902    2    1    2    0    0 -0.11361643207E-02  0.22154590633E-01 -0.68915386448E-02  0.10207004916E+01  0.10204361242E+01 0.  0.
     999903    2    3    3    0    0  0.12487748341E+00 -0.16872304120E-01 -0.28049989722E-01  0.13061610348E+00  0.19867160202E-01 0.  0.
         14    1    1    2    0    0  0.11361643207E-02 -0.22154590633E-01  0.68915386448E-02  0.23229508397E-01  0.00000000000E+00 0.  1.
     999901    1    3    3    0    0 -0.12601364773E+00  0.39026894753E-01  0.21158451077E-01  0.89008438812E+00  0.88000000000E+00 0. -1.
        -11    1    4    4    0    0  0.18317774318E-01 -0.97805413978E-02 -0.46836934569E-02  0.21293143295E-01  0.51100000000E-03 0. -1.
         11    1    4    4    0    0  0.10655970910E+00 -0.70917627221E-02 -0.23366296265E-01  0.10932296018E+00  0.51100000000E-03 0.  1.
</event>
<event>
 8    1  0.1202249E+005  0.1043930E+01  0.7957747E-01            NaN
         13   -1    0    0    0    0  0.00000000000E+00  0.00000000000E+00  0.74505805969E-08  0.10566000000E+00  0.10566000000E+00 0. -1.
     999900   -1    0    0    0    0 -0.00000000000E+00 -0.00000000000E+00 -0.74505805969E-08  0.93827000000E+00  0.93827000000E+00 0.  1.
     999902    2    1    2    0    0 -0.15594809799E-01  0.64196548655E-02  0.16774663906E-01  0.10201434616E+01  0.10198661102E+01 0.  0.
     999903    2    3    3    0    0 -0.11630430789E+00  0.54571783067E-01  0.89259617100E-02  0.13305686344E+00  0.33461688168E-01 0.  0.
         14    1    1    2    0    0  0.15594809799E-01 -0.64196548655E-02 -0.16774663906E-01  0.23786538428E-01  0.00000000000E+00 0.  1.
     999901    1    3    3    0    0  0.10070949809E+00 -0.48152128202E-01  0.78487021958E-02  0.88708659813E+00  0.88000000000E+00 0. -1.
        -11    1    4    4    0    0 -0.79005565584E-01  0.20142983055E-01  0.10874215128E-03  0.81534606796E-01  0.51100000000E-03 0.  1.
         11    1    4    4    0    0 -0.37298742308E-01  0.34428800012E-01  0.88172195587E-02  0.51522256645E-01  0.51100000000E-03 0. -1.
</event>
<event>
 8    1  0.1202249E+005  0.1043930E+01  0.7957747E-01            NaN
         13   -1    0    0    0    0  0.00000000000E+00  0.00000000000E+00  0.74505805969E-08  0.10566000000E+00  0.10566000000E+00 0. -1.
     999900   -1    0    0    0    0 -0.00000000000E+00 -0.00000000000E+00 -0.74505805969E-08  0.93827000000E+00  0.93827000000E+00 0. -1.
     999902    2    1    2    0    0 -0.17091141673E-01 -0.73360863608E-03 -0.13881422409E-01  0.10218995848E+01  0.10216620881E+01 0.  0.
     999903    2    3    3    0    0 -0.80689652363E-01  0.69107255918E-01  0.76354582758E-01  0.13225636781E+00  0.19367284260E-01 0.  0.
         14    1    1    2    0    0  0.17091141673E-01  0.73360863608E-03  0.13881422409E-01  0.22030415189E-01  0.00000000000E+00 0. -1.
     999901    1    3    3    0    0  0.63598510690E-01 -0.69840864554E-01 -0.90236005167E-01  0.88964321700E+00  0.88000000000E+00 0. -1.
        -11    1    4    4    0    0 -0.24343869850E-01  0.28045718883E-01  0.35862037073E-01  0.51628801758E-01  0.51100000000E-03 0.  1.
         11    1    4    4    0    0 -0.56345782513E-01  0.41061537035E-01  0.40492545685E-01  0.80627566054E-01  0.51100000000E-03 0. -1.
</event>
<event>
 8    1  0.1202249E+005  0.1043930E+01  0.7957747E-01            NaN
         13   -1    0    0    0    0  0.00000000000E+00  0.00000000000E+00  0.74505805969E-08  0.10566000000E+00  0.10566000000E+00 0. -1.
     999900   -1    0    0    0    0 -0.00000000000E+00 -0.00000000000E+00 -0.74505805969E-08  0.93827000000E+00  0.93827000000E+00 0. -1.
     999902    2    1    2    0    0 -0.21473339071E-01 -0.50275186314E-02  0.12485848572E-01  0.10185868224E+01  0.10182714953E+01 0.  0.
     999903    2    3    3    0    0 -0.12221430234E+00 -0.38565208983E-01  0.25399078034E-01  0.13211050022E+00  0.19607653151E-01 0.  0.
         14    1    1    2    0    0  0.21473339071E-01  0.50275186314E-02 -0.12485848572E-01  0.25343177563E-01  0.00000000000E+00 0.  1.
     999901    1    3    3    0    0  0.10074096327E+00  0.33537690351E-01 -0.12913229463E-01  0.88647632222E+00  0.88000000000E+00 0. -1.
        -11    1    4    4    0    0 -0.45319288503E-01 -0.21537614507E-01  0.16635700898E-01  0.52865058540E-01  0.51100000000E-03 0.  1.
         11    1    4    4    0    0 -0.76895013841E-01 -0.17027594476E-01  0.87633771366E-02  0.79245441680E-01  0.51100000000E-03 0. -1.
</event>
<event>
 8    1  0.1202249E+005  0.1043930E+01  0.7957747E-01            NaN
         13   -1    0    0    0    0  0.00000000000E+00  0.00000000000E+00  0.74505805969E-08  0.10566000000E+00  0.10566000000E+00 0. -1.
     999900   -1    0    0    0    0 -0.00000000000E+00 -0.00000000000E+00 -0.74505805969E-08  0.93827000000E+00  0.93827000000E+00 0. -1.
     999902    2    1    2    0    0  0.17448824170E-01 -0.12585096212E-01 -0.13337500493E-01  0.10186172556E+01  0.10183026948E+01 0.  0.
     999903    2    3    3    0    0 -0.85607781931E-01 -0.58726502605E-01  0.69254408341E-01  0.12756668637E+00  0.26449800806E-01 0.  0.
         14    1    1    2    0    0 -0.17448824170E-01  0.12585096212E-01  0.13337500493E-01  0.25312744438E-01  0.00000000000E+00 0. -1.
     999901    1    3    3    0    0  0.10305660610E+00  0.46141406393E-01 -0.82591908834E-01  0.89105056919E+00  0.88000000000E+00 0. -1.
        -11    1    4    4    0    0 -0.22945925524E-01 -0.29621251661E-01  0.30712680204E-01  0.48450633581E-01  0.51100000000E-03 0. -1.
         11    1    4    4    0    0 -0.62661856407E-01 -0.29105250944E-01  0.38541728137E-01  0.79116052794E-01  0.51100000000E-03 0.  1.
</event>
<event>
 8    1  0.1202249E+005  0.1043930E+01  0.7957747E-01            NaN
         13   -1    0    0    0    0  0.00000000000E+00  0.00000000000E+00  0.74505805969E-08  0.10566000000E+00  0.10566000000E+00 0.  1.
     999900   -1    0    0    0    0 -0.00000000000E+00 -0.00000000000E+00 -0.74505805969E-08  0.93827000000E+00  0.93827000000E+00 0.  1.
     999902    2    1    2    0    0  0.28657847044E-02 -0.21826596183E-02  0.22307772595E-01  0.10213332426E+01  0.10210832381E+01 0.  0.
     999903    2    3    3    0    0  0.10658696316E+00  0.44722800665E-01 -0.57050192997E-01  0.13045957496E+00  0.20101407012E-01 0.  0.
         14    1    1    2    0    0 -0.28657847044E-02  0.21826596183E-02 -0.22307772595E-01  0.22596757358E-01  0.00000000000E+00 0. -1.
     999901    1    3    3    0    0 -0.10372117845E+00 -0.46905460283E-01  0.79357965591E-01  0.89087366768E+00  0.88000000000E+00 0. -1.
        -11    1    4    4    0    0  0.50499167341E-01  0.19794456064E-01 -0.37863505974E-01  0.66150529844E-01  0.51100000000E-03 0.  1.
         11    1    4    4    0    0  0.56087795815E-01  0.24928344600E-01 -0.19186687023E-01  0.64309045117E-01  0.51100000000E-03 0. -1.
</event>
<event>
 8    1  0.1202249E+005  0.1043930E+01  0.7957747E-01            NaN
         13   -1    0    0    0    0  0.00000000000E+00  0.00000000000E+00  0.74505805969E-08  0.10566000000E+00  0.10566000000E+00 0.  1.
     999900   -1    0    0    0    0 -0.00000000000E+00 -0.00000000000E+00 -0.74505805969E-08  0.93827000000E+00  0.93827000000E+00 0. -1.
     999902    2    1    2    0    0 -0.34541857063E-02  0.81386350013E-02  0.21840978649E-01  0.10203673786E+01  0.10200952849E+01 0.  0.
     999903    2    3    3    0    0  0.69992490598E-01 -0.10563884811E+00  0.20416468529E-01  0.13000691276E+00  0.20650670881E-01 0.  0.
         14    1    1    2    0    0  0.34541857063E-02 -0.81386350013E-02 -0.21840978649E-01  0.23562621393E-01  0.00000000000E+00 0. -1.
     999901    1    3    3    0    0 -0.73446676304E-01  0.11377748311E+00  0.14245101200E-02  0.89036046585E+00  0.88000000000E+00 0.  1.
        -11    1    4    4    0    0  0.29266560527E-01 -0.27128257688E-01  0.78191604647E-02  0.40667853664E-01  0.51100000000E-03 0. -1.
         11    1    4    4    0    0  0.40725930071E-01 -0.78510590417E-01  0.12597308064E-01  0.89339059091E-01  0.51100000000E-03 0.  1.
</event>
<event>
 8    1  0.1202249E+005  0.1043930E+01  0.7957747E-01            NaN
         13   -1    0    0    0    0  0.00000000000E+00  0.00000000000E+00  0.74505805969E-08  0.10566000000E+00  0.10566000000E+00 0. -1.
     999900   -1    0    0    0    0 -0.00000000000E+00 -0.00000000000E+00 -0.74505805969E-08  0.93827000000E+00  0.93827000000E+00 0.  1.
     999902    2    1    2    0    0  0.11961037628E-01 -0.38924535178E-02 -0.19188775071E-01  0.10209860094E+01  0.10207281738E+01 0.  0.
     999903    2    3    3    0    0  0.70375708231E-01  0.66105546104E-01  0.84964257864E-01  0.13016624764E+00  0.20041042269E-01 0.  0.
         14    1    1    2    0    0 -0.11961037628E-01  0.38924535178E-02  0.19188775071E-01  0.22943990591E-01  0.00000000000E+00 0. -1.
     999901    1    3    3    0    0 -0.58414670603E-01 -0.69997999622E-01 -0.10415303293E+00  0.89081976177E+00  0.88000000000E+00 0. -1.
        -11    1    4    4    0    0  0.43059362362E-01  0.28518588160E-01  0.51207134187E-01  0.72731356858E-01  0.51100000000E-03 0.  1.
         11    1    4    4    0    0  0.27316345868E-01  0.37586957944E-01  0.33757123676E-01  0.57434890780E-01  0.51100000000E-03 0. -1.
</event>
<event>
 8    1  0.1202249E+005  0.1043930E+01  0.7957747E-01            NaN
         13   -1    0    0    0    0  0.00000000000E+00  0.00000000000E+00  0.74505805969E-08  0.10566000000E+00  0.10566000000E+00 0.  1.
     999900   -1    0    0    0    0 -0.00000000000E+00 -0.00000000000E+00 -0.74505805969E-08  0.93827000000E+00  0.93827000000E+00 0.  1.
     999902    2    1    2    0    0 -0.22453048780E-02 -0.41074592126E-02  0.23660657214E-01  0.10198107273E+01  0.10195254682E+01 0.  0.
     999903    2    3    3    0    0  0.69441550690E-01  0.77018448145E-02  0.11089065600E+00  0.13251847692E+00  0.19569408781E-01 0.  0.
         14    1    1    2    0    0  0.22453048780E-02  0.41074592126E-02 -0.23660657214E-01  0.24119272687E-01  0.00000000000E+00 0. -1.
     999901    1    3    3    0    0 -0.71686855568E-01 -0.11809304027E-01 -0.87229998789E-01  0.88729225040E+00  0.88000000000E+00 0.  1.
        -11    1    4    4    0    0  0.11100783631E-01  0.88120362550E-02  0.20457711015E-01  0.24892939585E-01  0.51100000000E-03 0. -1.
         11    1    4    4    0    0  0.58340767059E-01 -0.11101914405E-02  0.90432944987E-01  0.10762553733E+00  0.51100000000E-03 0.  1.
</event>
<event>
 8    1  0.1202249E+005  0.1043930E+01  0.7957747E-01            NaN
         13   -1    0    0    0    0  0.00000000000E+00  0.00000000000E+00  0.74505805969E-08  0.10566000000E+00  0.10566000000E+00 0. -1.
     999900   -1    0    0    0    0 -0.00000000000E+00 -0.00000000000E+00 -0.74505805969E-08  0.93827000000E+00  0.93827000000E+00 0.  1.
     999902    2    1    2    0    0 -0.42454229105E-02 -0.17061155809E-01  0.16076071635E-01  0.10201067607E+01  0.10198285427E+01 0.  0.
     999903    2    3    3    0    0  0.40863298817E-02 -0.21012938019E-01  0.12956323801E+00  0.13277121443E+00  0.19578587297E-01 0.  0.
         14    1    1    2    0    0  0.42454229105E-02  0.17061155809E-01 -0.16076071635E-01  0.23823239335E-01  0.00000000000E+00 0.  1.
     999901    1    3    3    0    0 -0.83317527923E-02  0.39517822103E-02 -0.11348716637E+00  0.88733554624E+00  0.88000000000E+00 0.  1.
        -11    1    4    4    0    0 -0.42119439238E-02 -0.31912119178E-03  0.48809238158E-01  0.48994338046E-01  0.51100000000E-03 0.  1.
         11    1    4    4    0    0  0.82982738056E-02 -0.20693816828E-01  0.80753999851E-01  0.83776876380E-01  0.51100000000E-03 0. -1.
</event>
<event>
 8    1  0.1202249E+005  0.1043930E+01  0.7957747E-01            NaN
         13   -1    0    0    0    0  0.00000000000E+00  0.00000000000E+00  0.74505805969E-08  0.10566000000E+00  0.10566000000E+00 0.  1.
     999900   -1    0    0    0    0 -0.00000000000E+00 -0.00000000000E+00 -0.74505805969E-08  0.93827000000E+00  0.93827000000E+00 0. -1.
     999902    2    1    2    0    0  0.70310924922E-02  0.17552920524E-01  0.14083717878E-01  0.10203526297E+01  0.10200801912E+01 0.  0.
     999903    2    3    3    0    0 -0.18643094934E-01 -0.97846426027E-01 -0.77490979302E-01  0.12773731601E+00  0.19760616229E-01 0.  0.
         14    1    1    2    0    0 -0.70310924922E-02 -0.17552920524E-01 -0.14083717878E-01  0.23577370290E-01  0.00000000000E+00 0. -1.
     999901    1    3    3    0    0  0.25674187426E-01  0.11539934655E+00  0.91574697180E-01  0.89261531370E+00  0.88000000000E+00 0.  1.
        -11    1    4    4    0    0  0.23110044715E-03 -0.39820839824E-01 -0.38050772842E-01  0.55080623877E-01  0.51100000000E-03 0.  1.
         11    1    4    4    0    0 -0.18874195381E-01 -0.58025586203E-01 -0.39440206459E-01  0.72656692135E-01  0.51100000000E-03 0. -1.
</event>
<event>
 8    1  0.1202249E+005  0.1043930E+01  0.7957747E-01            NaN
         13   -1    0    0    0    0  0.00000000000E+00  0.00000000000E+00  0.74505805969E-08  0.10566000000E+00  0.10566000000E+00 0. -1.
     999900   -1    0    0    0    0 -0.00000000000E+00 -0.00000000000E+00 -0.74505805969E-08  0.93827000000E+00  0.93827000000E+00 0. -1.
     999902    2    1    2    0    0 -0.13806271824E-01 -0.12304171621E-01 -0.13705905410E-01  0.10209113635E+01  0.10206518283E+01 0.  0.
     999903    2    3    3    0    0  0.10065953811E+00 -0.43451775686E-01 -0.68945562077E-01  0.13123500973E+00  0.21183432794E-01 0.  0.
         14    1    1    2    0    0  0.13806271824E-01  0.12304171621E-01  0.13705905410E-01  0.23018636451E-01  0.00000000000E+00 0.  1.
     999901    1    3    3    0    0 -0.11446580993E+00  0.31147604065E-01  0.55239656667E-01  0.88967635382E+00  0.88000000000E+00 0.  1.
        -11    1    4    4    0    0  0.70389921644E-01 -0.37173436431E-01 -0.57775848770E-01  0.98361147143E-01  0.51100000000E-03 0. -1.
         11    1    4    4    0    0  0.30269616465E-01 -0.62783392550E-02 -0.11169713307E-01  0.32873862583E-01  0.51100000000E-03 0.  1.
</event>
<event>
 8    1  0.1202249E+005  0.1043930E+01  0.7957747E-01            NaN
         13   -1    0    0    0    0  0.00000000000E+00  0.00000000000E+00  0.74505805969E-08  0.10566000000E+00  0.10566000000E+00 0. -1.
     999900   -1    0    0    0    0 -0.00000000000E+00 -0.00000000000E+00 -0.74505805969E-08  0.93827000000E+00  0.93827000000E+00 0.  1.
     999902    2    1    2    0    0 -0.16069025317E-01 -0.12025770194E-01 -0.12098057163E-01  0.10204950750E+01  0.10202259565E+01 0.  0.
     999903    2    3    3    0    0 -0.92393792534E-01 -0.51737974251E-01 -0.79271396529E-01  0.13375115098E+00  0.19798616149E-01 0.  0.
         14    1    1    2    0    0  0.16069025317E-01  0.12025770194E-01  0.12098057163E-01  0.23434925016E-01  0.00000000000E+00 0. -1.
     999901    1    3    3    0    0  0.76324767217E-01  0.39712204057E-01  0.67173339366E-01  0.88674392401E+00  0.88000000000E+00 0. -1.
        -11    1    4    4    0    0 -0.24359557173E-01 -0.62628948734E-02 -0.25565852182E-01  0.35867614872E-01  0.51100000000E-03 0.  1.
         11    1    4    4    0    0 -0.68034235362E-01 -0.45475079378E-01 -0.53705544347E-01  0.97883536104E-01  0.51100000000E-03 0. -1.
</event>
<event>
 8    1  0.1202249E+005  0.1043930E+01  0.7957747E-01            NaN
         13   -1    0    0    0    0  0.00000000000E+00  0.00000000000E+00  0.74505805969E-08  0.10566000000E+00  0.10566000000E+00 0.  1.
     999900   -1    0    0    0    0 -0.00000000000E+00 -0.00000000000E+00 -0.74505805969E-08  0.93827000000E+00  0.93827000000E+00 0. -1.
     999902    2    1    2    0    0 -0.12192887123E-01 -0.14203907105E-01 -0.16125706682E-01  0.10192225944E+01  0.10189230791E+01 0.  0.
     999903    2    3    3    0    0 -0.53957331882E-01 -0.14973091883E-01  0.11412870647E+00  0.12865475725E+00  0.19776192205E-01 0.  0.
         14    1    1    2    0    0  0.12192887123E-01  0.14203907105E-01  0.16125706682E-01  0.24707405558E-01  0.00000000000E+00 0.  1.
     999901    1    3    3    0    0  0.41764444759E-01  0.76918477824E-03 -0.13025441315E+00  0.89056783719E+00  0.88000000000E+00 0. -1.
        -11    1    4    4    0    0 -0.24057778980E-01 -0.16218544223E-01  0.63987816502E-01  0.70260370679E-01  0.51100000000E-03 0. -1.
         11    1    4    4    0    0 -0.29899552902E-01  0.12454523406E-02  0.50140889970E-01  0.58394386573E-01  0.51100000000E-03 0.  1.
</event>
<event>
 8    1  0.1202249E+005  0.1043930E+01  0.7957747E-01            NaN
         13   -1    0    0    0    0  0.00000000000E+00  0.00000000000E+00  0.74505805969E-08  0.10566000000E+00  0.10566000000E+00 0. -1.
     999900   -1    0    0    0    0 -0.00000000000E+00 -0.00000000000E+00 -0.74505805969E-08  0.93827000000E+00  0.93827000000E+00 0.  1.
     999902    2    1    2    0    0  0.18288227456E-01  0.19309705036E-01 -0.79902408496E-02  0.10161600896E+01  0.10157805668E+01 0.  0.
     999903    2    3    3    0    0  0.91388264510E-01  0.60281613957E-01  0.65848870828E-01  0.12910060621E+00  0.18579689564E-01 0.  0.
         14    1    1    2    0    0 -0.18288227456E-01 -0.19309705036E-01  0.79902408496E-02  0.27769910351E-01  0.00000000000E+00 0. -1.
     999901    1    3    3    0    0 -0.73100037054E-01 -0.40971908922E-01 -0.73839111678E-01  0.88705948343E+00  0.88000000000E+00 0.  1.
        -11    1    4    4    0    0  0.45725389771E-01  0.40043347719E-01  0.31312242084E-01  0.68373961356E-01  0.51100000000E-03 0. -1.
         11    1    4    4    0    0  0.45662874739E-01  0.20238266238E-01  0.34536628744E-01  0.60726644858E-01  0.51100000000E-03 0.  1.
</event>
<event>
 8    1  0.1202249E+005  0.1043930E+01  0.7957747E-01            NaN
         13   -1    0    0    0    0  0.00000000000E+00  0.00000000000E+00  0.74505805969E-08  0.10566000000E+00  0.10566000000E+00 0.  1.
     999900   -1    0    0    0    0 -0.00000000000E+00 -0.00000000000E+00 -0.74505805969E-08  0.93827000000E+00  0.93827000000E+00 0. -1.
     999902    2    1    2    0    0  0.77084297653E-02  0.13145503367E-01 -0.17582461202E-01  0.10206627034E+01  0.10203974652E+01 0.  0.
     999903    2    3    3    0    0  0.48350440832E-01 -0.11703698781E+00 -0.22425846746E-01  0.13014447651E+00  0.19981104040E-01 0.  0.
         14    1    1    2    0    0 -0.77084297653E-02 -0.13145503367E-01  0.17582461202E-01  0.23267296580E-01  0.00000000000E+00 0. -1.
     999901    1    3    3    0    0 -0.40642011067E-01  0.13018249118E+00  0.48433855441E-02  0.89051822691E+00  0.88000000000E+00 0. -1.
        -11    1    4    4    0    0  0.17997727903E-01 -0.69026589186E-01 -0.10524062795E-01  0.72108288310E-01  0.51100000000E-03 0. -1.
         11    1    4    4    0    0  0.30352712929E-01 -0.48010398628E-01 -0.11901783952E-01  0.58036188200E-01  0.51100000000E-03 0.  1.
</event>
<event>
 7    1  0.1202249E+005  0.1043930E+01  0.7957747E-01            NaN
         13   -1    0    0    0    0  0.00000000000E+00  0.00000000000E+00  0.74505805969E-08  0.10566000000E+00  0.10566000000E+00 0.  1.
     999900   -1    0    0    0    0 -0.00000000000E+00 -0.00000000000E+00 -0.74505805969E-08  0.93827000000E+00  0.93827000000E+00 0.  1.
     999903    2    1    2    0    0  0.78852008301E-01  0.67977203292E-01 -0.40881669393E-01  0.11360015053E+00  0.19878227458E-01 0.  0.
         14    1    1    2    0    0 -0.85370044470E-02  0.20207783499E-02  0.43880926401E-01  0.44749298228E-01  0.00000000000E+00 0.  1.
     999901    1    1    2    0    0 -0.70315003854E-01 -0.69997981641E-01 -0.29992570081E-02  0.88558055125E+00  0.88000000000E+00 0. -1.
        -11    1    3    3    0    0  0.72840630382E-01  0.54407584592E-01 -0.37628301230E-01  0.98397626344E-01  0.51100000000E-03 0. -1.
         11    1    3    3    0    0  0.60113779185E-02  0.13569618699E-01 -0.32533681636E-02  0.15202524183E-01  0.51100000000E-03 0.  1.
</event>
<event>
 8    1  0.1202249E+005  0.1043930E+01  0.7957747E-01            NaN
         13   -1    0    0    0    0  0.00000000000E+00  0.00000000000E+00  0.74505805969E-08  0.10566000000E+00  0.10566000000E+00 0.  1.
     999900   -1    0    0    0    0 -0.00000000000E+00 -0.00000000000E+00 -0.74505805969E-08  0.93827000000E+00  0.93827000000E+00 0.  1.
     999902    2    1    2    0    0 -0.16810517781E-01 -0.93283204544E-03  0.20545246933E-01  0.10173674163E+01  0.10170205941E+01 0.  0.
     999903    2    3    3    0    0 -0.83184198024E-01 -0.71226128618E-01 -0.63357280859E-01  0.12810578594E+00  0.20104107929E-01 0.  0.
         14    1    1    2    0    0  0.16810517781E-01  0.93283204544E-03 -0.20545246933E-01  0.26562583746E-01  0.00000000000E+00 0. -1.
     999901    1    3    3    0    0  0.66373680243E-01  0.70293296573E-01  0.83902527792E-01  0.88926163031E+00  0.88000000000E+00 0. -1.
        -11    1    4    4    0    0 -0.43568906800E-01 -0.24485135336E-01 -0.31008232933E-01  0.58817880978E-01  0.51100000000E-03 0. -1.
         11    1    4    4    0    0 -0.39615291225E-01 -0.46740993283E-01 -0.32349047927E-01  0.69287904967E-01  0.51100000000E-03 0.  1.
</event>
<event>
 8    1  0.1202249E+005  0.1043930E+01  0.7957747E-01            NaN
         13   -1    0    0    0    0  0.00000000000E+00  0.00000000000E+00  0.74505805969E-08  0.10566000000E+00  0.10566000000E+00 0. -1.
     999900   -1    0    0    0    0 -0.00000000000E+00 -0.00000000000E+00 -0.74505805969E-08  0.93827000000E+00  0.93827000000E+00 0. -1.
     999902    2    1    2    0    0 -0.62943982496E-02 -0.21319143251E-01 -0.89137214552E-02  0.10199804750E+01  0.10196992643E+01 0.  0.
     999903    2    3    3    0    0 -0.12365224835E+00  0.23715506970E-01 -0.29340303286E-01  0.13081331975E+00  0.19974169180E-01 0.  0.
         14    1    1    2    0    0  0.62943982496E-02  0.21319143251E-01  0.89137214552E-02  0.23949525015E-01  0.00000000000E+00 0. -1.
     999901    1    3    3    0    0  0.11735785010E+00 -0.45034650220E-01  0.20426581831E-01  0.88916715523E+00  0.88000000000E+00 0.  1.
        -11    1    4    4    0    0 -0.64242981446E-01  0.72524203326E-02 -0.61470116422E-02  0.64944631332E-01  0.51100000000E-03 0. -1.
         11    1    4    4    0    0 -0.59409266905E-01  0.16463086637E-01 -0.23193291644E-01  0.65868688419E-01  0.51100000000E-03 0.  1.
</event>
<event>
 8    1  0.1202249E+005  0.1043930E+01  0.7957747E-01            NaN
         13   -1    0    0    0    0  0.00000000000E+00  0.00000000000E+00  0.74505805969E-08  0.10566000000E+00  0.10566000000E+00 0. -1.
     999900   -1    0    0    0    0 -0.00000000000E+00 -0.00000000000E+00 -0.74505805969E-08  0.93827000000E+00  0.93827000000E+00 0. -1.
     999902    2    1    2    0    0  0.90012593694E-02 -0.53535953759E-02  0.22153971083E-01  0.10194252640E+01  0.10191307015E+01 0.  0.
     999903    2    3    3    0    0  0.75691283777E-01  0.48981103058E-01  0.94371176922E-01  0.13228652417E+00  0.21575137257E-01 0.  0.
         14    1    1    2    0    0 -0.90012593694E-02  0.53535953759E-02 -0.22153971083E-01  0.24504736041E-01  0.00000000000E+00 0.  1.
     999901    1    3    3    0    0 -0.66690024408E-01 -0.54334698434E-01 -0.72217205839E-01  0.88713873979E+00  0.88000000000E+00 0. -1.
        -11    1    4    4    0    0  0.39138131095E-01  0.18214475269E-01  0.32107786876E-01  0.53802709170E-01  0.51100000000E-03 0.  1.
         11    1    4    4    0    0  0.36553152682E-01  0.30766627790E-01  0.62263390046E-01  0.78483815004E-01  0.51100000000E-03 0. -1.
</event>
<event>
 8    1  0.1202249E+005  0.1043930E+01  0.7957747E-01            NaN
         13   -1    0    0    0    0  0.00000000000E+00  0.00000000000E+00  0.74505805969E-08  0.10566000000E+00  0.10566000000E+00 0. -1.
     999900   -1    0    0    0    0 -0.00000000000E+00 -0.00000000000E+00 -0.74505805969E-08  0.93827000000E+00  0.93827000000E+00 0. -1.
     999902    2    1    2    0    0  0.12301772892E-01  0.14486988150E-01  0.13614730085E-01  0.10205512208E+01  0.10202834052E+01 0.  0.
     999903    2    3    3    0    0 -0.75888133555E-01  0.85909008830E-01 -0.58768057830E-01  0.13031651431E+00  0.19731768003E-01 0.  0.
         14    1    1    2    0    0 -0.12301772892E-01 -0.14486988150E-01 -0.13614730085E-01  0.23378779208E-01  0.00000000000E+00 0.  1.
     999901    1    3    3    0    0  0.88189906448E-01 -0.71422020680E-01  0.72382787915E-01  0.89023470648E+00  0.88000000000E+00 0.  1.
        -11    1    4    4    0    0 -0.10641555983E-01  0.15360882263E-01 -0.22406496189E-02  0.18827667124E-01  0.51100000000E-03 0.  1.
         11    1    4    4    0    0 -0.65246577573E-01  0.70548126567E-01 -0.56527408211E-01  0.11148884719E+00  0.51100000000E-03 0. -1.
</event>
<event>
 8    1  0.1202249E+005  0.1043930E+01  0.7957747E-01            NaN
         13   -1    0    0    0    0  0.00000000000E+00  0.00000000000E+00  0.74505805969E-08  0.10566000000E+00  0.10566000000E+00 0. -1.
     999900   -1    0    0    0    0 -0.00000000000E+00 -0.00000000000E+00 -0.74505805969E-08  0.93827000000E+00  0.93827000000E+00 0. -1.
     999902    2    1    2    0    0 -0.89549844416E-02 -0.21860772664E-01  0.15651240259E-02  0.10202543851E+01  0.10199796447E+01 0.  0.
     999903    2    3    3    0    0 -0.75543331976E-01 -0.58605995779E-01 -0.89202507896E-01  0.13232252822E+00  0.20265890374E-01 0.  0.
         14    1    1    2    0    0  0.89549844416E-02  0.21860772664E-01 -0.15651240259E-02  0.23675614903E-01  0.00000000000E+00 0.  1.
     999901    1    3    3    0    0  0.66588347535E-01  0.36745223115E-01  0.90767631922E-01  0.88793185688E+00  0.88000000000E+00 0.  1.
        -11    1    4    4    0    0 -0.40259742463E-02 -0.67323258264E-03  0.51141984517E-04  0.41140548422E-02  0.51100000000E-03 0. -1.
         11    1    4    4    0    0 -0.71517357730E-01 -0.57932763197E-01 -0.89253649880E-01  0.12820847338E+00  0.51100000000E-03 0.  1.
</event>
<event>
 8    1  0.1202249E+005  0.1043930E+01  0.7957747E-01            NaN
         13   -1    0    0    0    0  0.00000000000E+00  0.00000000000E+00  0.74505805969E-08  0.10566000000E+00  0.10566000000E+00 0. -1.
     999900   -1    0    0    0    0 -0.00000000000E+00 -0.00000000000E+00 -0.74505805969E-08  0.93827000000E+00  0.93827000000E+00 0. -1.
     999902    2    1    2    0    0 -0.20626191416E-01 -0.92392777946E-02 -0.10152557864E-01  0.10191534293E+01  0.10188522140E+01 0.  0.
     999903    2    3    3    0    0 -0.10856091848E+00  0.49970580334E-02  0.70314388590E-01  0.13100360015E+00  0.20183815269E-01 0.  0.
         14    1    1    2    0    0  0.20626191416E-01  0.92392777946E-02  0.10152557864E-01  0.24776570741E-01  0.00000000000E+00 0. -1.
     999901    1    3    3    0    0  0.87934727062E-01 -0.14236335828E-01 -0.80466946454E-01  0.88814982911E+00  0.88000000000E+00 0.  1.
        -11    1    4    4    0    0 -0.66672669077E-01  0.12603884152E-01  0.40445698365E-01  0.78995052597E-01  0.51100000000E-03 0.  1.
         11    1    4    4    0    0 -0.41888249401E-01 -0.76068261184E-02  0.29868690224E-01  0.52008547549E-01  0.51100000000E-03 0. -1.
</event>
<event>
 8    1  0.1202249E+005  0.1043930E+01  0.7957747E-01            NaN
         13   -1    0    0    0    0  0.00000000000E+00  0.00000000000E+00  0.74505805969E-08  0.10566000000E+00  0.10566000000E+00 0.  1.
     999900   -1    0    0    0    0 -0.00000000000E+00 -0.00000000000E+00 -0.74505805969E-08  0.93827000000E+00  0.93827000000E+00 0.  1.
     999902    2    1    2    0    0 -0.18400246082E-01 -0.68482960603E-02 -0.14507222203E-01  0.10195183694E+01  0.10192260680E+01 0.  0.
     999903    2    3    3    0    0 -0.49458767365E-01  0.76674355988E-01 -0.92708231217E-01  0.13156788483E+00  0.19752611180E-01 0.  0.
         14    1    1    2    0    0  0.18400246082E-01  0.68482960603E-02  0.14507222203E-01  0.24411630648E-01  0.00000000000E+00 0.  1.
     999901    1    3    3    0    0  0.31058521283E-01 -0.83522652048E-01  0.78201009013E-01  0.88795048452E+00  0.88000000000E+00 0. -1.
        -11    1    4    4    0    0 -0.21487494260E-01  0.51080052719E-01 -0.56396402328E-01  0.79067689431E-01  0.51100000000E-03 0.  1.
         11    1    4    4    0    0 -0.27971273105E-01  0.25594303268E-01 -0.36311828889E-01  0.52500195401E-01  0.51100000000E-03 0. -1.
</event>
<event>
 8    1  0.1202249E+005  0.1043930E+01  0.7957747E-01            NaN
         13   -1    0    0    0    0  0.00000000000E+00  0.00000000000E+00  0.74505805969E-08  0.10566000000E+00  0.10566000000E+00 0.  1.
     999900   -1    0    0    0    0 -0.00000000000E+00 -0.00000000000E+00 -0.74505805969E-08  0.93827000000E+00  0.93827000000E+00 0.  1.
     999902    2    1    2    0    0 -0.10954839560E-01 -0.20564889738E-01  0.11633558431E-02  0.10206002637E+01  0.10203335835E+01 0.  0.
     999903    2    3    3    0    0  0.88652048673E-01 -0.52240737810E-01 -0.78281302597E-01  0.13086078199E+00  0.20206471871E-01 0.  0.
         14    1    1    2    0    0  0.10954839560E-01  0.20564889738E-01 -0.11633558431E-02  0.23329736315E-01  0.00000000000E+00 0. -1.
     999901    1    3    3    0    0 -0.99606888233E-01  0.31675848072E-01  0.79444658441E-01  0.88973948170E+00  0.88000000000E+00 0.  1.
        -11    1    4    4    0    0  0.12871493965E-01 -0.16892014855E-01 -0.15747841855E-01  0.26443735872E-01  0.51100000000E-03 0.  1.
         11    1    4    4    0    0  0.75780554708E-01 -0.35348722955E-01 -0.62533460742E-01  0.10441704612E+00  0.51100000000E-03 0. -1.
</event>
<event>
 8    1  0.1202249E+005  0.1043930E+01  0.7957747E-01            NaN
         13   -1    0    0    0    0  0.00000000000E+00  0.00000000000E+00  0.74505805969E-08  0.10566000000E+00  0.10566000000E+00 0. -1.
     999900   -1    0    0    0    0 -0.00000000000E+00 -0.00000000000E+00 -0.74505805969E-08  0.93827000000E+00  0.93827000000E+00 0.  1.
     999902    2    1    2    0    0  0.12613069477E-02  0.18385111968E-02  0.22071707035E-01  0.10217459681E+01  0.10215051112E+01 0.  0.
     999903    2    3    3    0    0  0.30680194770E-01 -0.67658569428E-01  0.10987242879E+00  0.13416257378E+00  0.20216063615E-01 0.  0.
         14    1    1    2    0    0 -0.12613069477E-02 -0.18385111968E-02 -0.22071707035E-01  0.22184031872E-01  0.00000000000E+00 0.  1.
     999901    1    3    3    0    0 -0.29418887823E-01  0.69497080624E-01 -0.87800721754E-01  0.88758339434E+00  0.88000000000E+00 0.  1.
        -11    1    4    4    0    0  0.29857496283E-01 -0.45388300546E-01  0.83653962165E-01  0.99748756471E-01  0.51100000000E-03 0. -1.
         11    1    4    4    0    0  0.82269848732E-03 -0.22270268882E-01  0.26218466624E-01  0.34413817312E-01  0.51100000000E-03 0.  1.
</event>
<event>
 8    1  0.1202249E+005  0.1043930E+01  0.7957747E-01            NaN
         13   -1    0    0    0    0  0.00000000000E+00  0.00000000000E+00  0.74505805969E-08  0.10566000000E+00  0.10566000000E+00 0.  1.
     999900   -1    0    0    0    0 -0.00000000000E+00 -0.00000000000E+00 -0.74505805969E-08  0.93827000000E+00  0.93827000000E+00 0. -1.
     999902    2    1    2    0    0 -0.95811415125E-02  0.17439797088E-01  0.12917197791E-01  0.10202066193E+01  0.10199307561E+01 0.  0.
     999903    2    3    3    0    0 -0.47132696036E-01  0.71398545685E-01  0.10045733249E+00  0.13342313893E+00  0.19769041171E-01 0.  0.
         14    1    1    2    0    0  0.95811415125E-02 -0.17439797088E-01 -0.12917197791E-01  0.23723380744E-01  0.00000000000E+00 0. -1.
     999901    1    3    3    0    0  0.37551554523E-01 -0.53958748597E-01 -0.87540134701E-01  0.88678348033E+00  0.88000000000E+00 0. -1.
        -11    1    4    4    0    0 -0.36737336481E-01  0.39069188647E-01  0.65972084599E-01  0.85021235351E-01  0.51100000000E-03 0. -1.
         11    1    4    4    0    0 -0.10395359554E-01  0.32329357038E-01  0.34485247893E-01  0.48401903578E-01  0.51100000000E-03 0.  1.
</event>
<event>
 8    1  0.1202249E+005  0.1043930E+01  0.7957747E-01            NaN
         13   -1    0    0    0    0  0.00000000000E+00  0.00000000000E+00  0.74505805969E-08  0.10566000000E+00  0.10566000000E+00 0.  1.
     999900   -1    0    0    0    0 -0.00000000000E+00 -0.00000000000E+00 -0.74505805969E-08  0.93827000000E+00  0.93827000000E+00 0.  1.
     999902    2    1    2    0    0  0.10931233610E-01 -0.15589637519E-01 -0.73076483674E-02  0.10235356285E+01  0.10233324251E+01 0.  0.
     999903    2    3    3    0    0 -0.12990805854E+00 -0.39846382129E-03 -0.14133555437E-01  0.13218100151E+00  0.19894655656E-01 0.  0.
         14    1    1    2    0    0 -0.10931233610E-01  0.15589637519E-01  0.73076483674E-02  0.20394371549E-01  0.00000000000E+00 0. -1.
     999901    1    3    3    0    0  0.14083929215E+00 -0.15191173698E-01  0.68259070699E-02  0.89135462695E+00  0.88000000000E+00 0.  1.
        -11    1    4    4    0    0 -0.75875365848E-01 -0.24812168864E-02  0.13604167904E-02  0.75929832310E-01  0.51100000000E-03 0. -1.
         11    1    4    4    0    0 -0.54032692688E-01  0.20827530651E-02 -0.15493972228E-01  0.56251169195E-01  0.51100000000E-03 0.  1.
</event>
<event>
 8    1  0.1202249E+005  0.1043930E+01  0.7957747E-01            NaN
         13   -1    0    0    0    0  0.00000000000E+00  0.00000000000E+00  0.74505805969E-08  0.10566000000E+00  0.10566000000E+00 0.  1.
     999900   -1    0    0    0    0 -0.00000000000E+00 -0.00000000000E+00 -0.74505805969E-08  0.93827000000E+00  0.93827000000E+00 0.  1.
     999902    2    1    2    0    0 -0.48539961216E-02 -0.20542105058E-01  0.99068205929E-02  0.10206129579E+01  0.10203465712E+01 0.  0.
     999903    2    3    3    0    0  0.11206527163E+00 -0.36517820051E-01  0.54956597575E-01  0.13159393613E+00  0.20113679992E-01 0.  0.
         14    1    1    2    0    0  0.48539961216E-02  0.20542105058E-01 -0.99068205929E-02  0.23317042112E-01  0.00000000000E+00 0.  1.
     999901    1    3    3    0    0 -0.11691926775E+00  0.15975714993E-01 -0.45049776982E-01  0.88901902176E+00  0.88000000000E+00 0.  1.
        -11    1    4    4    0    0  0.78541477991E-01 -0.32314078715E-01  0.32076581713E-01  0.90786186524E-01  0.51100000000E-03 0.  1.
         11    1    4    4    0    0  0.33523793638E-01 -0.42037413356E-02  0.22880015862E-01  0.40807749606E-01  0.51100000000E-03 0. -1.
</event>
<event>
 8    1  0.1202249E+005  0.1043930E+01  0.7957747E-01            NaN
         13   -1    0    0    0    0  0.00000000000E+00  0.00000000000E+00  0.74505805969E-08  0.10566000000E+00  0.10566000000E+00 0. -1.
     999900   -1    0    0    0    0 -0.00000000000E+00 -0.00000000000E+00 -0.74505805969E-08  0.93827000000E+00  0.93827000000E+00 0. -1.
     999902    2    1    2    0    0 -0.38991829465E-02 -0.23791343119E-01 -0.32932019947E-02  0.10195973714E+01  0.10193069817E+01 0.  0.
     999903    2    3    3    0    0  0.29212138378E-01 -0.36245498104E-01 -0.12084661990E+00  0.13107597513E+00  0.20246494814E-01 0.  0.
         14    1    1    2    0    0  0.38991829465E-02  0.23791343119E-01  0.32932019947E-02  0.24332628596E-01  0.00000000000E+00 0.  1.
     999901    1    3    3    0    0 -0.33111321325E-01  0.12454154986E-01  0.11755341791E+00  0.88852139627E+00  0.88000000000E+00 0.  1.
        -11    1    4    4    0    0  0.21813866435E-01 -0.12534302318E-01 -0.72071321881E-01  0.76337998808E-01  0.51100000000E-03 0.  1.
         11    1    4    4    0    0  0.73982719436E-02 -0.23711195787E-01 -0.48775298023E-01  0.54737976320E-01  0.51100000000E-03 0. -1.
</event>
<event>
 8    1  0.1202249E+005  0.1043930E+01  0.7957747E-01            NaN
         13   -1    0    0    0    0  0.00000000000E+00  0.00000000000E+00  0.74505805969E-08  0.10566000000E+00  0.10566000000E+00 0. -1.
     999900   -1    0    0    0    0 -0.00000000000E+00 -0.00000000000E+00 -0.74505805969E-08  0.93827000000E+00  0.93827000000E+00 0.  1.
     999902    2    1    2    0    0 -0.49819875709E-03  0.21794312594E-01  0.70561244837E-02  0.10210164853E+01  0.10207593419E+01 0.  0.
     999903    2    3    3    0    0 -0.11554963563E+00 -0.11450179225E-01 -0.55985904257E-01  0.13067030164E+00  0.21388813804E-01 0.  0.
         14    1    1    2    0    0  0.49819875709E-03 -0.21794312594E-01 -0.70561244837E-02  0.22913514706E-01  0.00000000000E+00 0.  1.
     999901    1    3    3    0    0  0.11505143687E+00  0.33244491818E-01  0.63042028741E-01  0.89034618366E+00  0.88000000000E+00 0. -1.
        -11    1    4    4    0    0 -0.44412691262E-01  0.47397008371E-02 -0.26803578649E-01  0.52092656474E-01  0.51100000000E-03 0. -1.
         11    1    4    4    0    0 -0.71136944369E-01 -0.16189880062E-01 -0.29182325608E-01  0.78577645164E-01  0.51100000000E-03 0.  1.
</event>
<event>
 8    1  0.1202249E+005  0.1043930E+01  0.7957747E-01            NaN
         13   -1    0    0    0    0  0.00000000000E+00  0.00000000000E+00  0.74505805969E-08  0.10566000000E+00  0.10566000000E+00 0.  1.
     999900   -1    0    0    0    0 -0.00000000000E+00 -0.00000000000E+00 -0.74505805969E-08  0.93827000000E+00  0.93827000000E+00 0.  1.
     999902    2    1    2    0    0  0.40675258325E-02  0.19003173149E-01  0.13280976478E-01  0.10203917398E+01  0.10201202150E+01 0.  0.
     999903    2    3    3    0    0  0.60179027475E-01 -0.89176041230E-01  0.70355961239E-01  0.13016210825E+00  0.20453152928E-01 0.  0.
         14    1    1    2    0    0 -0.40675258325E-02 -0.19003173149E-01 -0.13280976478E-01  0.23538260181E-01  0.00000000000E+00 0.  1.
     999901    1    3    3    0    0 -0.56111501642E-01  0.10817921438E+00 -0.57074984761E-01  0.89022963157E+00  0.88000000000E+00 0.  1.
        -11    1    4    4    0    0  0.39842072553E-01 -0.59367622188E-01  0.57837639622E-01  0.91963900459E-01  0.51100000000E-03 0. -1.
         11    1    4    4    0    0  0.20336954922E-01 -0.29808419042E-01  0.12518321618E-01  0.38198207790E-01  0.51100000000E-03 0.  1.
</event>
<event>
 8    1  0.1202249E+005  0.1043930E+01  0.7957747E-01            NaN
         13   -1    0    0    0    0  0.00000000000E+00  0.00000000000E+00  0.74505805969E-08  0.10566000000E+00  0.10566000000E+00 0.  1.
     999900   -1    0    0    0    0 -0.00000000000E+00 -0.00000000000E+00 -0.74505805969E-08  0.93827000000E+00  0.93827000000E+00 0. -1.
     999902    2    1    2    0    0 -0.22123877012E-01 -0.38999334381E-02 -0.81858459949E-02  0.10200200964E+01  0.10197398264E+01 0.  0.
     999903    2    3    3    0    0  0.53241653896E-01  0.10004295816E+00 -0.59000036425E-01  0.12925291588E+00  0.19545965820E-01 0.  0.
         14    1    1    2    0    0  0.22123877012E-01  0.38999334381E-02  0.81858459949E-02  0.23909903586E-01  0.00000000000E+00 0. -1.
     999901    1    3    3    0    0 -0.75365530908E-01 -0.10394289159E+00  0.50814190430E-01  0.89076718053E+00  0.88000000000E+00 0. -1.
        -11    1    4    4    0    0  0.50957021426E-01  0.88017486095E-01 -0.46775721432E-01  0.11194608134E+00  0.51100000000E-03 0.  1.
         11    1    4    4    0    0  0.22846324703E-02  0.12025472061E-01 -0.12224314993E-01  0.17306834542E-01  0.51100000000E-03 0. -1.
</event>
<event>
 8    1  0.1202249E+005  0.1043930E+01  0.7957747E-01            NaN
         13   -1    0    0    0    0  0.00000000000E+00  0.00000000000E+00  0.74505805969E-08  0.10566000000E+00  0.10566000000E+00 0.  1.
     999900   -1    0    0    0    0 -0.00000000000E+00 -0.00000000000E+00 -0.74505805969E-08  0.93827000000E+00  0.93827000000E+00 0.  1.
     999902    2    1    2    0    0  0.18805339068E-02  0.23044997682E-01  0.67520746402E-02  0.10198426830E+01  0.10195581883E+01 0.  0.
     999903    2    3    3    0    0 -0.59584708606E-02  0.13126505946E+00 -0.66239642280E-02  0.13307780430E+00  0.19995146560E-01 0.  0.
         14    1    1    2    0    0 -0.18805339068E-02 -0.23044997682E-01 -0.67520746402E-02  0.24087316950E-01  0.00000000000E+00 0. -1.
     999901    1    3    3    0    0  0.78390047674E-02 -0.10822006178E+00  0.13376038868E-01  0.88676487875E+00  0.88000000000E+00 0. -1.
        -11    1    4    4    0    0 -0.25355536472E-02  0.21035391808E-01  0.61205074565E-02  0.22059883802E-01  0.51100000000E-03 0.  1.
         11    1    4    4    0    0 -0.34229172134E-02  0.11022966765E+00 -0.12744471685E-01  0.11101792050E+00  0.51100000000E-03 0. -1.
</event>
<event>
 8    1  0.1202249E+005  0.1043930E+01  0.7957747E-01            NaN
         13   -1    0    0    0    0  0.00000000000E+00  0.00000000000E+00  0.74505805969E-08  0.10566000000E+00  0.10566000000E+00 0.  1.
     999900   -1    0    0    0    0 -0.00000000000E+00 -0.00000000000E+00 -0.74505805969E-08  0.93827000000E+00  0.93827000000E+00 0.  1.
     999902    2    1    2    0    0  0.19736082321E-02 -0.13513808176E-01  0.19590161384E-01  0.10200492009E+01  0.10197696209E+01 0.  0.
     999903    2    3    3    0    0  0.38371281719E-01 -0.11068744041E+00  0.59741893156E-01  0.13304318799E+00  0.20182451503E-01 0.  0.
         14    1    1    2    0    0 -0.19736082321E-02  0.13513808176E-01 -0.19590161384E-01  0.23880799064E-01  0.00000000000E+00 0.  1.
     999901    1    3    3    0    0 -0.36397673487E-01  0.97173632230E-01 -0.40151731772E-01  0.88700601294E+00  0.88000000000E+00 0. -1.
        -11    1    4    4    0    0  0.34217942568E-01 -0.96823736346E-01  0.44204223249E-01  0.11180330043E+00  0.51100000000E-03 0. -1.
         11    1    4    4    0    0  0.41533391513E-02 -0.13863704060E-01  0.15537669907E-01  0.21239887559E-01  0.51100000000E-03 0.  1.
</event>
<event>
 8    1  0.1202249E+005  0.1043930E+01  0.7957747E-01            NaN
         13   -1    0    0    0    0  0.00000000000E+00  0.00000000000E+00  0.74505805969E-08  0.10566000000E+00  0.10566000000E+00 0.  1.
     999900   -1    0    0    0    0 -0.00000000000E+00 -0.00000000000E+00 -0.74505805969E-08  0.93827000000E+00  0.93827000000E+00 0. -1.
     999902    2    1    2    0    0 -0.10023066194E-01 -0.15787243364E-01 -0.14655429034E-01  0.10201712014E+01  0.10198945042E+01 0.  0.
     999903    2    3    3    0    0  0.10569078698E+00 -0.48838964623E-01  0.52599108218E-01  0.12943819718E+00  0.20779648333E-01 0.  0.
         14    1    1    2    0    0  0.10023066194E-01  0.15787243364E-01  0.14655429034E-01  0.23758798562E-01  0.00000000000E+00 0.  1.
     999901    1    3    3    0    0 -0.11571385318E+00  0.33051721259E-01 -0.67254537252E-01  0.89073300426E+00  0.88000000000E+00 0. -1.
        -11    1    4    4    0    0  0.68428105466E-02 -0.72768133431E-02  0.21238511646E-05  0.10001859533E-01  0.51100000000E-03 0. -1.
         11    1    4    4    0    0  0.98847976437E-01 -0.41562151280E-01  0.52596984367E-01  0.11943633765E+00  0.51100000000E-03 0.  1.
</event>
<event>
 8    1  0.1202249E+005  0.1043930E+01  0.7957747E-01            NaN
         13   -1    0    0    0    0  0.00000000000E+00  0.00000000000E+00  0.74505805969E-08  0.10566000000E+00  0.10566000000E+00 0. -1.
     999900   -1    0    0    0    0 -0.00000000000E+00 -0.00000000000E+00 -0.74505805969E-08  0.93827000000E+00  0.93827000000E+00 0. -1.
     999902    2    1    2    0    0 -0.46717475027E-02  0.22925145071E-01  0.55029713781E-02  0.10198952295E+01  0.10196119894E+01 0.  0.
     999903    2    3    3    0    0  0.66677386061E-01  0.10545198544E+00 -0.38681512371E-01  0.13205873164E+00  0.19423031676E-01 0.  0.
         14    1    1    2    0    0  0.46717475027E-02 -0.22925145071E-01 -0.55029713781E-02  0.24034770547E-01  0.00000000000E+00 0.  1.
     999901    1    3    3    0    0 -0.71349133564E-01 -0.82526840365E-01  0.44184483749E-01  0.88783649781E+00  0.88000000000E+00 0. -1.
        -11    1    4    4    0    0  0.57358516785E-01  0.98559408473E-01 -0.38799786260E-01  0.12045597113E+00  0.51100000000E-03 0. -1.
         11    1    4    4    0    0  0.93188692759E-02  0.68925769623E-02  0.11827388928E-03  0.11602760511E-01  0.51100000000E-03 0.  1.
</event>
<event>
 8    1  0.1202249E+005  0.1043930E+01  0.7957747E-01            NaN
         13   -1    0    0    0    0  0.00000000000E+00  0.00000000000E+00  0.74505805969E-08  0.10566000000E+00  0.10566000000E+00 0.  1.
     999900   -1    0    0    0    0 -0.00000000000E+00 -0.00000000000E+00 -0.74505805969E-08  0.93827000000E+00  0.93827000000E+00 0.  1.
     999902    2    1    2    0    0  0.52637447900E-02  0.21227698101E-01  0.13501994044E-01  0.10182273539E+01  0.10179029021E+01 0.  0.
     999903    2    3    3    0    0 -0.56748613831E-01  0.10811531892E+00 -0.40386598318E-01  0.13014009932E+00  0.19900773120E-01 0.  0.
         14    1    1    2    0    0 -0.52637447900E-02 -0.21227698101E-01 -0.13501994044E-01  0.25702646149E-01  0.00000000000E+00 0. -1.
     999901    1    3    3    0    0  0.62012358621E-01 -0.86887620817E-01  0.53888592362E-01  0.88808725453E+00  0.88000000000E+00 0. -1.
        -11    1    4    4    0    0 -0.50177690368E-01  0.77350831488E-01 -0.31719741659E-01  0.97505665859E-01  0.51100000000E-03 0. -1.
         11    1    4    4    0    0 -0.65709234621E-02  0.30764487430E-01 -0.86668566591E-02  0.32634433461E-01  0.51100000000E-03 0.  1.
</event>
<event>
 8    1  0.1202249E+005  0.1043930E+01  0.7957747E-01            NaN
         13   -1    0    0    0    0  0.00000000000E+00  0.00000000000E+00  0.74505805969E-08  0.10566000000E+00  0.10566000000E+00 0.  1.
     999900   -1    0    0    0    0 -0.00000000000E+00 -0.00000000000E+00 -0.74505805969E-08  0.93827000000E+00  0.93827000000E+00 0.  1.
     999902    2    1    2    0    0 -0.18384075696E-01 -0.83302277767E-02  0.21103969942E-01  0.10147282110E+01  0.10143079403E+01 0.  0.
     999903    2    3    3    0    0  0.32732515682E-01 -0.81591120758E-01 -0.84966904539E-01  0.12386846066E+00  0.19886983407E-01 0.  0.
         14    1    1    2    0    0  0.18384075696E-01  0.83302277767E-02 -0.21103969942E-01  0.29201789009E-01  0.00000000000E+00 0. -1.
     999901    1    3    3    0    0 -0.51116591378E-01  0.73260892981E-01  0.10607087448E+00  0.89085975034E+00  0.88000000000E+00 0. -1.
        -11    1    4    4    0    0  0.58420022825E-02 -0.40881700751E-01 -0.40829298906E-01  0.58075254775E-01  0.51100000000E-03 0. -1.
         11    1    4    4    0    0  0.26890513399E-01 -0.40709420006E-01 -0.44137605632E-01  0.65793205881E-01  0.51100000000E-03 0.  1.
</event>
<event>
 8    1  0.1202249E+005  0.1043930E+01  0.7957747E-01            NaN
         13   -1    0    0    0    0  0.00000000000E+00  0.00000000000E+00  0.74505805969E-08  0.10566000000E+00  0.10566000000E+00 0.  1.
     999900   -1    0    0    0    0 -0.00000000000E+00 -0.00000000000E+00 -0.74505805969E-08  0.93827000000E+00  0.93827000000E+00 0.  1.
     999902    2    1    2    0    0  0.20832908580E-01  0.11334413859E-01 -0.73921141395E-04  0.10202132447E+01  0.10199375374E+01 0.  0.
     999903    2    3    3    0    0  0.30712761548E-01  0.72926744235E-01 -0.10384438509E+00  0.13192301294E+00  0.18932545573E-01 0.  0.
         14    1    1    2    0    0 -0.20832908580E-01 -0.11334413859E-01  0.73921141395E-04  0.23716755296E-01  0.00000000000E+00 0.  1.
     999901    1    3    3    0    0 -0.98798529677E-02 -0.61592330375E-01  0.10377046395E+00  0.88829023176E+00  0.88000000000E+00 0. -1.
        -11    1    4    4    0    0  0.20265196075E-01  0.52648310137E-01 -0.59145780091E-01  0.81737428121E-01  0.51100000000E-03 0.  1.
         11    1    4    4    0    0  0.10447565473E-01  0.20278434097E-01 -0.44698605001E-01  0.50185584820E-01  0.51100000000E-03 0. -1.
</event>
<event>
 8    1  0.1202249E+005  0.1043930E+01  0.7957747E-01            NaN
         13   -1    0    0    0    0  0.00000000000E+00  0.00000000000E+00  0.74505805969E-08  0.10566000000E+00  0.10566000000E+00 0. -1.
     999900   -1    0    0    0    0 -0.00000000000E+00 -0.00000000000E+00 -0.74505805969E-08  0.93827000000E+00  0.93827000000E+00 0. -1.
     999902    2    1    2    0    0 -0.11279684900E-01  0.19993046685E-01 -0.59236387500E-02  0.10202225602E+01  0.10199470720E+01 0.  0.
     999903    2    3    3    0    0  0.32856693560E-01 -0.47310703628E-01 -0.11475708374E+00  0.12987289096E+00  0.19491396794E-01 0.  0.
         14    1    1    2    0    0  0.11279684900E-01 -0.19993046685E-01  0.59236387500E-02  0.23707439828E-01  0.00000000000E+00 0. -1.
     999901    1    3    3    0    0 -0.44136378460E-01  0.67303750313E-01  0.10883344499E+00  0.89034966921E+00  0.88000000000E+00 0.  1.
        -11    1    4    4    0    0  0.17490926082E-01 -0.11866779483E-01 -0.52562504311E-01  0.56655369834E-01  0.51100000000E-03 0.  1.
         11    1    4    4    0    0  0.15365767478E-01 -0.35443924145E-01 -0.62194579430E-01  0.73217521130E-01  0.51100000000E-03 0. -1.
</event>
<event>
 8    1  0.1202249E+005  0.1043930E+01  0.7957747E-01            NaN
         13   -1    0    0    0    0  0.00000000000E+00  0.00000000000E+00  0.74505805969E-08  0.10566000000E+00  0.10566000000E+00 0. -1.
     999900   -1    0    0    0    0 -0.00000000000E+00 -0.00000000000E+00 -0.74505805969E-08  0.93827000000E+00  0.93827000000E+00 0. -1.
     999902    2    1    2    0    0 -0.32229416408E-02  0.36708307023E-02  0.23002705224E-01  0.10204143287E+01  0.10201433308E+01 0.  0.
     999903    2    3    3    0    0 -0.62783775350E-02  0.70638972214E-01  0.11126626836E+00  0.13346194874E+00  0.20065564209E-01 0.  0.
         14    1    1    2    0    0  0.32229416408E-02 -0.36708307023E-02 -0.23002705224E-01  0.23515671338E-01  0.00000000000E+00 0.  1.
     999901    1    3    3    0    0  0.30554358942E-02 -0.66968141511E-01 -0.88263563139E-01  0.88695237992E+00  0.88000000000E+00 0. -1.
        -11    1    4    4    0    0 -0.37099419699E-02  0.22238162655E-01  0.53466456947E-01  0.58027775135E-01  0.51100000000E-03 0. -1.
         11    1    4    4    0    0 -0.25684355651E-02  0.48400809558E-01  0.57799811416E-01  0.75434173607E-01  0.51100000000E-03 0.  1.
</event>
<event>
 8    1  0.1202249E+005  0.1043930E+01  0.7957747E-01            NaN
         13   -1    0    0    0    0  0.00000000000E+00  0.00000000000E+00  0.74505805969E-08  0.10566000000E+00  0.10566000000E+00 0. -1.
     999900   -1    0    0    0    0 -0.00000000000E+00 -0.00000000000E+00 -0.74505805969E-08  0.93827000000E+00  0.93827000000E+00 0.  1.
     999902    2    1    2    0    0 -0.14089720389E-01 -0.10094095170E-01  0.10389987851E-01  0.10237220108E+01  0.10235225414E+01 0.  0.
     999903    2    3    3    0    0 -0.79312054214E-01 -0.37782015394E-01 -0.99282604068E-01  0.13408801241E+00  0.20116584486E-01 0.  0.
         14    1    1    2    0    0  0.14089720389E-01  0.10094095170E-01 -0.10389987851E-01  0.20207989151E-01  0.00000000000E+00 0. -1.
     999901    1    3    3    0    0  0.65222333825E-01  0.27687920224E-01  0.10967259192E+00  0.88963399844E+00  0.88000000000E+00 0. -1.
        -11    1    4    4    0    0 -0.24802770869E-01 -0.19705711488E-01 -0.45222165636E-01  0.55215920656E-01  0.51100000000E-03 0.  1.
         11    1    4    4    0    0 -0.54509283345E-01 -0.18076303906E-01 -0.54060438432E-01  0.78872091757E-01  0.51100000000E-03 0. -1.
</event>
<event>
 8    1  0.1202249E+005  0.1043930E+01  0.7957747E-01            NaN
         13   -1    0    0    0    0  0.00000000000E+00  0.00000000000E+00  0.74505805969E-08  0.10566000000E+00  0.10566000000E+00 0.  1.
     999900   -1    0    0    0    0 -0.00000000000E+00 -0.00000000000E+00 -0.74505805969E-08  0.93827000000E+00  0.93827000000E+00 0.  1.
     999902    2    1    2    0    0 -0.10857861462E-01 -0.19757121579E-01  0.77866090253E-02  0.10200790401E+01  0.10198001666E+01 0.  0.
     999903    2    3    3    0    0 -0.10169926690E+00  0.76798587458E-01  0.17861396396E-01  0.13009214848E+00  0.19083335446E-01 0.  0.
         14    1    1    2    0    0  0.10857861462E-01  0.19757121579E-01 -0.77866090253E-02  0.23850959912E-01  0.00000000000E+00 0. -1.
     999901    1    3    3    0    0  0.90841405439E-01 -0.96555709037E-01 -0.10074787371E-01  0.88998689161E+00  0.88000000000E+00 0.  1.
        -11    1    4    4    0    0 -0.42824025842E-01  0.21539939592E-01  0.99314183032E-02  0.48956719431E-01  0.51100000000E-03 0.  1.
         11    1    4    4    0    0 -0.58875241059E-01  0.55258647866E-01  0.79299780927E-02  0.81135429051E-01  0.51100000000E-03 0. -1.
</event>
<event>
 8    1  0.1202249E+005  0.1043930E+01  0.7957747E-01            NaN
         13   -1    0    0    0    0  0.00000000000E+00  0.00000000000E+00  0.74505805969E-08  0.10566000000E+00  0.10566000000E+00 0.  1.
     999900   -1    0    0    0    0 -0.00000000000E+00 -0.00000000000E+00 -0.74505805969E-08  0.93827000000E+00  0.93827000000E+00 0. -1.
     999902    2    1    2    0    0 -0.12339930981E-01 -0.19020783048E-01  0.77433948022E-02  0.10199711969E+01  0.10196897657E+01 0.  0.
     999903    2    3    3    0    0  0.77382256392E-01  0.41867526759E-01 -0.90640966528E-01  0.12787426282E+00  0.19878100479E-01 0.  0.
         14    1    1    2    0    0  0.12339930981E-01  0.19020783048E-01 -0.77433948022E-02  0.23958803130E-01  0.00000000000E+00 0.  1.
     999901    1    3    3    0    0 -0.89722187373E-01 -0.60888309807E-01  0.98384361330E-01  0.89209693404E+00  0.88000000000E+00 0.  1.
        -11    1    4    4    0    0  0.17705448222E-01  0.13221498410E-02 -0.14003756298E-01  0.22618516494E-01  0.51100000000E-03 0.  1.
         11    1    4    4    0    0  0.59676808170E-01  0.40545376918E-01 -0.76637210230E-01  0.10525574633E+00  0.51100000000E-03 0. -1.
</event>
<event>
 8    1  0.1202249E+005  0.1043930E+01  0.7957747E-01            NaN
         13   -1    0    0    0    0  0.00000000000E+00  0.00000000000E+00  0.74505805969E-08  0.10566000000E+00  0.10566000000E+00 0.  1.
     999900   -1    0    0    0    0 -0.00000000000E+00 -0.00000000000E+00 -0.74505805969E-08  0.93827000000E+00  0.93827000000E+00 0. -1.
     999902    2    1    2    0    0 -0.17657050626E-01 -0.61100215016E-02 -0.13595473141E-01  0.10208228433E+01  0.10205612852E+01 0.  0.
     999903    2    3    3    0    0 -0.43945575612E-01 -0.21556878856E-01  0.11915270284E+00  0.13034444933E+00  0.19909702011E-01 0.  0.
         14    1    1    2    0    0  0.17657050626E-01  0.61100215016E-02  0.13595473141E-01  0.23107156672E-01  0.00000000000E+00 0.  1.
     999901    1    3    3    0    0  0.26288524987E-01  0.15446857354E-01 -0.13274817599E+00  0.89047839400E+00  0.88000000000E+00 0. -1.
        -11    1    4    4    0    0 -0.78837562899E-02  0.15572291939E-02  0.35024794635E-01  0.35938502142E-01  0.51100000000E-03 0.  1.
         11    1    4    4    0    0 -0.36061819323E-01 -0.23114108050E-01  0.84127908210E-01  0.94405947188E-01  0.51100000000E-03 0. -1.
</event>
<event>
 8    1  0.1202249E+005  0.1043930E+01  0.7957747E-01            NaN
         13   -1    0    0    0    0  0.00000000000E+00  0.00000000000E+00  0.74505805969E-08  0.10566000000E+00  0.10566000000E+00 0. -1.
     999900   -1    0    0    0    0 -0.00000000000E+00 -0.00000000000E+00 -0.74505805969E-08  0.93827000000E+00  0.93827000000E+00 0. -1.
     999902    2    1    2    0    0 -0.20416270309E-01  0.94811211305E-02  0.81403756757E-02  0.10199929687E+01  0.10197120548E+01 0.  0.
     999903    2    3    3    0    0  0.56093232797E-01  0.96188514591E-01  0.65164000284E-01  0.13059791030E+00  0.20267859702E-01 0.  0.
         14    1    1    2    0    0  0.20416270309E-01 -0.94811211305E-02 -0.81403756757E-02  0.23937031298E-01  0.00000000000E+00 0.  1.
     999901    1    3    3    0    0 -0.76509503107E-01 -0.86707393460E-01 -0.57023624608E-01  0.88939505840E+00  0.88000000000E+00 0. -1.
        -11    1    4    4    0    0  0.27091960191E-01  0.58523946151E-01  0.46583003866E-01  0.79556671312E-01  0.51100000000E-03 0.  1.
         11    1    4    4    0    0  0.29001272607E-01  0.37664568440E-01  0.18580996418E-01  0.51041238988E-01  0.51100000000E-03 0. -1.
</event>
<event>
 8    1  0.1202249E+005  0.1043930E+01  0.7957747E-01            NaN
         13   -1    0    0    0    0  0.00000000000E+00  0.00000000000E+00  0.74505805969E-08  0.10566000000E+00  0.10566000000E+00 0.  1.
     999900   -1    0    0    0    0 -0.00000000000E+00 -0.00000000000E+00 -0.74505805969E-08  0.93827000000E+00  0.93827000000E+00 0.  1.
     999902    2    1    2    0    0  0.95125794050E-02 -0.21279834494E-01  0.38201771155E-04  0.10206207318E+01  0.10203545248E+01 0.  0.
     999903    2    3    3    0    0  0.34693692065E-01 -0.31923718644E-01 -0.12150917074E+00  0.13184565091E+00  0.19900276629E-01 0.  0.
         14    1    1    2    0    0 -0.95125794050E-02  0.21279834494E-01 -0.38201771155E-04  0.23309268166E-01  0.00000000000E+00 0.  1.
     999901    1    3    3    0    0 -0.25181112660E-01  0.10643884149E-01  0.12154737251E+00  0.88877508092E+00  0.88000000000E+00 0. -1.
        -11    1    4    4    0    0  0.36862139795E-01 -0.26836819398E-01 -0.10708645685E+00  0.11639073240E+00  0.51100000000E-03 0. -1.
         11    1    4    4    0    0 -0.21684477303E-02 -0.50868992458E-02 -0.14422713883E-01  0.15454918513E-01  0.51100000000E-03 0.  1.
</event>
<event>
 8    1  0.1202249E+005  0.1043930E+01  0.7957747E-01            NaN
         13   -1    0    0    0    0  0.00000000000E+00  0.00000000000E+00  0.74505805969E-08  0.10566000000E+00  0.10566000000E+00 0.  1.
     999900   -1    0    0    0    0 -0.00000000000E+00 -0.00000000000E+00 -0.74505805969E-08  0.93827000000E+00  0.93827000000E+00 0.  1.
     999902    2    1    2    0    0 -0.16682442267E-01 -0.46438043635E-02  0.15730968328E-01  0.10205348688E+01  0.10202666741E+01 0.  0.
     999903    2    3    3    0    0  0.56859727382E-01  0.11445819628E+00  0.14263538871E-02  0.12935679498E+00  0.19935862899E-01 0.  0.
         14    1    1    2    0    0  0.16682442267E-01  0.46438043635E-02 -0.15730968328E-01  0.23395131192E-01  0.00000000000E+00 0. -1.
     999901    1    3    3    0    0 -0.73542169648E-01 -0.11910200064E+00  0.14304614441E-01  0.89117807383E+00  0.88000000000E+00 0.  1.
        -11    1    4    4    0    0  0.40225794180E-01  0.97267086496E-01  0.36946620656E-02  0.10532289533E+00  0.51100000000E-03 0.  1.
         11    1    4    4    0    0  0.16633933202E-01  0.17191109782E-01 -0.22683081785E-02  0.24033899648E-01  0.51100000000E-03 0. -1.
</event>
<event>
 8    1  0.1202249E+005  0.1043930E+01  0.7957747E-01            NaN
         13   -1    0    0    0    0  0.00000000000E+00  0.00000000000E+00  0.74505805969E-08  0.10566000000E+00  0.10566000000E+00 0.  1.
     999900   -1    0    0    0    0 -0.00000000000E+00 -0.00000000000E+00 -0.74505805969E-08  0.93827000000E+00  0.93827000000E+00 0.  1.
     999902    2    1    2    0    0  0.32036272981E-02 -0.14328850686E-01  0.18712692099E-01  0.10201446256E+01  0.10198673017E+01 0.  0.
     999903    2    3    3    0    0 -0.11375537458E+00  0.40502840987E-01 -0.40175270440E-01  0.12876720011E+00  0.19651312831E-01 0.  0.
         14    1    1    2    0    0 -0.32036272981E-02  0.14328850686E-01 -0.18712692099E-01  0.23785374402E-01  0.00000000000E+00 0. -1.
     999901    1    3    3    0    0  0.11695900188E+00 -0.54831691673E-01  0.58887962539E-01  0.89137742548E+00  0.88000000000E+00 0. -1.
        -11    1    4    4    0    0 -0.30012115542E-01  0.18364502719E-02 -0.87282592462E-02  0.31313627375E-01  0.51100000000E-03 0.  1.
         11    1    4    4    0    0 -0.83743259038E-01  0.38666390716E-01 -0.31447011193E-01  0.97453572738E-01  0.51100000000E-03 0. -1.
</event>
<event>
 8    1  0.1202249E+005  0.1043930E+01  0.7957747E-01            NaN
         13   -1    0    0    0    0  0.00000000000E+00  0.00000000000E+00  0.74505805969E-08  0.10566000000E+00  0.10566000000E+00 0.  1.
     999900   -1    0    0    0    0 -0.00000000000E+00 -0.00000000000E+00 -0.74505805969E-08  0.93827000000E+00  0.93827000000E+00 0. -1.
     999902    2    1    2    0    0 -0.23862740780E-01  0.69462011169E-03 -0.14416300071E-02  0.10200136627E+01  0.10197332400E+01 0.  0.
     999903    2    3    3    0    0 -0.92561264720E-01  0.34117143255E-01  0.86052750868E-01  0.13238095769E+00  0.19699615154E-01 0.  0.
         14    1    1    2    0    0  0.23862740780E-01 -0.69462011169E-03  0.14416300071E-02  0.23916337338E-01  0.00000000000E+00 0. -1.
     999901    1    3    3    0    0  0.68698523941E-01 -0.33422523143E-01 -0.87494380875E-01  0.88763270497E+00  0.88000000000E+00 0. -1.
        -11    1    4    4    0    0 -0.27388906006E-01  0.19072711121E-01  0.33783427231E-01  0.47492121011E-01  0.51100000000E-03 0.  1.
         11    1    4    4    0    0 -0.65172358714E-01  0.15044432134E-01  0.52269323637E-01  0.84888836682E-01  0.51100000000E-03 0. -1.
</event>
<event>
 8    1  0.1202249E+005  0.1043930E+01  0.7957747E-01            NaN
         13   -1    0    0    0    0  0.00000000000E+00  0.00000000000E+00  0.74505805969E-08  0.10566000000E+00  0.10566000000E+00 0. -1.
     999900   -1    0    0    0    0 -0.00000000000E+00 -0.00000000000E+00 -0.74505805969E-08  0.93827000000E+00  0.93827000000E+00 0.  1.
     999902    2    1    2    0    0 -0.20154806520E-01 -0.13188559567E-01 -0.93532356036E-03  0.10198254536E+01  0.10195405468E+01 0.  0.
     999903    2    3    3    0    0 -0.12097980660E+00  0.43399578399E-01 -0.22789677317E-01  0.13199353771E+00  0.19577732149E-01 0.  0.
         14    1    1    2    0    0  0.20154806520E-01  0.13188559567E-01  0.93532356036E-03  0.24104546449E-01  0.00000000000E+00 0.  1.
     999901    1    3    3    0    0  0.10082500008E+00 -0.56588137966E-01  0.21854353757E-01  0.88783191584E+00  0.88000000000E+00 0. -1.
        -11    1    4    4    0    0 -0.10616309650E+00  0.32455452004E-01 -0.15142931892E-01  0.11204253179E+00  0.51100000000E-03 0.  1.
         11    1    4    4    0    0 -0.14816710103E-01  0.10944126395E-01 -0.76467454248E-02  0.19951005925E-01  0.51100000000E-03 0. -1.
</event>
<event>
 8    1  0.1202249E+005  0.1043930E+01  0.7957747E-01            NaN
         13   -1    0    0    0    0  0.00000000000E+00  0.00000000000E+00  0.74505805969E-08  0.10566000000E+00  0.10566000000E+00 0.  1.
     999900   -1    0    0    0    0 -0.00000000000E+00 -0.00000000000E+00 -0.74505805969E-08  0.93827000000E+00  0.93827000000E+00 0.  1.
     999902    2    1    2    0    0 -0.65092679710E-02  0.95008030193E-02  0.10866989316E-01  0.10280956297E+01  0.10279736847E+01 0.  0.
     999903    2    3    3    0    0  0.64186592044E-01 -0.10790750963E+00 -0.47326203901E-01  0.13558845084E+00  0.19506644796E-01 0.  0.
         14    1    1    2    0    0  0.65092679710E-02 -0.95008030193E-02 -0.10866989316E-01  0.15834370348E-01  0.00000000000E+00 0.  1.
     999901    1    3    3    0    0 -0.70695860015E-01  0.11740831265E+00  0.58193193216E-01  0.89250717882E+00  0.88000000000E+00 0.  1.
        -11    1    4    4    0    0  0.23999961858E-02 -0.15013685279E-01 -0.28190923768E-02  0.15471881921E-01  0.51100000000E-03 0. -1.
         11    1    4    4    0    0  0.61786595858E-01 -0.92893824353E-01 -0.44507111524E-01  0.12011656891E+00  0.51100000000E-03 0.  1.
</event>
<event>
 8    1  0.1202249E+005  0.1043930E+01  0.7957747E-01            NaN
         13   -1    0    0    0    0  0.00000000000E+00  0.00000000000E+00  0.74505805969E-08  0.10566000000E+00  0.10566000000E+00 0.  1.
     999900   -1    0    0    0    0 -0.00000000000E+00 -0.00000000000E+00 -0.74505805969E-08  0.93827000000E+00  0.93827000000E+00 0.  1.
     999902    2    1    2    0    0  0.20876341854E-01 -0.10437941898E-01 -0.75469866553E-02  0.10193998290E+01  0.10191046473E+01 0.  0.
     999903    2    3    3    0    0 -0.45570799698E-01 -0.12030205296E+00 -0.12096418127E-02  0.13005990107E+00  0.19100599515E-01 0.  0.
         14    1    1    2    0    0 -0.20876341854E-01  0.10437941898E-01  0.75469866553E-02  0.24530170970E-01  0.00000000000E+00 0.  1.
     999901    1    3    3    0    0  0.66447141552E-01  0.10986411106E+00 -0.63373448426E-02  0.88933992796E+00  0.88000000000E+00 0.  1.
        -11    1    4    4    0    0 -0.32494828286E-01 -0.59143856059E-01  0.70010708779E-03  0.67488227460E-01  0.51100000000E-03 0.  1.
         11    1    4    4    0    0 -0.13075971413E-01 -0.61158196902E-01 -0.19097489005E-02  0.62571673612E-01  0.51100000000E-03 0. -1.
</event>
<event>
 8    1  0.1202249E+005  0.1043930E+01  0.7957747E-01            NaN
         13   -1    0    0    0    0  0.00000000000E+00  0.00000000000E+00  0.74505805969E-08  0.10566000000E+00  0.10566000000E+00 0.  1.
     999900   -1    0    0    0    0 -0.00000000000E+00 -0.00000000000E+00 -0.74505805969E-08  0.93827000000E+00  0.93827000000E+00 0.  1.
     999902    2    1    2    0    0  0.18809035693E-01  0.27751253482E-02  0.11350518421E-01  0.10217869331E+01  0.10215469745E+01 0.  0.
     999903    2    3    3    0    0 -0.34749383125E-01  0.65540508439E-01 -0.10539371533E+00  0.13025049879E+00  0.18822309392E-01 0.  0.
         14    1    1    2    0    0 -0.18809035693E-01 -0.27751253482E-02 -0.11350518421E-01  0.22143066925E-01  0.00000000000E+00 0. -1.
     999901    1    3    3    0    0  0.53558418818E-01 -0.62765383091E-01  0.11674423375E+00  0.89153643428E+00  0.88000000000E+00 0. -1.
        -11    1    4    4    0    0 -0.13751047121E-01  0.42584700793E-01 -0.70436857431E-01  0.83451543091E-01  0.51100000000E-03 0.  1.
         11    1    4    4    0    0 -0.20998336005E-01  0.22955807646E-01 -0.34956857898E-01  0.46798955701E-01  0.51100000000E-03 0. -1.
</event>
<event>
 8    1  0.1202249E+005  0.1043930E+01  0.7957747E-01            NaN
         13   -1    0    0    0    0  0.00000000000E+00  0.00000000000E+00  0.74505805969E-08  0.10566000000E+00  0.10566000000E+00 0. -1.
     999900   -1    0    0    0    0 -0.00000000000E+00 -0.00000000000E+00 -0.74505805969E-08  0.93827000000E+00  0.93827000000E+00 0. -1.
     999902    2    1    2    0    0 -0.22361317149E-01 -0.43414654217E-02 -0.13054242141E-01  0.10176756658E+01  0.10173369504E+01 0.  0.
     999903    2    3    3    0    0 -0.88481981492E-01  0.59102103979E-01  0.69872179552E-01  0.12903973350E+00  0.21142648904E-01 0.  0.
         14    1    1    2    0    0  0.22361317149E-01  0.43414654217E-02  0.13054242141E-01  0.26254334205E-01  0.00000000000E+00 0. -1.
     999901    1    3    3    0    0  0.66120664342E-01 -0.63443569401E-01 -0.82926421694E-01  0.88863593230E+00  0.88000000000E+00 0. -1.
        -11    1    4    4    0    0 -0.39235841721E-01  0.37363590326E-01  0.41046941316E-01  0.67975007687E-01  0.51100000000E-03 0. -1.
         11    1    4    4    0    0 -0.49246139771E-01  0.21738513653E-01  0.28825238236E-01  0.61064725813E-01  0.51100000000E-03 0.  1.
</event>
<event>
 8    1  0.1202249E+005  0.1043930E+01  0.7957747E-01            NaN
         13   -1    0    0    0    0  0.00000000000E+00  0.00000000000E+00  0.74505805969E-08  0.10566000000E+00  0.10566000000E+00 0. -1.
     999900   -1    0    0    0    0 -0.00000000000E+00 -0.00000000000E+00 -0.74505805969E-08  0.93827000000E+00  0.93827000000E+00 0.  1.
     999902    2    1    2    0    0  0.10425943388E-01 -0.81223293677E-02 -0.20031842711E-01  0.10199310989E+01  0.10196487137E+01 0.  0.
     999903    2    3    3    0    0  0.12733876838E+00  0.25048100022E-01 -0.87807310099E-02  0.13150807270E+00  0.19357238953E-01 0.  0.
         14    1    1    2    0    0 -0.10425943388E-01  0.81223293677E-02  0.20031842711E-01  0.23998901064E-01  0.00000000000E+00 0.  1.
     999901    1    3    3    0    0 -0.11691282499E+00 -0.33170429390E-01 -0.11251111701E-01  0.88842302624E+00  0.88000000000E+00 0.  1.
        -11    1    4    4    0    0  0.77878059467E-01  0.17204108959E-01  0.38779859134E-02  0.79851571100E-01  0.51100000000E-03 0.  1.
         11    1    4    4    0    0  0.49460708916E-01  0.78439910632E-02 -0.12658716923E-01  0.51656501598E-01  0.51100000000E-03 0. -1.
</event>
<event>
 8    1  0.1202249E+005  0.1043930E+01  0.7957747E-01            NaN
         13   -1    0    0    0    0  0.00000000000E+00  0.00000000000E+00  0.74505805969E-08  0.10566000000E+00  0.10566000000E+00 0. -1.
     999900   -1    0    0    0    0 -0.00000000000E+00 -0.00000000000E+00 -0.74505805969E-08  0.93827000000E+00  0.93827000000E+00 0.  1.
     999902    2    1    2    0    0  0.41913942709E-02 -0.13284309042E-01  0.19944683790E-01  0.10196024217E+01  0.10193121540E+01 0.  0.
     999903    2    3    3    0    0 -0.11359707032E+00 -0.24224999803E-01 -0.51857613155E-01  0.12878852930E+00  0.20152623593E-01 0.  0.
         14    1    1    2    0    0 -0.41913942709E-02  0.13284309042E-01 -0.19944683790E-01  0.24327578263E-01  0.00000000000E+00 0. -1.
     999901    1    3    3    0    0  0.11778846459E+00  0.10940690761E-01  0.71802296946E-01  0.89081389243E+00  0.88000000000E+00 0. -1.
        -11    1    4    4    0    0 -0.14843076592E-01 -0.10476773833E-01 -0.83656766541E-02  0.20008132835E-01  0.51100000000E-03 0. -1.
         11    1    4    4    0    0 -0.98753993727E-01 -0.13748225970E-01 -0.43491936501E-01  0.10878039647E+00  0.51100000000E-03 0.  1.
</event>
<event>
 8    1  0.1202249E+005  0.1043930E+01  0.7957747E-01            NaN
         13   -1    0    0    0    0  0.00000000000E+00  0.00000000000E+00  0.74505805969E-08  0.10566000000E+00  0.10566000000E+00 0.  1.
     999900   -1    0    0    0    0 -0.00000000000E+00 -0.00000000000E+00 -0.74505805969E-08  0.93827000000E+00  0.93827000000E+00 0.  1.
     999902    2    1    2    0    0 -0.17130459063E-01 -0.26164054954E-02 -0.15411982239E-01  0.10207388939E+01  0.10204754099E+01 0.  0.
     999903    2    3    3    0    0 -0.19701595338E-01 -0.12061978304E+00  0.42632480977E-01  0.13096332244E+00  0.19914278087E-01 0.  0.
         14    1    1    2    0    0  0.17130459063E-01  0.26164054954E-02  0.15411982239E-01  0.23191106097E-01  0.00000000000E+00 0. -1.
     999901    1    3    3    0    0  0.25711362747E-02  0.11800337755E+00 -0.58044463216E-01  0.88977557146E+00  0.88000000000E+00 0.  1.
        -11    1    4    4    0    0  0.71865119414E-03 -0.32620315767E-01  0.18262324526E-01  0.37394853635E-01  0.51100000000E-03 0.  1.
         11    1    4    4    0    0 -0.20420246532E-01 -0.87999467274E-01  0.24370156451E-01  0.93568468810E-01  0.51100000000E-03 0. -1.
</event>
<event>
 8    1  0.1202249E+005  0.1043930E+01  0.7957747E-01            NaN
         13   -1    0    0    0    0  0.00000000000E+00  0.00000000000E+00  0.74505805969E-08  0.10566000000E+00  0.10566000000E+00 0. -1.
     999900   -1    0    0    0    0 -0.00000000000E+00 -0.00000000000E+00 -0.74505805969E-08  0.93827000000E+00  0.93827000000E+00 0.  1.
     999902    2    1    2    0    0 -0.82074331434E-02 -0.22517640057E-02  0.21128879142E-01  0.10211514589E+01  0.10208973700E+01 0.  0.
     999903    2    3    3    0    0  0.63504283769E-01  0.46700876673E-03  0.11541489876E+00  0.13321012327E+00  0.19781959723E-01 0.  0.
         14    1    1    2    0    0  0.82074331434E-02  0.22517640057E-02 -0.21128879142E-01  0.22778541080E-01  0.00000000000E+00 0.  1.
     999901    1    3    3    0    0 -0.71711716912E-01 -0.27187727725E-02 -0.94286019618E-01  0.88794133565E+00  0.88000000000E+00 0.  1.
        -11    1    4    4    0    0  0.53112459681E-01 -0.33317818947E-02  0.10625205771E+00  0.11883515907E+00  0.51100000000E-03 0.  1.
         11    1    4    4    0    0  0.10391824088E-01  0.37987906614E-02  0.91628410517E-02  0.14374964191E-01  0.51100000000E-03 0. -1.
</event>
